<event>
12    1  0.3147868E-008  0.3794138E+03  0.7818608E-02  0.1051151E+00
         -2   -1    0    0    0  501 -0.00000000000E+00  0.00000000000E+00  0.14477995857E+03  0.14477995857E+03  0.00000000000E+00 0.  1.
          2   -1    0    0  501    0  0.00000000000E+00 -0.00000000000E+00 -0.12199053499E+04  0.12199053499E+04  0.00000000000E+00 0. -1.
         23    2    1    2    0    0  0.15449683992E+03  0.14872120147E+02 -0.44723300564E+03  0.48232380470E+03  0.92349541140E+02 0.  0.
    5000000    2    1    2    0    0 -0.15449683992E+03 -0.14872120147E+02 -0.62789238566E+03  0.88236150373E+03  0.60018540618E+03 0.  0.
         23    2    4    4    0    0 -0.35935155447E+03  0.16191798195E+02 -0.27085747523E+03  0.45928414094E+03  0.90456819521E+02 0.  0.
         23    2    4    4    0    0  0.20485471455E+03 -0.31063918342E+02 -0.35703491043E+03  0.42307736279E+03  0.92682827664E+02 0.  0.
          5    1    3    3  502    0  0.87798492798E+01 -0.26300101577E+02 -0.90115124758E+02  0.94401307229E+02  0.47000000000E+01 0. -1.
         -5    1    3    3    0  502  0.14571699064E+03  0.41172221724E+02 -0.35711788088E+03  0.38792249747E+03  0.47000000000E+01 0.  1.
         13    1    5    5    0    0 -0.71014383799E+02 -0.87693019374E+01 -0.15265263095E+02  0.73164004949E+02  0.00000000000E+00 0. -1.
        -13    1    5    5    0    0 -0.28833717067E+03  0.24961100133E+02 -0.25559221213E+03  0.38612013599E+03  0.00000000000E+00 0.  1.
          3    1    6    6  503    0  0.13323082721E+03  0.13455301555E+02 -0.15927329750E+03  0.20808527519E+03  0.00000000000E+00 0. -1.
         -3    1    6    6    0  503  0.71623887349E+02 -0.44519219897E+02 -0.19776161293E+03  0.21499208760E+03  0.00000000000E+00 0.  1.
<mgrwt>
<rscale>  0 0.37941375E+03</rscale>
<asrwt>0</asrwt>
<pdfrwt beam="1">  1        2 0.18767775E+00 0.37941375E+03</pdfrwt>
<pdfrwt beam="2">  1       -2 0.22273839E-01 0.37941375E+03</pdfrwt>
<totfact> 0.33728546E+02</totfact>
</mgrwt>
</event>
<event>
12    1  0.3147868E-008  0.1055900E+04  0.7818608E-02  0.9249274E-01
          2   -1    0    0  501    0  0.00000000000E+00  0.00000000000E+00  0.22804324203E+04  0.22804324203E+04  0.00000000000E+00 0. -1.
         -2   -1    0    0    0  501 -0.00000000000E+00 -0.00000000000E+00 -0.17229773590E+04  0.17229773590E+04  0.00000000000E+00 0.  1.
         23    2    1    2    0    0 -0.79764355669E+03 -0.60190242350E+03 -0.14014945979E+04  0.17239498934E+04  0.96407240657E+02 0.  0.
    5000000    2    1    2    0    0  0.79764355669E+03  0.60190242350E+03  0.19589496592E+04  0.22794598859E+04  0.59994319136E+03 0.  0.
         23    2    4    4    0    0  0.80767167887E+03  0.39417972351E+03  0.17586764443E+04  0.19768475867E+04  0.85278075825E+02 0.  0.
         23    2    4    4    0    0 -0.10028122171E+02  0.20772269999E+03  0.20027321494E+03  0.30261229912E+03  0.90639724336E+02 0.  0.
          5    1    3    3  502    0 -0.78015762207E+03 -0.59721424819E+03 -0.13893326100E+04  0.17016397870E+04  0.47000000000E+01 0. -1.
         -5    1    3    3    0  502 -0.17485934620E+02 -0.46881753115E+01 -0.12161987890E+02  0.22310106381E+02  0.47000000000E+01 0.  1.
         13    1    5    5    0    0  0.41182996174E+03  0.24565311905E+03  0.96553878999E+03  0.10780605397E+04  0.00000000000E+00 0. -1.
        -13    1    5    5    0    0  0.39584171713E+03  0.14852660446E+03  0.79313765430E+03  0.89878704704E+03  0.00000000000E+00 0.  1.
          2    1    6    6  503    0 -0.57703203920E+01  0.18786909573E+03  0.20849104735E+03  0.28070733968E+03  0.00000000000E+00 0. -1.
         -2    1    6    6    0  503 -0.42578017791E+01  0.19853604261E+02 -0.82178324099E+01  0.21904959431E+02  0.00000000000E+00 0.  1.
<mgrwt>
<rscale>  0 0.10558998E+04</rscale>
<asrwt>0</asrwt>
<pdfrwt beam="1">  1        2 0.35083576E+00 0.10558998E+04</pdfrwt>
<pdfrwt beam="2">  1       -2 0.26507344E+00 0.10558998E+04</pdfrwt>
<totfact> 0.24142541E-01</totfact>
</mgrwt>
</event>
<event>
12    1  0.3147868E-008  0.8177942E+03  0.7818608E-02  0.9534612E-01
         -2   -1    0    0    0  501 -0.00000000000E+00  0.00000000000E+00  0.13914805592E+04  0.13914805592E+04  0.00000000000E+00 0.  1.
          2   -1    0    0  501    0  0.00000000000E+00 -0.00000000000E+00 -0.98999277752E+03  0.98999277752E+03  0.00000000000E+00 0. -1.
         23    2    1    2    0    0  0.71221033283E+03  0.85459105603E+02 -0.65128343332E+03  0.97332454030E+03  0.92971680203E+02 0.  0.
    5000000    2    1    2    0    0 -0.71221033283E+03 -0.85459105603E+02  0.10527712150E+04  0.14081487964E+04  0.60000748730E+03 0.  0.
         23    2    4    4    0    0 -0.49467453529E+03  0.21427687224E+03  0.54288962698E+03  0.77052869827E+03  0.91475974555E+02 0.  0.
         23    2    4    4    0    0 -0.21753579753E+03 -0.29973597785E+03  0.50988158803E+03  0.63762009817E+03  0.97039559699E+02 0.  0.
          5    1    3    3  502    0  0.16891584842E+03  0.59809464340E+02 -0.15306583528E+03  0.23571375819E+03  0.47000000000E+01 0. -1.
         -5    1    3    3    0  502  0.54329448441E+03  0.25649641264E+02 -0.49821759804E+03  0.73761078211E+03  0.47000000000E+01 0.  1.
         13    1    5    5    0    0 -0.12799253729E+03  0.53106227684E+02  0.86731796540E+02  0.16347711018E+03  0.00000000000E+00 0. -1.
        -13    1    5    5    0    0 -0.36668199800E+03  0.16117064456E+03  0.45615783044E+03  0.60705158809E+03  0.00000000000E+00 0.  1.
          3    1    6    6  503    0 -0.54317868078E+02 -0.11240982817E+03  0.10769357106E+03  0.16487663724E+03  0.00000000000E+00 0. -1.
         -3    1    6    6    0  503 -0.16321792946E+03 -0.18732614968E+03  0.40218801697E+03  0.47274346092E+03  0.00000000000E+00 0.  1.
<mgrwt>
<rscale>  0 0.81779418E+03</rscale>
<asrwt>0</asrwt>
<pdfrwt beam="1">  1        2 0.15230658E+00 0.81779418E+03</pdfrwt>
<pdfrwt beam="2">  1       -2 0.21407393E+00 0.81779418E+03</pdfrwt>
<totfact> 0.28011750E+00</totfact>
</mgrwt>
</event>
<event>
12    1  0.3147868E-008  0.3708660E+03  0.7818608E-02  0.1054362E+00
          1   -1    0    0  501    0  0.00000000000E+00  0.00000000000E+00  0.21991090006E+04  0.21991090006E+04  0.00000000000E+00 0. -1.
         -1   -1    0    0    0  501 -0.00000000000E+00 -0.00000000000E+00 -0.74020640575E+02  0.74020640575E+02  0.00000000000E+00 0.  1.
         23    2    1    2    0    0  0.53155545996E+02  0.11311463068E+03  0.78486032415E+03  0.79941461567E+03  0.86241333354E+02 0.  0.
    5000000    2    1    2    0    0 -0.53155545996E+02 -0.11311463068E+03  0.13402280359E+04  0.14737150255E+04  0.60000363041E+03 0.  0.
         23    2    4    4    0    0  0.23271152789E+03 -0.17258686142E+03  0.61224839510E+03  0.68400556102E+03  0.95260853799E+02 0.  0.
         23    2    4    4    0    0 -0.28586707388E+03  0.59472230736E+02  0.72797964078E+03  0.78970946448E+03  0.91813674048E+02 0.  0.
          5    1    3    3  502    0  0.45935954005E+02  0.13954612610E+02  0.35001390825E+03  0.35332233025E+03  0.47000000000E+01 0. -1.
         -5    1    3    3    0  502  0.72195919914E+01  0.99160018074E+02  0.43484641591E+03  0.44609228543E+03  0.47000000000E+01 0.  1.
         11    1    5    5    0    0  0.54714799420E+02 -0.90923242436E+02  0.26293837240E+03  0.28354423459E+03  0.00000000000E+00 0. -1.
        -11    1    5    5    0    0  0.17799672847E+03 -0.81663618985E+02  0.34931002270E+03  0.40046132643E+03  0.00000000000E+00 0.  1.
          2    1    6    6  503    0 -0.18960426207E+03  0.37812040637E+02  0.35883300248E+03  0.40760354547E+03  0.00000000000E+00 0. -1.
         -2    1    6    6    0  503 -0.96262811808E+02  0.21660190100E+02  0.36914663830E+03  0.38210591901E+03  0.00000000000E+00 0.  1.
<mgrwt>
<rscale>  0 0.37086603E+03</rscale>
<asrwt>0</asrwt>
<pdfrwt beam="1">  1        1 0.33832441E+00 0.37086603E+03</pdfrwt>
<pdfrwt beam="2">  1       -1 0.11387793E-01 0.37086603E+03</pdfrwt>
<totfact> 0.12201380E+02</totfact>
</mgrwt>
</event>
<event>
12    1  0.3147868E-008  0.4131649E+03  0.7818608E-02  0.1039314E+00
         -2   -1    0    0    0  501 -0.00000000000E+00  0.00000000000E+00  0.33142166757E+03  0.33142166757E+03  0.00000000000E+00 0. -1.
          2   -1    0    0  501    0  0.00000000000E+00 -0.00000000000E+00 -0.74290422275E+03  0.74290422275E+03  0.00000000000E+00 0.  1.
         23    2    1    2    0    0  0.23731172418E+03 -0.13145873887E+03  0.20543387861E+02  0.28673549452E+03  0.90537056341E+02 0.  0.
    5000000    2    1    2    0    0 -0.23731172418E+03  0.13145873887E+03 -0.43202594304E+03  0.78759039580E+03  0.60004496634E+03 0.  0.
         23    2    4    4    0    0 -0.33839865360E+03  0.20377732202E+03 -0.47471531883E+03  0.62428311543E+03  0.91301306416E+02 0.  0.
         23    2    4    4    0    0  0.10108692941E+03 -0.72318583150E+02  0.42689375789E+02  0.16330728037E+03  0.96945037252E+02 0.  0.
          5    1    3    3  502    0  0.16524252668E+03 -0.75483301478E+02 -0.27016110218E+02  0.18372474422E+03  0.47000000000E+01 0.  1.
         -5    1    3    3    0  502  0.72069197498E+02 -0.55975437394E+02  0.47559498078E+02  0.10301075030E+03  0.47000000000E+01 0. -1.
         13    1    5    5    0    0 -0.30448821107E+03  0.17525394886E+03 -0.36820149493E+03  0.50891979538E+03  0.00000000000E+00 0.  1.
        -13    1    5    5    0    0 -0.33910442530E+02  0.28523373167E+02 -0.10651382391E+03  0.11536332005E+03  0.00000000000E+00 0. -1.
          3    1    6    6  503    0  0.35105495220E+01 -0.59010493235E+02  0.17667282585E+02  0.61698420917E+02  0.00000000000E+00 0. -1.
         -3    1    6    6    0  503  0.97576379892E+02 -0.13308089915E+02  0.25022093204E+02  0.10160885945E+03  0.00000000000E+00 0.  1.
<mgrwt>
<rscale>  0 0.41316495E+03</rscale>
<asrwt>0</asrwt>
<pdfrwt beam="1">  1        2 0.11429296E+00 0.41316495E+03</pdfrwt>
<pdfrwt beam="2">  1       -2 0.50987950E-01 0.41316495E+03</pdfrwt>
<totfact> 0.14307730E+02</totfact>
</mgrwt>
</event>
<event>
12    1  0.3147868E-008  0.7428950E+03  0.7818608E-02  0.9646563E-01
         -2   -1    0    0    0  501 -0.00000000000E+00  0.00000000000E+00  0.31467228979E+03  0.31467228979E+03  0.00000000000E+00 0.  1.
          2   -1    0    0  501    0  0.00000000000E+00 -0.00000000000E+00 -0.18050102140E+04  0.18050102140E+04  0.00000000000E+00 0. -1.
         23    2    1    2    0    0  0.47724321223E+03  0.41162768120E+03 -0.60054311552E+03  0.87526109422E+03  0.90727712989E+02 0.  0.
    5000000    2    1    2    0    0 -0.47724321223E+03 -0.41162768120E+03 -0.88979480867E+03  0.12444214096E+04  0.59970943919E+03 0.  0.
         23    2    4    4    0    0 -0.17739929551E+03  0.12866546073E+03 -0.17132981828E+03  0.29233642265E+03  0.89896421186E+02 0.  0.
         23    2    4    4    0    0 -0.29984391672E+03 -0.54029314194E+03 -0.71846499039E+03  0.95208498691E+03  0.91928375662E+02 0.  0.
          5    1    3    3  502    0  0.23336205143E+03  0.14474507231E+03 -0.27692868663E+03  0.39002637153E+03  0.47000000000E+01 0. -1.
         -5    1    3    3    0  502  0.24388116079E+03  0.26688260890E+03 -0.32361442889E+03  0.48523472269E+03  0.47000000000E+01 0.  1.
         13    1    5    5    0    0 -0.13478664032E+03  0.12291776593E+03 -0.16994729877E+03  0.24931566326E+03  0.00000000000E+00 0. -1.
        -13    1    5    5    0    0 -0.42612655187E+02  0.57476948002E+01 -0.13825195120E+01  0.43020759382E+02  0.00000000000E+00 0.  1.
          4    1    6    6  503    0 -0.17288974351E+03 -0.39525497007E+03 -0.51486445482E+03  0.67171628059E+03  0.00000000000E+00 0. -1.
         -4    1    6    6    0  503 -0.12695417321E+03 -0.14503817187E+03 -0.20360053558E+03  0.28036870632E+03  0.00000000000E+00 0.  1.
<mgrwt>
<rscale>  0 0.74289500E+03</rscale>
<asrwt>0</asrwt>
<pdfrwt beam="1">  1        2 0.27769388E+00 0.74289500E+03</pdfrwt>
<pdfrwt beam="2">  1       -2 0.48411121E-01 0.74289500E+03</pdfrwt>
<totfact> 0.35654162E+01</totfact>
</mgrwt>
</event>
<event>
12    1  0.3147868E-008  0.3829837E+03  0.7818608E-02  0.1049836E+00
          2   -1    0    0  501    0  0.00000000000E+00  0.00000000000E+00  0.52258688078E+03  0.52258688078E+03  0.00000000000E+00 0. -1.
         -2   -1    0    0    0  501 -0.00000000000E+00 -0.00000000000E+00 -0.30576435520E+03  0.30576435520E+03  0.00000000000E+00 0.  1.
         23    2    1    2    0    0  0.15070600264E+03  0.58972402213E+02  0.34108077940E+02  0.18065184839E+03  0.72675208233E+02 0.  0.
    5000000    2    1    2    0    0 -0.15070600264E+03 -0.58972402213E+02  0.18271444764E+03  0.64769938759E+03  0.59994990112E+03 0.  0.
         23    2    4    4    0    0 -0.16925361751E+03 -0.29213237416E+03  0.18771999541E+03  0.39626347738E+03  0.88305355196E+02 0.  0.
         23    2    4    4    0    0  0.18547614872E+02  0.23315997195E+03 -0.50055477647E+01  0.25143591021E+03  0.92126949892E+02 0.  0.
          5    1    3    3  502    0  0.98068520312E+02  0.12262212957E+01  0.97492588062E+01  0.98671557919E+02  0.47000000000E+01 0. -1.
         -5    1    3    3    0  502  0.52637482331E+02  0.57746180918E+02  0.24358819133E+02  0.81980290475E+02  0.47000000000E+01 0.  1.
         13    1    5    5    0    0 -0.16233927730E+03 -0.27054884624E+03  0.14358970434E+03  0.34665360571E+03  0.00000000000E+00 0.  1.
        -13    1    5    5    0    0 -0.69143402099E+01 -0.21583527923E+02  0.44130291064E+02  0.49609871674E+02  0.00000000000E+00 0. -1.
          1    1    6    6  503    0  0.55318445030E+02  0.11579800198E+03 -0.54310706862E+01  0.12844767087E+03  0.00000000000E+00 0. -1.
         -1    1    6    6    0  503 -0.36770830158E+02  0.11736196997E+03  0.42552292144E+00  0.12298823934E+03  0.00000000000E+00 0.  1.
<mgrwt>
<rscale>  0 0.38298372E+03</rscale>
<asrwt>0</asrwt>
<pdfrwt beam="1">  1        2 0.80397981E-01 0.38298372E+03</pdfrwt>
<pdfrwt beam="2">  1       -2 0.47040670E-01 0.38298372E+03</pdfrwt>
<totfact> 0.25700735E+02</totfact>
</mgrwt>
</event>
<event>
12    1  0.3147868E-008  0.1471189E+04  0.7818608E-02  0.8903841E-01
          2   -1    0    0  501    0  0.00000000000E+00  0.00000000000E+00  0.12312350346E+04  0.12312350346E+04  0.00000000000E+00 0.  1.
         -2   -1    0    0    0  501 -0.00000000000E+00 -0.00000000000E+00 -0.19455523549E+04  0.19455523549E+04  0.00000000000E+00 0. -1.
         23    2    1    2    0    0 -0.10867023352E+04 -0.97213536850E+03 -0.39124647506E+02  0.14615744802E+04  0.93274236171E+02 0.  0.
    5000000    2    1    2    0    0  0.10867023352E+04  0.97213536850E+03 -0.67519267274E+03  0.17152129093E+04  0.60008419321E+03 0.  0.
         23    2    4    4    0    0  0.35322837093E+03  0.43587048006E+03 -0.55464967554E+03  0.79411566585E+03  0.90719737433E+02 0.  0.
         23    2    4    4    0    0  0.73347396426E+03  0.53626488844E+03 -0.12054299721E+03  0.92109724346E+03  0.91243799304E+02 0.  0.
          5    1    3    3  502    0 -0.98327319231E+03 -0.91291734643E+03 -0.33120544478E+02  0.13421487669E+04  0.47000000000E+01 0.  1.
         -5    1    3    3    0  502 -0.10342914288E+03 -0.59218022066E+02 -0.60041030280E+01  0.11942571326E+03  0.47000000000E+01 0. -1.
         13    1    5    5    0    0  0.26944659843E+03  0.26486805539E+03 -0.37426407178E+03  0.53181778044E+03  0.00000000000E+00 0.  1.
        -13    1    5    5    0    0  0.83781772500E+02  0.17100242467E+03 -0.18038560376E+03  0.26229788541E+03  0.00000000000E+00 0. -1.
          2    1    6    6  503    0  0.22741492121E+03  0.11598421342E+03 -0.38757352861E+02  0.25820924955E+03  0.00000000000E+00 0. -1.
         -2    1    6    6    0  503  0.50605904304E+03  0.42028067502E+03 -0.81785644344E+02  0.66288799391E+03  0.00000000000E+00 0.  1.
<mgrwt>
<rscale>  0 0.14711886E+04</rscale>
<asrwt>0</asrwt>
<pdfrwt beam="1">  1        2 0.18942078E+00 0.14711886E+04</pdfrwt>
<pdfrwt beam="2">  1       -2 0.29931575E+00 0.14711886E+04</pdfrwt>
<totfact> 0.55138500E-01</totfact>
</mgrwt>
</event>
<event>
12    1  0.3147868E-008  0.1342492E+04  0.7818608E-02  0.8996531E-01
         -2   -1    0    0    0  501 -0.00000000000E+00  0.00000000000E+00  0.90901923231E+03  0.90901923231E+03  0.00000000000E+00 0.  1.
          2   -1    0    0  501    0  0.00000000000E+00 -0.00000000000E+00 -0.26573480791E+04  0.26573480791E+04  0.00000000000E+00 0. -1.
         23    2    1    2    0    0  0.12250292161E+04 -0.43066802975E+03 -0.16914576835E+04  0.21348105895E+04  0.10107238049E+03 0.  0.
    5000000    2    1    2    0    0 -0.12250292161E+04  0.43066802975E+03 -0.56871163289E+02  0.14315567218E+04  0.59995732061E+03 0.  0.
         23    2    4    4    0    0 -0.10462649844E+04  0.16487344876E+03 -0.17686292323E+03  0.10775358312E+04  0.89158859255E+02 0.  0.
         23    2    4    4    0    0 -0.17876423167E+03  0.26579458098E+03  0.11999175994E+03  0.35402089065E+03  0.91265320690E+02 0.  0.
          5    1    3    3  502    0  0.86279865745E+03 -0.34558978830E+03 -0.11717662756E+04  0.14956310105E+04  0.47000000000E+01 0. -1.
         -5    1    3    3    0  502  0.36223055863E+03 -0.85078241443E+02 -0.51969140787E+03  0.63917957898E+03  0.47000000000E+01 0.  1.
         11    1    5    5    0    0 -0.54313223494E+03  0.12912526178E+03 -0.10458798077E+03  0.56798292544E+03  0.00000000000E+00 0. -1.
        -11    1    5    5    0    0 -0.50313274947E+03  0.35748186977E+02 -0.72274942454E+02  0.50955290576E+03  0.00000000000E+00 0.  1.
          1    1    6    6  503    0 -0.27234683054E+02  0.51947277537E+02 -0.13061800488E+02  0.60090417178E+02  0.00000000000E+00 0. -1.
         -1    1    6    6    0  503 -0.15152954862E+03  0.21384730345E+03  0.13305356043E+03  0.29393047348E+03  0.00000000000E+00 0.  1.
<mgrwt>
<rscale>  0 0.13424916E+04</rscale>
<asrwt>0</asrwt>
<pdfrwt beam="1">  1        2 0.40882278E+00 0.13424916E+04</pdfrwt>
<pdfrwt beam="2">  1       -2 0.13984911E+00 0.13424916E+04</pdfrwt>
<totfact> 0.97694593E-01</totfact>
</mgrwt>
</event>
<event>
12    1  0.3147868E-008  0.1771195E+04  0.7818608E-02  0.8721769E-01
         -2   -1    0    0    0  501 -0.00000000000E+00  0.00000000000E+00  0.27313988406E+04  0.27313988406E+04  0.00000000000E+00 0. -1.
          2   -1    0    0  501    0  0.00000000000E+00 -0.00000000000E+00 -0.12166460393E+04  0.12166460393E+04  0.00000000000E+00 0.  1.
         23    2    1    2    0    0  0.13448320320E+04  0.11064169514E+04  0.38034339013E+03  0.17848712907E+04  0.91502815621E+02 0.  0.
    5000000    2    1    2    0    0 -0.13448320320E+04 -0.11064169514E+04  0.11344094112E+04  0.21631735892E+04  0.59975294928E+03 0.  0.
         23    2    4    4    0    0 -0.15906316468E+03 -0.36381313181E+03  0.95944968620E+02  0.41829129865E+03  0.90006045854E+02 0.  0.
         23    2    4    4    0    0 -0.11857688673E+04 -0.74260381958E+03  0.10384644425E+04  0.17448822905E+04  0.93260762439E+02 0.  0.
          5    1    3    3  502    0  0.23122373682E+03  0.14862294990E+03  0.52396543935E+02  0.27985833117E+03  0.47000000000E+01 0. -1.
         -5    1    3    3    0  502  0.11136082952E+04  0.95779400148E+03  0.32794684619E+03  0.15050129595E+04  0.47000000000E+01 0.  1.
         13    1    5    5    0    0 -0.12731851008E+02 -0.39462000660E+02 -0.17218713767E+02  0.44898035926E+02  0.00000000000E+00 0.  1.
        -13    1    5    5    0    0 -0.14633131367E+03 -0.32435113115E+03  0.11316368239E+03  0.37339326272E+03  0.00000000000E+00 0. -1.
          2    1    6    6  503    0 -0.80688429451E+03 -0.54816002581E+03  0.69421182934E+03  0.11972768028E+04  0.00000000000E+00 0. -1.
         -2    1    6    6    0  503 -0.37888457278E+03 -0.19444379377E+03  0.34425261320E+03  0.54760548767E+03  0.00000000000E+00 0.  1.
<mgrwt>
<rscale>  0 0.17711955E+04</rscale>
<asrwt>0</asrwt>
<pdfrwt beam="1">  1        2 0.18717632E+00 0.17711955E+04</pdfrwt>
<pdfrwt beam="2">  1       -2 0.42021520E+00 0.17711955E+04</pdfrwt>
<totfact> 0.92898651E-02</totfact>
</mgrwt>
</event>
<event>
12    1  0.3147868E-008  0.9498823E+03  0.7818608E-02  0.9365288E-01
          2   -1    0    0  501    0  0.00000000000E+00  0.00000000000E+00  0.10144575586E+04  0.10144575586E+04  0.00000000000E+00 0.  1.
         -2   -1    0    0    0  501 -0.00000000000E+00 -0.00000000000E+00 -0.11477366589E+04  0.11477366589E+04  0.00000000000E+00 0. -1.
         23    2    1    2    0    0 -0.87020876617E+03  0.98476175825E+02 -0.53063833913E+03  0.10285420803E+04  0.96751796580E+02 0.  0.
    5000000    2    1    2    0    0  0.87020876617E+03 -0.98476175825E+02  0.39735923888E+03  0.11336521371E+04  0.60025990149E+03 0.  0.
         23    2    4    4    0    0  0.77715784318E+03 -0.25572602500E+03  0.19332777480E+03  0.84585143178E+03  0.93375066567E+02 0.  0.
         23    2    4    4    0    0  0.93050922995E+02  0.15724984918E+03  0.20403146407E+03  0.28780070534E+03  0.88399198661E+02 0.  0.
          5    1    3    3  502    0 -0.39429888971E+03  0.47150558928E+02 -0.29679083441E+03  0.49578390355E+03  0.47000000000E+01 0. -1.
         -5    1    3    3    0  502 -0.47590987647E+03  0.51325616898E+02 -0.23384750471E+03  0.53275817678E+03  0.47000000000E+01 0.  1.
         11    1    5    5    0    0  0.31904856806E+03 -0.14418106041E+03  0.54398546888E+02  0.35431535229E+03  0.00000000000E+00 0.  1.
        -11    1    5    5    0    0  0.45810927511E+03 -0.11154496459E+03  0.13892922791E+03  0.49153607949E+03  0.00000000000E+00 0. -1.
          2    1    6    6  503    0  0.17780644546E+02  0.11428181809E+03  0.10513879098E+03  0.15630307302E+03  0.00000000000E+00 0.  1.
         -2    1    6    6    0  503  0.75270278448E+02  0.42968031084E+02  0.98892673095E+02  0.13149763232E+03  0.00000000000E+00 0. -1.
<mgrwt>
<rscale>  0 0.94988226E+03</rscale>
<asrwt>0</asrwt>
<pdfrwt beam="1">  1        2 0.15607039E+00 0.94988226E+03</pdfrwt>
<pdfrwt beam="2">  1       -2 0.17657487E+00 0.94988226E+03</pdfrwt>
<totfact> 0.47064223E+00</totfact>
</mgrwt>
</event>
<event>
12    1  0.3147868E-008  0.1741286E+04  0.7818608E-02  0.8738162E-01
          1   -1    0    0  501    0  0.00000000000E+00  0.00000000000E+00  0.27650206532E+04  0.27650206532E+04  0.00000000000E+00 0. -1.
         -1   -1    0    0    0  501 -0.00000000000E+00 -0.00000000000E+00 -0.15083181439E+04  0.15083181439E+04  0.00000000000E+00 0.  1.
         23    2    1    2    0    0  0.16581934927E+04  0.51149871932E+03  0.16491866152E+04  0.23957645423E+04  0.92922825089E+02 0.  0.
    5000000    2    1    2    0    0 -0.16581934927E+04 -0.51149871932E+03 -0.39248410586E+03  0.18775742548E+04  0.60000392496E+03 0.  0.
         23    2    4    4    0    0 -0.88340987311E+03 -0.20314986587E+03 -0.48755269458E+03  0.10332146239E+04  0.90232794076E+02 0.  0.
         23    2    4    4    0    0 -0.77478361954E+03 -0.30834885345E+03  0.95068588729E+02  0.84435963090E+03  0.92393058108E+02 0.  0.
          5    1    3    3  502    0  0.10513203117E+04  0.28178780764E+03  0.10588228155E+04  0.15184882650E+04  0.47000000000E+01 0. -1.
         -5    1    3    3    0  502  0.60687318095E+03  0.22971091168E+03  0.59036379971E+03  0.87727627730E+03  0.47000000000E+01 0.  1.
         11    1    5    5    0    0 -0.52306516514E+03 -0.15247967740E+03 -0.25675031664E+03  0.60230220330E+03  0.00000000000E+00 0. -1.
        -11    1    5    5    0    0 -0.36034470797E+03 -0.50670188470E+02 -0.23080237795E+03  0.43091242060E+03  0.00000000000E+00 0.  1.
          3    1    6    6  503    0 -0.64440168007E+03 -0.28235857727E+03  0.10361964714E+03  0.71113776633E+03  0.00000000000E+00 0. -1.
         -3    1    6    6    0  503 -0.13038193948E+03 -0.25990276182E+02 -0.85510584159E+01  0.13322186456E+03  0.00000000000E+00 0.  1.
<mgrwt>
<rscale>  0 0.17412858E+04</rscale>
<asrwt>0</asrwt>
<pdfrwt beam="1">  1        1 0.42538779E+00 0.17412858E+04</pdfrwt>
<pdfrwt beam="2">  1       -1 0.23204895E+00 0.17412858E+04</pdfrwt>
<totfact> 0.74036646E-02</totfact>
</mgrwt>
</event>
<event>
12    1  0.3147868E-008  0.1951783E+04  0.7818608E-02  0.8629501E-01
         -1   -1    0    0    0  501 -0.00000000000E+00  0.00000000000E+00  0.35219064291E+04  0.35219064291E+04  0.00000000000E+00 0.  1.
          1   -1    0    0  501    0  0.00000000000E+00 -0.00000000000E+00 -0.11559135379E+04  0.11559135379E+04  0.00000000000E+00 0. -1.
         23    2    1    2    0    0  0.77180286267E+03  0.17679867316E+04  0.16313369111E+04  0.25281209302E+04  0.93158885699E+02 0.  0.
    5000000    2    1    2    0    0 -0.77180286267E+03 -0.17679867316E+04  0.73465598010E+03  0.21496990368E+04  0.60002483110E+03 0.  0.
         23    2    4    4    0    0 -0.74039166324E+03 -0.17106963155E+04  0.78551905649E+03  0.20248456664E+04  0.91093828609E+02 0.  0.
         23    2    4    4    0    0 -0.31411199435E+02 -0.57290416075E+02 -0.50863076393E+02  0.12485337045E+03  0.93447612861E+02 0.  0.
          5    1    3    3  502    0  0.98941145256E+02  0.17301614624E+03  0.14563554482E+03  0.24689216066E+03  0.47000000000E+01 0. -1.
         -5    1    3    3    0  502  0.67286171741E+03  0.15949705854E+04  0.14857013663E+04  0.22812287695E+04  0.47000000000E+01 0.  1.
         11    1    5    5    0    0 -0.30968969800E+03 -0.76920704961E+03  0.30609136263E+03  0.88389994710E+03  0.00000000000E+00 0.  1.
        -11    1    5    5    0    0 -0.43070196524E+03 -0.94148926592E+03  0.47942769386E+03  0.11409457193E+04  0.00000000000E+00 0. -1.
          1    1    6    6  503    0 -0.21494748984E+02  0.20764230353E+02 -0.32311730505E+02  0.44013923073E+02  0.00000000000E+00 0. -1.
         -1    1    6    6    0  503 -0.99164504508E+01 -0.78054646428E+02 -0.18551345887E+02  0.80839447380E+02  0.00000000000E+00 0.  1.
<mgrwt>
<rscale>  0 0.19517834E+04</rscale>
<asrwt>0</asrwt>
<pdfrwt beam="1">  1        1 0.17783285E+00 0.19517834E+04</pdfrwt>
<pdfrwt beam="2">  1       -1 0.54183175E+00 0.19517834E+04</pdfrwt>
<totfact> 0.85048013E-03</totfact>
</mgrwt>
</event>
<event>
12    1  0.3147868E-008  0.5075278E+03  0.7818608E-02  0.1011833E+00
         -2   -1    0    0    0  501 -0.00000000000E+00  0.00000000000E+00  0.95778196452E+03  0.95778196452E+03  0.00000000000E+00 0. -1.
          2   -1    0    0  501    0  0.00000000000E+00 -0.00000000000E+00 -0.46330017182E+03  0.46330017182E+03  0.00000000000E+00 0.  1.
         23    2    1    2    0    0  0.34175816163E+03  0.25890288821E+02 -0.22778307781E+03  0.42152025333E+03  0.91242782381E+02 0.  0.
    5000000    2    1    2    0    0 -0.34175816163E+03 -0.25890288821E+02  0.72226487051E+03  0.99956188301E+03  0.59999038883E+03 0.  0.
         23    2    4    4    0    0 -0.47334748022E+03  0.75443252766E+02  0.60538767130E+03  0.77755045134E+03  0.91328803766E+02 0.  0.
         23    2    4    4    0    0  0.13158931859E+03 -0.10133354159E+03  0.11687719921E+03  0.22201143167E+03  0.89691474962E+02 0.  0.
          5    1    3    3  502    0  0.20951094585E+02 -0.13682791690E+02 -0.40723900435E+02  0.48028046175E+02  0.47000000000E+01 0. -1.
         -5    1    3    3    0  502  0.32080706704E+03  0.39573080510E+02 -0.18705917738E+03  0.37349220716E+03  0.47000000000E+01 0.  1.
         13    1    5    5    0    0 -0.56931248543E+02  0.91623468287E+00  0.12557713111E+03  0.13788263996E+03  0.00000000000E+00 0.  1.
        -13    1    5    5    0    0 -0.41641623167E+03  0.74527018083E+02  0.47981054019E+03  0.63966781137E+03  0.00000000000E+00 0. -1.
          3    1    6    6  503    0  0.16347855619E+02 -0.62714737204E+02  0.24250749790E+02  0.69198912646E+02  0.00000000000E+00 0. -1.
         -3    1    6    6    0  503  0.11524146297E+03 -0.38618804383E+02  0.92626449422E+02  0.15281251903E+03  0.00000000000E+00 0.  1.
<mgrwt>
<rscale>  0 0.50752784E+03</rscale>
<asrwt>0</asrwt>
<pdfrwt beam="1">  1        2 0.71276950E-01 0.50752784E+03</pdfrwt>
<pdfrwt beam="2">  1       -2 0.14735107E+00 0.50752784E+03</pdfrwt>
<totfact> 0.21936172E+01</totfact>
</mgrwt>
</event>
<event>
12    1  0.3147868E-008  0.1324500E+04  0.7818608E-02  0.9010359E-01
          2   -1    0    0  501    0  0.00000000000E+00  0.00000000000E+00  0.23371834640E+04  0.23371834640E+04  0.00000000000E+00 0.  1.
         -2   -1    0    0    0  501 -0.00000000000E+00 -0.00000000000E+00 -0.12108404313E+04  0.12108404313E+04  0.00000000000E+00 0. -1.
         23    2    1    2    0    0 -0.83846510605E+03 -0.10068277892E+04  0.15640098764E+04  0.20423168550E+04  0.90583175780E+02 0.  0.
    5000000    2    1    2    0    0  0.83846510605E+03  0.10068277892E+04 -0.43766684375E+03  0.15057070402E+04  0.59906217861E+03 0.  0.
         23    2    4    4    0    0  0.56495445315E+03  0.48779267734E+03 -0.50876158098E+03  0.90784024972E+03  0.90666104650E+02 0.  0.
         23    2    4    4    0    0  0.27351065289E+03  0.51903511182E+03  0.71094737237E+02  0.59786679052E+03  0.90469403630E+02 0.  0.
          5    1    3    3  502    0 -0.31056386520E+03 -0.32949530300E+03  0.59125912764E+03  0.74473251243E+03  0.47000000000E+01 0. -1.
         -5    1    3    3    0  502 -0.52790124085E+03 -0.67733248616E+03  0.97275074880E+03  0.12975843426E+04  0.47000000000E+01 0.  1.
         11    1    5    5    0    0  0.55081071186E+03  0.48570365152E+03 -0.48487692585E+03  0.88000347194E+03  0.00000000000E+00 0. -1.
        -11    1    5    5    0    0  0.14143741292E+02  0.20890258159E+01 -0.23884655135E+02  0.27836777787E+02  0.00000000000E+00 0.  1.
          3    1    6    6  503    0  0.21217894808E+03  0.35435469078E+03  0.14605712088E+02  0.41328014676E+03  0.00000000000E+00 0. -1.
         -3    1    6    6    0  503  0.61331704817E+02  0.16468042104E+03  0.56489025148E+02  0.18458664375E+03  0.00000000000E+00 0.  1.
<mgrwt>
<rscale>  0 0.13245001E+04</rscale>
<asrwt>0</asrwt>
<pdfrwt beam="1">  1        2 0.35956669E+00 0.13245001E+04</pdfrwt>
<pdfrwt beam="2">  1       -2 0.18628314E+00 0.13245001E+04</pdfrwt>
<totfact> 0.68006770E-01</totfact>
</mgrwt>
</event>
<event>
12    1  0.3147868E-008  0.8061410E+03  0.7818608E-02  0.9551171E-01
         -1   -1    0    0    0  501 -0.00000000000E+00  0.00000000000E+00  0.77111864652E+03  0.77111864652E+03  0.00000000000E+00 0.  1.
          1   -1    0    0  501    0  0.00000000000E+00 -0.00000000000E+00 -0.10968789447E+04  0.10968789447E+04  0.00000000000E+00 0. -1.
         23    2    1    2    0    0  0.51025672135E+03  0.47757564561E+03 -0.58070337017E+03  0.91299735557E+03  0.88923271337E+02 0.  0.
    5000000    2    1    2    0    0 -0.51025672135E+03 -0.47757564561E+03  0.25494307195E+03  0.95500023568E+03  0.59882306339E+03 0.  0.
         23    2    4    4    0    0 -0.62445479824E+03 -0.35763492692E+03  0.23636097175E+03  0.76372906897E+03  0.97821499774E+02 0.  0.
         23    2    4    4    0    0  0.11419807689E+03 -0.11994071869E+03  0.18582100195E+02  0.19127116672E+03  0.93874320260E+02 0.  0.
          5    1    3    3  502    0  0.15765508889E+03  0.13994851650E+03 -0.22905429334E+03  0.31133370139E+03  0.47000000000E+01 0. -1.
         -5    1    3    3    0  502  0.35260163246E+03  0.33762712911E+03 -0.35164907683E+03  0.60166365418E+03  0.47000000000E+01 0.  1.
         11    1    5    5    0    0 -0.39517715016E+03 -0.27302281035E+03  0.17986756679E+03  0.51289255850E+03  0.00000000000E+00 0. -1.
        -11    1    5    5    0    0 -0.22927764808E+03 -0.84612116570E+02  0.56493404966E+02  0.25083651047E+03  0.00000000000E+00 0.  1.
          2    1    6    6  503    0  0.48130568780E+02 -0.11207388194E+03 -0.78934938313E+00  0.12197429949E+03  0.00000000000E+00 0. -1.
         -2    1    6    6    0  503  0.66067508108E+02 -0.78668367488E+01  0.19371449578E+02  0.69296867222E+02  0.00000000000E+00 0.  1.
<mgrwt>
<rscale>  0 0.80614101E+03</rscale>
<asrwt>0</asrwt>
<pdfrwt beam="1">  1        1 0.16875061E+00 0.80614101E+03</pdfrwt>
<pdfrwt beam="2">  1       -1 0.11863364E+00 0.80614101E+03</pdfrwt>
<totfact> 0.83301950E+00</totfact>
</mgrwt>
</event>
<event>
12    1  0.3147868E-008  0.7660386E+03  0.7818608E-02  0.9610519E-01
          4   -1    0    0  501    0  0.00000000000E+00  0.00000000000E+00  0.71765830343E+03  0.71765830343E+03  0.00000000000E+00 0. -1.
         -4   -1    0    0    0  501 -0.00000000000E+00 -0.00000000000E+00 -0.83969305076E+03  0.83969305076E+03  0.00000000000E+00 0.  1.
         23    2    1    2    0    0 -0.58290508021E+03  0.29735274770E+03  0.65623446552E+01  0.66033809857E+03  0.88353556585E+02 0.  0.
    5000000    2    1    2    0    0  0.58290508021E+03 -0.29735274770E+03 -0.12859709198E+03  0.89701325562E+03  0.59991547704E+03 0.  0.
         23    2    4    4    0    0  0.46778794214E+03 -0.46446274931E+03 -0.57913503687E+02  0.66806813247E+03  0.91705242031E+02 0.  0.
         23    2    4    4    0    0  0.11511713807E+03  0.16711000160E+03 -0.70683588297E+02  0.22894512315E+03  0.79006275990E+02 0.  0.
          5    1    3    3  502    0 -0.32605832580E+03  0.17479466745E+03  0.46599003301E+02  0.37290852055E+03  0.47000000000E+01 0. -1.
         -5    1    3    3    0  502 -0.25684675441E+03  0.12255808025E+03 -0.40036658646E+02  0.28742957802E+03  0.47000000000E+01 0.  1.
         11    1    5    5    0    0  0.23258889272E+03 -0.18423380217E+03 -0.57405369022E+02  0.30221691427E+03  0.00000000000E+00 0.  1.
        -11    1    5    5    0    0  0.23519904942E+03 -0.28022894714E+03 -0.50813466576E+00  0.36585121821E+03  0.00000000000E+00 0. -1.
          2    1    6    6  503    0  0.10914258938E+03  0.10158828371E+03 -0.31593862234E+02  0.15241540714E+03  0.00000000000E+00 0. -1.
         -2    1    6    6    0  503  0.59745486840E+01  0.65521717894E+02 -0.39089726063E+02  0.76529716002E+02  0.00000000000E+00 0.  1.
<mgrwt>
<rscale>  0 0.76603862E+03</rscale>
<asrwt>0</asrwt>
<pdfrwt beam="1">  1        4 0.11040897E+00 0.76603862E+03</pdfrwt>
<pdfrwt beam="2">  1       -4 0.12918355E+00 0.76603862E+03</pdfrwt>
<totfact> 0.55736970E-01</totfact>
</mgrwt>
</event>
<event>
12    1  0.3147868E-008  0.7265928E+03  0.7818608E-02  0.9672806E-01
          2   -1    0    0  501    0  0.00000000000E+00  0.00000000000E+00  0.10988339515E+04  0.10988339515E+04  0.00000000000E+00 0.  1.
         -2   -1    0    0    0  501 -0.00000000000E+00 -0.00000000000E+00 -0.47593494952E+04  0.47593494952E+04  0.00000000000E+00 0. -1.
         23    2    1    2    0    0 -0.61529512621E+03  0.30518177001E+03 -0.45392297215E+04  0.45917100237E+04  0.86431888632E+02 0.  0.
    5000000    2    1    2    0    0  0.61529512621E+03 -0.30518177001E+03  0.87871417775E+03  0.12664734230E+04  0.60007692842E+03 0.  0.
         23    2    4    4    0    0  0.24295678233E+03  0.44938647281E+02  0.64623133907E+03  0.69793315578E+03  0.91914450668E+02 0.  0.
         23    2    4    4    0    0  0.37233834388E+03 -0.35012041729E+03  0.23248283868E+03  0.56854026727E+03  0.89272707442E+02 0.  0.
          5    1    3    3  502    0 -0.20570504851E+03  0.13759347490E+03 -0.14590339383E+04  0.14798812975E+04  0.47000000000E+01 0. -1.
         -5    1    3    3    0  502 -0.40959007770E+03  0.16758829511E+03 -0.30801957832E+04  0.31118287262E+04  0.47000000000E+01 0.  1.
         11    1    5    5    0    0  0.17808675377E+03  0.21753764721E+02  0.55714080186E+03  0.58531529217E+03  0.00000000000E+00 0. -1.
        -11    1    5    5    0    0  0.64870028553E+02  0.23184882560E+02  0.89090537209E+02  0.11261786361E+03  0.00000000000E+00 0.  1.
          4    1    6    6  503    0  0.29284149729E+03 -0.30731591943E+03  0.16342653631E+03  0.45487080544E+03  0.00000000000E+00 0. -1.
         -4    1    6    6    0  503  0.79496846585E+02 -0.42804497860E+02  0.69056302370E+02  0.11366946182E+03  0.00000000000E+00 0.  1.
<mgrwt>
<rscale>  0 0.72659276E+03</rscale>
<asrwt>0</asrwt>
<pdfrwt beam="1">  1        2 0.16905138E+00 0.72659276E+03</pdfrwt>
<pdfrwt beam="2">  1       -2 0.73220760E+00 0.72659276E+03</pdfrwt>
<totfact> 0.41170066E-03</totfact>
</mgrwt>
</event>
<event>
12    1  0.3147868E-008  0.8977979E+03  0.7818608E-02  0.9428338E-01
          2   -1    0    0  501    0  0.00000000000E+00  0.00000000000E+00  0.23364676920E+04  0.23364676920E+04  0.00000000000E+00 0. -1.
         -2   -1    0    0    0  501 -0.00000000000E+00 -0.00000000000E+00 -0.57880668356E+03  0.57880668356E+03  0.00000000000E+00 0.  1.
         23    2    1    2    0    0 -0.28427306874E+03 -0.76706081889E+03  0.17122579606E+04  0.18998157234E+04  0.90988909468E+02 0.  0.
    5000000    2    1    2    0    0  0.28427306874E+03  0.76706081889E+03  0.45403047842E+02  0.10154586522E+04  0.59991779441E+03 0.  0.
         23    2    4    4    0    0  0.37437580254E+03  0.26685426785E+03 -0.99826986650E+02  0.47950232666E+03  0.92674765773E+02 0.  0.
         23    2    4    4    0    0 -0.90102733803E+02  0.50020655104E+03  0.14523003449E+03  0.53595632552E+03  0.88500415848E+02 0.  0.
          5    1    3    3  502    0 -0.58745989402E+02 -0.25586595417E+03  0.49063922843E+03  0.55647769070E+03  0.47000000000E+01 0. -1.
         -5    1    3    3    0  502 -0.22552707934E+03 -0.51119486472E+03  0.12216187322E+04  0.13433380327E+04  0.47000000000E+01 0.  1.
         11    1    5    5    0    0  0.10036122661E+03  0.64124769245E+02 -0.68048250922E+02  0.13716751179E+03  0.00000000000E+00 0. -1.
        -11    1    5    5    0    0  0.27401457593E+03  0.20272949860E+03 -0.31778735728E+02  0.34233481487E+03  0.00000000000E+00 0.  1.
          3    1    6    6  503    0 -0.97999918609E+02  0.33790134995E+03  0.79677495393E+02  0.36073509618E+03  0.00000000000E+00 0. -1.
         -3    1    6    6    0  503  0.78971848054E+01  0.16230520109E+03  0.65552539100E+02  0.17522122934E+03  0.00000000000E+00 0.  1.
<mgrwt>
<rscale>  0 0.89779792E+03</rscale>
<asrwt>0</asrwt>
<pdfrwt beam="1">  1        2 0.35945656E+00 0.89779792E+03</pdfrwt>
<pdfrwt beam="2">  1       -2 0.89047183E-01 0.89779792E+03</pdfrwt>
<totfact> 0.47782401E+00</totfact>
</mgrwt>
</event>
<event>
12    1  0.3147868E-008  0.6085672E+03  0.7818608E-02  0.9887789E-01
          1   -1    0    0  501    0  0.00000000000E+00  0.00000000000E+00  0.78376234399E+03  0.78376234399E+03  0.00000000000E+00 0. -1.
         -1   -1    0    0    0  501 -0.00000000000E+00 -0.00000000000E+00 -0.52246560301E+03  0.52246560301E+03  0.00000000000E+00 0.  1.
         23    2    1    2    0    0 -0.53135515488E+02  0.48990132603E+03  0.14262470753E+03  0.52079043072E+03  0.89745045983E+02 0.  0.
    5000000    2    1    2    0    0  0.53135515488E+02 -0.48990132603E+03  0.11867203346E+03  0.78543751628E+03  0.60000195684E+03 0.  0.
         23    2    4    4    0    0 -0.21659266689E+03 -0.34747681168E+03 -0.58531173765E+02  0.42335436592E+03  0.90280135323E+02 0.  0.
         23    2    4    4    0    0  0.26972818238E+03 -0.14242451435E+03  0.17720320722E+03  0.36208315036E+03  0.81640654517E+02 0.  0.
          5    1    3    3  502    0 -0.35602324358E+02  0.36940274365E+03  0.14614510922E+03  0.39888143034E+03  0.47000000000E+01 0. -1.
         -5    1    3    3    0  502 -0.17533191130E+02  0.12049858238E+03 -0.35204016936E+01  0.12190900039E+03  0.47000000000E+01 0.  1.
         13    1    5    5    0    0 -0.51011209236E+02 -0.47648146997E+02 -0.39750200081E+02  0.80327876771E+02  0.00000000000E+00 0.  1.
        -13    1    5    5    0    0 -0.16558145765E+03 -0.29982866468E+03 -0.18780973683E+02  0.34302648915E+03  0.00000000000E+00 0. -1.
          1    1    6    6  503    0  0.26995206960E+03 -0.14690175500E+03  0.18059017716E+03  0.35646466527E+03  0.00000000000E+00 0. -1.
         -1    1    6    6    0  503 -0.22388721877E+00  0.44772406542E+01 -0.33869699346E+01  0.56184850894E+01  0.00000000000E+00 0.  1.
<mgrwt>
<rscale>  0 0.60856723E+03</rscale>
<asrwt>0</asrwt>
<pdfrwt beam="1">  1        1 0.12057882E+00 0.60856723E+03</pdfrwt>
<pdfrwt beam="2">  1       -1 0.80379323E-01 0.60856723E+03</pdfrwt>
<totfact> 0.36719632E+01</totfact>
</mgrwt>
</event>
<event>
12    1  0.3147868E-008  0.4113092E+03  0.7818608E-02  0.1039933E+00
         -2   -1    0    0    0  501 -0.00000000000E+00  0.00000000000E+00  0.51172881883E+03  0.51172881883E+03  0.00000000000E+00 0. -1.
          2   -1    0    0  501    0  0.00000000000E+00 -0.00000000000E+00 -0.61509506454E+03  0.61509506454E+03  0.00000000000E+00 0.  1.
         23    2    1    2    0    0  0.34662315235E+03 -0.50830748717E+02 -0.21944517190E+03  0.42288104393E+03  0.89111273565E+02 0.  0.
    5000000    2    1    2    0    0 -0.34662315235E+03  0.50830748717E+02  0.11607892619E+03  0.70394283945E+03  0.59944126429E+03 0.  0.
         23    2    4    4    0    0 -0.95043569800E+02  0.16097227820E+03 -0.19189313605E+03  0.28098698845E+03  0.84766488103E+02 0.  0.
         23    2    4    4    0    0 -0.25157958255E+03 -0.11014152949E+03  0.30797206223E+03  0.42295585100E+03  0.92851590727E+02 0.  0.
          5    1    3    3  502    0  0.25255640481E+03 -0.73553458512E+02 -0.14282400378E+03  0.29935870611E+03  0.47000000000E+01 0. -1.
         -5    1    3    3    0  502  0.94066747541E+02  0.22722709795E+02 -0.76621168125E+02  0.12352233781E+03  0.47000000000E+01 0.  1.
         11    1    5    5    0    0 -0.70483005678E+02  0.13210758214E+03 -0.95974164441E+02  0.17785192602E+03  0.00000000000E+00 0.  1.
        -11    1    5    5    0    0 -0.24560564122E+02  0.28864696066E+02 -0.95918971606E+02  0.10313506243E+03  0.00000000000E+00 0. -1.
          1    1    6    6  503    0 -0.22751496867E+03 -0.10407749980E+03  0.30963693139E+03  0.39808317751E+03  0.00000000000E+00 0. -1.
         -1    1    6    6    0  503 -0.24064613881E+02 -0.60640296849E+01 -0.16648691534E+01  0.24872673490E+02  0.00000000000E+00 0.  1.
<mgrwt>
<rscale>  0 0.41130921E+03</rscale>
<asrwt>0</asrwt>
<pdfrwt beam="1">  1        2 0.94630010E-01 0.41130921E+03</pdfrwt>
<pdfrwt beam="2">  1       -2 0.78727510E-01 0.41130921E+03</pdfrwt>
<totfact> 0.71835703E+01</totfact>
</mgrwt>
</event>
<event>
12    1  0.3147868E-008  0.6567503E+03  0.7818608E-02  0.9794195E-01
         -1   -1    0    0    0  501 -0.00000000000E+00  0.00000000000E+00  0.35163482729E+03  0.35163482729E+03  0.00000000000E+00 0.  1.
          1   -1    0    0  501    0  0.00000000000E+00 -0.00000000000E+00 -0.15280829211E+04  0.15280829211E+04  0.00000000000E+00 0. -1.
         23    2    1    2    0    0 -0.19735511940E+03 -0.54083725895E+03 -0.73556236323E+03  0.93856194086E+03  0.91610822486E+02 0.  0.
    5000000    2    1    2    0    0  0.19735511940E+03  0.54083725895E+03 -0.44088573062E+03  0.94115580758E+03  0.59995003363E+03 0.  0.
         23    2    4    4    0    0 -0.63067150721E+02  0.42461044873E+03 -0.46758495908E+03  0.64136649597E+03  0.91890094788E+02 0.  0.
         23    2    4    4    0    0  0.26042227012E+03  0.11622681022E+03  0.26699228456E+02  0.29978931162E+03  0.88500578351E+02 0.  0.
          5    1    3    3  502    0 -0.13666545593E+03 -0.24911107076E+03 -0.33482651418E+03  0.43916358799E+03  0.47000000000E+01 0. -1.
         -5    1    3    3    0  502 -0.60689663474E+02 -0.29172618819E+03 -0.40073584905E+03  0.49939835286E+03  0.47000000000E+01 0.  1.
         11    1    5    5    0    0 -0.64876529707E+02  0.23482962387E+03 -0.21152849304E+03  0.32264255720E+03  0.00000000000E+00 0. -1.
        -11    1    5    5    0    0  0.18093789858E+01  0.18978082486E+03 -0.25605646604E+03  0.31872393876E+03  0.00000000000E+00 0.  1.
          4    1    6    6  503    0  0.10055566890E+03  0.91839701933E+02  0.22419568575E+02  0.13801670354E+03  0.00000000000E+00 0. -1.
         -4    1    6    6    0  503  0.15986660122E+03  0.24387108289E+02  0.42796598812E+01  0.16177260808E+03  0.00000000000E+00 0.  1.
<mgrwt>
<rscale>  0 0.65675031E+03</rscale>
<asrwt>0</asrwt>
<pdfrwt beam="1">  1        1 0.23508968E+00 0.65675031E+03</pdfrwt>
<pdfrwt beam="2">  1       -1 0.54097665E-01 0.65675031E+03</pdfrwt>
<totfact> 0.22610080E+01</totfact>
</mgrwt>
</event>
<event>
12    1  0.3283091E-008  0.1619922E+04  0.7818608E-02  0.8808402E-01
          1   -1    0    0  501    0  0.00000000000E+00  0.00000000000E+00  0.25132432414E+04  0.25132432414E+04  0.00000000000E+00 0. -1.
         -1   -1    0    0    0  501 -0.00000000000E+00 -0.00000000000E+00 -0.17048447809E+04  0.17048447809E+04  0.00000000000E+00 0.  1.
         23    2    1    2    0    0  0.26745891168E+03 -0.15949196702E+04 -0.84627256127E+03  0.18275044360E+04  0.91061472982E+02 0.  0.
    5000000    2    1    2    0    0 -0.26745891168E+03  0.15949196702E+04  0.16546710218E+04  0.23905835863E+04  0.60137398436E+03 0.  0.
         23    2    4    4    0    0 -0.52057474887E+02  0.34683580242E+03  0.74532139639E+03  0.82874833221E+03  0.91185304132E+02 0.  0.
         23    2    4    4    0    0 -0.21540143679E+03  0.12480838678E+04  0.90934962540E+03  0.15618352541E+04  0.91112566770E+02 0.  0.
          5    1    3    3  502    0  0.15666697755E+03 -0.10965335734E+04 -0.54244398308E+03  0.12333685516E+04  0.47000000000E+01 0. -1.
         -5    1    3    3    0  502  0.11079193413E+03 -0.49838609683E+03 -0.30382857818E+03  0.59413588437E+03  0.47000000000E+01 0.  1.
         11    1    5    5    0    0 -0.44594109108E+02  0.33511473518E+03  0.65236289513E+03  0.73475701238E+03  0.00000000000E+00 0. -1.
        -11    1    5    5    0    0 -0.74633657788E+01  0.11721067236E+02  0.92958501262E+02  0.93991319827E+02  0.00000000000E+00 0.  1.
          1    1    6    6  503    0 -0.17405885088E+03  0.75458236458E+03  0.54176884814E+03  0.94509497582E+03  0.00000000000E+00 0. -1.
         -1    1    6    6    0  503 -0.41342585907E+02  0.49350150319E+03  0.36758077726E+03  0.61674027830E+03  0.00000000000E+00 0.  1.
<mgrwt>
<rscale>  0 0.16199222E+04</rscale>
<asrwt>0</asrwt>
<pdfrwt beam="1">  1        1 0.38665281E+00 0.16199222E+04</pdfrwt>
<pdfrwt beam="2">  1       -1 0.26228381E+00 0.16199222E+04</pdfrwt>
<totfact> 0.71438387E-02</totfact>
</mgrwt>
</event>
<event>
12    1  0.3147868E-008  0.1425871E+04  0.7818608E-02  0.8935302E-01
         -2   -1    0    0    0  501 -0.00000000000E+00  0.00000000000E+00  0.98699302941E+03  0.98699302941E+03  0.00000000000E+00 0. -1.
          2   -1    0    0  501    0  0.00000000000E+00 -0.00000000000E+00 -0.23010864049E+04  0.23010864049E+04  0.00000000000E+00 0.  1.
         23    2    1    2    0    0  0.68093128952E+03 -0.12401373883E+04 -0.30664596755E+03  0.14505095590E+04  0.91313024420E+02 0.  0.
    5000000    2    1    2    0    0 -0.68093128952E+03  0.12401373883E+04 -0.10074474079E+04  0.18375698753E+04  0.60008716369E+03 0.  0.
         23    2    4    4    0    0 -0.37395767889E+03  0.47145597343E+03 -0.74963583287E+03  0.96572603761E+03  0.92508471604E+02 0.  0.
         23    2    4    4    0    0 -0.30697361063E+03  0.76868141486E+03 -0.25781157503E+03  0.87184383768E+03  0.92417281441E+02 0.  0.
          5    1    3    3  502    0  0.22444290894E+03 -0.44240516018E+03 -0.66544996281E+02  0.50054697248E+03  0.47000000000E+01 0. -1.
         -5    1    3    3    0  502  0.45648838058E+03 -0.79773222811E+03 -0.24010097127E+03  0.94996258651E+03  0.47000000000E+01 0.  1.
         11    1    5    5    0    0 -0.33581286906E+03  0.38356410003E+03 -0.59196172115E+03  0.78122364350E+03  0.00000000000E+00 0. -1.
        -11    1    5    5    0    0 -0.38144809831E+02  0.87891873405E+02 -0.15767411172E+03  0.18450239411E+03  0.00000000000E+00 0.  1.
          3    1    6    6  503    0 -0.51889160697E+02  0.70106277245E+02 -0.92238803763E+01  0.87706642145E+02  0.00000000000E+00 0. -1.
         -3    1    6    6    0  503 -0.25508444993E+03  0.69857513761E+03 -0.24858769465E+03  0.78413719553E+03  0.00000000000E+00 0.  1.
<mgrwt>
<rscale>  0 0.14258710E+04</rscale>
<asrwt>0</asrwt>
<pdfrwt beam="1">  1        2 0.35401329E+00 0.14258710E+04</pdfrwt>
<pdfrwt beam="2">  1       -2 0.15184508E+00 0.14258710E+04</pdfrwt>
<totfact> 0.12489589E+00</totfact>
</mgrwt>
</event>
<event>
12    1  0.3147868E-008  0.7049392E+03  0.7818608E-02  0.9708823E-01
          2   -1    0    0  501    0  0.00000000000E+00  0.00000000000E+00  0.22852603798E+04  0.22852603798E+04  0.00000000000E+00 0. -1.
         -2   -1    0    0    0  501 -0.00000000000E+00 -0.00000000000E+00 -0.24291158627E+03  0.24291158627E+03  0.00000000000E+00 0.  1.
         23    2    1    2    0    0 -0.33893304769E+03 -0.50981712105E+03  0.69162169330E+03  0.92819278062E+03  0.91717847886E+02 0.  0.
    5000000    2    1    2    0    0  0.33893304769E+03  0.50981712105E+03  0.13507271002E+04  0.15999791854E+04  0.60056688790E+03 0.  0.
         23    2    4    4    0    0  0.10071790433E+01  0.43637795577E+03  0.10213539851E+04  0.11144858654E+04  0.92130594844E+02 0.  0.
         23    2    4    4    0    0  0.33792586864E+03  0.73439165285E+02  0.32937311509E+03  0.48549332005E+03  0.87349362800E+02 0.  0.
          5    1    3    3  502    0 -0.12623623190E+03 -0.26460432190E+03  0.35689780835E+03  0.46189735766E+03  0.47000000000E+01 0. -1.
         -5    1    3    3    0  502 -0.21269681579E+03 -0.24521279915E+03  0.33472388496E+03  0.46629542296E+03  0.47000000000E+01 0.  1.
         13    1    5    5    0    0  0.37708788481E+02  0.33610515164E+03  0.74309660298E+03  0.81644423389E+03  0.00000000000E+00 0.  1.
        -13    1    5    5    0    0 -0.36701609438E+02  0.10027280412E+03  0.27825738214E+03  0.29804163149E+03  0.00000000000E+00 0. -1.
          4    1    6    6  503    0  0.15561030797E+03  0.19010099844E+02  0.93826641090E+02  0.18270027483E+03  0.00000000000E+00 0. -1.
         -4    1    6    6    0  503  0.18231556067E+03  0.54429065441E+02  0.23554647399E+03  0.30279304523E+03  0.00000000000E+00 0.  1.
<mgrwt>
<rscale>  0 0.70493925E+03</rscale>
<asrwt>0</asrwt>
<pdfrwt beam="1">  1        2 0.35157850E+00 0.70493925E+03</pdfrwt>
<pdfrwt beam="2">  1       -2 0.37371015E-01 0.70493925E+03</pdfrwt>
<totfact> 0.32601306E+01</totfact>
</mgrwt>
</event>
<event>
12    1  0.3147868E-008  0.6784011E+03  0.7818608E-02  0.9754899E-01
         -4   -1    0    0    0  501 -0.00000000000E+00  0.00000000000E+00  0.10563127443E+04  0.10563127443E+04  0.00000000000E+00 0.  1.
          4   -1    0    0  501    0  0.00000000000E+00 -0.00000000000E+00 -0.46819537799E+03  0.46819537799E+03  0.00000000000E+00 0. -1.
         23    2    1    2    0    0  0.13044756306E+03  0.55760372710E+03  0.21549323521E+03  0.61525614713E+03  0.64531457200E+02 0.  0.
    5000000    2    1    2    0    0 -0.13044756306E+03 -0.55760372710E+03  0.37262413114E+03  0.90925197521E+03  0.59995993876E+03 0.  0.
         23    2    4    4    0    0 -0.32904431085E+03 -0.30750064123E+03  0.34767663195E+03  0.57567414444E+03  0.87720449813E+02 0.  0.
         23    2    4    4    0    0  0.19859674779E+03 -0.25010308587E+03  0.24947499200E+02  0.33357783076E+03  0.93056808805E+02 0.  0.
          5    1    3    3  502    0  0.62714065763E+02  0.18418635247E+03  0.98249582576E+02  0.21802003797E+03  0.47000000000E+01 0. -1.
         -5    1    3    3    0  502  0.67733497300E+02  0.37341737463E+03  0.11724365263E+03  0.39723610915E+03  0.47000000000E+01 0.  1.
         11    1    5    5    0    0 -0.74350848012E+02 -0.49633710051E+02  0.11218462491E+03  0.14344665852E+03  0.00000000000E+00 0.  1.
        -11    1    5    5    0    0 -0.25469346284E+03 -0.25786693118E+03  0.23549200703E+03  0.43222748592E+03  0.00000000000E+00 0. -1.
          1    1    6    6  503    0  0.74836896358E+02 -0.16329975337E+03 -0.39470582682E+01  0.17967456630E+03  0.00000000000E+00 0. -1.
         -1    1    6    6    0  503  0.12375985143E+03 -0.86803332499E+02  0.28894557468E+02  0.15390326446E+03  0.00000000000E+00 0.  1.
<mgrwt>
<rscale>  0 0.67840106E+03</rscale>
<asrwt>0</asrwt>
<pdfrwt beam="1">  1        4 0.72030058E-01 0.67840106E+03</pdfrwt>
<pdfrwt beam="2">  1       -4 0.16250965E+00 0.67840106E+03</pdfrwt>
<totfact> 0.82694714E-01</totfact>
</mgrwt>
</event>
<event>
12    1  0.3147868E-008  0.7689103E+03  0.7818608E-02  0.9606141E-01
         -1   -1    0    0    0  501 -0.00000000000E+00  0.00000000000E+00  0.65330060082E+03  0.65330060082E+03  0.00000000000E+00 0.  1.
          1   -1    0    0  501    0  0.00000000000E+00 -0.00000000000E+00 -0.10178340985E+04  0.10178340985E+04  0.00000000000E+00 0. -1.
         23    2    1    2    0    0  0.40779888364E+03  0.57113418654E+03 -0.15235129165E+03  0.72374611433E+03  0.90018517002E+02 0.  0.
    5000000    2    1    2    0    0 -0.40779888364E+03 -0.57113418654E+03 -0.21218220604E+03  0.94738858501E+03  0.60002471109E+03 0.  0.
         23    2    4    4    0    0 -0.75339222202E+01 -0.35816279654E+03  0.10863910003E+03  0.38460335118E+03  0.88203939109E+02 0.  0.
         23    2    4    4    0    0 -0.40026496142E+03 -0.21297139000E+03 -0.32082130607E+03  0.56278523383E+03  0.90730682182E+02 0.  0.
          5    1    3    3  502    0  0.14738017068E+03  0.14000921480E+03 -0.31570139886E+02  0.20577234672E+03  0.47000000000E+01 0. -1.
         -5    1    3    3    0  502  0.26041871296E+03  0.43112497173E+03 -0.12078115177E+03  0.51797376761E+03  0.47000000000E+01 0.  1.
         11    1    5    5    0    0 -0.42294636035E+02 -0.28013213623E+03  0.77952454512E+02  0.29383572818E+03  0.00000000000E+00 0.  1.
        -11    1    5    5    0    0  0.34760713814E+02 -0.78030660305E+02  0.30686645515E+02  0.90767623002E+02  0.00000000000E+00 0. -1.
          2    1    6    6  503    0 -0.30544575481E+03 -0.11682981232E+03 -0.23659149522E+03  0.40363578853E+03  0.00000000000E+00 0. -1.
         -2    1    6    6    0  503 -0.94819206614E+02 -0.96141577681E+02 -0.84229810855E+02  0.15914944530E+03  0.00000000000E+00 0.  1.
<mgrwt>
<rscale>  0 0.76891030E+03</rscale>
<asrwt>0</asrwt>
<pdfrwt beam="1">  1        1 0.15658986E+00 0.76891030E+03</pdfrwt>
<pdfrwt beam="2">  1       -1 0.10050778E+00 0.76891030E+03</pdfrwt>
<totfact> 0.14199073E+01</totfact>
</mgrwt>
</event>
<event>
12    1  0.3147868E-008  0.5032037E+03  0.7818608E-02  0.1012946E+00
         -2   -1    0    0    0  501 -0.00000000000E+00  0.00000000000E+00  0.72224136461E+03  0.72224136461E+03  0.00000000000E+00 0.  1.
          2   -1    0    0  501    0  0.00000000000E+00 -0.00000000000E+00 -0.71485403742E+03  0.71485403742E+03  0.00000000000E+00 0. -1.
         23    2    1    2    0    0  0.47068943472E+03 -0.52231856353E+02 -0.34732749206E+03  0.59431284421E+03  0.91075020082E+02 0.  0.
    5000000    2    1    2    0    0 -0.47068943472E+03  0.52231856353E+02  0.35471481925E+03  0.84278255782E+03  0.60015258559E+03 0.  0.
         23    2    4    4    0    0 -0.11513182871E+03 -0.57097423906E+02 -0.14426937875E+03  0.21410329847E+03  0.92255704284E+02 0.  0.
         23    2    4    4    0    0 -0.35555760601E+03  0.10932928026E+03  0.49898419800E+03  0.62867925934E+03  0.88759667433E+02 0.  0.
          5    1    3    3  502    0  0.17368830341E+03 -0.62448056020E+02 -0.12125609259E+03  0.22089028144E+03  0.47000000000E+01 0. -1.
         -5    1    3    3    0  502  0.29700113131E+03  0.10216199667E+02 -0.22607139947E+03  0.37342256277E+03  0.47000000000E+01 0.  1.
         13    1    5    5    0    0 -0.44186616669E+02 -0.65844815340E+02 -0.10788903746E+03  0.13389563549E+03  0.00000000000E+00 0.  1.
        -13    1    5    5    0    0 -0.70945212039E+02  0.87473914339E+01 -0.36380341292E+02  0.80207662979E+02  0.00000000000E+00 0. -1.
          4    1    6    6  503    0 -0.28464279169E+03  0.71850269346E+02  0.33037199657E+03  0.44196112520E+03  0.00000000000E+00 0. -1.
         -4    1    6    6    0  503 -0.70914814316E+02  0.37479010913E+02  0.16861220143E+03  0.18671813414E+03  0.00000000000E+00 0.  1.
<mgrwt>
<rscale>  0 0.50320369E+03</rscale>
<asrwt>0</asrwt>
<pdfrwt beam="1">  1        2 0.10997754E+00 0.50320369E+03</pdfrwt>
<pdfrwt beam="2">  1       -2 0.11111406E+00 0.50320369E+03</pdfrwt>
<totfact> 0.26624059E+01</totfact>
</mgrwt>
</event>
<event>
12    1  0.3147868E-008  0.9483319E+03  0.7818608E-02  0.9367102E-01
         -1   -1    0    0    0  501 -0.00000000000E+00  0.00000000000E+00  0.19811511927E+04  0.19811511927E+04  0.00000000000E+00 0.  1.
          1   -1    0    0  501    0  0.00000000000E+00 -0.00000000000E+00 -0.51430623806E+03  0.51430623806E+03  0.00000000000E+00 0. -1.
         23    2    1    2    0    0 -0.90681106549E+02  0.88793675766E+03  0.93531313477E+03  0.12959580859E+04  0.89676929684E+02 0.  0.
    5000000    2    1    2    0    0  0.90681106549E+02 -0.88793675766E+03  0.53153181982E+03  0.11994993448E+04  0.59968146042E+03 0.  0.
         23    2    4    4    0    0  0.17060744529E+03 -0.87669814631E+03  0.32270405925E+03  0.95403168897E+03  0.91279863964E+02 0.  0.
         23    2    4    4    0    0 -0.79926338741E+02 -0.11238611349E+02  0.20882776057E+03  0.24546765582E+03  0.10065192724E+03 0.  0.
          5    1    3    3  502    0 -0.56666101109E+02  0.46298527529E+03  0.42555021927E+03  0.63141229896E+03  0.47000000000E+01 0. -1.
         -5    1    3    3    0  502 -0.34015005440E+02  0.42495148237E+03  0.50976291550E+03  0.66454578697E+03  0.47000000000E+01 0.  1.
         13    1    5    5    0    0  0.10461100379E+03 -0.39165285039E+03  0.18441463610E+03  0.44535847959E+03  0.00000000000E+00 0. -1.
        -13    1    5    5    0    0  0.65996441499E+02 -0.48504529592E+03  0.13828942314E+03  0.50867320938E+03  0.00000000000E+00 0.  1.
          4    1    6    6  503    0 -0.23249112333E+01 -0.29216713681E+02  0.13050371978E+03  0.13375441094E+03  0.00000000000E+00 0. -1.
         -4    1    6    6    0  503 -0.77601427508E+02  0.17978102331E+02  0.78324040796E+02  0.11171324488E+03  0.00000000000E+00 0.  1.
<mgrwt>
<rscale>  0 0.94833188E+03</rscale>
<asrwt>0</asrwt>
<pdfrwt beam="1">  1        1 0.79124038E-01 0.94833188E+03</pdfrwt>
<pdfrwt beam="2">  1       -1 0.30479249E+00 0.94833188E+03</pdfrwt>
<totfact> 0.13392520E+00</totfact>
</mgrwt>
</event>
<event>
12    1  0.3147868E-008  0.5672049E+03  0.7818608E-02  0.9975883E-01
         -1   -1    0    0    0  501 -0.00000000000E+00  0.00000000000E+00  0.35164204406E+03  0.35164204406E+03  0.00000000000E+00 0.  1.
          1   -1    0    0  501    0  0.00000000000E+00 -0.00000000000E+00 -0.10960087546E+04  0.10960087546E+04  0.00000000000E+00 0. -1.
         23    2    1    2    0    0  0.17587535968E+03 -0.37953036672E+03 -0.36549197567E+02  0.42978581847E+03  0.91676412002E+02 0.  0.
    5000000    2    1    2    0    0 -0.17587535968E+03  0.37953036672E+03 -0.70781751298E+03  0.10178649802E+04  0.60005670132E+03 0.  0.
         23    2    4    4    0    0 -0.38466955867E+03  0.27933445133E+03 -0.45592279093E+03  0.66499353137E+03  0.91391467902E+02 0.  0.
         23    2    4    4    0    0  0.20879419900E+03  0.10019591538E+03 -0.25189472205E+03  0.35287144881E+03  0.86215250363E+02 0.  0.
          5    1    3    3  502    0  0.12725319496E+03 -0.25131692335E+03 -0.66210773555E+02  0.28941238419E+03  0.47000000000E+01 0. -1.
         -5    1    3    3    0  502  0.48622164712E+02 -0.12821344337E+03  0.29661575988E+02  0.14037343428E+03  0.47000000000E+01 0.  1.
         13    1    5    5    0    0 -0.71451003073E+02  0.18063314236E+02 -0.46917444893E+02  0.87365758719E+02  0.00000000000E+00 0.  1.
        -13    1    5    5    0    0 -0.31321855560E+03  0.26127113710E+03 -0.40900534603E+03  0.57762777265E+03  0.00000000000E+00 0. -1.
          3    1    6    6  503    0  0.28705173017E+02  0.20201485529E+01 -0.98375145802E+00  0.28792980482E+02  0.00000000000E+00 0. -1.
         -3    1    6    6    0  503  0.18008902598E+03  0.98175766832E+02 -0.25091097059E+03  0.32407846833E+03  0.00000000000E+00 0.  1.
<mgrwt>
<rscale>  0 0.56720487E+03</rscale>
<asrwt>0</asrwt>
<pdfrwt beam="1">  1        1 0.16861673E+00 0.56720487E+03</pdfrwt>
<pdfrwt beam="2">  1       -1 0.54098776E-01 0.56720487E+03</pdfrwt>
<totfact> 0.46151310E+01</totfact>
</mgrwt>
</event>
<event>
12    1  0.3147868E-008  0.6533695E+03  0.7818608E-02  0.9800477E-01
          2   -1    0    0  501    0  0.00000000000E+00  0.00000000000E+00  0.13576974558E+04  0.13576974558E+04  0.00000000000E+00 0. -1.
         -2   -1    0    0    0  501 -0.00000000000E+00 -0.00000000000E+00 -0.65429125260E+03  0.65429125260E+03  0.00000000000E+00 0.  1.
         23    2    1    2    0    0  0.50396029155E+03  0.17907237446E+03  0.10143645400E+04  0.11503311556E+04  0.91013498517E+02 0.  0.
    5000000    2    1    2    0    0 -0.50396029155E+03 -0.17907237446E+03 -0.31095833675E+03  0.86165755279E+03  0.59976308684E+03 0.  0.
         23    2    4    4    0    0 -0.84755084692E+02 -0.30136372747E+03 -0.25282590961E+03  0.41176975756E+03  0.87349138818E+02 0.  0.
         23    2    4    4    0    0 -0.41920520686E+03  0.12229135301E+03 -0.58132427143E+02  0.44988779524E+03  0.91276879549E+02 0.  0.
          5    1    3    3  502    0  0.99900392798E+02  0.49640959495E+02  0.29127223448E+03  0.31193896506E+03  0.47000000000E+01 0. -1.
         -5    1    3    3    0  502  0.40405989875E+03  0.12943141496E+03  0.72309230550E+03  0.83839219059E+03  0.47000000000E+01 0.  1.
         11    1    5    5    0    0 -0.57848266104E+02 -0.64620720024E+02 -0.69215075721E+02  0.11096389528E+03  0.00000000000E+00 0.  1.
        -11    1    5    5    0    0 -0.26906818588E+02 -0.23674300745E+03 -0.18361083389E+03  0.30080586228E+03  0.00000000000E+00 0. -1.
          1    1    6    6  503    0 -0.16041055995E+03  0.92770600661E+02 -0.15539220741E+02  0.18595536957E+03  0.00000000000E+00 0. -1.
         -1    1    6    6    0  503 -0.25879464691E+03  0.29520752352E+02 -0.42593206402E+02  0.26393242567E+03  0.00000000000E+00 0.  1.
<mgrwt>
<rscale>  0 0.65336952E+03</rscale>
<asrwt>0</asrwt>
<pdfrwt beam="1">  1        2 0.20887653E+00 0.65336952E+03</pdfrwt>
<pdfrwt beam="2">  1       -2 0.10066019E+00 0.65336952E+03</pdfrwt>
<totfact> 0.12886390E+01</totfact>
</mgrwt>
</event>
<event>
12    1  0.3147868E-008  0.6967684E+03  0.7818608E-02  0.9722775E-01
          2   -1    0    0  501    0  0.00000000000E+00  0.00000000000E+00  0.14436851601E+04  0.14436851601E+04  0.00000000000E+00 0.  1.
         -2   -1    0    0    0  501 -0.00000000000E+00 -0.00000000000E+00 -0.40567944005E+03  0.40567944005E+03  0.00000000000E+00 0. -1.
         23    2    1    2    0    0  0.63120129341E+03  0.11414295184E+03  0.49090951507E+03  0.81348753660E+03  0.96571910870E+02 0.  0.
    5000000    2    1    2    0    0 -0.63120129341E+03 -0.11414295184E+03  0.54709620499E+03  0.10358770636E+04  0.60189978157E+03 0.  0.
         23    2    4    4    0    0 -0.60324161594E+03 -0.18316820717E+03  0.19818860438E+03  0.66781289905E+03  0.96147313605E+02 0.  0.
         23    2    4    4    0    0 -0.27959677469E+02  0.69025255325E+02  0.34890760061E+03  0.36806416452E+03  0.90490253632E+02 0.  0.
          5    1    3    3  502    0  0.43278141172E+02 -0.77714820264E+01  0.59474660514E+02  0.74112877960E+02  0.47000000000E+01 0. -1.
         -5    1    3    3    0  502  0.58792315223E+03  0.12191443387E+03  0.43143485456E+03  0.73937465864E+03  0.47000000000E+01 0.  1.
         13    1    5    5    0    0 -0.36283279141E+03 -0.81174906944E+02  0.15632490744E+03  0.40332924110E+03  0.00000000000E+00 0.  1.
        -13    1    5    5    0    0 -0.24040882452E+03 -0.10199330022E+03  0.41863696946E+02  0.26448365795E+03  0.00000000000E+00 0. -1.
          1    1    6    6  503    0  0.30606291491E+02  0.86584896589E+01  0.12172491425E+03  0.12581203945E+03  0.00000000000E+00 0. -1.
         -1    1    6    6    0  503 -0.58565968961E+02  0.60366765666E+02  0.22718268636E+03  0.24225212507E+03  0.00000000000E+00 0.  1.
<mgrwt>
<rscale>  0 0.69676839E+03</rscale>
<asrwt>0</asrwt>
<pdfrwt beam="1">  1        2 0.22210541E+00 0.69676839E+03</pdfrwt>
<pdfrwt beam="2">  1       -2 0.62412222E-01 0.69676839E+03</pdfrwt>
<totfact> 0.33465027E+01</totfact>
</mgrwt>
</event>
<event>
12    1  0.3147868E-008  0.5432519E+03  0.7818608E-02  0.1003068E+00
         -2   -1    0    0    0  501 -0.00000000000E+00  0.00000000000E+00  0.22193279040E+03  0.22193279040E+03  0.00000000000E+00 0.  1.
          2   -1    0    0  501    0  0.00000000000E+00 -0.00000000000E+00 -0.14329862224E+04  0.14329862224E+04  0.00000000000E+00 0. -1.
         23    2    1    2    0    0 -0.13492467847E+03  0.36299870281E+03 -0.30226281333E+03  0.49903590912E+03  0.87757069033E+02 0.  0.
    5000000    2    1    2    0    0  0.13492467847E+03 -0.36299870281E+03 -0.90879061866E+03  0.11558831037E+04  0.60016050662E+03 0.  0.
         23    2    4    4    0    0  0.29611562101E+03 -0.41873906975E+03 -0.69179370527E+03  0.86593874743E+03  0.90799306678E+02 0.  0.
         23    2    4    4    0    0 -0.16119094254E+03  0.55740366945E+02 -0.21699691339E+03  0.28994435625E+03  0.88828828867E+02 0.  0.
          5    1    3    3  502    0 -0.90685170121E+02  0.25168255742E+03 -0.25670752509E+03  0.37079475890E+03  0.47000000000E+01 0. -1.
         -5    1    3    3    0  502 -0.44239508348E+02  0.11131614539E+03 -0.45555288247E+02  0.12824115022E+03  0.47000000000E+01 0.  1.
         13    1    5    5    0    0  0.11189865398E+03 -0.11463095347E+03 -0.16143586343E+03  0.22742713615E+03  0.00000000000E+00 0.  1.
        -13    1    5    5    0    0  0.18421696704E+03 -0.30410811629E+03 -0.53035784184E+03  0.63851161128E+03  0.00000000000E+00 0. -1.
          2    1    6    6  503    0 -0.15519205582E+03  0.31512190920E+02 -0.21178919054E+03  0.26444707144E+03  0.00000000000E+00 0.  1.
         -2    1    6    6    0  503 -0.59988867225E+01  0.24228176025E+02 -0.52077228514E+01  0.25497284810E+02  0.00000000000E+00 0. -1.
<mgrwt>
<rscale>  0 0.54325192E+03</rscale>
<asrwt>0</asrwt>
<pdfrwt beam="1">  1        2 0.22045942E+00 0.54325192E+03</pdfrwt>
<pdfrwt beam="2">  1       -2 0.34143507E-01 0.54325192E+03</pdfrwt>
<totfact> 0.11551908E+02</totfact>
</mgrwt>
</event>
<event>
12    1  0.3147868E-008  0.7632502E+03  0.7818608E-02  0.9614789E-01
         -2   -1    0    0    0  501 -0.00000000000E+00  0.00000000000E+00  0.15922666855E+04  0.15922666855E+04  0.00000000000E+00 0.  1.
          2   -1    0    0  501    0  0.00000000000E+00 -0.00000000000E+00 -0.94997521730E+03  0.94997521730E+03  0.00000000000E+00 0. -1.
         23    2    1    2    0    0  0.62340262808E+03  0.23373935015E+03  0.12774878518E+04  0.14435949294E+04  0.93414068536E+02 0.  0.
    5000000    2    1    2    0    0 -0.62340262808E+03 -0.23373935015E+03 -0.63519638358E+03  0.10986469734E+04  0.60023812440E+03 0.  0.
         23    2    4    4    0    0  0.28387512619E+02 -0.17993739191E+03 -0.36807494661E+02  0.20728723033E+03  0.91814423230E+02 0.  0.
         23    2    4    4    0    0 -0.65179014070E+03 -0.53801958236E+02 -0.59838888892E+03  0.89135974309E+03  0.93423182366E+02 0.  0.
          5    1    3    3  502    0  0.22494820152E+03  0.11939043858E+03  0.42109832943E+03  0.49213988178E+03  0.47000000000E+01 0. -1.
         -5    1    3    3    0  502  0.39845442656E+03  0.11434891157E+03  0.85638952237E+03  0.95145504762E+03  0.47000000000E+01 0.  1.
         11    1    5    5    0    0 -0.16860378704E+02 -0.13804023164E+03 -0.81981193673E+01  0.13930752701E+03  0.00000000000E+00 0. -1.
        -11    1    5    5    0    0  0.45247891323E+02 -0.41897160270E+02 -0.28609375294E+02  0.67979703313E+02  0.00000000000E+00 0.  1.
          1    1    6    6  503    0 -0.11563695485E+03 -0.31611757509E+02 -0.15036923349E+03  0.19230734495E+03  0.00000000000E+00 0. -1.
         -1    1    6    6    0  503 -0.53615318585E+03 -0.22190200726E+02 -0.44801965543E+03  0.69905239815E+03  0.00000000000E+00 0.  1.
<mgrwt>
<rscale>  0 0.76325022E+03</rscale>
<asrwt>0</asrwt>
<pdfrwt beam="1">  1        2 0.14615003E+00 0.76325022E+03</pdfrwt>
<pdfrwt beam="2">  1       -2 0.24496411E+00 0.76325022E+03</pdfrwt>
<totfact> 0.19302882E+00</totfact>
</mgrwt>
</event>
<event>
12    1  0.3147868E-008  0.9017017E+03  0.7818608E-02  0.9423457E-01
         -1   -1    0    0    0  501 -0.00000000000E+00  0.00000000000E+00  0.49269407072E+03  0.49269407072E+03  0.00000000000E+00 0.  1.
          1   -1    0    0  501    0  0.00000000000E+00 -0.00000000000E+00 -0.18901276964E+04  0.18901276964E+04  0.00000000000E+00 0. -1.
         23    2    1    2    0    0  0.91202170492E+02 -0.80042345024E+03 -0.23007108836E+03  0.84264644437E+03  0.90137611051E+02 0.  0.
    5000000    2    1    2    0    0 -0.91202170492E+02  0.80042345024E+03 -0.11673625373E+04  0.15401753227E+04  0.60034089951E+03 0.  0.
         23    2    4    4    0    0  0.20590890750E+03  0.12009214929E+03 -0.34034924739E+03  0.42514226541E+03  0.89931824883E+02 0.  0.
         23    2    4    4    0    0 -0.29711107799E+03  0.68033130094E+03 -0.82701328988E+03  0.11150330573E+04  0.90675605842E+02 0.  0.
          5    1    3    3  502    0  0.51345023257E+02 -0.15973909552E+03 -0.32316116408E+02  0.17093657136E+03  0.47000000000E+01 0. -1.
         -5    1    3    3    0  502  0.39857147236E+02 -0.64068435472E+03 -0.19775497195E+03  0.67170987301E+03  0.47000000000E+01 0.  1.
         11    1    5    5    0    0  0.19539136794E+02 -0.80275070769E+01 -0.67609510548E+02  0.70832652450E+02  0.00000000000E+00 0. -1.
        -11    1    5    5    0    0  0.18636977071E+03  0.12811965637E+03 -0.27273973685E+03  0.35430961296E+03  0.00000000000E+00 0.  1.
          4    1    6    6  503    0 -0.14135225897E+03  0.41782143719E+03 -0.45294921203E+03  0.63223271283E+03  0.00000000000E+00 0.  1.
         -4    1    6    6    0  503 -0.15575881902E+03  0.26250986375E+03 -0.37406407785E+03  0.48280034446E+03  0.00000000000E+00 0. -1.
<mgrwt>
<rscale>  0 0.90170173E+03</rscale>
<asrwt>0</asrwt>
<pdfrwt beam="1">  1        1 0.29078887E+00 0.90170173E+03</pdfrwt>
<pdfrwt beam="2">  1       -1 0.75799088E-01 0.90170173E+03</pdfrwt>
<totfact> 0.63289847E+00</totfact>
</mgrwt>
</event>
<event>
12    1  0.3147868E-008  0.7682006E+03  0.7818608E-02  0.9607221E-01
          2   -1    0    0  501    0  0.00000000000E+00  0.00000000000E+00  0.14872099389E+04  0.14872099389E+04  0.00000000000E+00 0.  1.
         -2   -1    0    0    0  501 -0.00000000000E+00 -0.00000000000E+00 -0.53886998633E+03  0.53886998633E+03  0.00000000000E+00 0. -1.
         23    2    1    2    0    0  0.70072905038E+03  0.15595896129E+02  0.83906475307E+03  0.10969692001E+04  0.89706923571E+02 0.  0.
    5000000    2    1    2    0    0 -0.70072905038E+03 -0.15595896129E+02  0.10927519953E+03  0.92911072514E+03  0.60003436262E+03 0.  0.
         23    2    4    4    0    0 -0.70947779522E+03  0.81283109808E+02 -0.55171235412E+02  0.72216823943E+03  0.92289842221E+02 0.  0.
         23    2    4    4    0    0  0.87487448424E+01 -0.96879005937E+02  0.16444643494E+03  0.20694248571E+03  0.79501447147E+02 0.  0.
          5    1    3    3  502    0  0.23318159653E+03 -0.36600931291E+02  0.27358158244E+03  0.36136167115E+03  0.47000000000E+01 0.  1.
         -5    1    3    3    0  502  0.46754745385E+03  0.52196827420E+02  0.56548317063E+03  0.73560752896E+03  0.47000000000E+01 0. -1.
         11    1    5    5    0    0 -0.31246397306E+03  0.50450416521E+02 -0.68080361570E+02  0.32374977161E+03  0.00000000000E+00 0.  1.
        -11    1    5    5    0    0 -0.39701382216E+03  0.30832693287E+02  0.12909126159E+02  0.39841846782E+03  0.00000000000E+00 0. -1.
          1    1    6    6  503    0 -0.10969074824E+02 -0.94644812216E+02  0.94341418724E+02  0.13408305027E+03  0.00000000000E+00 0. -1.
         -1    1    6    6    0  503  0.19717819667E+02 -0.22341937213E+01  0.70105016220E+02  0.72859435444E+02  0.00000000000E+00 0.  1.
<mgrwt>
<rscale>  0 0.76820058E+03</rscale>
<asrwt>0</asrwt>
<pdfrwt beam="1">  1        2 0.22880153E+00 0.76820058E+03</pdfrwt>
<pdfrwt beam="2">  1       -2 0.82903075E-01 0.76820058E+03</pdfrwt>
<totfact> 0.16816721E+01</totfact>
</mgrwt>
</event>
<event>
12    1  0.3147868E-008  0.9526550E+03  0.7818608E-02  0.9362053E-01
          1   -1    0    0  501    0  0.00000000000E+00  0.00000000000E+00  0.28261407125E+04  0.28261407125E+04  0.00000000000E+00 0. -1.
         -1   -1    0    0    0  501 -0.00000000000E+00 -0.00000000000E+00 -0.58181356107E+03  0.58181356107E+03  0.00000000000E+00 0.  1.
         23    2    1    2    0    0 -0.45531898287E+03 -0.73502559212E+03  0.21876068585E+04  0.23541449353E+04  0.93790254500E+02 0.  0.
    5000000    2    1    2    0    0  0.45531898287E+03  0.73502559212E+03  0.56720292966E+02  0.10538093383E+04  0.59976573143E+03 0.  0.
         23    2    4    4    0    0  0.33822099568E+03  0.54946090818E+02  0.49856756775E+02  0.35790108358E+03  0.90526099064E+02 0.  0.
         23    2    4    4    0    0  0.11709798719E+03  0.68007950130E+03  0.68635361906E+01  0.69590825472E+03  0.89560728867E+02 0.  0.
          5    1    3    3  502    0 -0.31276145831E+03 -0.41869078304E+03  0.13009689109E+04  0.14020213617E+04  0.47000000000E+01 0. -1.
         -5    1    3    3    0  502 -0.14255752457E+03 -0.31633480908E+03  0.88663794760E+03  0.95212357358E+03  0.47000000000E+01 0.  1.
         13    1    5    5    0    0  0.10625976232E+03  0.21907442591E+02 -0.26108437635E+02  0.11159177230E+03  0.00000000000E+00 0. -1.
        -13    1    5    5    0    0  0.23196123337E+03  0.33038648228E+02  0.75965194410E+02  0.24630931128E+03  0.00000000000E+00 0.  1.
          4    1    6    6  503    0  0.28060597895E+01  0.17518883180E+03  0.29836622140E+02  0.17773357809E+03  0.00000000000E+00 0.  1.
         -4    1    6    6    0  503  0.11429192740E+03  0.50489066950E+03 -0.22973085950E+02  0.51817467662E+03  0.00000000000E+00 0. -1.
<mgrwt>
<rscale>  0 0.95265496E+03</rscale>
<asrwt>0</asrwt>
<pdfrwt beam="1">  1        1 0.43479087E+00 0.95265496E+03</pdfrwt>
<pdfrwt beam="2">  1       -1 0.89509781E-01 0.95265496E+03</pdfrwt>
<totfact> 0.10080412E+00</totfact>
</mgrwt>
</event>
<event>
12    1  0.3147868E-008  0.7825919E+03  0.7818608E-02  0.9585562E-01
          2   -1    0    0  501    0  0.00000000000E+00  0.00000000000E+00  0.25080958780E+04  0.25080958780E+04  0.00000000000E+00 0. -1.
         -2   -1    0    0    0  501 -0.00000000000E+00 -0.00000000000E+00 -0.28566073471E+03  0.28566073471E+03  0.00000000000E+00 0.  1.
         23    2    1    2    0    0 -0.68202332463E+03 -0.50292629711E+02  0.14278557487E+04  0.15858694948E+04  0.92330122842E+02 0.  0.
    5000000    2    1    2    0    0  0.68202332463E+03  0.50292629711E+02  0.79457939458E+03  0.12078871179E+04  0.59995809129E+03 0.  0.
         23    2    4    4    0    0  0.59726175821E+03  0.25664603682E+03  0.66725103434E+03  0.93582841909E+03  0.89230550388E+02 0.  0.
         23    2    4    4    0    0  0.84761566418E+02 -0.20635340711E+03  0.12732836024E+03  0.27205869878E+03  0.89650278824E+02 0.  0.
          5    1    3    3  502    0 -0.59236719617E+02 -0.30859867194E+02  0.14156163972E+03  0.15659855744E+03  0.47000000000E+01 0. -1.
         -5    1    3    3    0  502 -0.62278660501E+03 -0.19432762517E+02  0.12862941090E+04  0.14292709374E+04  0.47000000000E+01 0.  1.
         11    1    5    5    0    0  0.52158725278E+03  0.24034260338E+03  0.54899966414E+03  0.79449258051E+03  0.00000000000E+00 0. -1.
        -11    1    5    5    0    0  0.75674505428E+02  0.16303433441E+02  0.11825137020E+03  0.14133583858E+03  0.00000000000E+00 0.  1.
          3    1    6    6  503    0  0.67242586966E+02 -0.14968587938E+03  0.44209714107E+02  0.16994683524E+03  0.00000000000E+00 0. -1.
         -3    1    6    6    0  503  0.17518979452E+02 -0.56667527733E+02  0.83118646137E+02  0.10211186354E+03  0.00000000000E+00 0.  1.
<mgrwt>
<rscale>  0 0.78259188E+03</rscale>
<asrwt>0</asrwt>
<pdfrwt beam="1">  1        2 0.38586089E+00 0.78259188E+03</pdfrwt>
<pdfrwt beam="2">  1       -2 0.43947807E-01 0.78259188E+03</pdfrwt>
<totfact> 0.17608648E+01</totfact>
</mgrwt>
</event>
<event>
12    1  0.3147868E-008  0.4160636E+03  0.7818608E-02  0.1038355E+00
         -1   -1    0    0    0  501 -0.00000000000E+00  0.00000000000E+00  0.46782319579E+03  0.46782319579E+03  0.00000000000E+00 0.  1.
          1   -1    0    0  501    0  0.00000000000E+00 -0.00000000000E+00 -0.57115440480E+03  0.57115440480E+03  0.00000000000E+00 0. -1.
         23    2    1    2    0    0  0.14234750717E+03 -0.26981480888E+03  0.10250035358E+03  0.33482088763E+03  0.92389720297E+02 0.  0.
    5000000    2    1    2    0    0 -0.14234750717E+03  0.26981480888E+03 -0.20583156259E+03  0.70415671296E+03  0.60033923773E+03 0.  0.
         23    2    4    4    0    0 -0.21655826508E+01  0.33726103869E+03 -0.33286394247E+03  0.48265378728E+03  0.91687383037E+02 0.  0.
         23    2    4    4    0    0 -0.14018192452E+03 -0.67446229802E+02  0.12703237988E+03  0.22150292569E+03  0.93414959575E+02 0.  0.
          5    1    3    3  502    0 -0.53395855767E+01 -0.66842980418E+02  0.29119379932E+02  0.73256559385E+02  0.47000000000E+01 0. -1.
         -5    1    3    3    0  502  0.14768709275E+03 -0.20297182847E+03  0.73380973643E+02  0.26156432824E+03  0.47000000000E+01 0.  1.
         11    1    5    5    0    0  0.84358442410E+01  0.29148331804E+03 -0.32201649919E+03  0.43442872133E+03  0.00000000000E+00 0. -1.
        -11    1    5    5    0    0 -0.10601426892E+02  0.45777720647E+02 -0.10847443280E+02  0.48225065946E+02  0.00000000000E+00 0.  1.
          2    1    6    6  503    0  0.56477188802E+00 -0.29465591610E+02  0.46233590133E+02  0.54827775012E+02  0.00000000000E+00 0. -1.
         -2    1    6    6    0  503 -0.14074669641E+03 -0.37980638192E+02  0.80798789751E+02  0.16667515068E+03  0.00000000000E+00 0.  1.
<mgrwt>
<rscale>  0 0.41606363E+03</rscale>
<asrwt>0</asrwt>
<pdfrwt beam="1">  1        1 0.87869908E-01 0.41606363E+03</pdfrwt>
<pdfrwt beam="2">  1       -1 0.71972800E-01 0.41606363E+03</pdfrwt>
<totfact> 0.75544277E+01</totfact>
</mgrwt>
</event>
<event>
12    1  0.3147868E-008  0.1170994E+04  0.7818608E-02  0.9138632E-01
          2   -1    0    0  501    0  0.00000000000E+00  0.00000000000E+00  0.96353382177E+03  0.96353382177E+03  0.00000000000E+00 0. -1.
         -2   -1    0    0    0  501 -0.00000000000E+00 -0.00000000000E+00 -0.15860591800E+04  0.15860591800E+04  0.00000000000E+00 0.  1.
         23    2    1    2    0    0 -0.14484670575E+03 -0.11139490413E+04 -0.59928077320E+03  0.12765586377E+04  0.92744140776E+02 0.  0.
    5000000    2    1    2    0    0  0.14484670575E+03  0.11139490413E+04 -0.23244584991E+02  0.12730343640E+04  0.59850910303E+03 0.  0.
         23    2    4    4    0    0 -0.14616683135E+03  0.64594238532E+03 -0.18187495841E+03  0.69240564369E+03  0.87981629803E+02 0.  0.
         23    2    4    4    0    0  0.29101353710E+03  0.46800665599E+03  0.15863037342E+03  0.58062872031E+03  0.90813031293E+02 0.  0.
          5    1    3    3  502    0 -0.42319121263E+02 -0.43176412791E+03 -0.28023215644E+03  0.51649135682E+03  0.47000000000E+01 0. -1.
         -5    1    3    3    0  502 -0.10252758449E+03 -0.68218491340E+03 -0.31904861676E+03  0.76006728091E+03  0.47000000000E+01 0.  1.
         11    1    5    5    0    0 -0.30273667388E+02  0.22074527886E+03 -0.23258061675E+02  0.22402212058E+03  0.00000000000E+00 0.  1.
        -11    1    5    5    0    0 -0.11589316396E+03  0.42519710646E+03 -0.15861689674E+03  0.46838352311E+03  0.00000000000E+00 0. -1.
          1    1    6    6  503    0  0.23255348830E+03  0.31970757635E+03  0.81976398608E+02  0.40375015693E+03  0.00000000000E+00 0. -1.
         -1    1    6    6    0  503  0.58460048802E+02  0.14829907964E+03  0.76653974813E+02  0.17687856338E+03  0.00000000000E+00 0.  1.
<mgrwt>
<rscale>  0 0.11709935E+04</rscale>
<asrwt>0</asrwt>
<pdfrwt beam="1">  1        2 0.14823597E+00 0.11709935E+04</pdfrwt>
<pdfrwt beam="2">  1       -2 0.24400910E+00 0.11709935E+04</pdfrwt>
<totfact> 0.18185513E+00</totfact>
</mgrwt>
</event>
<event>
12    1  0.3147868E-008  0.9854830E+03  0.7818608E-02  0.9324612E-01
         -1   -1    0    0    0  501 -0.00000000000E+00  0.00000000000E+00  0.85336372520E+03  0.85336372520E+03  0.00000000000E+00 0.  1.
          1   -1    0    0  501    0  0.00000000000E+00 -0.00000000000E+00 -0.14600489152E+04  0.14600489152E+04  0.00000000000E+00 0. -1.
         23    2    1    2    0    0 -0.95785767911E+02 -0.90603784976E+03 -0.78742051964E+03  0.12076379841E+04  0.90988610765E+02 0.  0.
    5000000    2    1    2    0    0  0.95785767911E+02  0.90603784976E+03  0.18073532969E+03  0.11057746563E+04  0.59999402709E+03 0.  0.
         23    2    4    4    0    0  0.30988111611E+03  0.64057296143E+03  0.18202672374E+02  0.71810176073E+03  0.94756405854E+02 0.  0.
         23    2    4    4    0    0 -0.21409534820E+03  0.26546488833E+03  0.16253265731E+03  0.38767289555E+03  0.86976917563E+02 0.  0.
          5    1    3    3  502    0 -0.60060130896E+02 -0.61329742594E+03 -0.47570842767E+03  0.77849955051E+03  0.47000000000E+01 0. -1.
         -5    1    3    3    0  502 -0.35725637015E+02 -0.29274042382E+03 -0.31171209197E+03  0.42913843356E+03  0.47000000000E+01 0.  1.
         11    1    5    5    0    0  0.88920921088E+01  0.83263812948E+02 -0.83424945441E+01  0.84151821513E+02  0.00000000000E+00 0.  1.
        -11    1    5    5    0    0  0.30098902401E+03  0.55730914848E+03  0.26545166918E+02  0.63394993922E+03  0.00000000000E+00 0. -1.
          1    1    6    6  503    0 -0.74752020116E+02  0.11855108472E+03  0.11086746086E+03  0.17870035836E+03  0.00000000000E+00 0. -1.
         -1    1    6    6    0  503 -0.13934332809E+03  0.14691380362E+03  0.51665196452E+02  0.20897253719E+03  0.00000000000E+00 0.  1.
<mgrwt>
<rscale>  0 0.98548300E+03</rscale>
<asrwt>0</asrwt>
<pdfrwt beam="1">  1        1 0.22462291E+00 0.98548300E+03</pdfrwt>
<pdfrwt beam="2">  1       -1 0.13128673E+00 0.98548300E+03</pdfrwt>
<totfact> 0.34736571E+00</totfact>
</mgrwt>
</event>
<event>
12    1  0.3147868E-008  0.6412802E+03  0.7818608E-02  0.9823280E-01
         -2   -1    0    0    0  501 -0.00000000000E+00  0.00000000000E+00  0.10115576235E+04  0.10115576235E+04  0.00000000000E+00 0.  1.
          2   -1    0    0  501    0  0.00000000000E+00 -0.00000000000E+00 -0.50709464219E+03  0.50709464219E+03  0.00000000000E+00 0. -1.
         23    2    1    2    0    0 -0.41090715385E+03  0.38418601821E+03  0.38594145214E+03  0.68829076411E+03  0.91377162414E+02 0.  0.
    5000000    2    1    2    0    0  0.41090715385E+03 -0.38418601821E+03  0.11852152915E+03  0.83036150155E+03  0.59917383514E+03 0.  0.
         23    2    4    4    0    0  0.47581348127E+03 -0.22981962073E+03 -0.94400532763E+02  0.54483248418E+03  0.93356564820E+02 0.  0.
         23    2    4    4    0    0 -0.64906327421E+02 -0.15436639748E+03  0.21292206191E+03  0.28552901738E+03  0.90272915687E+02 0.  0.
          5    1    3    3  502    0 -0.29838697654E+03  0.30120928012E+03  0.24494429598E+03  0.48967501093E+03  0.47000000000E+01 0. -1.
         -5    1    3    3    0  502 -0.11252017731E+03  0.82976738089E+02  0.14099715616E+03  0.19861575318E+03  0.47000000000E+01 0.  1.
         13    1    5    5    0    0  0.96605389241E+02 -0.18949386713E+02 -0.44636046288E+02  0.10809281713E+03  0.00000000000E+00 0. -1.
        -13    1    5    5    0    0  0.37920809203E+03 -0.21087023402E+03 -0.49764486474E+02  0.43673966704E+03  0.00000000000E+00 0.  1.
          3    1    6    6  503    0 -0.26081857178E+02  0.10781335571E+01  0.53389683182E+02  0.59429655191E+02  0.00000000000E+00 0. -1.
         -3    1    6    6    0  503 -0.38824470243E+02 -0.15544453104E+03  0.15953237873E+03  0.22609936219E+03  0.00000000000E+00 0.  1.
<mgrwt>
<rscale>  0 0.64128019E+03</rscale>
<asrwt>0</asrwt>
<pdfrwt beam="1">  1        2 0.78014560E-01 0.64128019E+03</pdfrwt>
<pdfrwt beam="2">  1       -2 0.15562425E+00 0.64128019E+03</pdfrwt>
<totfact> 0.16863376E+01</totfact>
</mgrwt>
</event>
<event>
12    1  0.3147868E-008  0.8110392E+03  0.7818608E-02  0.9544174E-01
          2   -1    0    0  501    0  0.00000000000E+00  0.00000000000E+00  0.10510009523E+04  0.10510009523E+04  0.00000000000E+00 0.  1.
         -2   -1    0    0    0  501 -0.00000000000E+00 -0.00000000000E+00 -0.67206944973E+03  0.67206944973E+03  0.00000000000E+00 0. -1.
         23    2    1    2    0    0 -0.64190206655E+03  0.33685530182E+03  0.76259073554E+02  0.73456557383E+03  0.90892125921E+02 0.  0.
    5000000    2    1    2    0    0  0.64190206655E+03 -0.33685530182E+03  0.30267242903E+03  0.98850482821E+03  0.60001786531E+03 0.  0.
         23    2    4    4    0    0  0.64061996347E+03 -0.42668335621E+03  0.15063484613E+03  0.78952488661E+03  0.90587337195E+02 0.  0.
         23    2    4    4    0    0  0.12821030849E+01  0.89828054389E+02  0.15203758290E+03  0.19897994160E+03  0.91688970980E+02 0.  0.
          5    1    3    3  502    0 -0.51082271053E+03  0.22943373189E+03  0.41790457008E+02  0.56155873354E+03  0.47000000000E+01 0. -1.
         -5    1    3    3    0  502 -0.13107935603E+03  0.10742156992E+03  0.34468616545E+02  0.17300684029E+03  0.47000000000E+01 0.  1.
         13    1    5    5    0    0  0.60818361285E+03 -0.41317641726E+03  0.16142677197E+03  0.75276866396E+03  0.00000000000E+00 0.  1.
        -13    1    5    5    0    0  0.32436350613E+02 -0.13506938946E+02 -0.10791925843E+02  0.36756222660E+02  0.00000000000E+00 0. -1.
          2    1    6    6  503    0 -0.39558154492E+02  0.29732173167E+02  0.93050248561E+02  0.10539069440E+03  0.00000000000E+00 0. -1.
         -2    1    6    6    0  503  0.40840257577E+02  0.60095881221E+02  0.58987334342E+02  0.93589247200E+02  0.00000000000E+00 0.  1.
<mgrwt>
<rscale>  0 0.81103916E+03</rscale>
<asrwt>0</asrwt>
<pdfrwt beam="1">  1        2 0.16169245E+00 0.81103916E+03</pdfrwt>
<pdfrwt beam="2">  1       -2 0.10339530E+00 0.81103916E+03</pdfrwt>
<totfact> 0.18020953E+01</totfact>
</mgrwt>
</event>
<event>
12    1  0.3147868E-008  0.1020583E+04  0.7818608E-02  0.9286253E-01
          1   -1    0    0  501    0  0.00000000000E+00  0.00000000000E+00  0.17381966764E+04  0.17381966764E+04  0.00000000000E+00 0. -1.
         -1   -1    0    0    0  501 -0.00000000000E+00 -0.00000000000E+00 -0.70105562058E+03  0.70105562058E+03  0.00000000000E+00 0.  1.
         23    2    1    2    0    0 -0.74946187244E+03 -0.55561292432E+03  0.93717603380E+03  0.13255518196E+04  0.91596332948E+02 0.  0.
    5000000    2    1    2    0    0  0.74946187244E+03  0.55561292432E+03  0.99965021975E+02  0.11137004773E+04  0.59994743743E+03 0.  0.
         23    2    4    4    0    0  0.76943020628E+03  0.62030272955E+03  0.87015725686E+02  0.99631344744E+03  0.90941906802E+02 0.  0.
         23    2    4    4    0    0 -0.19968333840E+02 -0.64689805228E+02  0.12949296289E+02  0.11738702989E+03  0.95018552162E+02 0.  0.
          5    1    3    3  502    0 -0.56758344594E+03 -0.39395411463E+03  0.73911463159E+03  0.10117624925E+04  0.47000000000E+01 0. -1.
         -5    1    3    3    0  502 -0.18187842650E+03 -0.16165880969E+03  0.19806140221E+03  0.31378932713E+03  0.47000000000E+01 0.  1.
         13    1    5    5    0    0  0.38939804709E+03  0.35960608543E+03  0.74801502364E+02  0.53529677798E+03  0.00000000000E+00 0. -1.
        -13    1    5    5    0    0  0.38003215918E+03  0.26069664412E+03  0.12214223322E+02  0.46101666946E+03  0.00000000000E+00 0.  1.
          3    1    6    6  503    0 -0.34885492186E+02  0.12716507505E+02  0.10209017822E+02  0.38508845388E+02  0.00000000000E+00 0. -1.
         -3    1    6    6    0  503  0.14917158346E+02 -0.77406312734E+02  0.27402784677E+01  0.78878184502E+02  0.00000000000E+00 0.  1.
<mgrwt>
<rscale>  0 0.10205831E+04</rscale>
<asrwt>0</asrwt>
<pdfrwt beam="1">  1        1 0.26741487E+00 0.10205831E+04</pdfrwt>
<pdfrwt beam="2">  1       -1 0.10785471E+00 0.10205831E+04</pdfrwt>
<totfact> 0.36072165E+00</totfact>
</mgrwt>
</event>
<event>
12    1  0.3147868E-008  0.1150692E+04  0.7818608E-02  0.9157145E-01
         -2   -1    0    0    0  501 -0.00000000000E+00  0.00000000000E+00  0.69068096438E+03  0.69068096438E+03  0.00000000000E+00 0.  1.
          2   -1    0    0  501    0  0.00000000000E+00 -0.00000000000E+00 -0.22082813530E+04  0.22082813530E+04  0.00000000000E+00 0. -1.
         23    2    1    2    0    0 -0.55001859125E+03  0.94209457093E+03 -0.25175746390E+03  0.11234249852E+04  0.92947541325E+02 0.  0.
    5000000    2    1    2    0    0  0.55001859125E+03 -0.94209457093E+03 -0.12658429247E+04  0.17755373322E+04  0.60009322326E+03 0.  0.
         23    2    4    4    0    0 -0.52657574468E+02 -0.34520854591E+03 -0.57103215419E+03  0.67523664015E+03  0.89022686856E+02 0.  0.
         23    2    4    4    0    0  0.60267616572E+03 -0.59688602502E+03 -0.69481077054E+03  0.11003006920E+04  0.91695792891E+02 0.  0.
          5    1    3    3  502    0 -0.17671110317E+03  0.39143650022E+03 -0.10477145217E+03  0.44209557211E+03  0.47000000000E+01 0. -1.
         -5    1    3    3    0  502 -0.37330748808E+03  0.55065807070E+03 -0.14698601173E+03  0.68132941308E+03  0.47000000000E+01 0.  1.
         11    1    5    5    0    0 -0.43181946285E+02 -0.34539345409E+03 -0.53729144627E+03  0.64019014117E+03  0.00000000000E+00 0.  1.
        -11    1    5    5    0    0 -0.94756281828E+01  0.18490818321E+00 -0.33740707914E+02  0.35046498984E+02  0.00000000000E+00 0. -1.
          3    1    6    6  503    0  0.44707333749E+03 -0.41941976608E+03 -0.54868983036E+03  0.82270774836E+03  0.00000000000E+00 0. -1.
         -3    1    6    6    0  503  0.15560282823E+03 -0.17746625894E+03 -0.14612094017E+03  0.27759294367E+03  0.00000000000E+00 0.  1.
<mgrwt>
<rscale>  0 0.11506920E+04</rscale>
<asrwt>0</asrwt>
<pdfrwt beam="1">  1        2 0.33973560E+00 0.11506920E+04</pdfrwt>
<pdfrwt beam="2">  1       -2 0.10625861E+00 0.11506920E+04</pdfrwt>
<totfact> 0.35941496E+00</totfact>
</mgrwt>
</event>
<event>
12    1  0.3147868E-008  0.1149265E+04  0.7818608E-02  0.9158462E-01
          2   -1    0    0  501    0  0.00000000000E+00  0.00000000000E+00  0.30759649372E+04  0.30759649372E+04  0.00000000000E+00 0. -1.
         -2   -1    0    0    0  501 -0.00000000000E+00 -0.00000000000E+00 -0.44518359108E+03  0.44518359108E+03  0.00000000000E+00 0.  1.
         23    2    1    2    0    0 -0.10887872811E+04  0.68337883035E+02  0.11966604063E+04  0.16220098400E+04  0.93765576620E+02 0.  0.
    5000000    2    1    2    0    0  0.10887872811E+04 -0.68337883035E+02  0.14341209398E+04  0.18991386883E+04  0.59991422508E+03 0.  0.
         23    2    4    4    0    0  0.45778680617E+03 -0.27869713367E+03  0.85101522070E+03  0.10098672231E+04  0.91455181658E+02 0.  0.
         23    2    4    4    0    0  0.63100047493E+03  0.21035925064E+03  0.58310571915E+03  0.88927146516E+03  0.91536033044E+02 0.  0.
          5    1    3    3  502    0 -0.54158405229E+03  0.28494913988E+02  0.66350909946E+03  0.85696654595E+03  0.47000000000E+01 0. -1.
         -5    1    3    3    0  502 -0.54720322881E+03  0.39842969048E+02  0.53315130682E+03  0.76504329405E+03  0.47000000000E+01 0.  1.
         13    1    5    5    0    0  0.17022953647E+03 -0.14596590705E+03  0.30359403156E+03  0.37743009566E+03  0.00000000000E+00 0. -1.
        -13    1    5    5    0    0  0.28755726970E+03 -0.13273122662E+03  0.54742118914E+03  0.63243712746E+03  0.00000000000E+00 0.  1.
          2    1    6    6  503    0  0.36683839365E+03  0.14474603738E+03  0.39672538428E+03  0.55938613937E+03  0.00000000000E+00 0.  1.
         -2    1    6    6    0  503  0.26416208128E+03  0.65613213256E+02  0.18638033488E+03  0.32988532578E+03  0.00000000000E+00 0. -1.
<mgrwt>
<rscale>  0 0.11492652E+04</rscale>
<asrwt>0</asrwt>
<pdfrwt beam="1">  1        2 0.47322536E+00 0.11492652E+04</pdfrwt>
<pdfrwt beam="2">  1       -2 0.68489785E-01 0.11492652E+04</pdfrwt>
<totfact> 0.30484429E+00</totfact>
</mgrwt>
</event>
<event>
12    1  0.3147868E-008  0.3768381E+03  0.7818608E-02  0.1052109E+00
         -2   -1    0    0    0  501 -0.00000000000E+00  0.00000000000E+00  0.15817756529E+03  0.15817756529E+03  0.00000000000E+00 0.  1.
          2   -1    0    0  501    0  0.00000000000E+00 -0.00000000000E+00 -0.13426895697E+04  0.13426895697E+04  0.00000000000E+00 0. -1.
         23    2    1    2    0    0  0.20392926416E+03 -0.52508307584E+02 -0.11986655596E+03  0.26077607411E+03  0.96394514607E+02 0.  0.
    5000000    2    1    2    0    0 -0.20392926416E+03  0.52508307584E+02 -0.10646454484E+04  0.12400910609E+04  0.60000970094E+03 0.  0.
         23    2    4    4    0    0 -0.30870529769E+03 -0.10532650185E+03 -0.32137814255E+03  0.46714317120E+03  0.92445654725E+02 0.  0.
         23    2    4    4    0    0  0.10477603353E+03  0.15783480943E+03 -0.74326730589E+03  0.77294788967E+03  0.95458409105E+02 0.  0.
          5    1    3    3  502    0  0.18591016854E+02 -0.26610706660E+02 -0.52346043640E+02  0.61773407720E+02  0.47000000000E+01 0. -1.
         -5    1    3    3    0  502  0.18533824730E+03 -0.25897600923E+02 -0.67520512324E+02  0.19900266639E+03  0.47000000000E+01 0.  1.
         11    1    5    5    0    0 -0.17061210967E+03 -0.27667483318E+02 -0.11773993165E+03  0.20913314683E+03  0.00000000000E+00 0.  1.
        -11    1    5    5    0    0 -0.13809318803E+03 -0.77659018533E+02 -0.20363821090E+03  0.25801002437E+03  0.00000000000E+00 0. -1.
          3    1    6    6  503    0  0.36301778142E+02  0.11739854911E+03 -0.33084060770E+03  0.35292456153E+03  0.00000000000E+00 0. -1.
         -3    1    6    6    0  503  0.68474255389E+02  0.40436260323E+02 -0.41242669819E+03  0.42002332813E+03  0.00000000000E+00 0.  1.
<mgrwt>
<rscale>  0 0.37683808E+03</rscale>
<asrwt>0</asrwt>
<pdfrwt beam="1">  1        2 0.20656764E+00 0.37683808E+03</pdfrwt>
<pdfrwt beam="2">  1       -2 0.24335009E-01 0.37683808E+03</pdfrwt>
<totfact> 0.24597294E+02</totfact>
</mgrwt>
</event>
<event>
12    1  0.3147868E-008  0.8496713E+03  0.7818608E-02  0.9490778E-01
         -1   -1    0    0    0  501 -0.00000000000E+00  0.00000000000E+00  0.12838506331E+04  0.12838506331E+04  0.00000000000E+00 0.  1.
          1   -1    0    0  501    0  0.00000000000E+00 -0.00000000000E+00 -0.64486426603E+03  0.64486426603E+03  0.00000000000E+00 0. -1.
         23    2    1    2    0    0 -0.63891473263E+03 -0.41635911355E+03  0.93192770135E+00  0.76727876627E+03  0.84551106891E+02 0.  0.
    5000000    2    1    2    0    0  0.63891473263E+03  0.41635911355E+03  0.63805443940E+03  0.11614361329E+04  0.60021119294E+03 0.  0.
         23    2    4    4    0    0  0.64364899645E+03  0.51924972992E+03  0.55499767292E+03  0.99912445753E+03  0.79516992140E+02 0.  0.
         23    2    4    4    0    0 -0.47342638253E+01 -0.10289061636E+03  0.83056766480E+02  0.16231167536E+03  0.94009368200E+02 0.  0.
          5    1    3    3  502    0 -0.22671909612E+03 -0.12336949334E+03 -0.33762443874E+02  0.26035278576E+03  0.47000000000E+01 0. -1.
         -5    1    3    3    0  502 -0.41219563651E+03 -0.29298962021E+03  0.34694371575E+02  0.50692598052E+03  0.47000000000E+01 0.  1.
         11    1    5    5    0    0  0.49142809136E+03  0.43150759678E+03  0.41590556091E+03  0.77503407064E+03  0.00000000000E+00 0. -1.
        -11    1    5    5    0    0  0.15222090509E+03  0.87742133139E+02  0.13909211200E+03  0.22409038689E+03  0.00000000000E+00 0.  1.
          3    1    6    6  503    0 -0.12852576194E+02 -0.33172312537E+02 -0.17527610351E+02  0.39658645445E+02  0.00000000000E+00 0. -1.
         -3    1    6    6    0  503  0.81183123689E+01 -0.69718303827E+02  0.10058437683E+03  0.12265302991E+03  0.00000000000E+00 0.  1.
<mgrwt>
<rscale>  0 0.84967127E+03</rscale>
<asrwt>0</asrwt>
<pdfrwt beam="1">  1        1 0.99209887E-01 0.84967127E+03</pdfrwt>
<pdfrwt beam="2">  1       -1 0.19751548E+00 0.84967127E+03</pdfrwt>
<totfact> 0.49316053E+00</totfact>
</mgrwt>
</event>
<event>
12    1  0.3147868E-008  0.1160710E+04  0.7818608E-02  0.9147960E-01
          2   -1    0    0  501    0  0.00000000000E+00  0.00000000000E+00  0.11930334069E+04  0.11930334069E+04  0.00000000000E+00 0. -1.
         -2   -1    0    0    0  501 -0.00000000000E+00 -0.00000000000E+00 -0.13556262208E+04  0.13556262208E+04  0.00000000000E+00 0.  1.
         23    2    1    2    0    0  0.40816914440E+03 -0.10641474940E+04 -0.45042440638E+03  0.12288940893E+04  0.91030750117E+02 0.  0.
    5000000    2    1    2    0    0 -0.40816914440E+03  0.10641474940E+04  0.28783159249E+03  0.13197655384E+04  0.59993508920E+03 0.  0.
         23    2    4    4    0    0 -0.55193647165E+02  0.83398708240E+02 -0.13484252105E+03  0.19130459313E+03  0.91723817227E+02 0.  0.
         23    2    4    4    0    0 -0.35297549723E+03  0.98074878577E+03  0.42267411354E+03  0.11284609453E+04  0.91163678607E+02 0.  0.
          5    1    3    3  502    0  0.22532212617E+03 -0.46173024863E+03 -0.20364400029E+03  0.55268241504E+03  0.47000000000E+01 0. -1.
         -5    1    3    3    0  502  0.18284701823E+03 -0.60241724538E+03 -0.24678040610E+03  0.67621167429E+03  0.47000000000E+01 0.  1.
         13    1    5    5    0    0 -0.80787591574E+02  0.60360147038E+02 -0.10686831995E+03  0.14693815063E+03  0.00000000000E+00 0. -1.
        -13    1    5    5    0    0  0.25593944410E+02  0.23038561202E+02 -0.27974201097E+02  0.44366442496E+02  0.00000000000E+00 0.  1.
          2    1    6    6  503    0 -0.19013884235E+03  0.48384143667E+03  0.25712449635E+03  0.57997269059E+03  0.00000000000E+00 0. -1.
         -2    1    6    6    0  503 -0.16283665488E+03  0.49690734910E+03  0.16554961719E+03  0.54848825467E+03  0.00000000000E+00 0.  1.
<mgrwt>
<rscale>  0 0.11607101E+04</rscale>
<asrwt>0</asrwt>
<pdfrwt beam="1">  1        2 0.18354360E+00 0.11607101E+04</pdfrwt>
<pdfrwt beam="2">  1       -2 0.20855788E+00 0.11607101E+04</pdfrwt>
<totfact> 0.21814520E+00</totfact>
</mgrwt>
</event>
<event>
12    1  0.3147868E-008  0.1220664E+04  0.7818608E-02  0.9094959E-01
          1   -1    0    0  501    0  0.00000000000E+00  0.00000000000E+00  0.24459462173E+04  0.24459462173E+04  0.00000000000E+00 0.  1.
         -1   -1    0    0    0  501 -0.00000000000E+00 -0.00000000000E+00 -0.10701890337E+04  0.10701890337E+04  0.00000000000E+00 0. -1.
         23    2    1    2    0    0  0.82927812929E+03 -0.84028832557E+03 -0.44477370013E+03  0.12648983763E+04  0.91419758050E+02 0.  0.
    5000000    2    1    2    0    0 -0.82927812929E+03  0.84028832557E+03  0.18205308837E+04  0.22512368748E+04  0.59995673353E+03 0.  0.
         23    2    4    4    0    0 -0.81402236197E+03  0.84765961489E+03  0.18086294485E+04  0.21587679288E+04  0.89326704391E+02 0.  0.
         23    2    4    4    0    0 -0.15255767313E+02 -0.73712893197E+01  0.11901435193E+02  0.92468945939E+02  0.90120960165E+02 0.  0.
          5    1    3    3  502    0  0.43791574068E+03 -0.40043552183E+03 -0.25936217678E+03  0.64761843073E+03  0.47000000000E+01 0. -1.
         -5    1    3    3    0  502  0.39136238861E+03 -0.43985280374E+03 -0.18541152335E+03  0.61727994554E+03  0.47000000000E+01 0.  1.
         13    1    5    5    0    0 -0.29967932446E+03  0.26507696804E+03  0.66486946498E+03  0.77596707531E+03  0.00000000000E+00 0.  1.
        -13    1    5    5    0    0 -0.51434303752E+03  0.58258264684E+03  0.11437599835E+04  0.13828008535E+04  0.00000000000E+00 0. -1.
          4    1    6    6  503    0  0.25992592219E+02 -0.25891846827E+02  0.26159061537E+02  0.45058840230E+02  0.00000000000E+00 0. -1.
         -4    1    6    6    0  503 -0.41248359531E+02  0.18520557507E+02 -0.14257626345E+02  0.47410105710E+02  0.00000000000E+00 0.  1.
<mgrwt>
<rscale>  0 0.12206644E+04</rscale>
<asrwt>0</asrwt>
<pdfrwt beam="1">  1        1 0.37629942E+00 0.12206644E+04</pdfrwt>
<pdfrwt beam="2">  1       -1 0.16464447E+00 0.12206644E+04</pdfrwt>
<totfact> 0.39133048E-01</totfact>
</mgrwt>
</event>
<event>
12    1  0.3147868E-008  0.1686981E+04  0.7818608E-02  0.8768825E-01
         -1   -1    0    0    0  501 -0.00000000000E+00  0.00000000000E+00  0.14585797051E+04  0.14585797051E+04  0.00000000000E+00 0.  1.
          1   -1    0    0  501    0  0.00000000000E+00 -0.00000000000E+00 -0.22787341763E+04  0.22787341763E+04  0.00000000000E+00 0. -1.
         23    2    1    2    0    0  0.85604230153E+02  0.16502617970E+04  0.25793358171E+03  0.16750333182E+04  0.92275682101E+02 0.  0.
    5000000    2    1    2    0    0 -0.85604230153E+02 -0.16502617970E+04 -0.10780880529E+04  0.20622805633E+04  0.60002932343E+03 0.  0.
         23    2    4    4    0    0 -0.11999046344E+03 -0.16553896476E+04 -0.10280044937E+04  0.19543866626E+04  0.90118761442E+02 0.  0.
         23    2    4    4    0    0  0.34386233289E+02  0.51278506018E+01 -0.50083559158E+02  0.10789390065E+03  0.89016981572E+02 0.  0.
          5    1    3    3  502    0  0.32830603535E+02  0.13303768681E+04  0.21080856531E+03  0.13473836873E+04  0.47000000000E+01 0. -1.
         -5    1    3    3    0  502  0.52773626618E+02  0.31988492890E+03  0.47125016394E+02  0.32764963082E+03  0.47000000000E+01 0.  1.
         11    1    5    5    0    0 -0.28156618259E+02 -0.39856733860E+03 -0.20294454147E+03  0.44814641074E+03  0.00000000000E+00 0. -1.
        -11    1    5    5    0    0 -0.91833845184E+02 -0.12568223090E+04 -0.82505995225E+03  0.15062402519E+04  0.00000000000E+00 0.  1.
          4    1    6    6  503    0  0.98797079063E+01  0.25486617479E+02  0.17997110541E+02  0.32727240743E+02  0.00000000000E+00 0. -1.
         -4    1    6    6    0  503  0.24506525383E+02 -0.20358766878E+02 -0.68080669699E+02  0.75166659908E+02  0.00000000000E+00 0.  1.
<mgrwt>
<rscale>  0 0.16869806E+04</rscale>
<asrwt>0</asrwt>
<pdfrwt beam="1">  1        1 0.35057449E+00 0.16869806E+04</pdfrwt>
<pdfrwt beam="2">  1       -1 0.22439688E+00 0.16869806E+04</pdfrwt>
<totfact> 0.18289277E-01</totfact>
</mgrwt>
</event>
<event>
12    1  0.3147868E-008  0.1198036E+04  0.7818608E-02  0.9114577E-01
          2   -1    0    0  501    0  0.00000000000E+00  0.00000000000E+00  0.24309379456E+04  0.24309379456E+04  0.00000000000E+00 0. -1.
         -2   -1    0    0    0  501 -0.00000000000E+00 -0.00000000000E+00 -0.72211298248E+03  0.72211298248E+03  0.00000000000E+00 0.  1.
         23    2    1    2    0    0 -0.11116453107E+04 -0.18707782875E+03  0.15451899994E+03  0.11414636702E+04  0.91157985416E+02 0.  0.
    5000000    2    1    2    0    0  0.11116453107E+04  0.18707782875E+03  0.15543059632E+04  0.20115872578E+04  0.59988570398E+03 0.  0.
         23    2    4    4    0    0  0.51308517777E+03  0.37571884154E+03  0.79661343908E+03  0.10234765307E+04  0.92142226995E+02 0.  0.
         23    2    4    4    0    0  0.59856013295E+03 -0.18864101279E+03  0.75769252411E+03  0.98811072716E+03  0.91679788263E+02 0.  0.
          5    1    3    3  502    0 -0.65043578507E+03 -0.15244199368E+03  0.77389555763E+02  0.67254479797E+03  0.47000000000E+01 0. -1.
         -5    1    3    3    0  502 -0.46120952565E+03 -0.34635835069E+02  0.77129444180E+02  0.46891887228E+03  0.47000000000E+01 0.  1.
         11    1    5    5    0    0  0.38238122004E+03  0.28635054801E+03  0.53111644454E+03  0.71435055221E+03  0.00000000000E+00 0.  1.
        -11    1    5    5    0    0  0.13070395773E+03  0.89368293530E+02  0.26549699454E+03  0.30912597847E+03  0.00000000000E+00 0. -1.
          1    1    6    6  503    0  0.96729752590E+02 -0.49439785659E+02  0.88270619869E+02  0.13997371101E+03  0.00000000000E+00 0. -1.
         -1    1    6    6    0  503  0.50183038036E+03 -0.13920122713E+03  0.66942190424E+03  0.84813701615E+03  0.00000000000E+00 0.  1.
<mgrwt>
<rscale>  0 0.11980359E+04</rscale>
<asrwt>0</asrwt>
<pdfrwt beam="1">  1        2 0.37399045E+00 0.11980359E+04</pdfrwt>
<pdfrwt beam="2">  1       -2 0.11109431E+00 0.11980359E+04</pdfrwt>
<totfact> 0.24020302E+00</totfact>
</mgrwt>
</event>
<event>
12    1  0.3147868E-008  0.7677227E+03  0.7818608E-02  0.9607949E-01
         -1   -1    0    0    0  501 -0.00000000000E+00  0.00000000000E+00  0.50284765710E+03  0.50284765710E+03  0.00000000000E+00 0.  1.
          1   -1    0    0  501    0  0.00000000000E+00 -0.00000000000E+00 -0.14953075609E+04  0.14953075609E+04  0.00000000000E+00 0. -1.
         23    2    1    2    0    0 -0.28925337981E+03  0.61082159943E+03 -0.37473689112E+02  0.68327080651E+03  0.93188913450E+02 0.  0.
    5000000    2    1    2    0    0  0.28925337981E+03 -0.61082159943E+03 -0.95498621466E+03  0.13148844115E+04  0.60012648772E+03 0.  0.
         23    2    4    4    0    0  0.42335363542E+02  0.94521685058E+02 -0.24031375451E+03  0.27697032466E+03  0.90748158023E+02 0.  0.
         23    2    4    4    0    0  0.24691801627E+03 -0.70534328449E+03 -0.71467246015E+03  0.10379140868E+04  0.89617356324E+02 0.  0.
          5    1    3    3  502    0 -0.91751649421E+02  0.28126032923E+03 -0.42993585932E+02  0.29899210090E+03  0.47000000000E+01 0. -1.
         -5    1    3    3    0  502 -0.19750173039E+03  0.32956127020E+03  0.55198968195E+01  0.38427870561E+03  0.47000000000E+01 0.  1.
         11    1    5    5    0    0  0.72998422079E+01  0.20941783875E+02 -0.16344324613E+03  0.16494102192E+03  0.00000000000E+00 0.  1.
        -11    1    5    5    0    0  0.35035521335E+02  0.73579901183E+02 -0.76870508379E+02  0.11202930274E+03  0.00000000000E+00 0. -1.
          4    1    6    6  503    0  0.12004609834E+03 -0.22726651849E+03 -0.21906729406E+03  0.33771528760E+03  0.00000000000E+00 0. -1.
         -4    1    6    6    0  503  0.12687191793E+03 -0.47807676600E+03 -0.49560516609E+03  0.70019879920E+03  0.00000000000E+00 0.  1.
<mgrwt>
<rscale>  0 0.76772271E+03</rscale>
<asrwt>0</asrwt>
<pdfrwt beam="1">  1        1 0.23004731E+00 0.76772271E+03</pdfrwt>
<pdfrwt beam="2">  1       -1 0.77361179E-01 0.76772271E+03</pdfrwt>
<totfact> 0.11426884E+01</totfact>
</mgrwt>
</event>
<event>
12    1  0.3147868E-008  0.9541233E+03  0.7818608E-02  0.9360344E-01
         -2   -1    0    0    0  501 -0.00000000000E+00  0.00000000000E+00  0.85487827557E+03  0.85487827557E+03  0.00000000000E+00 0.  1.
          2   -1    0    0  501    0  0.00000000000E+00 -0.00000000000E+00 -0.10861045100E+04  0.10861045100E+04  0.00000000000E+00 0. -1.
         23    2    1    2    0    0 -0.80295922821E+03 -0.31367597685E+03 -0.74749740695E+01  0.86712196727E+03  0.93319292012E+02 0.  0.
    5000000    2    1    2    0    0  0.80295922821E+03  0.31367597685E+03 -0.22375126037E+03  0.10738608183E+04  0.59998024130E+03 0.  0.
         23    2    4    4    0    0  0.87584207853E+03  0.30269538233E+03 -0.17555932851E+03  0.94865483853E+03  0.10198570409E+03 0.  0.
         23    2    4    4    0    0 -0.72882850314E+02  0.10980594520E+02 -0.48191931856E+02  0.12520597977E+03  0.89003324372E+02 0.  0.
          5    1    3    3  502    0 -0.36061281863E+02 -0.55731854072E+01  0.16420457341E+02  0.40288929800E+02  0.47000000000E+01 0. -1.
         -5    1    3    3    0  502 -0.76689794635E+03 -0.30810279145E+03 -0.23895431410E+02  0.82683303747E+03  0.47000000000E+01 0.  1.
         13    1    5    5    0    0  0.31394501870E+03  0.14802917466E+03 -0.32872705131E+02  0.34864699348E+03  0.00000000000E+00 0. -1.
        -13    1    5    5    0    0  0.56189705982E+03  0.15466620768E+03 -0.14268662338E+03  0.60000784505E+03  0.00000000000E+00 0.  1.
          4    1    6    6  503    0 -0.36545323918E+02  0.49888388332E+02 -0.31569750972E+02  0.69433861819E+02  0.00000000000E+00 0. -1.
         -4    1    6    6    0  503 -0.36337526396E+02 -0.38907793812E+02 -0.16622180884E+02  0.55772117955E+02  0.00000000000E+00 0.  1.
<mgrwt>
<rscale>  0 0.95412330E+03</rscale>
<asrwt>0</asrwt>
<pdfrwt beam="1">  1        2 0.16709300E+00 0.95412330E+03</pdfrwt>
<pdfrwt beam="2">  1       -2 0.13151973E+00 0.95412330E+03</pdfrwt>
<totfact> 0.93350713E+00</totfact>
</mgrwt>
</event>
<event>
12    1  0.3147868E-008  0.7233649E+03  0.7818608E-02  0.9678089E-01
         -2   -1    0    0    0  501 -0.00000000000E+00  0.00000000000E+00  0.75842070244E+03  0.75842070244E+03  0.00000000000E+00 0.  1.
          2   -1    0    0  501    0  0.00000000000E+00 -0.00000000000E+00 -0.70589844334E+03  0.70589844334E+03  0.00000000000E+00 0. -1.
         23    2    1    2    0    0 -0.43909613376E+03 -0.40506893532E+03 -0.70903867519E+02  0.60882768191E+03  0.93581679729E+02 0.  0.
    5000000    2    1    2    0    0  0.43909613376E+03  0.40506893532E+03  0.12342612662E+03  0.85549146387E+03  0.59978777828E+03 0.  0.
         23    2    4    4    0    0 -0.11466419546E+03  0.19728156578E+03  0.26816642770E+02  0.24959340410E+03  0.97518414268E+02 0.  0.
         23    2    4    4    0    0  0.55376032922E+03  0.20778736954E+03  0.96609483850E+02  0.60589805977E+03  0.89179444442E+02 0.  0.
          5    1    3    3  502    0 -0.37890178763E+03 -0.30813868645E+03 -0.77152852396E+02  0.49445997552E+03  0.47000000000E+01 0. -1.
         -5    1    3    3    0  502 -0.60194346129E+02 -0.96930248875E+02  0.62489848769E+01  0.11436770639E+03  0.47000000000E+01 0.  1.
         11    1    5    5    0    0 -0.69701781905E+02  0.18787105105E+03  0.33525410349E+02  0.20316944495E+03  0.00000000000E+00 0.  1.
        -11    1    5    5    0    0 -0.44962413553E+02  0.94105147304E+01 -0.67087675786E+01  0.46423959142E+02  0.00000000000E+00 0. -1.
          3    1    6    6  503    0  0.25301233256E+03  0.48991155331E+02  0.51742902157E+02  0.26285490609E+03  0.00000000000E+00 0. -1.
         -3    1    6    6    0  503  0.30074799666E+03  0.15879621421E+03  0.44866581693E+02  0.34304315369E+03  0.00000000000E+00 0.  1.
<mgrwt>
<rscale>  0 0.72336485E+03</rscale>
<asrwt>0</asrwt>
<pdfrwt beam="1">  1        2 0.10859976E+00 0.72336485E+03</pdfrwt>
<pdfrwt beam="2">  1       -2 0.11668011E+00 0.72336485E+03</pdfrwt>
<totfact> 0.23443513E+01</totfact>
</mgrwt>
</event>
<event>
12    1  0.3147868E-008  0.6545278E+03  0.7818608E-02  0.9798320E-01
         -1   -1    0    0    0  501 -0.00000000000E+00  0.00000000000E+00  0.71501317098E+03  0.71501317098E+03  0.00000000000E+00 0.  1.
          1   -1    0    0  501    0  0.00000000000E+00 -0.00000000000E+00 -0.15145116711E+04  0.15145116711E+04  0.00000000000E+00 0. -1.
         23    2    1    2    0    0 -0.38554449497E+03  0.35293241346E+03 -0.12190909207E+04  0.13299512022E+04  0.96859078566E+02 0.  0.
    5000000    2    1    2    0    0  0.38554449497E+03 -0.35293241346E+03  0.41959242057E+03  0.89957363993E+03  0.59997423960E+03 0.  0.
         23    2    4    4    0    0  0.49163347520E+02  0.15033169259E+03  0.12101980342E+03  0.21857720632E+03  0.90075245017E+02 0.  0.
         23    2    4    4    0    0  0.33638114745E+03 -0.50326410605E+03  0.29857261715E+03  0.68099643361E+03  0.90462688866E+02 0.  0.
          5    1    3    3  502    0 -0.22033712189E+02  0.61961830147E+02 -0.14813770989E+03  0.16214692091E+03  0.47000000000E+01 0. -1.
         -5    1    3    3    0  502 -0.36351078278E+03  0.29097058332E+03 -0.10709532108E+04  0.11678042812E+04  0.47000000000E+01 0.  1.
         13    1    5    5    0    0 -0.77666025104E+01 -0.84066681693E+00 -0.84876485294E+01  0.11535467603E+02  0.00000000000E+00 0.  1.
        -13    1    5    5    0    0  0.56929950030E+02  0.15117235941E+03  0.12950745195E+03  0.20704173871E+03  0.00000000000E+00 0. -1.
          2    1    6    6  503    0  0.22114560830E+03 -0.37789111776E+03  0.24874888029E+03  0.50357033511E+03  0.00000000000E+00 0. -1.
         -2    1    6    6    0  503  0.11523553915E+03 -0.12537298829E+03  0.49823736866E+02  0.17742609850E+03  0.00000000000E+00 0.  1.
<mgrwt>
<rscale>  0 0.65452781E+03</rscale>
<asrwt>0</asrwt>
<pdfrwt beam="1">  1        1 0.23300179E+00 0.65452781E+03</pdfrwt>
<pdfrwt beam="2">  1       -1 0.11000203E+00 0.65452781E+03</pdfrwt>
<totfact> 0.51706989E+00</totfact>
</mgrwt>
</event>
<event>
12    1  0.3147868E-008  0.5645051E+03  0.7818608E-02  0.9981912E-01
         -1   -1    0    0    0  501 -0.00000000000E+00  0.00000000000E+00  0.17551346000E+03  0.17551346000E+03  0.00000000000E+00 0.  1.
          1   -1    0    0  501    0  0.00000000000E+00 -0.00000000000E+00 -0.25677343940E+04  0.25677343940E+04  0.00000000000E+00 0. -1.
         23    2    1    2    0    0 -0.38819593447E+03  0.12015197590E+03 -0.25884555786E+03  0.49010741560E+03  0.89842501911E+02 0.  0.
    5000000    2    1    2    0    0  0.38819593447E+03 -0.12015197590E+03 -0.21333753761E+04  0.22531404384E+04  0.60018227126E+03 0.  0.
         23    2    4    4    0    0 -0.13631561924E+03 -0.99045745485E+02 -0.52036009485E+03  0.55440608826E+03  0.90550950565E+02 0.  0.
         23    2    4    4    0    0  0.52451155371E+03 -0.21106230416E+02 -0.16130152813E+04  0.16987343501E+04  0.91226375999E+02 0.  0.
          5    1    3    3  502    0 -0.15598037881E+03  0.79534039761E+02 -0.72453097626E+02  0.18954441013E+03  0.47000000000E+01 0. -1.
         -5    1    3    3    0  502 -0.23221555566E+03  0.40617936141E+02 -0.18639246024E+03  0.30056300547E+03  0.47000000000E+01 0.  1.
         11    1    5    5    0    0 -0.46474634589E+02 -0.86431299571E+02 -0.22609601416E+03  0.24647447905E+03  0.00000000000E+00 0.  1.
        -11    1    5    5    0    0 -0.89840984647E+02 -0.12614445914E+02 -0.29426408069E+03  0.30793160921E+03  0.00000000000E+00 0. -1.
          1    1    6    6  503    0  0.46561058957E+03 -0.40084619598E+02 -0.14799510342E+04  0.15519842337E+04  0.00000000000E+00 0. -1.
         -1    1    6    6    0  503  0.58900964143E+02  0.18978389182E+02 -0.13306424703E+03  0.14675011643E+03  0.00000000000E+00 0.  1.
<mgrwt>
<rscale>  0 0.56450513E+03</rscale>
<asrwt>0</asrwt>
<pdfrwt beam="1">  1        1 0.39503605E+00 0.56450513E+03</pdfrwt>
<pdfrwt beam="2">  1       -1 0.27002072E-01 0.56450513E+03</pdfrwt>
<totfact> 0.16182481E+01</totfact>
</mgrwt>
</event>
<event>
12    1  0.3147868E-008  0.1020489E+04  0.7818608E-02  0.9286354E-01
         -2   -1    0    0    0  501 -0.00000000000E+00  0.00000000000E+00  0.10669605565E+04  0.10669605565E+04  0.00000000000E+00 0.  1.
          2   -1    0    0  501    0  0.00000000000E+00 -0.00000000000E+00 -0.11364816526E+04  0.11364816526E+04  0.00000000000E+00 0. -1.
         23    2    1    2    0    0 -0.94247888967E+03 -0.37364233348E+03  0.51083676896E+02  0.10191591745E+04  0.90558434281E+02 0.  0.
    5000000    2    1    2    0    0  0.94247888967E+03  0.37364233348E+03 -0.12060477295E+03  0.11842830346E+04  0.60008811346E+03 0.  0.
         23    2    4    4    0    0  0.20397420693E+03  0.61937687964E+02  0.21026854183E+03  0.31279664636E+03  0.90482749800E+02 0.  0.
         23    2    4    4    0    0  0.73850468274E+03  0.31170464551E+03 -0.33087331477E+03  0.87148638822E+03  0.86385311036E+02 0.  0.
          5    1    3    3  502    0 -0.10780429204E+03 -0.66237318134E+02 -0.13445551430E+02  0.12732643303E+03  0.47000000000E+01 0. -1.
         -5    1    3    3    0  502 -0.83467459763E+03 -0.30740501534E+03  0.64529228327E+02  0.89183274144E+03  0.47000000000E+01 0.  1.
         11    1    5    5    0    0  0.13437407809E+03  0.14909299389E+02  0.77929897978E+02  0.15605046963E+03  0.00000000000E+00 0. -1.
        -11    1    5    5    0    0  0.69600128836E+02  0.47028388575E+02  0.13233864385E+03  0.15674617674E+03  0.00000000000E+00 0.  1.
          1    1    6    6  503    0  0.32469388725E+03  0.93684736801E+02 -0.12275603518E+03  0.35954414820E+03  0.00000000000E+00 0. -1.
         -1    1    6    6    0  503  0.41381079549E+03  0.21801990871E+03 -0.20811727960E+03  0.51194224003E+03  0.00000000000E+00 0.  1.
<mgrwt>
<rscale>  0 0.10204887E+04</rscale>
<asrwt>0</asrwt>
<pdfrwt beam="1">  1        2 0.17484333E+00 0.10204887E+04</pdfrwt>
<pdfrwt beam="2">  1       -2 0.16414778E+00 0.10204887E+04</pdfrwt>
<totfact> 0.48057702E+00</totfact>
</mgrwt>
</event>
<event>
12    1  0.3147868E-008  0.5711349E+03  0.7818608E-02  0.9967170E-01
         -1   -1    0    0    0  501 -0.00000000000E+00  0.00000000000E+00  0.28643147775E+04  0.28643147775E+04  0.00000000000E+00 0.  1.
          1   -1    0    0  501    0  0.00000000000E+00 -0.00000000000E+00 -0.27454862117E+03  0.27454862117E+03  0.00000000000E+00 0. -1.
         23    2    1    2    0    0 -0.56558058942E+03 -0.35719842282E+02  0.19710987533E+03  0.60791104380E+03  0.97704779574E+02 0.  0.
    5000000    2    1    2    0    0  0.56558058942E+03  0.35719842282E+02  0.23926562810E+04  0.25309523549E+04  0.59979866073E+03 0.  0.
         23    2    4    4    0    0  0.42407270265E+03  0.37922864232E+02  0.66372379244E+03  0.79391619787E+03  0.92183815424E+02 0.  0.
         23    2    4    4    0    0  0.14150788677E+03 -0.22030219497E+01  0.17289324886E+04  0.17370361570E+04  0.89764834090E+02 0.  0.
          5    1    3    3  502    0 -0.37776142121E+03 -0.50583944068E+02  0.17056925893E+03  0.41758638489E+03  0.47000000000E+01 0. -1.
         -5    1    3    3    0  502 -0.18781916821E+03  0.14864101786E+02  0.26540616407E+02  0.19032465891E+03  0.47000000000E+01 0. -1.
         11    1    5    5    0    0  0.18196200945E+03  0.32713860618E+02  0.21134656829E+03  0.28079840008E+03  0.00000000000E+00 0. -1.
        -11    1    5    5    0    0  0.24211069321E+03  0.52090036139E+01  0.45237722415E+03  0.51311779780E+03  0.00000000000E+00 0.  1.
          1    1    6    6  503    0  0.49490417016E+02 -0.17140729698E+02  0.26426936773E+03  0.26940936270E+03  0.00000000000E+00 0.  1.
         -1    1    6    6    0  503  0.92017469754E+02  0.14937707748E+02  0.14646631208E+04  0.14676267943E+04  0.00000000000E+00 0. -1.
<mgrwt>
<rscale>  0 0.57113494E+03</rscale>
<asrwt>0</asrwt>
<pdfrwt beam="1">  1        1 0.42238251E-01 0.57113494E+03</pdfrwt>
<pdfrwt beam="2">  1       -1 0.44066379E+00 0.57113494E+03</pdfrwt>
<totfact> 0.41189949E-01</totfact>
</mgrwt>
</event>
<event>
12    1  0.3147868E-008  0.1123590E+04  0.7818608E-02  0.9182500E-01
         -2   -1    0    0    0  501 -0.00000000000E+00  0.00000000000E+00  0.52711806908E+03  0.52711806908E+03  0.00000000000E+00 0.  1.
          2   -1    0    0  501    0  0.00000000000E+00 -0.00000000000E+00 -0.29675502488E+04  0.29675502488E+04  0.00000000000E+00 0. -1.
         23    2    1    2    0    0  0.11716193868E+03  0.10859079783E+04 -0.17640175938E+04  0.20766924112E+04  0.89276212517E+02 0.  0.
    5000000    2    1    2    0    0 -0.11716193868E+03 -0.10859079783E+04 -0.67641458584E+03  0.14179759066E+04  0.60016324657E+03 0.  0.
         23    2    4    4    0    0 -0.21580180371E+03 -0.41272955759E+03 -0.31965279341E+02  0.47619504850E+03  0.93935291263E+02 0.  0.
         23    2    4    4    0    0  0.98639865034E+02 -0.67317842076E+03 -0.64444930650E+03  0.94178085812E+03  0.93473348796E+02 0.  0.
          5    1    3    3  502    0  0.88738353701E+02  0.80555477109E+03 -0.12325967647E+04  0.14751643499E+04  0.47000000000E+01 0. -1.
         -5    1    3    3    0  502  0.28423584976E+02  0.28035320725E+03 -0.53142082909E+03  0.60152806135E+03  0.47000000000E+01 0.  1.
         13    1    5    5    0    0 -0.15530992035E+02 -0.80199318657E+02  0.21185697510E+02  0.84391801768E+02  0.00000000000E+00 0. -1.
        -13    1    5    5    0    0 -0.20027081168E+03 -0.33253023893E+03 -0.53150976851E+02  0.39180324674E+03  0.00000000000E+00 0.  1.
          1    1    6    6  503    0  0.10982565763E+03 -0.52103327654E+03 -0.52778198715E+03  0.74972740132E+03  0.00000000000E+00 0. -1.
         -1    1    6    6    0  503 -0.11185792595E+02 -0.15214514422E+03 -0.11666731935E+03  0.19205345680E+03  0.00000000000E+00 0.  1.
<mgrwt>
<rscale>  0 0.11235898E+04</rscale>
<asrwt>0</asrwt>
<pdfrwt beam="1">  1        2 0.45654620E+00 0.11235898E+04</pdfrwt>
<pdfrwt beam="2">  1       -2 0.81095085E-01 0.11235898E+04</pdfrwt>
<totfact> 0.24522222E+00</totfact>
</mgrwt>
</event>
<event>
12    1  0.3147868E-008  0.5770987E+03  0.7818608E-02  0.9954092E-01
         -2   -1    0    0    0  501 -0.00000000000E+00  0.00000000000E+00  0.18501824211E+03  0.18501824211E+03  0.00000000000E+00 0.  1.
          2   -1    0    0  501    0  0.00000000000E+00 -0.00000000000E+00 -0.20666952201E+04  0.20666952201E+04  0.00000000000E+00 0. -1.
         23    2    1    2    0    0  0.46113209764E+03  0.23041062492E+02 -0.59569180275E+03  0.75941302761E+03  0.93197213491E+02 0.  0.
    5000000    2    1    2    0    0 -0.46113209764E+03 -0.23041062492E+02 -0.12859851752E+04  0.14923004346E+04  0.60002417797E+03 0.  0.
         23    2    4    4    0    0 -0.51935446230E+03 -0.12639540898E+03 -0.69000654163E+03  0.87758095323E+03  0.91293181814E+02 0.  0.
         23    2    4    4    0    0  0.58222364661E+02  0.10335434649E+03 -0.59597863359E+03  0.61471948136E+03  0.92830729763E+02 0.  0.
          5    1    3    3  502    0  0.44987269011E+02 -0.25581606042E+02 -0.62227993655E+02  0.81072104543E+02  0.47000000000E+01 0. -1.
         -5    1    3    3    0  502  0.41614482863E+03  0.48622668534E+02 -0.53346380910E+03  0.67834092307E+03  0.47000000000E+01 0.  1.
         11    1    5    5    0    0 -0.50479269721E+03 -0.13824857014E+03 -0.66902152246E+03  0.84942223412E+03  0.00000000000E+00 0. -1.
        -11    1    5    5    0    0 -0.14561765091E+02  0.11853161159E+02 -0.20985019172E+02  0.28158719106E+02  0.00000000000E+00 0.  1.
          2    1    6    6  503    0  0.46722198834E+02  0.10992967412E+02 -0.31727760703E+03  0.32088765810E+03  0.00000000000E+00 0. -1.
         -2    1    6    6    0  503  0.11500165827E+02  0.92361379077E+02 -0.27870102656E+03  0.29383182327E+03  0.00000000000E+00 0.  1.
<mgrwt>
<rscale>  0 0.57709874E+03</rscale>
<asrwt>0</asrwt>
<pdfrwt beam="1">  1        2 0.31795313E+00 0.57709874E+03</pdfrwt>
<pdfrwt beam="2">  1       -2 0.28464344E-01 0.57709874E+03</pdfrwt>
<totfact> 0.72968376E+01</totfact>
</mgrwt>
</event>
<event>
12    1  0.3147868E-008  0.1085207E+04  0.7818608E-02  0.9219731E-01
         -2   -1    0    0    0  501 -0.00000000000E+00  0.00000000000E+00  0.15204061948E+04  0.15204061948E+04  0.00000000000E+00 0.  1.
          2   -1    0    0  501    0  0.00000000000E+00 -0.00000000000E+00 -0.10278387367E+04  0.10278387367E+04  0.00000000000E+00 0. -1.
         23    2    1    2    0    0 -0.10038824559E+04  0.74742105812E+02  0.85221437954E+03  0.13222403188E+04  0.93186609686E+02 0.  0.
    5000000    2    1    2    0    0  0.10038824559E+04 -0.74742105812E+02 -0.35964692146E+03  0.12260046127E+04  0.60031244757E+03 0.  0.
         23    2    4    4    0    0  0.46789254504E+03 -0.31856070272E+03 -0.21994921588E+03  0.61426159588E+03  0.92386663414E+02 0.  0.
         23    2    4    4    0    0  0.53598991084E+03  0.24381859691E+03 -0.13969770557E+03  0.61174301685E+03  0.89338552724E+02 0.  0.
          5    1    3    3  502    0 -0.41224790540E+03  0.75753088219E+02  0.34280071250E+03  0.54149910837E+03  0.47000000000E+01 0. -1.
         -5    1    3    3    0  502 -0.59163455049E+03 -0.10109824064E+01  0.50941366704E+03  0.78074121038E+03  0.47000000000E+01 0.  1.
         11    1    5    5    0    0  0.33108499097E+03 -0.25114478673E+03 -0.12238003567E+03  0.43320647303E+03  0.00000000000E+00 0. -1.
        -11    1    5    5    0    0  0.13680755408E+03 -0.67415915995E+02 -0.97569180219E+02  0.18105512285E+03  0.00000000000E+00 0.  1.
          3    1    6    6  503    0  0.39934069315E+03  0.15413133906E+03 -0.13266107107E+03  0.44813883860E+03  0.00000000000E+00 0. -1.
         -3    1    6    6    0  503  0.13664921769E+03  0.89687257843E+02 -0.70366345013E+01  0.16360417825E+03  0.00000000000E+00 0.  1.
<mgrwt>
<rscale>  0 0.10852069E+04</rscale>
<asrwt>0</asrwt>
<pdfrwt beam="1">  1        2 0.15812904E+00 0.10852069E+04</pdfrwt>
<pdfrwt beam="2">  1       -2 0.23390864E+00 0.10852069E+04</pdfrwt>
<totfact> 0.19248482E+00</totfact>
</mgrwt>
</event>
<event>
12    1  0.3147868E-008  0.6762506E+03  0.7818608E-02  0.9758732E-01
         -2   -1    0    0    0  501 -0.00000000000E+00  0.00000000000E+00  0.16297801626E+03  0.16297801626E+03  0.00000000000E+00 0.  1.
          2   -1    0    0  501    0  0.00000000000E+00 -0.00000000000E+00 -0.32390542789E+04  0.32390542789E+04  0.00000000000E+00 0. -1.
         23    2    1    2    0    0  0.47852328927E+03 -0.35352790198E+03 -0.11279585733E+04  0.12785316735E+04  0.91576094203E+02 0.  0.
    5000000    2    1    2    0    0 -0.47852328927E+03  0.35352790198E+03 -0.19481176893E+04  0.21235006217E+04  0.60010486009E+03 0.  0.
         23    2    4    4    0    0 -0.46954277431E+03  0.10438802998E+03 -0.16658313827E+04  0.17362451119E+04  0.90474389018E+02 0.  0.
         23    2    4    4    0    0 -0.89805149584E+01  0.24913987200E+03 -0.28228630658E+03  0.38725550984E+03  0.90166210670E+02 0.  0.
          5    1    3    3  502    0  0.18753116071E+03 -0.91711038905E+02 -0.43882369897E+03  0.48597034855E+03  0.47000000000E+01 0. -1.
         -5    1    3    3    0  502  0.29099212856E+03 -0.26181686308E+03 -0.68913487437E+03  0.79256132491E+03  0.47000000000E+01 0.  1.
         11    1    5    5    0    0 -0.48207784969E+02  0.40972797546E+02 -0.22699546378E+03  0.23564740874E+03  0.00000000000E+00 0. -1.
        -11    1    5    5    0    0 -0.42133498935E+03  0.63415232431E+02 -0.14388359189E+04  0.15005977031E+04  0.00000000000E+00 0.  1.
          2    1    6    6  503    0 -0.40606427193E+02  0.69648738460E+02 -0.11062707677E+03  0.13688746770E+03  0.00000000000E+00 0. -1.
         -2    1    6    6    0  503  0.31625912235E+02  0.17949113354E+03 -0.17165922981E+03  0.25036804214E+03  0.00000000000E+00 0.  1.
<mgrwt>
<rscale>  0 0.67625056E+03</rscale>
<asrwt>0</asrwt>
<pdfrwt beam="1">  1        2 0.49831601E+00 0.67625056E+03</pdfrwt>
<pdfrwt beam="2">  1       -2 0.25073543E-01 0.67625056E+03</pdfrwt>
<totfact> 0.18855606E+01</totfact>
</mgrwt>
</event>
<event>
12    1  0.3147868E-008  0.1101741E+04  0.7818608E-02  0.9203497E-01
         -2   -1    0    0    0  501 -0.00000000000E+00  0.00000000000E+00  0.18729726484E+04  0.18729726484E+04  0.00000000000E+00 0. -1.
          2   -1    0    0  501    0  0.00000000000E+00 -0.00000000000E+00 -0.71550062013E+03  0.71550062013E+03  0.00000000000E+00 0.  1.
         23    2    1    2    0    0  0.58229525252E+03 -0.84364036166E+03  0.91277996764E+03  0.13757627436E+04  0.93589723925E+02 0.  0.
    5000000    2    1    2    0    0 -0.58229525252E+03  0.84364036166E+03  0.24469206062E+03  0.12127105249E+04  0.59999649313E+03 0.  0.
         23    2    4    4    0    0 -0.54786877714E+03  0.29790546361E+03  0.89204199873E+02  0.63680623466E+03  0.93042619360E+02 0.  0.
         23    2    4    4    0    0 -0.34426475381E+02  0.54573489805E+03  0.15548786075E+03  0.57590429025E+03  0.92073424646E+02 0.  0.
          5    1    3    3  502    0  0.40572266284E+03 -0.56009767610E+03  0.66873654044E+03  0.96205557866E+03  0.47000000000E+01 0. -1.
         -5    1    3    3    0  502  0.17657258969E+03 -0.28354268557E+03  0.24404342720E+03  0.41370716494E+03  0.47000000000E+01 0.  1.
         13    1    5    5    0    0 -0.51145507905E+03  0.24859017012E+03  0.88405755252E+02  0.57549886891E+03  0.00000000000E+00 0. -1.
        -13    1    5    5    0    0 -0.36413698095E+02  0.49315293493E+02  0.79844462053E+00  0.61307365749E+02  0.00000000000E+00 0.  1.
          3    1    6    6  503    0 -0.40285958754E+01  0.32334523651E+03  0.13532082878E+03  0.35054257696E+03  0.00000000000E+00 0. -1.
         -3    1    6    6    0  503 -0.30397879506E+02  0.22238966154E+03  0.20167031976E+02  0.22536171329E+03  0.00000000000E+00 0.  1.
<mgrwt>
<rscale>  0 0.11017408E+04</rscale>
<asrwt>0</asrwt>
<pdfrwt beam="1">  1        2 0.11007702E+00 0.11017408E+04</pdfrwt>
<pdfrwt beam="2">  1       -2 0.28814964E+00 0.11017408E+04</pdfrwt>
<totfact> 0.14833693E+00</totfact>
</mgrwt>
</event>
<event>
12    1  0.3147868E-008  0.4703428E+03  0.7818608E-02  0.1021824E+00
         -1   -1    0    0    0  501 -0.00000000000E+00  0.00000000000E+00  0.24251935717E+03  0.24251935717E+03  0.00000000000E+00 0.  1.
          1   -1    0    0  501    0  0.00000000000E+00 -0.00000000000E+00 -0.10907026204E+04  0.10907026204E+04  0.00000000000E+00 0. -1.
         23    2    1    2    0    0  0.17831333658E+02 -0.31396983121E+03 -0.14875485856E+03  0.35954512681E+03  0.90827742996E+02 0.  0.
    5000000    2    1    2    0    0 -0.17831333658E+02  0.31396983121E+03 -0.69942840462E+03  0.97367685071E+03  0.59995958618E+03 0.  0.
         23    2    4    4    0    0  0.15885954395E+03 -0.68943684835E+02 -0.40795779431E+03  0.45252145151E+03  0.91413980086E+02 0.  0.
         23    2    4    4    0    0 -0.17669087761E+03  0.38291351604E+03 -0.29147061032E+03  0.52115539920E+03  0.93837127182E+02 0.  0.
          5    1    3    3  502    0 -0.30359681343E+02 -0.18114300415E+03 -0.10467607730E+03  0.21145606958E+03  0.47000000000E+01 0. -1.
         -5    1    3    3    0  502  0.48191015001E+02 -0.13282682706E+03 -0.44078781260E+02  0.14808905723E+03  0.47000000000E+01 0.  1.
         13    1    5    5    0    0  0.21458194645E+02 -0.38439078364E+02 -0.17406965319E+03  0.17955016298E+03  0.00000000000E+00 0.  1.
        -13    1    5    5    0    0  0.13740134931E+03 -0.30504606471E+02 -0.23388814112E+03  0.27297128853E+03  0.00000000000E+00 0. -1.
          1    1    6    6  503    0 -0.14311076386E+03  0.20659090861E+03 -0.15061241047E+03  0.29299247848E+03  0.00000000000E+00 0. -1.
         -1    1    6    6    0  503 -0.33580113748E+02  0.17632260743E+03 -0.14085819984E+03  0.22816292072E+03  0.00000000000E+00 0.  1.
<mgrwt>
<rscale>  0 0.47034277E+03</rscale>
<asrwt>0</asrwt>
<pdfrwt beam="1">  1        1 0.16780041E+00 0.47034277E+03</pdfrwt>
<pdfrwt beam="2">  1       -1 0.37310669E-01 0.47034277E+03</pdfrwt>
<totfact> 0.93655768E+01</totfact>
</mgrwt>
</event>
<event>
12    1  0.3147868E-008  0.5619495E+03  0.7818608E-02  0.9987653E-01
          2   -1    0    0  501    0  0.00000000000E+00  0.00000000000E+00  0.22571432206E+04  0.22571432206E+04  0.00000000000E+00 0. -1.
         -2   -1    0    0    0  501 -0.00000000000E+00 -0.00000000000E+00 -0.23065276592E+03  0.23065276592E+03  0.00000000000E+00 0.  1.
         23    2    1    2    0    0 -0.47253413440E+03  0.27008866393E+03  0.44003463019E+03  0.70647499970E+03  0.96125204222E+02 0.  0.
    5000000    2    1    2    0    0  0.47253413440E+03 -0.27008866393E+03  0.15864558245E+04  0.17813209868E+04  0.60002164999E+03 0.  0.
         23    2    4    4    0    0  0.27478175841E+03 -0.14275537383E+03  0.14657572225E+04  0.15009396696E+04  0.92149578279E+02 0.  0.
         23    2    4    4    0    0  0.19775237599E+03 -0.12733329010E+03  0.12069860199E+03  0.28038131727E+03  0.93411785011E+02 0.  0.
          5    1    3    3  502    0 -0.25458029196E+03  0.92692545022E+02  0.19865404704E+03  0.33598891851E+03  0.47000000000E+01 0. -1.
         -5    1    3    3    0  502 -0.21795384245E+03  0.17739611891E+03  0.24138058315E+03  0.37048608120E+03  0.47000000000E+01 0.  1.
         13    1    5    5    0    0  0.22903302532E+03 -0.15240600174E+03  0.12948484253E+04  0.13237507925E+04  0.00000000000E+00 0. -1.
        -13    1    5    5    0    0  0.45748733099E+02  0.96506279076E+01  0.17090879723E+03  0.17718887711E+03  0.00000000000E+00 0.  1.
          3    1    6    6  503    0  0.18653604898E+03 -0.13989388852E+03  0.10001752850E+03  0.25371145741E+03  0.00000000000E+00 0. -1.
         -3    1    6    6    0  503  0.11216327004E+02  0.12560598425E+02  0.20681073492E+02  0.26669859862E+02  0.00000000000E+00 0.  1.
<mgrwt>
<rscale>  0 0.56194947E+03</rscale>
<asrwt>0</asrwt>
<pdfrwt beam="1">  1        2 0.34725279E+00 0.56194947E+03</pdfrwt>
<pdfrwt beam="2">  1       -2 0.35485043E-01 0.56194947E+03</pdfrwt>
<totfact> 0.38175565E+01</totfact>
</mgrwt>
</event>
<event>
12    1  0.3147868E-008  0.8439622E+03  0.7818608E-02  0.9498477E-01
         -1   -1    0    0    0  501 -0.00000000000E+00  0.00000000000E+00  0.56093786026E+03  0.56093786026E+03  0.00000000000E+00 0.  1.
          1   -1    0    0  501    0  0.00000000000E+00 -0.00000000000E+00 -0.17856780380E+04  0.17856780380E+04  0.00000000000E+00 0. -1.
         23    2    1    2    0    0 -0.62795304992E+03 -0.54901545491E+03 -0.13649184519E+03  0.84995507185E+03  0.89725123156E+02 0.  0.
    5000000    2    1    2    0    0  0.62795304992E+03  0.54901545491E+03 -0.10882483326E+04  0.14966608264E+04  0.59997182715E+03 0.  0.
         23    2    4    4    0    0  0.41649141386E+03  0.26137266613E+03 -0.99957064129E+03  0.11177743444E+04  0.92180527090E+02 0.  0.
         23    2    4    4    0    0  0.21146163606E+03  0.28764278878E+03 -0.88677691283E+02  0.37888648206E+03  0.90757015671E+02 0.  0.
          5    1    3    3  502    0 -0.57439666240E+03 -0.49690418202E+03 -0.98142811160E+02  0.76583248382E+03  0.47000000000E+01 0. -1.
         -5    1    3    3    0  502 -0.53556387518E+02 -0.52111272890E+02 -0.38349034030E+02  0.84122588032E+02  0.47000000000E+01 0.  1.
         11    1    5    5    0    0  0.34066527100E+03  0.19805641381E+03 -0.71287115722E+03  0.81453327539E+03  0.00000000000E+00 0.  1.
        -11    1    5    5    0    0  0.75826142856E+02  0.63316252320E+02 -0.28669948407E+03  0.30324106898E+03  0.00000000000E+00 0. -1.
          4    1    6    6  503    0 -0.22553568394E+01 -0.10890511194E+00  0.74500397609E+01  0.77847021289E+01  0.00000000000E+00 0. -1.
         -4    1    6    6    0  503  0.21371699290E+03  0.28775169389E+03 -0.96127731044E+02  0.37110177993E+03  0.00000000000E+00 0.  1.
<mgrwt>
<rscale>  0 0.84396223E+03</rscale>
<asrwt>0</asrwt>
<pdfrwt beam="1">  1        1 0.27471970E+00 0.84396223E+03</pdfrwt>
<pdfrwt beam="2">  1       -1 0.86298133E-01 0.84396223E+03</pdfrwt>
<totfact> 0.56855923E+00</totfact>
</mgrwt>
</event>
<event>
12    1  0.3147868E-008  0.7711776E+03  0.7818608E-02  0.9602700E-01
         -2   -1    0    0    0  501 -0.00000000000E+00  0.00000000000E+00  0.32470862087E+03  0.32470862087E+03  0.00000000000E+00 0.  1.
          2   -1    0    0  501    0  0.00000000000E+00 -0.00000000000E+00 -0.20561675513E+04  0.20561675513E+04  0.00000000000E+00 0. -1.
         23    2    1    2    0    0  0.62176544921E+03  0.20742075997E+03 -0.11240619990E+04  0.13044358399E+04  0.91770568589E+02 0.  0.
    5000000    2    1    2    0    0 -0.62176544921E+03 -0.20742075997E+03 -0.60739693141E+03  0.10764403323E+04  0.60014757451E+03 0.  0.
         23    2    4    4    0    0 -0.11957279957E+03  0.18787551163E+03 -0.20204397058E+03  0.31396544600E+03  0.90319837060E+02 0.  0.
         23    2    4    4    0    0 -0.50219264964E+03 -0.39529627159E+03 -0.40535296083E+03  0.76247488629E+03  0.92737962444E+02 0.  0.
          5    1    3    3  502    0  0.43424667321E+03  0.10062902631E+03 -0.77294246668E+03  0.89227715477E+03  0.47000000000E+01 0. -1.
         -5    1    3    3    0  502  0.18751877600E+03  0.10679173366E+03 -0.35111953235E+03  0.41215868513E+03  0.47000000000E+01 0.  1.
         11    1    5    5    0    0 -0.57485070845E+02  0.16181738301E+03 -0.15912634740E+03  0.23411662318E+03  0.00000000000E+00 0. -1.
        -11    1    5    5    0    0 -0.62087728726E+02  0.26058128617E+02 -0.42917623183E+02  0.79848822816E+02  0.00000000000E+00 0.  1.
          2    1    6    6  503    0 -0.27487673097E+03 -0.25234333466E+03 -0.27776972315E+03  0.46517780995E+03  0.00000000000E+00 0. -1.
         -2    1    6    6    0  503 -0.22731591867E+03 -0.14295293694E+03 -0.12758323768E+03  0.29729707633E+03  0.00000000000E+00 0.  1.
<mgrwt>
<rscale>  0 0.77117756E+03</rscale>
<asrwt>0</asrwt>
<pdfrwt beam="1">  1        2 0.31633346E+00 0.77117756E+03</pdfrwt>
<pdfrwt beam="2">  1       -2 0.49955173E-01 0.77117756E+03</pdfrwt>
<totfact> 0.24314202E+01</totfact>
</mgrwt>
</event>
<event>
12    1  0.3147868E-008  0.3617194E+03  0.7818608E-02  0.1057905E+00
          1   -1    0    0  501    0  0.00000000000E+00  0.00000000000E+00  0.97809426776E+03  0.97809426776E+03  0.00000000000E+00 0. -1.
         -1   -1    0    0    0  501 -0.00000000000E+00 -0.00000000000E+00 -0.19935370183E+03  0.19935370183E+03  0.00000000000E+00 0.  1.
         23    2    1    2    0    0  0.37336277193E+02  0.13012166332E+03  0.45113615803E+03  0.48052058418E+03  0.95134399036E+02 0.  0.
    5000000    2    1    2    0    0 -0.37336277193E+02 -0.13012166332E+03  0.32760440790E+03  0.69692738540E+03  0.60004790441E+03 0.  0.
         23    2    4    4    0    0 -0.29242131008E+03 -0.71166406782E+02  0.81476670857E+02  0.32441217868E+03  0.89609897538E+02 0.  0.
         23    2    4    4    0    0  0.25508503289E+03 -0.58955256540E+02  0.24612773705E+03  0.37251520672E+03  0.98207026323E+02 0.  0.
          5    1    3    3  502    0 -0.13802293550E+02  0.27508484389E+02  0.22289414666E+03  0.22505801615E+03  0.47000000000E+01 0. -1.
         -5    1    3    3    0  502  0.51138570743E+02  0.10261317893E+03  0.22824201137E+03  0.25546256803E+03  0.47000000000E+01 0.  1.
         11    1    5    5    0    0 -0.54164534329E+02 -0.48162713305E+02  0.35357971363E+02  0.80645085845E+02  0.00000000000E+00 0.  1.
        -11    1    5    5    0    0 -0.23825677575E+03 -0.23003693477E+02  0.46118699495E+02  0.24376709283E+03  0.00000000000E+00 0. -1.
          3    1    6    6  503    0  0.80805620505E+02  0.26967577864E+01  0.13341401719E+03  0.15600038715E+03  0.00000000000E+00 0. -1.
         -3    1    6    6    0  503  0.17427941238E+03 -0.61652014326E+02  0.11271371985E+03  0.21651481957E+03  0.00000000000E+00 0.  1.
<mgrwt>
<rscale>  0 0.36171943E+03</rscale>
<asrwt>0</asrwt>
<pdfrwt beam="1">  1        1 0.15047604E+00 0.36171943E+03</pdfrwt>
<pdfrwt beam="2">  1       -1 0.30669801E-01 0.36171943E+03</pdfrwt>
<totfact> 0.16283048E+02</totfact>
</mgrwt>
</event>
<event>
12    1  0.3147868E-008  0.7772159E+03  0.7818608E-02  0.9593594E-01
         -1   -1    0    0    0  501 -0.00000000000E+00  0.00000000000E+00  0.59503073062E+03  0.59503073062E+03  0.00000000000E+00 0.  1.
          1   -1    0    0  501    0  0.00000000000E+00 -0.00000000000E+00 -0.11426190744E+04  0.11426190744E+04  0.00000000000E+00 0. -1.
         23    2    1    2    0    0 -0.35941301322E+03 -0.55532406819E+03  0.38693265873E+02  0.66923005829E+03  0.93857164358E+02 0.  0.
    5000000    2    1    2    0    0  0.35941301322E+03  0.55532406819E+03 -0.58628160962E+03  0.10684197467E+04  0.60019338098E+03 0.  0.
         23    2    4    4    0    0  0.26387561160E+03 -0.41078149376E+02 -0.20132663852E+03  0.34653364454E+03  0.90749097351E+02 0.  0.
         23    2    4    4    0    0  0.95537401625E+02  0.59640221757E+03 -0.38495497110E+03  0.72188610216E+03  0.90034518293E+02 0.  0.
          5    1    3    3  502    0 -0.16121682798E+03 -0.18183344721E+03 -0.12020688030E+02  0.24335335439E+03  0.47000000000E+01 0. -1.
         -5    1    3    3    0  502 -0.19819618524E+03 -0.37349062098E+03  0.50713953904E+02  0.42587670390E+03  0.47000000000E+01 0.  1.
         11    1    5    5    0    0  0.58340492002E+02 -0.46089928476E+02 -0.35466548645E+02  0.82375788839E+02  0.00000000000E+00 0. -1.
        -11    1    5    5    0    0  0.20553511960E+03  0.50117790997E+01 -0.16586008987E+03  0.26415785571E+03  0.00000000000E+00 0.  1.
          3    1    6    6  503    0 -0.12801264950E+02  0.65741120863E+02 -0.24592311731E+02  0.71348084437E+02  0.00000000000E+00 0. -1.
         -3    1    6    6    0  503  0.10833866657E+03  0.53066109670E+03 -0.36036265937E+03  0.65053801772E+03  0.00000000000E+00 0.  1.
<mgrwt>
<rscale>  0 0.77721593E+03</rscale>
<asrwt>0</asrwt>
<pdfrwt beam="1">  1        1 0.17578755E+00 0.77721593E+03</pdfrwt>
<pdfrwt beam="2">  1       -1 0.91543190E-01 0.77721593E+03</pdfrwt>
<totfact> 0.14096008E+01</totfact>
</mgrwt>
</event>
<event>
12    1  0.3147868E-008  0.1124074E+04  0.7818608E-02  0.9182040E-01
         -1   -1    0    0    0  501 -0.00000000000E+00  0.00000000000E+00  0.61691974730E+03  0.61691974730E+03  0.00000000000E+00 0.  1.
          1   -1    0    0  501    0  0.00000000000E+00 -0.00000000000E+00 -0.23752471269E+04  0.23752471269E+04  0.00000000000E+00 0. -1.
         23    2    1    2    0    0  0.60550526412E+03 -0.88134746267E+03 -0.12938339638E+04  0.16810122303E+04  0.91574111132E+02 0.  0.
    5000000    2    1    2    0    0 -0.60550526412E+03  0.88134746267E+03 -0.46449341583E+03  0.13111546439E+04  0.59996865919E+03 0.  0.
         23    2    4    4    0    0 -0.41159559432E+03  0.87336091885E+03 -0.50355138071E+03  0.10925273260E+04  0.88779148567E+02 0.  0.
         23    2    4    4    0    0 -0.19390966980E+03  0.79865438203E+01  0.39057964880E+02  0.21862731788E+03  0.92777338720E+02 0.  0.
          5    1    3    3  502    0  0.80359644476E+02 -0.97178201216E+02 -0.11324194430E+03  0.16954970717E+03  0.47000000000E+01 0. -1.
         -5    1    3    3    0  502  0.52514561965E+03 -0.78416926145E+03 -0.11805920195E+04  0.15114625231E+04  0.47000000000E+01 0.  1.
         11    1    5    5    0    0 -0.10281984425E+03  0.22028274565E+03 -0.17130290752E+03  0.29739047484E+03  0.00000000000E+00 0. -1.
        -11    1    5    5    0    0 -0.30877575007E+03  0.65307817320E+03 -0.33224847319E+03  0.79513685116E+03  0.00000000000E+00 0.  1.
          1    1    6    6  503    0 -0.65700127132E+00 -0.17721174007E+02 -0.56498943060E+01  0.18611635192E+02  0.00000000000E+00 0. -1.
         -1    1    6    6    0  503 -0.19325266853E+03  0.25707717827E+02  0.44707859186E+02  0.20001568269E+03  0.00000000000E+00 0.  1.
<mgrwt>
<rscale>  0 0.11240742E+04</rscale>
<asrwt>0</asrwt>
<pdfrwt beam="1">  1        1 0.36542263E+00 0.11240742E+04</pdfrwt>
<pdfrwt beam="2">  1       -1 0.94910732E-01 0.11240742E+04</pdfrwt>
<totfact> 0.17713785E+00</totfact>
</mgrwt>
</event>
<event>
12    1  0.3147868E-008  0.4627618E+03  0.7818608E-02  0.1023983E+00
          2   -1    0    0  501    0  0.00000000000E+00  0.00000000000E+00  0.17643777259E+04  0.17643777259E+04  0.00000000000E+00 0. -1.
         -2   -1    0    0    0  501 -0.00000000000E+00 -0.00000000000E+00 -0.19661771666E+03  0.19661771666E+03  0.00000000000E+00 0.  1.
         23    2    1    2    0    0 -0.15947117515E+03 -0.23665524922E+03  0.11211710682E+04  0.11605286064E+04  0.91462121023E+02 0.  0.
    5000000    2    1    2    0    0  0.15947117515E+03  0.23665524922E+03  0.44658894107E+03  0.80046683612E+03  0.59989058232E+03 0.  0.
         23    2    4    4    0    0 -0.71093286364E+02 -0.15377874368E+03  0.69297938759E+02  0.20393536931E+03  0.89918147040E+02 0.  0.
         23    2    4    4    0    0  0.23056446151E+03  0.39043399289E+03  0.37729100231E+03  0.59653146681E+03  0.88896663317E+02 0.  0.
          5    1    3    3  502    0 -0.10540224249E+03 -0.20482244825E+03  0.76870808231E+03  0.80249365968E+03  0.47000000000E+01 0. -1.
         -5    1    3    3    0  502 -0.54068932653E+02 -0.31832800969E+02  0.35246298586E+03  0.35803494676E+03  0.47000000000E+01 0.  1.
         13    1    5    5    0    0 -0.93707950407E+01 -0.87082708288E+02  0.71455873263E+02  0.11303606374E+03  0.00000000000E+00 0. -1.
        -13    1    5    5    0    0 -0.61722491323E+02 -0.66696035387E+02 -0.21579345043E+01  0.90899305569E+02  0.00000000000E+00 0.  1.
          4    1    6    6  503    0  0.14447615124E+03  0.26045181368E+03  0.29916125130E+03  0.42214447741E+03  0.00000000000E+00 0. -1.
         -4    1    6    6    0  503  0.86088310273E+02  0.12998217922E+03  0.78129751005E+02  0.17438698940E+03  0.00000000000E+00 0.  1.
<mgrwt>
<rscale>  0 0.46276179E+03</rscale>
<asrwt>0</asrwt>
<pdfrwt beam="1">  1        2 0.27144272E+00 0.46276179E+03</pdfrwt>
<pdfrwt beam="2">  1       -2 0.30248881E-01 0.46276179E+03</pdfrwt>
<totfact> 0.96642788E+01</totfact>
</mgrwt>
</event>
<event>
12    1  0.3147868E-008  0.5798368E+03  0.7818608E-02  0.9948144E-01
          2   -1    0    0  501    0  0.00000000000E+00  0.00000000000E+00  0.18343106860E+04  0.18343106860E+04  0.00000000000E+00 0. -1.
         -2   -1    0    0    0  501 -0.00000000000E+00 -0.00000000000E+00 -0.32224586990E+03  0.32224586990E+03  0.00000000000E+00 0.  1.
         23    2    1    2    0    0 -0.12951265194E+03  0.52722475490E+03  0.11398594502E+04  0.12659198763E+04  0.92380180641E+02 0.  0.
    5000000    2    1    2    0    0  0.12951265194E+03 -0.52722475490E+03  0.37220536588E+03  0.89063667960E+03  0.59996449183E+03 0.  0.
         23    2    4    4    0    0 -0.58980066193E+02 -0.32809299156E+03 -0.79046540948E+02  0.35488964549E+03  0.92599381871E+02 0.  0.
         23    2    4    4    0    0  0.18849271814E+03 -0.19913176334E+03  0.45125190683E+03  0.53574703410E+03  0.90629118783E+02 0.  0.
          5    1    3    3  502    0 -0.55332091610E+02  0.22523543426E+03  0.59381782144E+03  0.63752202806E+03  0.47000000000E+01 0. -1.
         -5    1    3    3    0  502 -0.74180560332E+02  0.30198932065E+03  0.54604162879E+03  0.62839784825E+03  0.47000000000E+01 0.  1.
         11    1    5    5    0    0  0.38576491167E+01 -0.16926639859E+03 -0.68385827549E+01  0.16944840324E+03  0.00000000000E+00 0.  1.
        -11    1    5    5    0    0 -0.62837715310E+02 -0.15882659297E+03 -0.72207958193E+02  0.18544124225E+03  0.00000000000E+00 0. -1.
          1    1    6    6  503    0  0.55019092640E+02 -0.83408165319E+02  0.24250281816E+03  0.26228160326E+03  0.00000000000E+00 0. -1.
         -1    1    6    6    0  503  0.13347362550E+03 -0.11572359802E+03  0.20874908867E+03  0.27346543084E+03  0.00000000000E+00 0.  1.
<mgrwt>
<rscale>  0 0.57983676E+03</rscale>
<asrwt>0</asrwt>
<pdfrwt beam="1">  1        2 0.28220164E+00 0.57983676E+03</pdfrwt>
<pdfrwt beam="2">  1       -2 0.49576289E-01 0.57983676E+03</pdfrwt>
<totfact> 0.33513691E+01</totfact>
</mgrwt>
</event>
<event>
12    1  0.3147868E-008  0.7703278E+03  0.7818608E-02  0.9603988E-01
         -2   -1    0    0    0  501 -0.00000000000E+00  0.00000000000E+00  0.76672087779E+03  0.76672087779E+03  0.00000000000E+00 0.  1.
          2   -1    0    0  501    0  0.00000000000E+00 -0.00000000000E+00 -0.83404867099E+03  0.83404867099E+03  0.00000000000E+00 0. -1.
         23    2    1    2    0    0 -0.22715169435E+03  0.64295016083E+03  0.22484320661E+02  0.68806075460E+03  0.89102501558E+02 0.  0.
    5000000    2    1    2    0    0  0.22715169435E+03 -0.64295016083E+03 -0.89812113868E+02  0.91270879418E+03  0.59999027128E+03 0.  0.
         23    2    4    4    0    0 -0.67473125151E+02  0.59947387697E+02 -0.62568595340E+02  0.14461550696E+03  0.94087745327E+02 0.  0.
         23    2    4    4    0    0  0.29462481950E+03 -0.70289754853E+03 -0.27243518528E+02  0.76809328723E+03  0.91413021988E+02 0.  0.
          5    1    3    3  502    0 -0.19232327707E+03  0.54284545611E+03 -0.13339895796E+02  0.57608113573E+03  0.47000000000E+01 0. -1.
         -5    1    3    3    0  502 -0.34828417275E+02  0.10010470472E+03  0.35824216456E+02  0.11197961887E+03  0.47000000000E+01 0.  1.
         13    1    5    5    0    0 -0.43388159395E+02  0.29406636674E+02 -0.84892126906E+02  0.99769513714E+02  0.00000000000E+00 0. -1.
        -13    1    5    5    0    0 -0.24084965756E+02  0.30540751023E+02  0.22323531566E+02  0.44845993244E+02  0.00000000000E+00 0.  1.
          1    1    6    6  503    0  0.84843835612E+02 -0.11349631615E+03 -0.13164235069E+02  0.14231369332E+03  0.00000000000E+00 0. -1.
         -1    1    6    6    0  503  0.20978098389E+03 -0.58940123237E+03 -0.14079283459E+02  0.62577959390E+03  0.00000000000E+00 0.  1.
<mgrwt>
<rscale>  0 0.77032776E+03</rscale>
<asrwt>0</asrwt>
<pdfrwt beam="1">  1        2 0.12831518E+00 0.77032776E+03</pdfrwt>
<pdfrwt beam="2">  1       -2 0.11795706E+00 0.77032776E+03</pdfrwt>
<totfact> 0.18278835E+01</totfact>
</mgrwt>
</event>
<event>
12    1  0.3147868E-008  0.1062479E+04  0.7818608E-02  0.9242555E-01
          2   -1    0    0  501    0  0.00000000000E+00  0.00000000000E+00  0.13974582953E+04  0.13974582953E+04  0.00000000000E+00 0.  1.
         -2   -1    0    0    0  501 -0.00000000000E+00 -0.00000000000E+00 -0.87554642955E+03  0.87554642955E+03  0.00000000000E+00 0. -1.
         23    2    1    2    0    0  0.58074323027E+03 -0.84152357912E+03  0.25907610718E+03  0.10586690953E+04  0.90747949170E+02 0.  0.
    5000000    2    1    2    0    0 -0.58074323027E+03  0.84152357912E+03  0.26283575860E+03  0.12143356296E+04  0.60008645340E+03 0.  0.
         23    2    4    4    0    0 -0.53520620630E+03  0.88177911233E+03  0.33484199135E+03  0.10882185465E+04  0.90113037603E+02 0.  0.
         23    2    4    4    0    0 -0.45537023973E+02 -0.40255533203E+02 -0.72006232751E+02  0.12611708310E+03  0.83824176637E+02 0.  0.
          5    1    3    3  502    0  0.38490966508E+03 -0.54255964201E+03  0.21171625101E+03  0.69812053139E+03  0.47000000000E+01 0. -1.
         -5    1    3    3    0  502  0.19583356519E+03 -0.29896393711E+03  0.47359856166E+02  0.36054856389E+03  0.47000000000E+01 0.  1.
         11    1    5    5    0    0 -0.18499083764E+03  0.23539417483E+03  0.76742944451E+02  0.30906553848E+03  0.00000000000E+00 0.  1.
        -11    1    5    5    0    0 -0.35021536865E+03  0.64638493750E+03  0.25809904690E+03  0.77915300800E+03  0.00000000000E+00 0. -1.
          4    1    6    6  503    0 -0.56644120139E+01 -0.24037406680E+02 -0.78764210677E+02  0.82545038415E+02  0.00000000000E+00 0.  1.
         -4    1    6    6    0  503 -0.39872611959E+02 -0.16218126523E+02  0.67579779262E+01  0.43572044684E+02  0.00000000000E+00 0. -1.
<mgrwt>
<rscale>  0 0.10624786E+04</rscale>
<asrwt>0</asrwt>
<pdfrwt beam="1">  1        2 0.21499358E+00 0.10624786E+04</pdfrwt>
<pdfrwt beam="2">  1       -2 0.13469945E+00 0.10624786E+04</pdfrwt>
<totfact> 0.56813061E+00</totfact>
</mgrwt>
</event>
<event>
12    1  0.3147868E-008  0.1212084E+04  0.7818608E-02  0.9102344E-01
          1   -1    0    0  501    0  0.00000000000E+00  0.00000000000E+00  0.23570251843E+04  0.23570251843E+04  0.00000000000E+00 0. -1.
         -1   -1    0    0    0  501 -0.00000000000E+00 -0.00000000000E+00 -0.71314596971E+03  0.71314596971E+03  0.00000000000E+00 0.  1.
         23    2    1    2    0    0 -0.31194187594E+03  0.10943568560E+04  0.13168023811E+04  0.17427980551E+04  0.91934149111E+02 0.  0.
    5000000    2    1    2    0    0  0.31194187594E+03 -0.10943568560E+04  0.32707683345E+03  0.13273730988E+04  0.60001285506E+03 0.  0.
         23    2    4    4    0    0 -0.11604145131E+03 -0.62504659205E+03  0.12757268796E+03  0.65498702027E+03  0.92651742327E+02 0.  0.
         23    2    4    4    0    0  0.42798332725E+03 -0.46931026398E+03  0.19950414548E+03  0.67238607857E+03  0.94229943812E+02 0.  0.
          5    1    3    3  502    0 -0.44311667495E+02  0.25563821337E+03  0.26021253501E+03  0.36748751460E+03  0.47000000000E+01 0. -1.
         -5    1    3    3    0  502 -0.26763020844E+03  0.83871864266E+03  0.10565898461E+04  0.13753105405E+04  0.47000000000E+01 0.  1.
         13    1    5    5    0    0 -0.11138016976E+03 -0.35066973596E+03  0.67540816224E+02  0.37408096421E+03  0.00000000000E+00 0.  1.
        -13    1    5    5    0    0 -0.46612815472E+01 -0.27437685609E+03  0.60031871738E+02  0.28090605605E+03  0.00000000000E+00 0. -1.
          4    1    6    6  503    0  0.34133461363E+03 -0.31253624950E+03  0.13674573966E+03  0.48258431701E+03  0.00000000000E+00 0.  1.
         -4    1    6    6    0  503  0.86648713618E+02 -0.15677401449E+03  0.62758405824E+02  0.18980176156E+03  0.00000000000E+00 0. -1.
<mgrwt>
<rscale>  0 0.12120845E+04</rscale>
<asrwt>0</asrwt>
<pdfrwt beam="1">  1        1 0.36261926E+00 0.12120845E+04</pdfrwt>
<pdfrwt beam="2">  1       -1 0.10971477E+00 0.12120845E+04</pdfrwt>
<totfact> 0.12883892E+00</totfact>
</mgrwt>
</event>
<event>
12    1  0.3147868E-008  0.1154499E+04  0.7818608E-02  0.9153643E-01
          2   -1    0    0  501    0  0.00000000000E+00  0.00000000000E+00  0.11465275897E+04  0.11465275897E+04  0.00000000000E+00 0. -1.
         -2   -1    0    0    0  501 -0.00000000000E+00 -0.00000000000E+00 -0.16495716446E+04  0.16495716446E+04  0.00000000000E+00 0.  1.
         23    2    1    2    0    0  0.79053682934E+03 -0.74411088693E+03  0.50219812520E+03  0.11996577664E+04  0.91248609949E+02 0.  0.
    5000000    2    1    2    0    0 -0.79053682934E+03  0.74411088693E+03 -0.10052421801E+04  0.15964414680E+04  0.59955319146E+03 0.  0.
         23    2    4    4    0    0 -0.47680959697E+02  0.37449306153E+03 -0.20033340519E+03  0.43670883903E+03  0.89792036411E+02 0.  0.
         23    2    4    4    0    0 -0.74285586965E+03  0.36961782540E+03 -0.80490877494E+03  0.11597326290E+04  0.93002444898E+02 0.  0.
          5    1    3    3  502    0  0.33296946348E+03 -0.26799464935E+03  0.22998155256E+03  0.48538994655E+03  0.47000000000E+01 0. -1.
         -5    1    3    3    0  502  0.45756736586E+03 -0.47611623757E+03  0.27221657264E+03  0.71426781980E+03  0.47000000000E+01 0.  1.
         13    1    5    5    0    0 -0.42826445614E+02  0.71410899165E+02 -0.27041495195E+02  0.87549205741E+02  0.00000000000E+00 0.  1.
        -13    1    5    5    0    0 -0.48545140827E+01  0.30308216236E+03 -0.17329191000E+03  0.34915963329E+03  0.00000000000E+00 0. -1.
          4    1    6    6  503    0 -0.43328165750E+03  0.26564487405E+03 -0.49983408938E+03  0.71283540228E+03  0.00000000000E+00 0. -1.
         -4    1    6    6    0  503 -0.30957421214E+03  0.10397295135E+03 -0.30507468557E+03  0.44689722667E+03  0.00000000000E+00 0.  1.
<mgrwt>
<rscale>  0 0.11544994E+04</rscale>
<asrwt>0</asrwt>
<pdfrwt beam="1">  1        2 0.17638886E+00 0.11544994E+04</pdfrwt>
<pdfrwt beam="2">  1       -2 0.25378025E+00 0.11544994E+04</pdfrwt>
<totfact> 0.12157418E+00</totfact>
</mgrwt>
</event>
<event>
12    1  0.3147868E-008  0.1201906E+04  0.7818608E-02  0.9111190E-01
          1   -1    0    0  501    0  0.00000000000E+00  0.00000000000E+00  0.19358489633E+04  0.19358489633E+04  0.00000000000E+00 0. -1.
         -1   -1    0    0    0  501 -0.00000000000E+00 -0.00000000000E+00 -0.87002275385E+03  0.87002275385E+03  0.00000000000E+00 0.  1.
         23    2    1    2    0    0  0.88708957279E+03 -0.69631440588E+03 -0.16552924592E+02  0.11315811078E+04  0.91761333087E+02 0.  0.
    5000000    2    1    2    0    0 -0.88708957279E+03  0.69631440588E+03  0.10823791340E+04  0.16742906093E+04  0.59993565712E+03 0.  0.
         23    2    4    4    0    0 -0.16787306160E+02  0.29880387715E+03  0.26390408054E+03  0.41178878021E+03  0.10177949269E+03 0.  0.
         23    2    4    4    0    0 -0.87030226663E+03  0.39751052873E+03  0.81847505348E+03  0.12625018291E+04  0.92567810633E+02 0.  0.
          5    1    3    3  502    0  0.26232351352E+03 -0.24065959907E+03  0.27156025700E+02  0.35705770976E+03  0.47000000000E+01 0. -1.
         -5    1    3    3    0  502  0.62476605927E+03 -0.45565480682E+03 -0.43708950293E+02  0.77452339805E+03  0.47000000000E+01 0.  1.
         11    1    5    5    0    0 -0.57465589050E+02  0.22028230557E+03  0.18791978663E+03  0.29519558648E+03  0.00000000000E+00 0.  1.
        -11    1    5    5    0    0  0.40678282890E+02  0.78521571576E+02  0.75984293916E+02  0.11659319373E+03  0.00000000000E+00 0. -1.
          2    1    6    6  503    0 -0.49610725878E+02  0.90574523632E+01  0.67143627127E+02  0.83973378098E+02  0.00000000000E+00 0. -1.
         -2    1    6    6    0  503 -0.82069154076E+03  0.38845307637E+03  0.75133142635E+03  0.11785284510E+04  0.00000000000E+00 0.  1.
<mgrwt>
<rscale>  0 0.12019061E+04</rscale>
<asrwt>0</asrwt>
<pdfrwt beam="1">  1        1 0.29782292E+00 0.12019061E+04</pdfrwt>
<pdfrwt beam="2">  1       -1 0.13384965E+00 0.12019061E+04</pdfrwt>
<totfact> 0.15249556E+00</totfact>
</mgrwt>
</event>
<event>
12    1  0.3147868E-008  0.3749538E+03  0.7818608E-02  0.1052815E+00
         -1   -1    0    0    0  501 -0.00000000000E+00  0.00000000000E+00  0.35540304557E+03  0.35540304557E+03  0.00000000000E+00 0.  1.
          1   -1    0    0  501    0  0.00000000000E+00 -0.00000000000E+00 -0.64829961126E+03  0.64829961126E+03  0.00000000000E+00 0. -1.
         23    2    1    2    0    0 -0.19456958461E+03 -0.19334336676E+03 -0.19365299320E+02  0.28975779833E+03  0.91354179718E+02 0.  0.
    5000000    2    1    2    0    0  0.19456958461E+03  0.19334336676E+03 -0.27353126637E+03  0.71394485850E+03  0.59971570480E+03 0.  0.
         23    2    4    4    0    0  0.14331397782E+03  0.29358039788E+03 -0.39791557126E+03  0.52266622777E+03  0.90082393053E+02 0.  0.
         23    2    4    4    0    0  0.51255606795E+02 -0.10023703113E+03  0.12438430489E+03  0.19127863074E+03  0.91877416362E+02 0.  0.
          5    1    3    3  502    0 -0.32642884030E+02 -0.33940246230E+02  0.31520583019E+02  0.56860666069E+02  0.47000000000E+01 0. -1.
         -5    1    3    3    0  502 -0.16192670058E+03 -0.15940312053E+03 -0.50885882340E+02  0.23289713226E+03  0.47000000000E+01 0.  1.
         13    1    5    5    0    0  0.32310340997E+02  0.13137875288E+03 -0.11161186006E+03  0.17538968656E+03  0.00000000000E+00 0. -1.
        -13    1    5    5    0    0  0.11100363682E+03  0.16220164500E+03 -0.28630371120E+03  0.34727654121E+03  0.00000000000E+00 0.  1.
          1    1    6    6  503    0 -0.25696199828E+02 -0.25013579099E+02  0.45073677871E+02  0.57598700174E+02  0.00000000000E+00 0. -1.
         -1    1    6    6    0  503  0.76951806623E+02 -0.75223452028E+02  0.79310627018E+02  0.13367993056E+03  0.00000000000E+00 0.  1.
<mgrwt>
<rscale>  0 0.37495382E+03</rscale>
<asrwt>0</asrwt>
<pdfrwt beam="1">  1        1 0.99738401E-01 0.37495382E+03</pdfrwt>
<pdfrwt beam="2">  1       -1 0.54677392E-01 0.37495382E+03</pdfrwt>
<totfact> 0.10902441E+02</totfact>
</mgrwt>
</event>
<event>
12    1  0.3147868E-008  0.1076499E+04  0.7818608E-02  0.9228405E-01
         -2   -1    0    0    0  501 -0.00000000000E+00  0.00000000000E+00  0.61819018379E+03  0.61819018379E+03  0.00000000000E+00 0.  1.
          2   -1    0    0  501    0  0.00000000000E+00 -0.00000000000E+00 -0.23379126485E+04  0.23379126485E+04  0.00000000000E+00 0. -1.
         23    2    1    2    0    0 -0.84791167243E+03  0.54302487818E+03 -0.14254485250E+04  0.17476071285E+04  0.91634904175E+02 0.  0.
    5000000    2    1    2    0    0  0.84791167243E+03 -0.54302487818E+03 -0.29427393972E+03  0.12084957038E+04  0.60002874255E+03 0.  0.
         23    2    4    4    0    0  0.90750118466E+03 -0.42908557046E+03 -0.21090904011E+03  0.10297696904E+04  0.90940448380E+02 0.  0.
         23    2    4    4    0    0 -0.59589512231E+02 -0.11393930772E+03 -0.83364899610E+02  0.17872601336E+03  0.91979375704E+02 0.  0.
          5    1    3    3  502    0 -0.36259846549E+03  0.25950723337E+03 -0.56366896629E+03  0.71872556996E+03  0.47000000000E+01 0. -1.
         -5    1    3    3    0  502 -0.48531320694E+03  0.28351764481E+03 -0.86177955866E+03  0.10288815585E+04  0.47000000000E+01 0.  1.
         13    1    5    5    0    0  0.71161073467E+03 -0.37532832990E+03 -0.17812669615E+03  0.82400868490E+03  0.00000000000E+00 0. -1.
        -13    1    5    5    0    0  0.19589045000E+03 -0.53757240567E+02 -0.32782343961E+02  0.20576100551E+03  0.00000000000E+00 0.  1.
          1    1    6    6  503    0 -0.64674684770E+02 -0.79290154668E+02 -0.97145257843E+02  0.14109197213E+03  0.00000000000E+00 0.  1.
         -1    1    6    6    0  503  0.50851725395E+01 -0.34649153047E+02  0.13780358233E+02  0.37634041235E+02  0.00000000000E+00 0. -1.
<mgrwt>
<rscale>  0 0.10764993E+04</rscale>
<asrwt>0</asrwt>
<pdfrwt beam="1">  1        2 0.35967885E+00 0.10764993E+04</pdfrwt>
<pdfrwt beam="2">  1       -2 0.95106186E-01 0.10764993E+04</pdfrwt>
<totfact> 0.39954821E+00</totfact>
</mgrwt>
</event>
<event>
12    1  0.3147868E-008  0.9716952E+03  0.7818608E-02  0.9340146E-01
          1   -1    0    0  501    0  0.00000000000E+00  0.00000000000E+00  0.21686737207E+04  0.21686737207E+04  0.00000000000E+00 0. -1.
         -1   -1    0    0    0  501 -0.00000000000E+00 -0.00000000000E+00 -0.51222948144E+03  0.51222948144E+03  0.00000000000E+00 0.  1.
         23    2    1    2    0    0  0.44008932547E+03 -0.82350210934E+03  0.10784183232E+04  0.14294942367E+04  0.92915846382E+02 0.  0.
    5000000    2    1    2    0    0 -0.44008932547E+03  0.82350210934E+03  0.57802591609E+03  0.12514089654E+04  0.60006341385E+03 0.  0.
         23    2    4    4    0    0 -0.30635221909E+02  0.42250583388E+03  0.50721564362E+03  0.66687577393E+03  0.89475651606E+02 0.  0.
         23    2    4    4    0    0 -0.40945410356E+03  0.40099627546E+03  0.70810272463E+02  0.58453319151E+03  0.90632673146E+02 0.  0.
          5    1    3    3  502    0  0.24943400856E+03 -0.38545664672E+03  0.56788805613E+03  0.73028288041E+03  0.47000000000E+01 0. -1.
         -5    1    3    3    0  502  0.19065531690E+03 -0.43804546262E+03  0.51053026703E+03  0.69921135627E+03  0.47000000000E+01 0.  1.
         13    1    5    5    0    0 -0.52835223343E+02  0.14463348933E+03  0.17033797615E+03  0.22962019332E+03  0.00000000000E+00 0. -1.
        -13    1    5    5    0    0  0.22200001434E+02  0.27787234456E+03  0.33687766748E+03  0.43725558061E+03  0.00000000000E+00 0.  1.
          2    1    6    6  503    0 -0.17794449812E+03  0.15565389248E+03  0.72228742705E+02  0.24720309449E+03  0.00000000000E+00 0. -1.
         -2    1    6    6    0  503 -0.23150960544E+03  0.24534238299E+03 -0.14184702416E+01  0.33733009702E+03  0.00000000000E+00 0.  1.
<mgrwt>
<rscale>  0 0.97169524E+03</rscale>
<asrwt>0</asrwt>
<pdfrwt beam="1">  1        1 0.33364211E+00 0.97169524E+03</pdfrwt>
<pdfrwt beam="2">  1       -1 0.78804537E-01 0.97169524E+03</pdfrwt>
<totfact> 0.37509384E+00</totfact>
</mgrwt>
</event>
<event>
12    1  0.3147868E-008  0.3365099E+03  0.7818608E-02  0.1068292E+00
          3   -1    0    0  501    0  0.00000000000E+00  0.00000000000E+00  0.49733794478E+03  0.49733794478E+03  0.00000000000E+00 0. -1.
         -3   -1    0    0    0  501 -0.00000000000E+00 -0.00000000000E+00 -0.58290560721E+03  0.58290560721E+03  0.00000000000E+00 0.  1.
         23    2    1    2    0    0  0.11741372379E+03 -0.20976485557E+03  0.24476022169E+03  0.35440214356E+03  0.88915893249E+02 0.  0.
    5000000    2    1    2    0    0 -0.11741372379E+03  0.20976485557E+03 -0.33032788412E+03  0.72584140843E+03  0.59995163305E+03 0.  0.
         23    2    4    4    0    0 -0.21338962055E+03  0.11096565074E+03 -0.45258857258E+03  0.51971496359E+03  0.86132000720E+02 0.  0.
         23    2    4    4    0    0  0.95975896759E+02  0.98799204833E+02  0.12226068847E+03  0.20612644483E+03  0.92562301621E+02 0.  0.
          5    1    3    3  502    0  0.13026454181E+03 -0.18097647583E+03  0.20083388488E+03  0.30012943037E+03  0.47000000000E+01 0. -1.
         -5    1    3    3    0  502 -0.12850818019E+02 -0.28788379737E+02  0.43926336809E+02  0.54272713192E+02  0.47000000000E+01 0.  1.
         11    1    5    5    0    0 -0.14147497987E+03  0.11660874668E+03 -0.32415614142E+03  0.37241102797E+03  0.00000000000E+00 0.  1.
        -11    1    5    5    0    0 -0.71914640682E+02 -0.56430959468E+01 -0.12843243116E+03  0.14730393562E+03  0.00000000000E+00 0. -1.
          4    1    6    6  503    0  0.55256028388E+02 -0.56072241573E+00  0.61771392266E+02  0.82880926547E+02  0.00000000000E+00 0.  1.
         -4    1    6    6    0  503  0.40719868371E+02  0.99359927249E+02  0.60489296201E+02  0.12324551829E+03  0.00000000000E+00 0. -1.
<mgrwt>
<rscale>  0 0.33650989E+03</rscale>
<asrwt>0</asrwt>
<pdfrwt beam="1">  1        3 0.76513530E-01 0.33650989E+03</pdfrwt>
<pdfrwt beam="2">  1       -3 0.89677786E-01 0.33650989E+03</pdfrwt>
<totfact> 0.47012282E+00</totfact>
</mgrwt>
</event>
<event>
12    1  0.3223751E-008  0.1571750E+04  0.7818608E-02  0.8838093E-01
         -2   -1    0    0    0  501 -0.00000000000E+00  0.00000000000E+00  0.14116479363E+04  0.14116479363E+04  0.00000000000E+00 0.  1.
          2   -1    0    0  501    0  0.00000000000E+00 -0.00000000000E+00 -0.20288270570E+04  0.20288270570E+04  0.00000000000E+00 0. -1.
         23    2    1    2    0    0 -0.11790286871E+04  0.97200631549E+03 -0.89874099816E+03  0.17751042700E+04  0.91404951541E+02 0.  0.
    5000000    2    1    2    0    0  0.11790286871E+04 -0.97200631549E+03  0.28156187741E+03  0.16653707233E+04  0.59939772506E+03 0.  0.
         23    2    4    4    0    0  0.97745864360E+03 -0.10025158570E+04  0.16160927942E+03  0.14123367443E+04  0.90078168485E+02 0.  0.
         23    2    4    4    0    0  0.20157004349E+03  0.30509541530E+02  0.11995259798E+03  0.25303397903E+03  0.89867982187E+02 0.  0.
          5    1    3    3  502    0 -0.81464938456E+03  0.62148191075E+03 -0.62274862992E+03  0.11990543487E+04  0.47000000000E+01 0.  1.
         -5    1    3    3    0  502 -0.36437930254E+03  0.35052440474E+03 -0.27599236824E+03  0.57604992124E+03  0.47000000000E+01 0. -1.
         13    1    5    5    0    0  0.45247530066E+03 -0.43677394349E+03  0.11340557697E+03  0.63903536702E+03  0.00000000000E+00 0.  1.
        -13    1    5    5    0    0  0.52498334294E+03 -0.56574191353E+03  0.48203702452E+02  0.77330137723E+03  0.00000000000E+00 0. -1.
          2    1    6    6  503    0  0.77300393856E+02  0.41563818022E+02  0.87915849546E+02  0.12422599752E+03  0.00000000000E+00 0. -1.
         -2    1    6    6    0  503  0.12426964964E+03 -0.11054276493E+02  0.32036748436E+02  0.12880798151E+03  0.00000000000E+00 0.  1.
<mgrwt>
<rscale>  0 0.15717500E+04</rscale>
<asrwt>0</asrwt>
<pdfrwt beam="1">  1        2 0.31212724E+00 0.15717500E+04</pdfrwt>
<pdfrwt beam="2">  1       -2 0.21717661E+00 0.15717500E+04</pdfrwt>
<totfact> 0.61785015E-01</totfact>
</mgrwt>
</event>
<event>
12    1  0.3147868E-008  0.8897724E+03  0.7818608E-02  0.9438457E-01
          2   -1    0    0  501    0  0.00000000000E+00  0.00000000000E+00  0.59801417983E+03  0.59801417983E+03  0.00000000000E+00 0. -1.
         -2   -1    0    0    0  501 -0.00000000000E+00 -0.00000000000E+00 -0.21490886874E+04  0.21490886874E+04  0.00000000000E+00 0.  1.
         23    2    1    2    0    0  0.46058217724E+03  0.65474726815E+03  0.10484460641E+03  0.81240389848E+03  0.90431054623E+02 0.  0.
    5000000    2    1    2    0    0 -0.46058217724E+03 -0.65474726815E+03 -0.16559191140E+04  0.19346989687E+04  0.60013503522E+03 0.  0.
         23    2    4    4    0    0 -0.19713472663E+03  0.44096074155E+02 -0.58323263559E+03  0.62463335441E+03  0.95916401221E+02 0.  0.
         23    2    4    4    0    0 -0.26344745062E+03 -0.69884334230E+03 -0.10726864784E+04  0.13100656143E+04  0.88481956612E+02 0.  0.
          5    1    3    3  502    0  0.11562748243E+03  0.23024828720E+03  0.15596787582E+02  0.25816533121E+03  0.47000000000E+01 0. -1.
         -5    1    3    3    0  502  0.34495469481E+03  0.42449898094E+03  0.89247818828E+02  0.55423856728E+03  0.47000000000E+01 0.  1.
         13    1    5    5    0    0 -0.20560199161E+03  0.31134325114E+02 -0.53577695259E+03  0.57471598906E+03  0.00000000000E+00 0.  1.
        -13    1    5    5    0    0  0.84672649786E+01  0.12961749041E+02 -0.47455683008E+02  0.49917365357E+02  0.00000000000E+00 0. -1.
          2    1    6    6  503    0 -0.85184660126E+02 -0.34299788260E+03 -0.47724865409E+03  0.59386046477E+03  0.00000000000E+00 0. -1.
         -2    1    6    6    0  503 -0.17826279049E+03 -0.35584545970E+03 -0.59543782429E+03  0.71620514956E+03  0.00000000000E+00 0.  1.
<mgrwt>
<rscale>  0 0.88977240E+03</rscale>
<asrwt>0</asrwt>
<pdfrwt beam="1">  1        2 0.92002183E-01 0.88977240E+03</pdfrwt>
<pdfrwt beam="2">  1       -2 0.33062902E+00 0.88977240E+03</pdfrwt>
<totfact> 0.10515300E+00</totfact>
</mgrwt>
</event>
<event>
12    1  0.3147868E-008  0.1260408E+04  0.7818608E-02  0.9061565E-01
         -1   -1    0    0    0  501 -0.00000000000E+00  0.00000000000E+00  0.14347444827E+04  0.14347444827E+04  0.00000000000E+00 0.  1.
          1   -1    0    0  501    0  0.00000000000E+00 -0.00000000000E+00 -0.34954820829E+04  0.34954820829E+04  0.00000000000E+00 0. -1.
         23    2    1    2    0    0 -0.11553549030E+04 -0.31375263653E+03  0.10171432243E+04  0.15736576289E+04  0.92370587705E+02 0.  0.
    5000000    2    1    2    0    0  0.11553549030E+04  0.31375263653E+03 -0.30778808245E+04  0.33565689367E+04  0.59993248637E+03 0.  0.
         23    2    4    4    0    0  0.52802330407E+03 -0.12809776176E+03 -0.15473395047E+04  0.16424576575E+04  0.90498438995E+02 0.  0.
         23    2    4    4    0    0  0.62733159894E+03  0.44185039829E+03 -0.15305413198E+04  0.17141112793E+04  0.82728692742E+02 0.  0.
          5    1    3    3  502    0 -0.24230774404E+03 -0.33339903522E+02  0.23341340934E+03  0.33812497934E+03  0.47000000000E+01 0.  1.
         -5    1    3    3    0  502 -0.91304715896E+03 -0.28041273301E+03  0.78372981500E+03  0.12355326496E+04  0.47000000000E+01 0. -1.
         11    1    5    5    0    0  0.35480509383E+03 -0.44256835892E+02 -0.96229040762E+03  0.10265710646E+04  0.00000000000E+00 0. -1.
        -11    1    5    5    0    0  0.17321821023E+03 -0.83840925870E+02 -0.58504909710E+03  0.61588659282E+03  0.00000000000E+00 0.  1.
          2    1    6    6  503    0  0.46522809993E+03  0.28565992749E+03 -0.10492265211E+04  0.11827574018E+04  0.00000000000E+00 0. -1.
         -2    1    6    6    0  503  0.16210349901E+03  0.15619047080E+03 -0.48131479875E+03  0.53135387742E+03  0.00000000000E+00 0.  1.
<mgrwt>
<rscale>  0 0.12604083E+04</rscale>
<asrwt>0</asrwt>
<pdfrwt beam="1">  1        1 0.53776648E+00 0.12604083E+04</pdfrwt>
<pdfrwt beam="2">  1       -1 0.22072992E+00 0.12604083E+04</pdfrwt>
<totfact> 0.27102653E-02</totfact>
</mgrwt>
</event>
<event>
12    1  0.3147868E-008  0.4564792E+03  0.7818608E-02  0.1025807E+00
          2   -1    0    0  501    0  0.00000000000E+00  0.00000000000E+00  0.98530572818E+03  0.98530572818E+03  0.00000000000E+00 0. -1.
         -2   -1    0    0    0  501 -0.00000000000E+00 -0.00000000000E+00 -0.49437699007E+03  0.49437699007E+03  0.00000000000E+00 0.  1.
         23    2    1    2    0    0 -0.12347545827E+03  0.30428133703E+03 -0.28551957577E+03  0.44456540240E+03  0.91014548311E+02 0.  0.
    5000000    2    1    2    0    0  0.12347545827E+03 -0.30428133703E+03  0.77644831388E+03  0.10351173159E+04  0.60063512434E+03 0.  0.
         23    2    4    4    0    0 -0.15392453831E+03 -0.42711732219E+02  0.25784818183E+02  0.18757647609E+03  0.94884255656E+02 0.  0.
         23    2    4    4    0    0  0.27739999658E+03 -0.26156960481E+03  0.75066349570E+03  0.84754083976E+03  0.97264459211E+02 0.  0.
          5    1    3    3  502    0 -0.19062552118E+02  0.12989469069E+03 -0.15401760965E+03  0.20243400319E+03  0.47000000000E+01 0. -1.
         -5    1    3    3    0  502 -0.10441290616E+03  0.17438664633E+03 -0.13150196611E+03  0.24213139921E+03  0.47000000000E+01 0.  1.
         13    1    5    5    0    0 -0.99310675994E+02 -0.73084484034E+02  0.17038341934E+02  0.12447593048E+03  0.00000000000E+00 0.  1.
        -13    1    5    5    0    0 -0.54613862316E+02  0.30372751815E+02  0.87464762487E+01  0.63100545613E+02  0.00000000000E+00 0. -1.
          2    1    6    6  503    0  0.23901946105E+03 -0.17033370074E+03  0.53414556336E+03  0.60947137359E+03  0.00000000000E+00 0. -1.
         -2    1    6    6    0  503  0.38380535531E+02 -0.91235904067E+02  0.21651793233E+03  0.23806946617E+03  0.00000000000E+00 0.  1.
<mgrwt>
<rscale>  0 0.45647920E+03</rscale>
<asrwt>0</asrwt>
<pdfrwt beam="1">  1        2 0.15158550E+00 0.45647920E+03</pdfrwt>
<pdfrwt beam="2">  1       -2 0.76057999E-01 0.45647920E+03</pdfrwt>
<totfact> 0.41857935E+01</totfact>
</mgrwt>
</event>
<event>
12    1  0.3147868E-008  0.8153770E+03  0.7818608E-02  0.9538022E-01
          1   -1    0    0  501    0  0.00000000000E+00  0.00000000000E+00  0.14790174385E+04  0.14790174385E+04  0.00000000000E+00 0. -1.
         -1   -1    0    0    0  501 -0.00000000000E+00 -0.00000000000E+00 -0.47588828310E+03  0.47588828310E+03  0.00000000000E+00 0.  1.
         23    2    1    2    0    0 -0.72331230898E+03  0.64395571377E+02  0.37017375550E+03  0.82009213961E+03  0.90526362147E+02 0.  0.
    5000000    2    1    2    0    0  0.72331230898E+03 -0.64395571377E+02  0.63295539986E+03  0.11348135820E+04  0.59986818689E+03 0.  0.
         23    2    4    4    0    0  0.23198259132E+03  0.21726607552E+03  0.39293265805E+03  0.51281304435E+03  0.86952138821E+02 0.  0.
         23    2    4    4    0    0  0.49132971766E+03 -0.28166164690E+03  0.24002274181E+03  0.62200053761E+03  0.92388188690E+02 0.  0.
          5    1    3    3  502    0 -0.19725684897E+03  0.40637663562E+02  0.14029437750E+03  0.24549192761E+03  0.47000000000E+01 0. -1.
         -5    1    3    3    0  502 -0.52605546001E+03  0.23757907815E+02  0.22987937801E+03  0.57460021199E+03  0.47000000000E+01 0.  1.
         13    1    5    5    0    0  0.13813018464E+03  0.70666123761E+02  0.19596094548E+03  0.24994867695E+03  0.00000000000E+00 0. -1.
        -13    1    5    5    0    0  0.93852406682E+02  0.14659995176E+03  0.19697171257E+03  0.26286436740E+03  0.00000000000E+00 0.  1.
          2    1    6    6  503    0  0.20094673248E+03 -0.16691981787E+03  0.12035076533E+03  0.28762149017E+03  0.00000000000E+00 0. -1.
         -2    1    6    6    0  503  0.29038298518E+03 -0.11474182903E+03  0.11967197648E+03  0.33437904744E+03  0.00000000000E+00 0.  1.
<mgrwt>
<rscale>  0 0.81537703E+03</rscale>
<asrwt>0</asrwt>
<pdfrwt beam="1">  1        1 0.22754114E+00 0.81537703E+03</pdfrwt>
<pdfrwt beam="2">  1       -1 0.73213583E-01 0.81537703E+03</pdfrwt>
<totfact> 0.13070281E+01</totfact>
</mgrwt>
</event>
<event>
12    1  0.3147868E-008  0.5766237E+03  0.7818608E-02  0.9955127E-01
          1   -1    0    0  501    0  0.00000000000E+00  0.00000000000E+00  0.11072142518E+04  0.11072142518E+04  0.00000000000E+00 0.  1.
         -1   -1    0    0    0  501 -0.00000000000E+00 -0.00000000000E+00 -0.33998464673E+03  0.33998464673E+03  0.00000000000E+00 0. -1.
         23    2    1    2    0    0  0.41557800448E+03 -0.10760885218E+03  0.49313987081E+03  0.66019604348E+03  0.91581334138E+02 0.  0.
    5000000    2    1    2    0    0 -0.41557800448E+03  0.10760885218E+03  0.27408973431E+03  0.78700285509E+03  0.59996963972E+03 0.  0.
         23    2    4    4    0    0  0.23052812062E+02  0.24917741287E+03  0.11159099312E+03  0.28966295608E+03  0.93974800636E+02 0.  0.
         23    2    4    4    0    0 -0.43863081655E+03 -0.14156856068E+03  0.16249874118E+03  0.49733989900E+03  0.92208913103E+02 0.  0.
          5    1    3    3  502    0  0.13351309707E+03 -0.89664359300E+01  0.20642772386E+03  0.24605007466E+03  0.47000000000E+01 0. -1.
         -5    1    3    3    0  502  0.28206490742E+03 -0.98642416253E+02  0.28671214695E+03  0.41414596882E+03  0.47000000000E+01 0.  1.
         13    1    5    5    0    0  0.24976215313E+02  0.19706748391E+03  0.12640764586E+03  0.23545338706E+03  0.00000000000E+00 0.  1.
        -13    1    5    5    0    0 -0.19234032508E+01  0.52109928956E+02 -0.14816652733E+02  0.54209569026E+02  0.00000000000E+00 0. -1.
          4    1    6    6  503    0 -0.20152067783E+03 -0.17975721143E+02  0.79304115668E+02  0.21730819798E+03  0.00000000000E+00 0. -1.
         -4    1    6    6    0  503 -0.23711013871E+03 -0.12359283954E+03  0.83194625513E+02  0.28003170103E+03  0.00000000000E+00 0.  1.
<mgrwt>
<rscale>  0 0.57662373E+03</rscale>
<asrwt>0</asrwt>
<pdfrwt beam="1">  1        1 0.17034065E+00 0.57662373E+03</pdfrwt>
<pdfrwt beam="2">  1       -1 0.52305331E-01 0.57662373E+03</pdfrwt>
<totfact> 0.48225505E+01</totfact>
</mgrwt>
</event>
<event>
12    1  0.3147868E-008  0.5290463E+03  0.7818608E-02  0.1006464E+00
         -2   -1    0    0    0  501 -0.00000000000E+00  0.00000000000E+00  0.13974817574E+03  0.13974817574E+03  0.00000000000E+00 0.  1.
          2   -1    0    0  501    0  0.00000000000E+00 -0.00000000000E+00 -0.27335357669E+04  0.27335357669E+04  0.00000000000E+00 0. -1.
         23    2    1    2    0    0  0.53473572466E+02 -0.36105718965E+03 -0.31992905645E+03  0.49347503750E+03  0.89113940151E+02 0.  0.
    5000000    2    1    2    0    0 -0.53473572466E+02  0.36105718965E+03 -0.22738585347E+04  0.23798089051E+04  0.59986337775E+03 0.  0.
         23    2    4    4    0    0 -0.30056353882E+03  0.28132534587E+03 -0.12380006905E+04  0.13078679761E+04  0.91599901744E+02 0.  0.
         23    2    4    4    0    0  0.24708996636E+03  0.79731843779E+02 -0.10358578442E+04  0.10719409291E+04  0.92979909992E+02 0.  0.
          5    1    3    3  502    0  0.16021816452E+02 -0.22095143171E+03 -0.24439947694E+03  0.32989305555E+03  0.47000000000E+01 0. -1.
         -5    1    3    3    0  502  0.37451756015E+02 -0.14010575794E+03 -0.75529579511E+02  0.16358198195E+03  0.47000000000E+01 0.  1.
         13    1    5    5    0    0 -0.87902161206E+02  0.13298652602E+03 -0.39718523956E+03  0.42798168252E+03  0.00000000000E+00 0. -1.
        -13    1    5    5    0    0 -0.21266137762E+03  0.14833881985E+03 -0.84081545096E+03  0.87988629355E+03  0.00000000000E+00 0.  1.
          4    1    6    6  503    0  0.92829704194E+02  0.73364379837E+02 -0.53000993540E+03  0.54305636709E+03  0.00000000000E+00 0. -1.
         -4    1    6    6    0  503  0.15426026216E+03  0.63674639419E+01 -0.50584790879E+03  0.52888456199E+03  0.00000000000E+00 0.  1.
<mgrwt>
<rscale>  0 0.52904630E+03</rscale>
<asrwt>0</asrwt>
<pdfrwt beam="1">  1        2 0.42054393E+00 0.52904630E+03</pdfrwt>
<pdfrwt beam="2">  1       -2 0.21499721E-01 0.52904630E+03</pdfrwt>
<totfact> 0.51733024E+01</totfact>
</mgrwt>
</event>
<event>
12    1  0.3147868E-008  0.1327363E+04  0.7818608E-02  0.9008143E-01
         -2   -1    0    0    0  501 -0.00000000000E+00  0.00000000000E+00  0.77470133405E+03  0.77470133405E+03  0.00000000000E+00 0.  1.
          2   -1    0    0  501    0  0.00000000000E+00 -0.00000000000E+00 -0.24181577765E+04  0.24181577765E+04  0.00000000000E+00 0. -1.
         23    2    1    2    0    0 -0.87509296479E+03  0.96311821169E+03 -0.78571924112E+03  0.15227754279E+04  0.90032722645E+02 0.  0.
    5000000    2    1    2    0    0  0.87509296479E+03 -0.96311821169E+03 -0.85773720130E+03  0.16700836827E+04  0.60006834101E+03 0.  0.
         23    2    4    4    0    0  0.75229892557E+03 -0.62335074812E+03 -0.35316801647E+03  0.10427802306E+04  0.90239308651E+02 0.  0.
         23    2    4    4    0    0  0.12279403922E+03 -0.33976746357E+03 -0.50456918484E+03  0.62730345209E+03  0.91647440476E+02 0.  0.
          5    1    3    3  502    0 -0.15585272583E+03  0.14791361820E+03 -0.96701578898E+02  0.23567307008E+03  0.47000000000E+01 0. -1.
         -5    1    3    3    0  502 -0.71924023896E+03  0.81520459348E+03 -0.68901766223E+03  0.12871023578E+04  0.47000000000E+01 0.  1.
         11    1    5    5    0    0  0.53942744124E+03 -0.49030835776E+03 -0.28468960267E+03  0.78258061560E+03  0.00000000000E+00 0.  1.
        -11    1    5    5    0    0  0.21287148433E+03 -0.13304239036E+03 -0.68478413791E+02  0.26019961497E+03  0.00000000000E+00 0. -1.
          3    1    6    6  503    0  0.12651212311E+03 -0.22724756694E+03 -0.34749909621E+03  0.43405344814E+03  0.00000000000E+00 0. -1.
         -3    1    6    6    0  503 -0.37180838891E+01 -0.11251989663E+03 -0.15707008862E+03  0.19325000395E+03  0.00000000000E+00 0.  1.
<mgrwt>
<rscale>  0 0.13273628E+04</rscale>
<asrwt>0</asrwt>
<pdfrwt beam="1">  1        2 0.37202427E+00 0.13273628E+04</pdfrwt>
<pdfrwt beam="2">  1       -2 0.11918482E+00 0.13273628E+04</pdfrwt>
<totfact> 0.20250512E+00</totfact>
</mgrwt>
</event>
<event>
12    1  0.3147868E-008  0.6093401E+03  0.7818608E-02  0.9886216E-01
         -1   -1    0    0    0  501 -0.00000000000E+00  0.00000000000E+00  0.16760406501E+03  0.16760406501E+03  0.00000000000E+00 0.  1.
          1   -1    0    0  501    0  0.00000000000E+00 -0.00000000000E+00 -0.32010945296E+04  0.32010945296E+04  0.00000000000E+00 0. -1.
         23    2    1    2    0    0 -0.33082126235E+03 -0.50713818797E+03 -0.12419837719E+04  0.13847343440E+04  0.91288906875E+02 0.  0.
    5000000    2    1    2    0    0  0.33082126235E+03  0.50713818797E+03 -0.17915066927E+04  0.19839642506E+04  0.59998839018E+03 0.  0.
         23    2    4    4    0    0  0.11897743127E+03  0.14021699319E+03 -0.13491208768E+04  0.13647658190E+04  0.92963251058E+02 0.  0.
         23    2    4    4    0    0  0.21184383108E+03  0.36692119477E+03 -0.44238581592E+03  0.61919843166E+03  0.90512516816E+02 0.  0.
          5    1    3    3  502    0 -0.19109303210E+03 -0.34037929069E+03 -0.87401591859E+03  0.95723587709E+03  0.47000000000E+01 0. -1.
         -5    1    3    3    0  502 -0.13972823025E+03 -0.16675889727E+03 -0.36796785327E+03  0.42749846688E+03  0.47000000000E+01 0.  1.
         11    1    5    5    0    0 -0.15269751712E+01  0.56991468726E+01 -0.31077737156E+03  0.31083337434E+03  0.00000000000E+00 0. -1.
        -11    1    5    5    0    0  0.12050440644E+03  0.13451784632E+03 -0.10383435052E+04  0.10539324446E+04  0.00000000000E+00 0.  1.
          1    1    6    6  503    0  0.22130169478E+02  0.52393343465E+02 -0.22086257043E+02  0.61013191940E+02  0.00000000000E+00 0. -1.
         -1    1    6    6    0  503  0.18971366160E+03  0.31452785131E+03 -0.42029955888E+03  0.55818523972E+03  0.00000000000E+00 0.  1.
<mgrwt>
<rscale>  0 0.60934006E+03</rscale>
<asrwt>0</asrwt>
<pdfrwt beam="1">  1        1 0.49247612E+00 0.60934006E+03</pdfrwt>
<pdfrwt beam="2">  1       -1 0.25785239E-01 0.60934006E+03</pdfrwt>
<totfact> 0.62025368E+00</totfact>
</mgrwt>
</event>
<event>
12    1  0.3147868E-008  0.6411393E+03  0.7818608E-02  0.9823549E-01
          2   -1    0    0  501    0  0.00000000000E+00  0.00000000000E+00  0.10977401978E+04  0.10977401978E+04  0.00000000000E+00 0. -1.
         -2   -1    0    0    0  501 -0.00000000000E+00 -0.00000000000E+00 -0.50133867270E+03  0.50133867270E+03  0.00000000000E+00 0.  1.
         23    2    1    2    0    0 -0.47849069880E+03 -0.38842615425E+03  0.27232331389E+03  0.67987494761E+03  0.90783979617E+02 0.  0.
    5000000    2    1    2    0    0  0.47849069880E+03  0.38842615425E+03  0.32407821124E+03  0.91920392293E+03  0.60006744520E+03 0.  0.
         23    2    4    4    0    0  0.39384262831E+03  0.35112239231E+03  0.47703169744E+03  0.71808792498E+03  0.98448348806E+02 0.  0.
         23    2    4    4    0    0  0.84648070486E+02  0.37303761944E+02 -0.15295348621E+03  0.20111599795E+03  0.92173798849E+02 0.  0.
          5    1    3    3  502    0 -0.18864754387E+03 -0.19761506357E+03  0.15128837887E+03  0.31232975001E+03  0.47000000000E+01 0. -1.
         -5    1    3    3    0  502 -0.28984315493E+03 -0.19081109068E+03  0.12103493502E+03  0.36754519760E+03  0.47000000000E+01 0.  1.
         13    1    5    5    0    0  0.11925635294E+03  0.15263813637E+03  0.13124293002E+03  0.23397689004E+03  0.00000000000E+00 0. -1.
        -13    1    5    5    0    0  0.27458627537E+03  0.19848425594E+03  0.34578876743E+03  0.48411103494E+03  0.00000000000E+00 0.  1.
          1    1    6    6  503    0  0.84172618528E+02  0.62146846072E+02 -0.11244575756E+03  0.15359462419E+03  0.00000000000E+00 0. -1.
         -1    1    6    6    0  503  0.47545195850E+00 -0.24843084128E+02 -0.40507728646E+02  0.47521373756E+02  0.00000000000E+00 0.  1.
<mgrwt>
<rscale>  0 0.64113926E+03</rscale>
<asrwt>0</asrwt>
<pdfrwt beam="1">  1        2 0.16888311E+00 0.64113926E+03</pdfrwt>
<pdfrwt beam="2">  1       -2 0.77129027E-01 0.64113926E+03</pdfrwt>
<totfact> 0.33743867E+01</totfact>
</mgrwt>
</event>
<event>
12    1  0.3147868E-008  0.1404909E+04  0.7818608E-02  0.8950273E-01
         -1   -1    0    0    0  501 -0.00000000000E+00  0.00000000000E+00  0.42804486833E+03  0.42804486833E+03  0.00000000000E+00 0.  1.
          1   -1    0    0  501    0  0.00000000000E+00 -0.00000000000E+00 -0.53114980290E+04  0.53114980290E+04  0.00000000000E+00 0. -1.
         23    2    1    2    0    0  0.95736257223E+03 -0.95260532172E+03 -0.33343690510E+04  0.35986192343E+04  0.89685178002E+02 0.  0.
    5000000    2    1    2    0    0 -0.95736257223E+03  0.95260532172E+03 -0.15490841096E+04  0.21409236630E+04  0.59991045882E+03 0.  0.
         23    2    4    4    0    0 -0.37208445569E+03  0.40418798915E+02 -0.48837425291E+03  0.62159565251E+03  0.88267903859E+02 0.  0.
         23    2    4    4    0    0 -0.58527811655E+03  0.91218652280E+03 -0.10607098567E+04  0.15193280105E+04  0.92830368665E+02 0.  0.
          5    1    3    3  502    0  0.57750550724E+03 -0.55588962943E+03 -0.20883389185E+04  0.22368968281E+04  0.47000000000E+01 0. -1.
         -5    1    3    3    0  502  0.37985706499E+03 -0.39671569228E+03 -0.12460301325E+04  0.13617224061E+04  0.47000000000E+01 0.  1.
         11    1    5    5    0    0 -0.96433425500E+02  0.14917056813E+02 -0.19606722799E+03  0.21900749309E+03  0.00000000000E+00 0.  1.
        -11    1    5    5    0    0 -0.27565103019E+03  0.25501742102E+02 -0.29230702492E+03  0.40258815943E+03  0.00000000000E+00 0. -1.
          3    1    6    6  503    0 -0.58477278067E+03  0.91260972671E+03 -0.10515904728E+04  0.15101848366E+04  0.00000000000E+00 0. -1.
         -3    1    6    6    0  503 -0.50533587409E+00 -0.42320391258E+00 -0.91193839092E+01  0.91431738899E+01  0.00000000000E+00 0.  1.
<mgrwt>
<rscale>  0 0.14049085E+04</rscale>
<asrwt>0</asrwt>
<pdfrwt beam="1">  1        1 0.81715352E+00 0.14049085E+04</pdfrwt>
<pdfrwt beam="2">  1       -1 0.65853058E-01 0.14049085E+04</pdfrwt>
<totfact> 0.75407283E-03</totfact>
</mgrwt>
</event>
<event>
12    1  0.3147868E-008  0.6198906E+03  0.7818608E-02  0.9864978E-01
          1   -1    0    0  501    0  0.00000000000E+00  0.00000000000E+00  0.17764723943E+04  0.17764723943E+04  0.00000000000E+00 0. -1.
         -1   -1    0    0    0  501 -0.00000000000E+00 -0.00000000000E+00 -0.24135504034E+03  0.24135504034E+03  0.00000000000E+00 0.  1.
         23    2    1    2    0    0 -0.49649913026E+03  0.11221384699E+03  0.70057701011E+03  0.87082413086E+03  0.91777916655E+02 0.  0.
    5000000    2    1    2    0    0  0.49649913026E+03 -0.11221384699E+03  0.83454034390E+03  0.11470033038E+04  0.60004638119E+03 0.  0.
         23    2    4    4    0    0  0.60154691250E+03 -0.14283075661E+03  0.76426941494E+03  0.98716511589E+03  0.90154946889E+02 0.  0.
         23    2    4    4    0    0 -0.10504778224E+03  0.30616909624E+02  0.70270928962E+02  0.15983818794E+03  0.92939825469E+02 0.  0.
          5    1    3    3  502    0 -0.32536202274E+03  0.83696380686E+02  0.38767672127E+03  0.51301155952E+03  0.47000000000E+01 0. -1.
         -5    1    3    3    0  502 -0.17113710752E+03  0.28517466299E+02  0.31290028884E+03  0.35781257134E+03  0.47000000000E+01 0.  1.
         11    1    5    5    0    0  0.22108366538E+03 -0.33942379602E+02  0.34004173913E+03  0.40701161725E+03  0.00000000000E+00 0.  1.
        -11    1    5    5    0    0  0.38046324712E+03 -0.10888837701E+03  0.42422767581E+03  0.58015349863E+03  0.00000000000E+00 0. -1.
          1    1    6    6  503    0 -0.29111863254E+02  0.45959749439E+00 -0.22073398154E+02  0.36536922668E+02  0.00000000000E+00 0. -1.
         -1    1    6    6    0  503 -0.75935918983E+02  0.30157312130E+02  0.92344327116E+02  0.12330126527E+03  0.00000000000E+00 0.  1.
<mgrwt>
<rscale>  0 0.61989059E+03</rscale>
<asrwt>0</asrwt>
<pdfrwt beam="1">  1        1 0.27330344E+00 0.61989059E+03</pdfrwt>
<pdfrwt beam="2">  1       -1 0.37131546E-01 0.61989059E+03</pdfrwt>
<totfact> 0.31066051E+01</totfact>
</mgrwt>
</event>
<event>
12    1  0.3147868E-008  0.5675791E+03  0.7818608E-02  0.9975050E-01
          1   -1    0    0  501    0  0.00000000000E+00  0.00000000000E+00  0.14774399549E+04  0.14774399549E+04  0.00000000000E+00 0. -1.
         -1   -1    0    0    0  501 -0.00000000000E+00 -0.00000000000E+00 -0.31893639191E+03  0.31893639191E+03  0.00000000000E+00 0.  1.
         23    2    1    2    0    0 -0.53843247963E+03  0.11564428579E+03  0.48082692451E+03  0.73682946563E+03  0.91869440649E+02 0.  0.
    5000000    2    1    2    0    0  0.53843247963E+03 -0.11564428579E+03  0.67767663848E+03  0.10595468812E+04  0.60009235218E+03 0.  0.
         23    2    4    4    0    0  0.37406023907E+03 -0.45966656219E+02  0.36415958061E+02  0.38821489931E+03  0.85736165713E+02 0.  0.
         23    2    4    4    0    0  0.16437224056E+03 -0.69677629573E+02  0.64126068042E+03  0.67133198188E+03  0.87167448690E+02 0.  0.
          5    1    3    3  502    0 -0.34076203664E+03  0.11657360898E+03  0.32385786928E+03  0.48436988080E+03  0.47000000000E+01 0. -1.
         -5    1    3    3    0  502 -0.19767044299E+03 -0.92932319254E+00  0.15696905523E+03  0.25245958483E+03  0.47000000000E+01 0.  1.
         11    1    5    5    0    0  0.31664465055E+03 -0.51838090476E+02  0.17017588275E+01  0.32086433010E+03  0.00000000000E+00 0.  1.
        -11    1    5    5    0    0  0.57415588517E+02  0.58714342566E+01  0.34714199233E+02  0.67350569214E+02  0.00000000000E+00 0. -1.
          3    1    6    6  503    0  0.16697168806E+03 -0.82042387158E+02  0.60054215179E+03  0.62869815808E+03  0.00000000000E+00 0. -1.
         -3    1    6    6    0  503 -0.25994474996E+01  0.12364757585E+02  0.40718528634E+02  0.42633823797E+02  0.00000000000E+00 0.  1.
<mgrwt>
<rscale>  0 0.56757911E+03</rscale>
<asrwt>0</asrwt>
<pdfrwt beam="1">  1        1 0.22729845E+00 0.56757911E+03</pdfrwt>
<pdfrwt beam="2">  1       -1 0.49067138E-01 0.56757911E+03</pdfrwt>
<totfact> 0.29871879E+01</totfact>
</mgrwt>
</event>
<event>
12    1  0.3147868E-008  0.1367558E+04  0.7818608E-02  0.8977642E-01
         -1   -1    0    0    0  501 -0.00000000000E+00  0.00000000000E+00  0.10614375356E+04  0.10614375356E+04  0.00000000000E+00 0.  1.
          1   -1    0    0  501    0  0.00000000000E+00 -0.00000000000E+00 -0.17911778241E+04  0.17911778241E+04  0.00000000000E+00 0. -1.
         23    2    1    2    0    0  0.48022159197E+03 -0.12196337607E+04 -0.40943232674E+03  0.13764941367E+04  0.94773363681E+02 0.  0.
    5000000    2    1    2    0    0 -0.48022159197E+03  0.12196337607E+04 -0.32030796176E+03  0.14761212231E+04  0.59851264579E+03 0.  0.
         23    2    4    4    0    0 -0.60316056672E+03  0.10414869514E+04 -0.27161863882E+03  0.12371779817E+04  0.91295861152E+02 0.  0.
         23    2    4    4    0    0  0.12293897475E+03  0.17814680934E+03 -0.48689322939E+02  0.23894324140E+03  0.88729618794E+02 0.  0.
          5    1    3    3  502    0  0.33566147964E+03 -0.95225122484E+03 -0.29847056686E+03  0.10528807119E+04  0.47000000000E+01 0. -1.
         -5    1    3    3    0  502  0.14456011233E+03 -0.26738253586E+03 -0.11096175987E+03  0.32361342481E+03  0.47000000000E+01 0.  1.
         11    1    5    5    0    0 -0.29875278674E+03  0.55228093612E+03 -0.98775738230E+02  0.63562890624E+03  0.00000000000E+00 0.  1.
        -11    1    5    5    0    0 -0.30440777998E+03  0.48920601525E+03 -0.17284290059E+03  0.60154907543E+03  0.00000000000E+00 0. -1.
          2    1    6    6  503    0  0.42635883420E+02  0.78827575677E+02 -0.64258528806E+02  0.11027585305E+03  0.00000000000E+00 0. -1.
         -2    1    6    6    0  503  0.80303091327E+02  0.99319233660E+02  0.15569205868E+02  0.12866738834E+03  0.00000000000E+00 0.  1.
<mgrwt>
<rscale>  0 0.13675580E+04</rscale>
<asrwt>0</asrwt>
<pdfrwt beam="1">  1        1 0.27556582E+00 0.13675580E+04</pdfrwt>
<pdfrwt beam="2">  1       -1 0.16329808E+00 0.13675580E+04</pdfrwt>
<totfact> 0.10969159E+00</totfact>
</mgrwt>
</event>
<event>
12    1  0.3147868E-008  0.3547489E+03  0.7818608E-02  0.1060683E+00
          1   -1    0    0  501    0  0.00000000000E+00  0.00000000000E+00  0.79161718888E+03  0.79161718888E+03  0.00000000000E+00 0. -1.
         -1   -1    0    0    0  501 -0.00000000000E+00 -0.00000000000E+00 -0.35707371282E+03  0.35707371282E+03  0.00000000000E+00 0.  1.
         23    2    1    2    0    0  0.20725392334E+03 -0.24216116358E+03 -0.18614265195E+02  0.33190033859E+03  0.90637332289E+02 0.  0.
    5000000    2    1    2    0    0 -0.20725392334E+03  0.24216116358E+03  0.45315774126E+03  0.81679056310E+03  0.60016553352E+03 0.  0.
         23    2    4    4    0    0 -0.90942485237E+02  0.20119842254E+02 -0.12462037081E+03  0.18038041510E+03  0.91277125600E+02 0.  0.
         23    2    4    4    0    0 -0.11631143810E+03  0.22204132133E+03  0.57777811207E+03  0.63641014800E+03  0.91431015935E+02 0.  0.
          5    1    3    3  502    0  0.69871450137E+02 -0.91991842049E+02 -0.49904342050E+02  0.12592478669E+03  0.47000000000E+01 0. -1.
         -5    1    3    3    0  502  0.13738247320E+03 -0.15016932153E+03  0.31290076855E+02  0.20597555190E+03  0.47000000000E+01 0.  1.
         11    1    5    5    0    0 -0.37211782589E+02 -0.33793831851E+02 -0.72140473264E+02  0.87926035492E+02  0.00000000000E+00 0.  1.
        -11    1    5    5    0    0 -0.53730702648E+02  0.53913674105E+02 -0.52479897550E+02  0.92454379612E+02  0.00000000000E+00 0. -1.
          2    1    6    6  503    0 -0.43454427197E+02  0.16712021721E+03  0.33155741391E+03  0.37382853417E+03  0.00000000000E+00 0. -1.
         -2    1    6    6    0  503 -0.72857010901E+02  0.54921104117E+02  0.24622069816E+03  0.26258161382E+03  0.00000000000E+00 0.  1.
<mgrwt>
<rscale>  0 0.35474889E+03</rscale>
<asrwt>0</asrwt>
<pdfrwt beam="1">  1        1 0.12178726E+00 0.35474889E+03</pdfrwt>
<pdfrwt beam="2">  1       -1 0.54934417E-01 0.35474889E+03</pdfrwt>
<totfact> 0.80431063E+01</totfact>
</mgrwt>
</event>
<event>
12    1  0.3147868E-008  0.8192093E+03  0.7818608E-02  0.9532621E-01
          2   -1    0    0  501    0  0.00000000000E+00  0.00000000000E+00  0.14179857325E+04  0.14179857325E+04  0.00000000000E+00 0.  1.
         -2   -1    0    0    0  501 -0.00000000000E+00 -0.00000000000E+00 -0.50023923966E+03  0.50023923966E+03  0.00000000000E+00 0. -1.
         23    2    1    2    0    0  0.21805518966E+03 -0.69630458921E+03  0.47249699997E+03  0.87395587487E+03  0.90317825105E+02 0.  0.
    5000000    2    1    2    0    0 -0.21805518966E+03  0.69630458921E+03  0.44524949291E+03  0.10442690973E+04  0.59988556409E+03 0.  0.
         23    2    4    4    0    0 -0.28896164019E+03  0.10160384283E+03  0.57645160793E+02  0.32471643427E+03  0.91080336742E+02 0.  0.
         23    2    4    4    0    0  0.70906450525E+02  0.59470074638E+03  0.38760433212E+03  0.71955266307E+03  0.93926642515E+02 0.  0.
          5    1    3    3  502    0  0.86520013670E+02 -0.35323533759E+03  0.28091020342E+03  0.45955799294E+03  0.47000000000E+01 0. -1.
         -5    1    3    3    0  502  0.13153517599E+03 -0.34306925163E+03  0.19158679655E+03  0.41439788193E+03  0.47000000000E+01 0.  1.
         13    1    5    5    0    0 -0.19173899613E+03  0.54043135086E+02  0.79168690967E+02  0.21436460696E+03  0.00000000000E+00 0.  1.
        -13    1    5    5    0    0 -0.97222644057E+02  0.47560707748E+02 -0.21523530174E+02  0.11035182731E+03  0.00000000000E+00 0. -1.
          4    1    6    6  503    0  0.94703176797E+01  0.21254242275E+03  0.18866342768E+03  0.28435516055E+03  0.00000000000E+00 0.  1.
         -4    1    6    6    0  503  0.61436132845E+02  0.38215832363E+03  0.19894090444E+03  0.43519750252E+03  0.00000000000E+00 0. -1.
<mgrwt>
<rscale>  0 0.81920933E+03</rscale>
<asrwt>0</asrwt>
<pdfrwt beam="1">  1        2 0.21815165E+00 0.81920933E+03</pdfrwt>
<pdfrwt beam="2">  1       -2 0.76959884E-01 0.81920933E+03</pdfrwt>
<totfact> 0.21615500E+01</totfact>
</mgrwt>
</event>
<event>
12    1  0.3147868E-008  0.1127756E+04  0.7818608E-02  0.9178554E-01
         -1   -1    0    0    0  501 -0.00000000000E+00  0.00000000000E+00  0.82023886778E+03  0.82023886778E+03  0.00000000000E+00 0.  1.
          1   -1    0    0  501    0  0.00000000000E+00 -0.00000000000E+00 -0.26008974071E+04  0.26008974071E+04  0.00000000000E+00 0. -1.
         23    2    1    2    0    0  0.40447913986E+03  0.10494354122E+04  0.11828640998E+03  0.11338721771E+04  0.82197202179E+02 0.  0.
    5000000    2    1    2    0    0 -0.40447913986E+03 -0.10494354122E+04 -0.18989449493E+04  0.22872640978E+04  0.60055563746E+03 0.  0.
         23    2    4    4    0    0 -0.32241119493E+03 -0.77950102425E+03 -0.17728405880E+04  0.19654564595E+04  0.92111445692E+02 0.  0.
         23    2    4    4    0    0 -0.82067944931E+02 -0.26993438800E+03 -0.12610436131E+03  0.32180763831E+03  0.89767058134E+02 0.  0.
          5    1    3    3  502    0  0.69105017662E+02  0.17497157134E+03  0.50500673527E+02  0.19484086396E+03  0.47000000000E+01 0. -1.
         -5    1    3    3    0  502  0.33537412220E+03  0.87446384091E+03  0.67785736454E+02  0.93903131309E+03  0.47000000000E+01 0.  1.
         11    1    5    5    0    0 -0.61369327533E+02 -0.25997047201E+03 -0.56438194302E+03  0.62440196852E+03  0.00000000000E+00 0. -1.
        -11    1    5    5    0    0 -0.26104186739E+03 -0.51953055224E+03 -0.12084586449E+04  0.13410544910E+04  0.00000000000E+00 0.  1.
          4    1    6    6  503    0 -0.22559851769E+02 -0.64759638703E+02  0.88130954978E+01  0.69140641948E+02  0.00000000000E+00 0. -1.
         -4    1    6    6    0  503 -0.59508093161E+02 -0.20517474929E+03 -0.13491745681E+03  0.25266699636E+03  0.00000000000E+00 0.  1.
<mgrwt>
<rscale>  0 0.11277558E+04</rscale>
<asrwt>0</asrwt>
<pdfrwt beam="1">  1        1 0.40013806E+00 0.11277558E+04</pdfrwt>
<pdfrwt beam="2">  1       -1 0.12619060E+00 0.11277558E+04</pdfrwt>
<totfact> 0.62948135E-01</totfact>
</mgrwt>
</event>
<event>
12    1  0.3147868E-008  0.1689548E+04  0.7818608E-02  0.8767348E-01
         -1   -1    0    0    0  501 -0.00000000000E+00  0.00000000000E+00  0.13929542915E+04  0.13929542915E+04  0.00000000000E+00 0.  1.
          1   -1    0    0  501    0  0.00000000000E+00 -0.00000000000E+00 -0.23685910670E+04  0.23685910670E+04  0.00000000000E+00 0. -1.
         23    2    1    2    0    0  0.16598940601E+04  0.26521879469E+03  0.81851710533E+02  0.16867777353E+04  0.11371071231E+03 0.  0.
    5000000    2    1    2    0    0 -0.16598940601E+04 -0.26521879469E+03 -0.10574884860E+04  0.20747676231E+04  0.60065754957E+03 0.  0.
         23    2    4    4    0    0 -0.15771140059E+03  0.31274472989E+02  0.39370752637E+02  0.18917344264E+03  0.91572685337E+02 0.  0.
         23    2    4    4    0    0 -0.15021826595E+04 -0.29649326768E+03 -0.10968592387E+04  0.18855941804E+04  0.88905700194E+02 0.  0.
          5    1    3    3  502    0  0.11824158395E+04  0.22941900486E+03  0.26713838059E+02  0.12047721844E+04  0.47000000000E+01 0. -1.
         -5    1    3    3    0  502  0.47747822063E+03  0.35799789837E+02  0.55137872474E+02  0.48200555091E+03  0.47000000000E+01 0.  1.
         13    1    5    5    0    0 -0.43541025950E+02  0.21091990173E+02  0.55268466081E+02  0.73452680912E+02  0.00000000000E+00 0. -1.
        -13    1    5    5    0    0 -0.11417037464E+03  0.10182482816E+02 -0.15897713444E+02  0.11572076173E+03  0.00000000000E+00 0.  1.
          3    1    6    6  503    0 -0.86142441578E+03 -0.20539343285E+03 -0.66669390922E+03  0.11084760958E+04  0.00000000000E+00 0. -1.
         -3    1    6    6    0  503 -0.64075824373E+03 -0.91099834830E+02 -0.43016532945E+03  0.77711808464E+03  0.00000000000E+00 0.  1.
<mgrwt>
<rscale>  0 0.16895480E+04</rscale>
<asrwt>0</asrwt>
<pdfrwt beam="1">  1        1 0.36439862E+00 0.16895480E+04</pdfrwt>
<pdfrwt beam="2">  1       -1 0.21430066E+00 0.16895480E+04</pdfrwt>
<totfact> 0.18552138E-01</totfact>
</mgrwt>
</event>
<event>
12    1  0.3147868E-008  0.1253292E+04  0.7818608E-02  0.9067447E-01
          2   -1    0    0  501    0  0.00000000000E+00  0.00000000000E+00  0.18847335103E+04  0.18847335103E+04  0.00000000000E+00 0.  1.
         -2   -1    0    0    0  501 -0.00000000000E+00 -0.00000000000E+00 -0.90205407550E+03  0.90205407550E+03  0.00000000000E+00 0. -1.
         23    2    1    2    0    0 -0.63453869476E+03 -0.10194738605E+04  0.16452612026E+03  0.12147462090E+04  0.81075277351E+02 0.  0.
    5000000    2    1    2    0    0  0.63453869476E+03  0.10194738605E+04  0.81815331459E+03  0.15720413769E+04  0.59997744720E+03 0.  0.
         23    2    4    4    0    0  0.38051557084E+03  0.18042207386E+03  0.11864542255E+03  0.44677003824E+03  0.90457207485E+02 0.  0.
         23    2    4    4    0    0  0.25402312391E+03  0.83905178661E+03  0.69950789203E+03  0.11252713386E+04  0.91589554348E+02 0.  0.
          5    1    3    3  502    0 -0.42203764043E+03 -0.60384711541E+03  0.10020440977E+03  0.74351201904E+03  0.47000000000E+01 0. -1.
         -5    1    3    3    0  502 -0.21250105433E+03 -0.41562674506E+03  0.64321710490E+02  0.47123418991E+03  0.47000000000E+01 0.  1.
         13    1    5    5    0    0  0.41490975455E+02  0.12017891166E+02  0.42583835362E+02  0.60657347341E+02  0.00000000000E+00 0. -1.
        -13    1    5    5    0    0  0.33902459539E+03  0.16840418270E+03  0.76061587189E+02  0.38611269090E+03  0.00000000000E+00 0.  1.
          3    1    6    6  503    0  0.23386013792E+03  0.64307338312E+03  0.55154314700E+03  0.87888212133E+03  0.00000000000E+00 0. -1.
         -3    1    6    6    0  503  0.20162985995E+02  0.19597840349E+03  0.14796474503E+03  0.24638921732E+03  0.00000000000E+00 0.  1.
<mgrwt>
<rscale>  0 0.12532924E+04</rscale>
<asrwt>0</asrwt>
<pdfrwt beam="1">  1        2 0.28995900E+00 0.12532924E+04</pdfrwt>
<pdfrwt beam="2">  1       -2 0.13877755E+00 0.12532924E+04</pdfrwt>
<totfact> 0.27549657E+00</totfact>
</mgrwt>
</event>
<event>
12    1  0.3147868E-008  0.1160049E+04  0.7818608E-02  0.9148562E-01
          1   -1    0    0  501    0  0.00000000000E+00  0.00000000000E+00  0.48827009747E+03  0.48827009747E+03  0.00000000000E+00 0. -1.
         -1   -1    0    0    0  501 -0.00000000000E+00 -0.00000000000E+00 -0.28231901776E+04  0.28231901776E+04  0.00000000000E+00 0.  1.
         23    2    1    2    0    0 -0.51144763834E+03 -0.96874019285E+03 -0.10927486863E+04  0.15499219958E+04  0.90123546002E+02 0.  0.
    5000000    2    1    2    0    0  0.51144763834E+03  0.96874019285E+03 -0.12421713938E+04  0.17615382793E+04  0.59999257480E+03 0.  0.
         23    2    4    4    0    0  0.50908074305E+03  0.10220803101E+04 -0.11192303166E+04  0.16015841742E+04  0.92649891188E+02 0.  0.
         23    2    4    4    0    0  0.23668952974E+01 -0.53340117261E+02 -0.12294107720E+03  0.15995410504E+03  0.87292823043E+02 0.  0.
          5    1    3    3  502    0 -0.19894709898E+03 -0.38567914325E+03 -0.49517187655E+03  0.65844181751E+03  0.47000000000E+01 0. -1.
         -5    1    3    3    0  502 -0.31250053936E+03 -0.58306104960E+03 -0.59757680979E+03  0.89148017828E+03  0.47000000000E+01 0.  1.
         13    1    5    5    0    0  0.46783515929E+03  0.97242834468E+03 -0.10759953801E+04  0.15238939201E+04  0.00000000000E+00 0. -1.
        -13    1    5    5    0    0  0.41245583751E+02  0.49651965435E+02 -0.43234936489E+02  0.77690254110E+02  0.00000000000E+00 0.  1.
          3    1    6    6  503    0 -0.56602676088E+01 -0.65819156003E+02 -0.12819326039E+03  0.14421411837E+03  0.00000000000E+00 0. -1.
         -3    1    6    6    0  503  0.80271629062E+01  0.12479038742E+02  0.52521831949E+01  0.15739986676E+02  0.00000000000E+00 0.  1.
<mgrwt>
<rscale>  0 0.11600493E+04</rscale>
<asrwt>0</asrwt>
<pdfrwt beam="1">  1        1 0.75118477E-01 0.11600493E+04</pdfrwt>
<pdfrwt beam="2">  1       -1 0.43433695E+00 0.11600493E+04</pdfrwt>
<totfact> 0.19076267E-01</totfact>
</mgrwt>
</event>
<event>
12    1  0.3147868E-008  0.1261192E+04  0.7818608E-02  0.9060920E-01
         -2   -1    0    0    0  501 -0.00000000000E+00  0.00000000000E+00  0.21906763530E+04  0.21906763530E+04  0.00000000000E+00 0.  1.
          2   -1    0    0  501    0  0.00000000000E+00 -0.00000000000E+00 -0.80543574445E+03  0.80543574445E+03  0.00000000000E+00 0. -1.
         23    2    1    2    0    0 -0.11112974824E+04 -0.57930694390E+03  0.52418733961E+03  0.13615129492E+04  0.91468650505E+02 0.  0.
    5000000    2    1    2    0    0  0.11112974824E+04  0.57930694390E+03  0.86105326891E+03  0.16345991482E+04  0.59993584143E+03 0.  0.
         23    2    4    4    0    0  0.19672022670E+03  0.11739890094E+03 -0.61740421997E+02  0.25271144738E+03  0.87004864173E+02 0.  0.
         23    2    4    4    0    0  0.91457725573E+03  0.46190804296E+03  0.92279369091E+03  0.13818877009E+04  0.90856067414E+02 0.  0.
          5    1    3    3  502    0 -0.48884666590E+03 -0.30285229670E+03  0.22315768149E+03  0.61685656127E+03  0.47000000000E+01 0. -1.
         -5    1    3    3    0  502 -0.62245081654E+03 -0.27645464721E+03  0.30102965813E+03  0.74465638790E+03  0.47000000000E+01 0.  1.
         13    1    5    5    0    0  0.31108797846E+02 -0.52694756866E+01 -0.31189252491E+02  0.44365461210E+02  0.00000000000E+00 0. -1.
        -13    1    5    5    0    0  0.16561142886E+03  0.12266837663E+03 -0.30551169506E+02  0.20834598617E+03  0.00000000000E+00 0.  1.
          1    1    6    6  503    0  0.87505434815E+03  0.41890092999E+03  0.87379515762E+03  0.13056477622E+04  0.00000000000E+00 0. -1.
         -1    1    6    6    0  503  0.39522907579E+02  0.43007112969E+02  0.48998533291E+02  0.76239938707E+02  0.00000000000E+00 0.  1.
<mgrwt>
<rscale>  0 0.12611915E+04</rscale>
<asrwt>0</asrwt>
<pdfrwt beam="1">  1        2 0.12391319E+00 0.12611915E+04</pdfrwt>
<pdfrwt beam="2">  1       -2 0.33702713E+00 0.12611915E+04</pdfrwt>
<totfact> 0.62587001E-01</totfact>
</mgrwt>
</event>
<event>
12    1  0.3147868E-008  0.6009588E+03  0.7818608E-02  0.9903419E-01
         -1   -1    0    0    0  501 -0.00000000000E+00  0.00000000000E+00  0.23592338286E+03  0.23592338286E+03  0.00000000000E+00 0.  1.
          1   -1    0    0  501    0  0.00000000000E+00 -0.00000000000E+00 -0.22112726520E+04  0.22112726520E+04  0.00000000000E+00 0. -1.
         23    2    1    2    0    0 -0.45323735693E+03 -0.36280731154E+03 -0.61291763688E+03  0.84922106342E+03  0.91951823933E+02 0.  0.
    5000000    2    1    2    0    0  0.45323735693E+03  0.36280731154E+03 -0.13624316322E+04  0.15979749714E+04  0.60020897175E+03 0.  0.
         23    2    4    4    0    0  0.15593966016E+03  0.69908922551E+02 -0.26457309344E+02  0.19553686749E+03  0.91270160892E+02 0.  0.
         23    2    4    4    0    0  0.29729769677E+03  0.29289838899E+03 -0.13359743229E+04  0.14024381039E+04  0.88486480122E+02 0.  0.
          5    1    3    3  502    0 -0.25863584047E+03 -0.23021270631E+03 -0.42298785294E+03  0.54665455441E+03  0.47000000000E+01 0. -1.
         -5    1    3    3    0  502 -0.19460151646E+03 -0.13259460523E+03 -0.18992978395E+03  0.30256650901E+03  0.47000000000E+01 0.  1.
         11    1    5    5    0    0  0.24879616894E+02  0.56780530091E+02 -0.68471076685E+01  0.62369117499E+02  0.00000000000E+00 0.  1.
        -11    1    5    5    0    0  0.13106004326E+03  0.13128392460E+02 -0.19610201675E+02  0.13316774999E+03  0.00000000000E+00 0. -1.
          4    1    6    6  503    0  0.28996178105E+03  0.24993275581E+03 -0.11851256618E+04  0.12454184241E+04  0.00000000000E+00 0. -1.
         -4    1    6    6    0  503  0.73359157216E+01  0.42965633180E+02 -0.15084866110E+03  0.15701967982E+03  0.00000000000E+00 0.  1.
<mgrwt>
<rscale>  0 0.60095883E+03</rscale>
<asrwt>0</asrwt>
<pdfrwt beam="1">  1        1 0.34019579E+00 0.60095883E+03</pdfrwt>
<pdfrwt beam="2">  1       -1 0.36295905E-01 0.60095883E+03</pdfrwt>
<totfact> 0.16667671E+01</totfact>
</mgrwt>
</event>
<event>
12    1  0.3147868E-008  0.3541211E+03  0.7818608E-02  0.1060936E+00
          2   -1    0    0  501    0  0.00000000000E+00  0.00000000000E+00  0.79057509759E+03  0.79057509759E+03  0.00000000000E+00 0. -1.
         -2   -1    0    0    0  501 -0.00000000000E+00 -0.00000000000E+00 -0.20710590062E+03  0.20710590062E+03  0.00000000000E+00 0.  1.
         23    2    1    2    0    0 -0.69324488958E+02 -0.73526927281E+02  0.29468171114E+03  0.32428311483E+03  0.90056281712E+02 0.  0.
    5000000    2    1    2    0    0  0.69324488958E+02  0.73526927281E+02  0.28878748582E+03  0.67339788338E+03  0.59987865737E+03 0.  0.
         23    2    4    4    0    0  0.28870240468E+03  0.17016368087E+03  0.12590479404E+03  0.36922830031E+03  0.90403339727E+02 0.  0.
         23    2    4    4    0    0 -0.21937791572E+03 -0.96636753587E+02  0.16288269178E+03  0.30416958307E+03  0.92320268285E+02 0.  0.
          5    1    3    3  502    0 -0.60682923841E+02 -0.39850220378E+01  0.97934592413E+02  0.11537578618E+03  0.47000000000E+01 0. -1.
         -5    1    3    3    0  502 -0.86415651164E+01 -0.69541905243E+02  0.19674711873E+03  0.20890732864E+03  0.47000000000E+01 0.  1.
         13    1    5    5    0    0  0.12600525693E+03  0.52500857461E+02  0.88009434039E+01  0.13678860118E+03  0.00000000000E+00 0.  1.
        -13    1    5    5    0    0  0.16269714775E+03  0.11766282341E+03  0.11710385064E+03  0.23243969913E+03  0.00000000000E+00 0. -1.
          1    1    6    6  503    0 -0.10582727858E+03 -0.45977840930E+02  0.13341174793E+03  0.17638613674E+03  0.00000000000E+00 0. -1.
         -1    1    6    6    0  503 -0.11355063714E+03 -0.50658912657E+02  0.29470943856E+02  0.12778344634E+03  0.00000000000E+00 0.  1.
<mgrwt>
<rscale>  0 0.35412111E+03</rscale>
<asrwt>0</asrwt>
<pdfrwt beam="1">  1        2 0.12162694E+00 0.35412111E+03</pdfrwt>
<pdfrwt beam="2">  1       -2 0.31862447E-01 0.35412111E+03</pdfrwt>
<totfact> 0.32983154E+02</totfact>
</mgrwt>
</event>
<event>
12    1  0.3147868E-008  0.6728501E+03  0.7818608E-02  0.9764823E-01
         -1   -1    0    0    0  501 -0.00000000000E+00  0.00000000000E+00  0.10747161658E+04  0.10747161658E+04  0.00000000000E+00 0.  1.
          1   -1    0    0  501    0  0.00000000000E+00 -0.00000000000E+00 -0.77550011298E+03  0.77550011298E+03  0.00000000000E+00 0. -1.
         23    2    1    2    0    0 -0.47548959796E+03 -0.39810712313E+03 -0.39665815377E+03  0.74173516915E+03  0.90850046469E+02 0.  0.
    5000000    2    1    2    0    0  0.47548959796E+03  0.39810712313E+03  0.69587420660E+03  0.11084811096E+04  0.59992484511E+03 0.  0.
         23    2    4    4    0    0  0.13388501752E+00 -0.12013080532E+02 -0.69335242286E+02  0.11441392455E+03  0.90215510186E+02 0.  0.
         23    2    4    4    0    0  0.47535571294E+03  0.41012020366E+03  0.76520944888E+03  0.99406718510E+03  0.91991480854E+02 0.  0.
          5    1    3    3  502    0 -0.14453385219E+03 -0.12366725230E+03 -0.73973933223E+02  0.20415155281E+03  0.47000000000E+01 0. -1.
         -5    1    3    3    0  502 -0.33095574577E+03 -0.27443987083E+03 -0.32268422055E+03  0.53758361634E+03  0.47000000000E+01 0.  1.
         13    1    5    5    0    0 -0.22124126592E+01  0.39403696011E+02 -0.27783565532E+02  0.48264609630E+02  0.00000000000E+00 0.  1.
        -13    1    5    5    0    0  0.23462976767E+01 -0.51416776543E+02 -0.41551676753E+02  0.66149314916E+02  0.00000000000E+00 0. -1.
          4    1    6    6  503    0  0.26614323312E+03  0.16890242588E+03  0.38242795328E+03  0.49559195862E+03  0.00000000000E+00 0. -1.
         -4    1    6    6    0  503  0.20921247983E+03  0.24121777778E+03  0.38278149561E+03  0.49847522648E+03  0.00000000000E+00 0.  1.
<mgrwt>
<rscale>  0 0.67285013E+03</rscale>
<asrwt>0</asrwt>
<pdfrwt beam="1">  1        1 0.11930771E+00 0.67285013E+03</pdfrwt>
<pdfrwt beam="2">  1       -1 0.16534095E+00 0.67285013E+03</pdfrwt>
<totfact> 0.64762817E+00</totfact>
</mgrwt>
</event>
<event>
12    1  0.3147868E-008  0.8901946E+03  0.7818608E-02  0.9437922E-01
         -3   -1    0    0    0  501 -0.00000000000E+00  0.00000000000E+00  0.11294892353E+04  0.11294892353E+04  0.00000000000E+00 0.  1.
          3   -1    0    0  501    0  0.00000000000E+00 -0.00000000000E+00 -0.97840400044E+03  0.97840400044E+03  0.00000000000E+00 0. -1.
         23    2    1    2    0    0 -0.61970197302E+03  0.50734701526E+03 -0.46707197840E+03  0.93168276731E+03  0.91896771632E+02 0.  0.
    5000000    2    1    2    0    0  0.61970197302E+03 -0.50734701526E+03  0.61815721329E+03  0.11762104685E+04  0.59993432684E+03 0.  0.
         23    2    4    4    0    0  0.12807463945E+03  0.11937061314E+03  0.12386673516E+03  0.23425183417E+03  0.94225777673E+02 0.  0.
         23    2    4    4    0    0  0.49162733357E+03 -0.62671762841E+03  0.49429047813E+03  0.94195863429E+03  0.92144294927E+02 0.  0.
          5    1    3    3  502    0 -0.36539684390E+03  0.25924437380E+03 -0.29877149178E+03  0.53852483061E+03  0.47000000000E+01 0. -1.
         -5    1    3    3    0  502 -0.25430512912E+03  0.24810264146E+03 -0.16830048662E+03  0.39315793670E+03  0.47000000000E+01 0.  1.
         13    1    5    5    0    0  0.72843240559E+02  0.76358852315E+02  0.17583719138E+02  0.10698597665E+03  0.00000000000E+00 0. -1.
        -13    1    5    5    0    0  0.55231398891E+02  0.43011760829E+02  0.10628301602E+03  0.12726585751E+03  0.00000000000E+00 0.  1.
          1    1    6    6  503    0  0.15654203519E+03 -0.26984602556E+03  0.20609931465E+03  0.37389733055E+03  0.00000000000E+00 0. -1.
         -1    1    6    6    0  503  0.33508529838E+03 -0.35687160285E+03  0.28819116347E+03  0.56806130374E+03  0.00000000000E+00 0.  1.
<mgrwt>
<rscale>  0 0.89019464E+03</rscale>
<asrwt>0</asrwt>
<pdfrwt beam="1">  1        3 0.15052369E+00 0.89019464E+03</pdfrwt>
<pdfrwt beam="2">  1       -3 0.17376758E+00 0.89019464E+03</pdfrwt>
<totfact> 0.17862817E-01</totfact>
</mgrwt>
</event>
<event>
12    1  0.3894502E-008  0.1416313E+04  0.7818608E-02  0.8942094E-01
          2   -1    0    0  501    0  0.00000000000E+00  0.00000000000E+00  0.16785701088E+04  0.16785701088E+04  0.00000000000E+00 0. -1.
         -2   -1    0    0    0  501 -0.00000000000E+00 -0.00000000000E+00 -0.13611042106E+04  0.13611042106E+04  0.00000000000E+00 0.  1.
         23    2    1    2    0    0 -0.85444840136E+03 -0.11201513691E+04  0.49957552090E+03  0.14975981042E+04  0.91669081759E+02 0.  0.
    5000000    2    1    2    0    0  0.85444840136E+03  0.11201513691E+04 -0.18210962267E+03  0.15420762152E+04  0.60001164875E+03 0.  0.
         23    2    4    4    0    0  0.62347963365E+03  0.71358105614E+03  0.14780135393E+03  0.96293902019E+03  0.86495890759E+02 0.  0.
         23    2    4    4    0    0  0.23096876771E+03  0.40657031292E+03 -0.32991097660E+03  0.57913719502E+03  0.88953061585E+02 0.  0.
          5    1    3    3  502    0 -0.34854139181E+03 -0.49791655038E+03  0.17550135416E+03  0.63263323360E+03  0.47000000000E+01 0. -1.
         -5    1    3    3    0  502 -0.50590700954E+03 -0.62223481868E+03  0.32407416675E+03  0.86496487064E+03  0.47000000000E+01 0.  1.
         11    1    5    5    0    0  0.31264697146E+03  0.36075033403E+03  0.30732197171E+02  0.47836534178E+03  0.00000000000E+00 0. -1.
        -11    1    5    5    0    0  0.31083266219E+03  0.35283072210E+03  0.11706915676E+03  0.48457367841E+03  0.00000000000E+00 0.  1.
          3    1    6    6  503    0  0.13364329477E+03  0.31264055558E+03 -0.22147549119E+03  0.40577831439E+03  0.00000000000E+00 0. -1.
         -3    1    6    6    0  503  0.97325472936E+02  0.93929757342E+02 -0.10843548541E+03  0.17335888063E+03  0.00000000000E+00 0.  1.
<mgrwt>
<rscale>  0 0.14163128E+04</rscale>
<asrwt>0</asrwt>
<pdfrwt beam="1">  1        2 0.25824156E+00 0.14163128E+04</pdfrwt>
<pdfrwt beam="2">  1       -2 0.20940065E+00 0.14163128E+04</pdfrwt>
<totfact> 0.11038924E+00</totfact>
</mgrwt>
</event>
<event>
12    1  0.3147868E-008  0.5754845E+03  0.7818608E-02  0.9957615E-01
          2   -1    0    0  501    0  0.00000000000E+00  0.00000000000E+00  0.21152608246E+04  0.21152608246E+04  0.00000000000E+00 0. -1.
         -2   -1    0    0    0  501 -0.00000000000E+00 -0.00000000000E+00 -0.17891125769E+03  0.17891125769E+03  0.00000000000E+00 0.  1.
         23    2    1    2    0    0  0.45115843766E+03  0.10734559428E+03  0.71360640530E+03  0.85542273760E+03  0.86295688395E+02 0.  0.
    5000000    2    1    2    0    0 -0.45115843766E+03 -0.10734559428E+03  0.12227431616E+04  0.14387493447E+04  0.59985983786E+03 0.  0.
         23    2    4    4    0    0  0.39457997470E+02  0.12286598059E+03  0.95991985204E+02  0.18516154893E+03  0.91746145580E+02 0.  0.
         23    2    4    4    0    0 -0.49061643513E+03 -0.23021157487E+03  0.11267511764E+04  0.12535877958E+04  0.90621699939E+02 0.  0.
          5    1    3    3  502    0  0.29098739759E+03  0.10941930682E+03  0.45115202127E+03  0.54791102065E+03  0.47000000000E+01 0. -1.
         -5    1    3    3    0  502  0.16017104007E+03 -0.20737125415E+01  0.26245438403E+03  0.30751171695E+03  0.47000000000E+01 0.  1.
         11    1    5    5    0    0  0.15540971293E+02  0.23398221781E+02 -0.16924293093E+02  0.32793753489E+02  0.00000000000E+00 0. -1.
        -11    1    5    5    0    0  0.23917026176E+02  0.99467758808E+02  0.11291627830E+03  0.15236779544E+03  0.00000000000E+00 0.  1.
          4    1    6    6  503    0 -0.96912807737E+02 -0.87706565488E+02  0.27592643548E+03  0.30531939298E+03  0.00000000000E+00 0. -1.
         -4    1    6    6    0  503 -0.39370362739E+03 -0.14250500938E+03  0.85082474095E+03  0.94826840279E+03  0.00000000000E+00 0.  1.
<mgrwt>
<rscale>  0 0.57548454E+03</rscale>
<asrwt>0</asrwt>
<pdfrwt beam="1">  1        2 0.32542473E+00 0.57548454E+03</pdfrwt>
<pdfrwt beam="2">  1       -2 0.27524810E-01 0.57548454E+03</pdfrwt>
<totfact> 0.73032492E+01</totfact>
</mgrwt>
</event>
<event>
12    1  0.3147868E-008  0.1177036E+04  0.7818608E-02  0.9133198E-01
         -2   -1    0    0    0  501 -0.00000000000E+00  0.00000000000E+00  0.75098188194E+03  0.75098188194E+03  0.00000000000E+00 0.  1.
          2   -1    0    0  501    0  0.00000000000E+00 -0.00000000000E+00 -0.20582916890E+04  0.20582916890E+04  0.00000000000E+00 0. -1.
         23    2    1    2    0    0  0.11279725385E+04 -0.22315074576E+03 -0.37817081281E+03  0.12138120544E+04  0.90599319920E+02 0.  0.
    5000000    2    1    2    0    0 -0.11279725385E+04  0.22315074576E+03 -0.92913899426E+03  0.15954615165E+04  0.60006656056E+03 0.  0.
         23    2    4    4    0    0 -0.31112385902E+02  0.18106480293E+02  0.49614051761E+02  0.10843447615E+03  0.89446387861E+02 0.  0.
         23    2    4    4    0    0 -0.10968601526E+04  0.20504426546E+03 -0.97875304602E+03  0.14870270404E+04  0.90258232484E+02 0.  0.
          5    1    3    3  502    0  0.74368186783E+03 -0.17472054822E+03 -0.21616005628E+03  0.79393781270E+03  0.47000000000E+01 0. -1.
         -5    1    3    3    0  502  0.38429067070E+03 -0.48430197538E+02 -0.16201075653E+03  0.41987424171E+03  0.47000000000E+01 0.  1.
         13    1    5    5    0    0  0.33080316964E+01  0.42510438278E+02 -0.85962730158E+00  0.42647618871E+02  0.00000000000E+00 0.  1.
        -13    1    5    5    0    0 -0.34420417598E+02 -0.24403957985E+02  0.50473679062E+02  0.65786857282E+02  0.00000000000E+00 0. -1.
          1    1    6    6  503    0 -0.65342859694E+03  0.15605660393E+03 -0.62644980912E+03  0.91856516278E+03  0.00000000000E+00 0. -1.
         -1    1    6    6    0  503 -0.44343155568E+03  0.48987661531E+02 -0.35230323690E+03  0.56846187760E+03  0.00000000000E+00 0.  1.
<mgrwt>
<rscale>  0 0.11770357E+04</rscale>
<asrwt>0</asrwt>
<pdfrwt beam="1">  1        2 0.31666026E+00 0.11770357E+04</pdfrwt>
<pdfrwt beam="2">  1       -2 0.11553568E+00 0.11770357E+04</pdfrwt>
<totfact> 0.35407360E+00</totfact>
</mgrwt>
</event>
<event>
12    1  0.3147868E-008  0.8375738E+03  0.7818608E-02  0.9507168E-01
         -2   -1    0    0    0  501 -0.00000000000E+00  0.00000000000E+00  0.78720627753E+03  0.78720627753E+03  0.00000000000E+00 0.  1.
          2   -1    0    0  501    0  0.00000000000E+00 -0.00000000000E+00 -0.92599876894E+03  0.92599876894E+03  0.00000000000E+00 0. -1.
         23    2    1    2    0    0 -0.44477942654E+03 -0.59074808228E+03 -0.15449939169E+03  0.76089608341E+03  0.90998641335E+02 0.  0.
    5000000    2    1    2    0    0  0.44477942654E+03  0.59074808228E+03  0.15706900277E+02  0.95230896306E+03  0.59986133349E+03 0.  0.
         23    2    4    4    0    0  0.48939616015E+03  0.18449412247E+03  0.39751177298E+02  0.53257732973E+03  0.92259271902E+02 0.  0.
         23    2    4    4    0    0 -0.44616733611E+02  0.40625395981E+03 -0.24044277021E+02  0.41973163333E+03  0.92539634643E+02 0.  0.
          5    1    3    3  502    0 -0.31155474715E+03 -0.36632005810E+03 -0.13306099156E+03  0.49898302868E+03  0.47000000000E+01 0. -1.
         -5    1    3    3    0  502 -0.13322467938E+03 -0.22442802418E+03 -0.21438400127E+02  0.26191305472E+03  0.47000000000E+01 0.  1.
         13    1    5    5    0    0  0.71124865283E+02  0.17328822920E+02  0.37236409362E+02  0.82131508859E+02  0.00000000000E+00 0.  1.
        -13    1    5    5    0    0  0.41827129487E+03  0.16716529955E+03  0.25147679359E+01  0.45044582087E+03  0.00000000000E+00 0. -1.
          2    1    6    6  503    0 -0.44650623277E+02  0.30036492033E+03  0.21580798400E+02  0.30443142805E+03  0.00000000000E+00 0.  1.
         -2    1    6    6    0  503  0.33889666601E-01  0.10588903948E+03 -0.45625075421E+02  0.11530020528E+03  0.00000000000E+00 0. -1.
<mgrwt>
<rscale>  0 0.83757379E+03</rscale>
<asrwt>0</asrwt>
<pdfrwt beam="1">  1        2 0.14246135E+00 0.83757379E+03</pdfrwt>
<pdfrwt beam="2">  1       -2 0.12110866E+00 0.83757379E+03</pdfrwt>
<totfact> 0.14719020E+01</totfact>
</mgrwt>
</event>
<event>
12    1  0.3147868E-008  0.1015088E+04  0.7818608E-02  0.9292150E-01
         -1   -1    0    0    0  501 -0.00000000000E+00  0.00000000000E+00  0.14031779838E+04  0.14031779838E+04  0.00000000000E+00 0.  1.
          1   -1    0    0  501    0  0.00000000000E+00 -0.00000000000E+00 -0.76571485207E+03  0.76571485207E+03  0.00000000000E+00 0. -1.
         23    2    1    2    0    0 -0.34599564750E+03  0.88181641041E+03  0.27942587881E+03  0.99180407568E+03  0.91012817992E+02 0.  0.
    5000000    2    1    2    0    0  0.34599564750E+03 -0.88181641041E+03  0.35803725292E+03  0.11770887602E+04  0.60002842026E+03 0.  0.
         23    2    4    4    0    0  0.88541465015E+02  0.55109802102E+02  0.82068254684E+02  0.16292032684E+03  0.94504778474E+02 0.  0.
         23    2    4    4    0    0  0.25745418249E+03 -0.93692621251E+03  0.27596899823E+03  0.10141684334E+04  0.90913912275E+02 0.  0.
          5    1    3    3  502    0 -0.72418284987E+02  0.24099511275E+03  0.11022669855E+03  0.27476365742E+03  0.47000000000E+01 0. -1.
         -5    1    3    3    0  502 -0.27357736251E+03  0.64082129767E+03  0.16919918026E+03  0.71704041826E+03  0.47000000000E+01 0.  1.
         11    1    5    5    0    0  0.31239090199E+02  0.39849433531E+02 -0.11705607851E+02  0.51969985226E+02  0.00000000000E+00 0.  1.
        -11    1    5    5    0    0  0.57302374816E+02  0.15260368571E+02  0.93773862535E+02  0.11095034161E+03  0.00000000000E+00 0. -1.
          4    1    6    6  503    0  0.19647755255E+03 -0.69072127849E+03  0.16237783211E+03  0.73625122993E+03  0.00000000000E+00 0.  1.
         -4    1    6    6    0  503  0.60976629936E+02 -0.24620493403E+03  0.11359116612E+03  0.27791720342E+03  0.00000000000E+00 0. -1.
<mgrwt>
<rscale>  0 0.10150880E+04</rscale>
<asrwt>0</asrwt>
<pdfrwt beam="1">  1        1 0.11780228E+00 0.10150880E+04</pdfrwt>
<pdfrwt beam="2">  1       -1 0.21587354E+00 0.10150880E+04</pdfrwt>
<totfact> 0.27901167E+00</totfact>
</mgrwt>
</event>
<event>
12    1  0.3147868E-008  0.9158822E+03  0.7818608E-02  0.9405943E-01
          2   -1    0    0  501    0  0.00000000000E+00  0.00000000000E+00  0.17179087571E+04  0.17179087571E+04  0.00000000000E+00 0. -1.
         -2   -1    0    0    0  501 -0.00000000000E+00 -0.00000000000E+00 -0.68595285899E+03  0.68595285899E+03  0.00000000000E+00 0.  1.
         23    2    1    2    0    0  0.46321544854E+03  0.76368081078E+03  0.97665134242E+03  0.13264123305E+04  0.88005076324E+02 0.  0.
    5000000    2    1    2    0    0 -0.46321544854E+03 -0.76368081078E+03  0.55304555729E+02  0.10774492856E+04  0.60005119499E+03 0.  0.
         23    2    4    4    0    0 -0.31119285983E+03 -0.24704260513E+03  0.27182569913E+03  0.48972590462E+03  0.89839892003E+02 0.  0.
         23    2    4    4    0    0 -0.15202258871E+03 -0.51663820565E+03 -0.21652114340E+03  0.58772338096E+03  0.92257595749E+02 0.  0.
          5    1    3    3  502    0  0.62011849795E+02  0.90602238800E+02  0.16484684173E+03  0.19811816277E+03  0.47000000000E+01 0. -1.
         -5    1    3    3    0  502  0.40120359874E+03  0.67307857198E+03  0.81180450069E+03  0.11282941678E+04  0.47000000000E+01 0.  1.
         13    1    5    5    0    0 -0.25962778569E+03 -0.19847158648E+03  0.17790465421E+03  0.37208550594E+03  0.00000000000E+00 0. -1.
        -13    1    5    5    0    0 -0.51565074138E+02 -0.48571018646E+02  0.93921044917E+02  0.11764039868E+03  0.00000000000E+00 0.  1.
          4    1    6    6  503    0 -0.96236958890E+02 -0.39903635033E+03 -0.12673193985E+03  0.42959579341E+03  0.00000000000E+00 0. -1.
         -4    1    6    6    0  503 -0.55785629821E+02 -0.11760185533E+03 -0.89789203555E+02  0.15812758756E+03  0.00000000000E+00 0.  1.
<mgrwt>
<rscale>  0 0.91588223E+03</rscale>
<asrwt>0</asrwt>
<pdfrwt beam="1">  1        2 0.26429365E+00 0.91588223E+03</pdfrwt>
<pdfrwt beam="2">  1       -2 0.10553121E+00 0.91588223E+03</pdfrwt>
<totfact> 0.70064277E+00</totfact>
</mgrwt>
</event>
<event>
12    1  0.3147868E-008  0.6938070E+03  0.7818608E-02  0.9727882E-01
         -1   -1    0    0    0  501 -0.00000000000E+00  0.00000000000E+00  0.73483036578E+03  0.73483036578E+03  0.00000000000E+00 0.  1.
          1   -1    0    0  501    0  0.00000000000E+00 -0.00000000000E+00 -0.77338705308E+03  0.77338705308E+03  0.00000000000E+00 0. -1.
         23    2    1    2    0    0  0.51736903363E+03 -0.33060103674E+03  0.12808064443E+03  0.63362141704E+03  0.90020476548E+02 0.  0.
    5000000    2    1    2    0    0 -0.51736903363E+03  0.33060103674E+03 -0.16663733173E+03  0.87459600182E+03  0.60015198376E+03 0.  0.
         23    2    4    4    0    0 -0.21231267478E+02  0.25670096409E+03 -0.23315806417E+03  0.36047403449E+03  0.96086913632E+02 0.  0.
         23    2    4    4    0    0 -0.49613776615E+03  0.73900072654E+02  0.66520732442E+02  0.51412196732E+03  0.91008162835E+02 0.  0.
          5    1    3    3  502    0  0.20589915899E+03 -0.18316158858E+03  0.66516741405E+02  0.28352988924E+03  0.47000000000E+01 0. -1.
         -5    1    3    3    0  502  0.31146987463E+03 -0.14743944816E+03  0.61563903026E+02  0.35009152780E+03  0.47000000000E+01 0.  1.
         11    1    5    5    0    0 -0.80930966522E+01  0.88752584456E+02 -0.14536242374E+03  0.17050734206E+03  0.00000000000E+00 0.  1.
        -11    1    5    5    0    0 -0.13138170826E+02  0.16794837963E+03 -0.87795640431E+02  0.18996669243E+03  0.00000000000E+00 0. -1.
          2    1    6    6  503    0 -0.26737440082E+03  0.85526237897E+02  0.34277797806E+02  0.28280518914E+03  0.00000000000E+00 0. -1.
         -2    1    6    6    0  503 -0.22876336533E+03 -0.11626165243E+02  0.32242934635E+02  0.23131677818E+03  0.00000000000E+00 0.  1.
<mgrwt>
<rscale>  0 0.69380701E+03</rscale>
<asrwt>0</asrwt>
<pdfrwt beam="1">  1        1 0.11898262E+00 0.69380701E+03</pdfrwt>
<pdfrwt beam="2">  1       -1 0.11305083E+00 0.69380701E+03</pdfrwt>
<totfact> 0.17277056E+01</totfact>
</mgrwt>
</event>
<event>
12    1  0.4610522E-008  0.1113906E+04  0.7818608E-02  0.9191743E-01
          1   -1    0    0  501    0  0.00000000000E+00  0.00000000000E+00  0.16447007551E+04  0.16447007551E+04  0.00000000000E+00 0. -1.
         -1   -1    0    0    0  501 -0.00000000000E+00 -0.00000000000E+00 -0.88615039612E+03  0.88615039612E+03  0.00000000000E+00 0.  1.
         23    2    1    2    0    0 -0.37747369670E+03  0.96567954471E+03  0.82989021016E+03  0.13308733482E+04  0.86502793100E+02 0.  0.
    5000000    2    1    2    0    0  0.37747369670E+03 -0.96567954471E+03 -0.71339851215E+02  0.11999778030E+04  0.59986163284E+03 0.  0.
         23    2    4    4    0    0 -0.12289801149E+03 -0.43030825548E+03 -0.56864959588E+02  0.46133260306E+03  0.96566200392E+02 0.  0.
         23    2    4    4    0    0  0.50037170819E+03 -0.53537128923E+03 -0.14474891627E+02  0.73864519994E+03  0.91613018832E+02 0.  0.
          5    1    3    3  502    0 -0.13727359022E+03  0.35767373234E+03  0.25439341318E+03  0.45990502937E+03  0.47000000000E+01 0. -1.
         -5    1    3    3    0  502 -0.24020010648E+03  0.60800581237E+03  0.57549679698E+03  0.87096831881E+03  0.47000000000E+01 0.  1.
         13    1    5    5    0    0 -0.87657687955E+02 -0.13865442182E+03 -0.20386164227E+02  0.16530128445E+03  0.00000000000E+00 0. -1.
        -13    1    5    5    0    0 -0.35240323535E+02 -0.29165383365E+03 -0.36478795361E+02  0.29603131861E+03  0.00000000000E+00 0.  1.
          1    1    6    6  503    0  0.18339533415E+03 -0.18135952109E+03 -0.47717009478E+02  0.26230142484E+03  0.00000000000E+00 0. -1.
         -1    1    6    6    0  503  0.31697637404E+03 -0.35401176814E+03  0.33242117852E+02  0.47634377510E+03  0.00000000000E+00 0.  1.
<mgrwt>
<rscale>  0 0.11139061E+04</rscale>
<asrwt>0</asrwt>
<pdfrwt beam="1">  1        1 0.25303089E+00 0.11139061E+04</pdfrwt>
<pdfrwt beam="2">  1       -1 0.13633083E+00 0.11139061E+04</pdfrwt>
<totfact> 0.23168468E+00</totfact>
</mgrwt>
</event>
<event>
12    1  0.3147868E-008  0.3110766E+03  0.7818608E-02  0.1079831E+00
          2   -1    0    0  501    0  0.00000000000E+00  0.00000000000E+00  0.53297411784E+03  0.53297411784E+03  0.00000000000E+00 0. -1.
         -2   -1    0    0    0  501 -0.00000000000E+00 -0.00000000000E+00 -0.36207094774E+03  0.36207094774E+03  0.00000000000E+00 0.  1.
         23    2    1    2    0    0  0.17921681931E+03  0.11940955453E+02 -0.84835655117E+02  0.21857149253E+03  0.91187467500E+02 0.  0.
    5000000    2    1    2    0    0 -0.17921681931E+03 -0.11940955453E+02  0.25573882522E+03  0.67647357305E+03  0.59996074336E+03 0.  0.
         23    2    4    4    0    0  0.86171202464E+02 -0.68224595084E+02 -0.13363051969E+03  0.19512422381E+03  0.90201304956E+02 0.  0.
         23    2    4    4    0    0 -0.26538802177E+03  0.56283639631E+02  0.38936934490E+03  0.48134934924E+03  0.80560902898E+02 0.  0.
          5    1    3    3  502    0  0.11067887451E+03 -0.32491247512E+02 -0.27527734587E+02  0.11868176187E+03  0.47000000000E+01 0. -1.
         -5    1    3    3    0  502  0.68537944796E+02  0.44432202966E+02 -0.57307920530E+02  0.99889730667E+02  0.47000000000E+01 0.  1.
         13    1    5    5    0    0  0.72639413864E+02 -0.11160719870E-01 -0.67737410979E+02  0.99321908042E+02  0.00000000000E+00 0. -1.
        -13    1    5    5    0    0  0.13531788600E+02 -0.68213434364E+02 -0.65893108707E+02  0.95802315763E+02  0.00000000000E+00 0.  1.
          2    1    6    6  503    0 -0.17082626806E+03  0.74576940054E+02  0.24628429430E+03  0.30886775077E+03  0.00000000000E+00 0. -1.
         -2    1    6    6    0  503 -0.94561753712E+02 -0.18293300423E+02  0.14308505060E+03  0.17248159847E+03  0.00000000000E+00 0.  1.
<mgrwt>
<rscale>  0 0.31107662E+03</rscale>
<asrwt>0</asrwt>
<pdfrwt beam="1">  1        2 0.81996018E-01 0.31107662E+03</pdfrwt>
<pdfrwt beam="2">  1       -2 0.55703223E-01 0.31107662E+03</pdfrwt>
<totfact> 0.17955181E+02</totfact>
</mgrwt>
</event>
<event>
12    1  0.3147868E-008  0.5813498E+03  0.7818608E-02  0.9944873E-01
          2   -1    0    0  501    0  0.00000000000E+00  0.00000000000E+00  0.11131148817E+04  0.11131148817E+04  0.00000000000E+00 0. -1.
         -2   -1    0    0    0  501 -0.00000000000E+00 -0.00000000000E+00 -0.42770388043E+03  0.42770388043E+03  0.00000000000E+00 0.  1.
         23    2    1    2    0    0  0.25373519827E+03 -0.47653471424E+03  0.42413485555E+03  0.69236849275E+03  0.89536971991E+02 0.  0.
    5000000    2    1    2    0    0 -0.25373519827E+03  0.47653471424E+03  0.26127614574E+03  0.84845026939E+03  0.60011311482E+03 0.  0.
         23    2    4    4    0    0 -0.37136324650E+02  0.33977350589E+03 -0.12526953244E+03  0.37545624266E+03  0.91922752792E+02 0.  0.
         23    2    4    4    0    0 -0.21659887362E+03  0.13676120835E+03  0.38654567818E+03  0.47299402673E+03  0.93204548392E+02 0.  0.
          5    1    3    3  502    0 -0.23292106473E+01 -0.44847663060E+02  0.39668417931E+02  0.60103340051E+02  0.47000000000E+01 0. -1.
         -5    1    3    3    0  502  0.25606440891E+03 -0.43168705118E+03  0.38446643761E+03  0.63226515270E+03  0.47000000000E+01 0.  1.
         11    1    5    5    0    0  0.17181845328E+02  0.19642351241E+03 -0.44294129582E+02  0.20208756011E+03  0.00000000000E+00 0. -1.
        -11    1    5    5    0    0 -0.54318169978E+02  0.14334999348E+03 -0.80975402859E+02  0.17336868255E+03  0.00000000000E+00 0.  1.
          4    1    6    6  503    0 -0.21425742283E+03  0.14358556725E+03  0.34460118573E+03  0.43043354373E+03  0.00000000000E+00 0. -1.
         -4    1    6    6    0  503 -0.23414507835E+01 -0.68243589041E+01  0.41944492446E+02  0.42560482995E+02  0.00000000000E+00 0.  1.
<mgrwt>
<rscale>  0 0.58134977E+03</rscale>
<asrwt>0</asrwt>
<pdfrwt beam="1">  1        2 0.17124844E+00 0.58134977E+03</pdfrwt>
<pdfrwt beam="2">  1       -2 0.65800598E-01 0.58134977E+03</pdfrwt>
<totfact> 0.47061439E+01</totfact>
</mgrwt>
</event>
<event>
12    1  0.3147868E-008  0.5099566E+03  0.7818608E-02  0.1011212E+00
         -1   -1    0    0    0  501 -0.00000000000E+00  0.00000000000E+00  0.69368078900E+03  0.69368078900E+03  0.00000000000E+00 0.  1.
          1   -1    0    0  501    0  0.00000000000E+00 -0.00000000000E+00 -0.45064447966E+03  0.45064447966E+03  0.00000000000E+00 0. -1.
         23    2    1    2    0    0 -0.29370582640E+03 -0.16857307321E+03 -0.11324863657E+03  0.36931619118E+03  0.94282564184E+02 0.  0.
    5000000    2    1    2    0    0  0.29370582640E+03  0.16857307321E+03  0.35628494591E+03  0.77500907749E+03  0.59918287194E+03 0.  0.
         23    2    4    4    0    0 -0.16380117848E+03  0.90971979190E+02  0.62424959394E+02  0.21791243720E+03  0.92099010109E+02 0.  0.
         23    2    4    4    0    0  0.45750700488E+03  0.77601094020E+02  0.29385998652E+03  0.55709664029E+03  0.93104165523E+02 0.  0.
          5    1    3    3  502    0 -0.15025368034E+03 -0.33310235332E+02 -0.57582556064E+02  0.16438850628E+03  0.47000000000E+01 0. -1.
         -5    1    3    3    0  502 -0.14345214606E+03 -0.13526283788E+03 -0.55666080506E+02  0.20492768490E+03  0.47000000000E+01 0.  1.
         13    1    5    5    0    0 -0.12397194270E+03  0.31557750035E+02  0.70269253379E+02  0.14595445226E+03  0.00000000000E+00 0. -1.
        -13    1    5    5    0    0 -0.39829235777E+02  0.59414229154E+02 -0.78442939843E+01  0.71957984941E+02  0.00000000000E+00 0.  1.
          3    1    6    6  503    0  0.20927320036E+03  0.70836201759E+02  0.17469707600E+03  0.28165956087E+03  0.00000000000E+00 0. -1.
         -3    1    6    6    0  503  0.24823380452E+03  0.67648922609E+01  0.11916291052E+03  0.27543707942E+03  0.00000000000E+00 0.  1.
<mgrwt>
<rscale>  0 0.50995657E+03</rscale>
<asrwt>0</asrwt>
<pdfrwt beam="1">  1        1 0.69329920E-01 0.50995657E+03</pdfrwt>
<pdfrwt beam="2">  1       -1 0.10672012E+00 0.50995657E+03</pdfrwt>
<totfact> 0.43885990E+01</totfact>
</mgrwt>
</event>
<event>
12    1  0.3147868E-008  0.1811322E+04  0.7818608E-02  0.8700302E-01
         -2   -1    0    0    0  501 -0.00000000000E+00  0.00000000000E+00  0.12080854026E+04  0.12080854026E+04  0.00000000000E+00 0. -1.
          2   -1    0    0  501    0  0.00000000000E+00 -0.00000000000E+00 -0.28102439963E+04  0.28102439963E+04  0.00000000000E+00 0.  1.
         23    2    1    2    0    0 -0.17072370145E+04 -0.50618806534E+03 -0.10044932264E+04  0.20465215050E+04  0.91427826577E+02 0.  0.
    5000000    2    1    2    0    0  0.17072370145E+04  0.50618806534E+03 -0.59766536729E+03  0.19718078938E+04  0.59994824589E+03 0.  0.
         23    2    4    4    0    0  0.33782091529E+03  0.30386031306E+03 -0.27637951108E+01  0.46233437866E+03  0.85389568827E+02 0.  0.
         23    2    4    4    0    0  0.13694160992E+04  0.20232775228E+03 -0.59490157218E+03  0.15094735152E+04  0.91462781013E+02 0.  0.
          5    1    3    3  502    0 -0.90483110332E+03 -0.27341265976E+03 -0.48133704822E+03  0.10607456114E+04  0.47000000000E+01 0. -1.
         -5    1    3    3    0  502 -0.80240591117E+03 -0.23277540558E+03 -0.52315617821E+03  0.98577589366E+03  0.47000000000E+01 0.  1.
         13    1    5    5    0    0  0.28182160496E+03  0.26108285542E+03 -0.33138663522E+02  0.38559803609E+03  0.00000000000E+00 0.  1.
        -13    1    5    5    0    0  0.55999310328E+02  0.42777457642E+02  0.30374868411E+02  0.76736342567E+02  0.00000000000E+00 0. -1.
          3    1    6    6  503    0  0.43835559108E+03  0.22119259610E+02 -0.19401283456E+03  0.47988109553E+03  0.00000000000E+00 0. -1.
         -3    1    6    6    0  503  0.93106050812E+03  0.18020849267E+03 -0.40088873762E+03  0.10295924196E+04  0.00000000000E+00 0.  1.
<mgrwt>
<rscale>  0 0.18113217E+04</rscale>
<asrwt>0</asrwt>
<pdfrwt beam="1">  1        2 0.43234523E+00 0.18113217E+04</pdfrwt>
<pdfrwt beam="2">  1       -2 0.18585929E+00 0.18113217E+04</pdfrwt>
<totfact> 0.34365080E-01</totfact>
</mgrwt>
</event>
<event>
12    1  0.3147868E-008  0.1052491E+04  0.7818608E-02  0.9252776E-01
         -1   -1    0    0    0  501 -0.00000000000E+00  0.00000000000E+00  0.83907314654E+03  0.83907314654E+03  0.00000000000E+00 0.  1.
          1   -1    0    0  501    0  0.00000000000E+00 -0.00000000000E+00 -0.14309680909E+04  0.14309680909E+04  0.00000000000E+00 0. -1.
         23    2    1    2    0    0 -0.77309024141E+02 -0.98746718280E+03 -0.63039491874E+02  0.99698203429E+03  0.94504374678E+02 0.  0.
    5000000    2    1    2    0    0  0.77309024141E+02  0.98746718280E+03 -0.52885545250E+03  0.12730592032E+04  0.59993626560E+03 0.  0.
         23    2    4    4    0    0  0.28319976748E+03  0.71488916002E+03 -0.22466747213E+03  0.80665835272E+03  0.94623493735E+02 0.  0.
         23    2    4    4    0    0 -0.20589074334E+03  0.27257802278E+03 -0.30418798037E+03  0.46640085044E+03  0.91157277237E+02 0.  0.
          5    1    3    3  502    0 -0.44085136431E+02 -0.45425505239E+03  0.17124187338E+02  0.45673458339E+03  0.47000000000E+01 0. -1.
         -5    1    3    3    0  502 -0.33223887710E+02 -0.53321213042E+03 -0.80163679212E+02  0.54024745090E+03  0.47000000000E+01 0.  1.
         13    1    5    5    0    0  0.92777968730E+02  0.29559284988E+03 -0.13280103930E+03  0.33707417643E+03  0.00000000000E+00 0.  1.
        -13    1    5    5    0    0  0.19042179875E+03  0.41929631015E+03 -0.91866432838E+02  0.46958417629E+03  0.00000000000E+00 0. -1.
          1    1    6    6  503    0 -0.95084605142E+02  0.93244476105E+02 -0.17218678873E+03  0.21767844328E+03  0.00000000000E+00 0. -1.
         -1    1    6    6    0  503 -0.11080613819E+03  0.17933354668E+03 -0.13200119164E+03  0.24872240715E+03  0.00000000000E+00 0.  1.
<mgrwt>
<rscale>  0 0.10524907E+04</rscale>
<asrwt>0</asrwt>
<pdfrwt beam="1">  1        1 0.22014894E+00 0.10524907E+04</pdfrwt>
<pdfrwt beam="2">  1       -1 0.12908818E+00 0.10524907E+04</pdfrwt>
<totfact> 0.37664605E+00</totfact>
</mgrwt>
</event>
<event>
12    1  0.3147868E-008  0.5888826E+03  0.7818608E-02  0.9928743E-01
          1   -1    0    0  501    0  0.00000000000E+00  0.00000000000E+00  0.18449779089E+04  0.18449779089E+04  0.00000000000E+00 0. -1.
         -1   -1    0    0    0  501 -0.00000000000E+00 -0.00000000000E+00 -0.29020732164E+03  0.29020732164E+03  0.00000000000E+00 0.  1.
         23    2    1    2    0    0  0.14711503414E+03  0.54291137173E+03  0.32145119669E+03  0.65278022440E+03  0.79972236980E+02 0.  0.
    5000000    2    1    2    0    0 -0.14711503414E+03 -0.54291137173E+03  0.12333193905E+04  0.14824050061E+04  0.60004357530E+03 0.  0.
         23    2    4    4    0    0 -0.17829666387E+03 -0.51453392036E+03  0.50503091787E+03  0.74814676303E+03  0.90180349768E+02 0.  0.
         23    2    4    4    0    0  0.31181629733E+02 -0.28377451373E+02  0.72828847266E+03  0.73425824308E+03  0.83387615033E+02 0.  0.
          5    1    3    3  502    0 -0.45553711787E+01  0.50636627303E+02  0.45512069279E+02  0.68397791494E+02  0.47000000000E+01 0. -1.
         -5    1    3    3    0  502  0.15167040532E+03  0.49227474443E+03  0.27593912741E+03  0.58438243290E+03  0.47000000000E+01 0.  1.
         13    1    5    5    0    0 -0.91196482114E+02 -0.25591825222E+03  0.19093946005E+03  0.33206750454E+03  0.00000000000E+00 0.  1.
        -13    1    5    5    0    0 -0.87100181759E+02 -0.25861566814E+03  0.31409145782E+03  0.41607925849E+03  0.00000000000E+00 0. -1.
          3    1    6    6  503    0  0.18669262037E+02 -0.43523709177E+02  0.68595852444E+03  0.68759141345E+03  0.00000000000E+00 0. -1.
         -3    1    6    6    0  503  0.12512367696E+02  0.15146257804E+02  0.42329948221E+02  0.46666829625E+02  0.00000000000E+00 0.  1.
<mgrwt>
<rscale>  0 0.58888256E+03</rscale>
<asrwt>0</asrwt>
<pdfrwt beam="1">  1        1 0.28384275E+00 0.58888256E+03</pdfrwt>
<pdfrwt beam="2">  1       -1 0.44647281E-01 0.58888256E+03</pdfrwt>
<totfact> 0.20108830E+01</totfact>
</mgrwt>
</event>
<event>
12    1  0.5002753E-008  0.6276562E+03  0.7818608E-02  0.9849633E-01
          2   -1    0    0  501    0  0.00000000000E+00  0.00000000000E+00  0.26093068988E+04  0.26093068988E+04  0.00000000000E+00 0. -1.
         -2   -1    0    0    0  501 -0.00000000000E+00 -0.00000000000E+00 -0.16055380149E+03  0.16055380149E+03  0.00000000000E+00 0.  1.
         23    2    1    2    0    0 -0.50265093163E+03 -0.25989634968E+02  0.93418499392E+03  0.10647624427E+04  0.87658635347E+02 0.  0.
    5000000    2    1    2    0    0  0.50265093163E+03  0.25989634968E+02  0.15145681033E+04  0.17050982575E+04  0.60009174965E+03 0.  0.
         23    2    4    4    0    0  0.57645360516E+03 -0.10157561750E+03  0.13079492816E+04  0.14359702862E+04  0.93075102237E+02 0.  0.
         23    2    4    4    0    0 -0.73802673534E+02  0.12756525247E+03  0.20661882175E+03  0.26912797133E+03  0.89547748138E+02 0.  0.
          5    1    3    3  502    0 -0.24609647179E+03  0.30345389595E+02  0.43933359875E+03  0.50450016560E+03  0.47000000000E+01 0. -1.
         -5    1    3    3    0  502 -0.25655445984E+03 -0.56335024563E+02  0.49485139517E+03  0.56026227712E+03  0.47000000000E+01 0.  1.
         11    1    5    5    0    0  0.41706464434E+03 -0.61255746351E+02  0.83718816388E+03  0.93732556017E+03  0.00000000000E+00 0. -1.
        -11    1    5    5    0    0  0.15938896083E+03 -0.40319871146E+02  0.47076111772E+03  0.49864472603E+03  0.00000000000E+00 0.  1.
          1    1    6    6  503    0 -0.10715113815E+02  0.77156272256E+02  0.48999367154E+02  0.92026311422E+02  0.00000000000E+00 0. -1.
         -1    1    6    6    0  503 -0.63087559719E+02  0.50408980209E+02  0.15761945459E+03  0.17710165991E+03  0.00000000000E+00 0.  1.
<mgrwt>
<rscale>  0 0.62765624E+03</rscale>
<asrwt>0</asrwt>
<pdfrwt beam="1">  1        2 0.40143180E+00 0.62765624E+03</pdfrwt>
<pdfrwt beam="2">  1       -2 0.24700587E-01 0.62765624E+03</pdfrwt>
<totfact> 0.46818470E+01</totfact>
</mgrwt>
</event>
<event>
12    1  0.3147868E-008  0.4152150E+03  0.7818608E-02  0.1038635E+00
          1   -1    0    0  501    0  0.00000000000E+00  0.00000000000E+00  0.15403191642E+04  0.15403191642E+04  0.00000000000E+00 0. -1.
         -1   -1    0    0    0  501 -0.00000000000E+00 -0.00000000000E+00 -0.14805917643E+03  0.14805917643E+03  0.00000000000E+00 0.  1.
         23    2    1    2    0    0 -0.24163441308E+03  0.65320832990E+02  0.21201889157E+03  0.34090957861E+03  0.92808025505E+02 0.  0.
    5000000    2    1    2    0    0  0.24163441308E+03 -0.65320832990E+02  0.11802410962E+04  0.13474687620E+04  0.60004084748E+03 0.  0.
         23    2    4    4    0    0  0.26693171851E+03 -0.25013357678E+03  0.10137671031E+04  0.10817779180E+04  0.93275805122E+02 0.  0.
         23    2    4    4    0    0 -0.25297305426E+02  0.18481274379E+03  0.16647399302E+03  0.26569084401E+03  0.89901781454E+02 0.  0.
          5    1    3    3  502    0 -0.11855580217E+03  0.26217819469E+02  0.16162037954E+03  0.20220308941E+03  0.47000000000E+01 0.  1.
         -5    1    3    3    0  502 -0.12307861091E+03  0.39103013521E+02  0.50398512032E+02  0.13870648920E+03  0.47000000000E+01 0. -1.
         13    1    5    5    0    0  0.24883266949E+02 -0.71427684543E+02  0.23699490064E+03  0.24877233372E+03  0.00000000000E+00 0. -1.
        -13    1    5    5    0    0  0.24204845156E+03 -0.17870589224E+03  0.77677220250E+03  0.83300558426E+03  0.00000000000E+00 0.  1.
          1    1    6    6  503    0 -0.54509018923E+02  0.10735381823E+03  0.12326441958E+03  0.17230842279E+03  0.00000000000E+00 0. -1.
         -1    1    6    6    0  503  0.29211713498E+02  0.77458925566E+02  0.43209573447E+02  0.93382421219E+02  0.00000000000E+00 0.  1.
<mgrwt>
<rscale>  0 0.41521501E+03</rscale>
<asrwt>0</asrwt>
<pdfrwt beam="1">  1        1 0.23697217E+00 0.41521501E+03</pdfrwt>
<pdfrwt beam="2">  1       -1 0.22778336E-01 0.41521501E+03</pdfrwt>
<totfact> 0.10727735E+02</totfact>
</mgrwt>
</event>
<event>
12    1  0.3147868E-008  0.8031681E+03  0.7818608E-02  0.9555443E-01
         -2   -1    0    0    0  501 -0.00000000000E+00  0.00000000000E+00  0.49137316071E+03  0.49137316071E+03  0.00000000000E+00 0.  1.
          2   -1    0    0  501    0  0.00000000000E+00 -0.00000000000E+00 -0.22901818218E+04  0.22901818218E+04  0.00000000000E+00 0. -1.
         23    2    1    2    0    0  0.75057374565E+03 -0.40781882473E+02 -0.16404626684E+04  0.18068315469E+04  0.92186566186E+02 0.  0.
    5000000    2    1    2    0    0 -0.75057374565E+03  0.40781882473E+02 -0.15834599268E+03  0.97472343557E+03  0.59999017729E+03 0.  0.
         23    2    4    4    0    0 -0.82484278698E+02  0.12624253582E+03 -0.23088798654E+03  0.29107503887E+03  0.93137435247E+02 0.  0.
         23    2    4    4    0    0 -0.66808946696E+03 -0.85460653349E+02  0.72541993851E+02  0.68364839670E+03  0.92009403353E+02 0.  0.
          5    1    3    3  502    0  0.42349456905E+03  0.21369914397E+02 -0.89411734019E+03  0.98958184669E+03  0.47000000000E+01 0. -1.
         -5    1    3    3    0  502  0.32707917660E+03 -0.62151796870E+02 -0.74634532821E+03  0.81724970025E+03  0.47000000000E+01 0.  1.
         11    1    5    5    0    0 -0.41064140701E+01  0.78903408188E+02 -0.68126875118E+02  0.10432584327E+03  0.00000000000E+00 0. -1.
        -11    1    5    5    0    0 -0.78377864628E+02  0.47339127635E+02 -0.16276111142E+03  0.18674919560E+03  0.00000000000E+00 0.  1.
          4    1    6    6  503    0 -0.61017639751E+03 -0.53317026980E+02  0.76686633571E+02  0.61728338809E+03  0.00000000000E+00 0. -1.
         -4    1    6    6    0  503 -0.57913069444E+02 -0.32143626369E+02 -0.41446397197E+01  0.66365008604E+02  0.00000000000E+00 0.  1.
<mgrwt>
<rscale>  0 0.80316808E+03</rscale>
<asrwt>0</asrwt>
<pdfrwt beam="1">  1        2 0.35233566E+00 0.80316808E+03</pdfrwt>
<pdfrwt beam="2">  1       -2 0.75595871E-01 0.80316808E+03</pdfrwt>
<totfact> 0.74532286E+00</totfact>
</mgrwt>
</event>
<event>
12    1  0.3147868E-008  0.4970886E+03  0.7818608E-02  0.1014542E+00
          2   -1    0    0  501    0  0.00000000000E+00  0.00000000000E+00  0.20712275713E+04  0.20712275713E+04  0.00000000000E+00 0. -1.
         -2   -1    0    0    0  501 -0.00000000000E+00 -0.00000000000E+00 -0.14666951312E+03  0.14666951312E+03  0.00000000000E+00 0.  1.
         23    2    1    2    0    0 -0.52473507183E+02 -0.36964334715E+03  0.53195029111E+03  0.65622616431E+03  0.90950500090E+02 0.  0.
    5000000    2    1    2    0    0  0.52473507183E+02  0.36964334715E+03  0.13926077671E+04  0.15616709201E+04  0.60005832781E+03 0.  0.
         23    2    4    4    0    0 -0.12261113789E+03  0.41109858206E+03  0.59463360977E+03  0.73890495458E+03  0.91410430053E+02 0.  0.
         23    2    4    4    0    0  0.17508464507E+03 -0.41455234914E+02  0.79797415728E+03  0.82276596552E+03  0.88362372543E+02 0.  0.
          5    1    3    3  502    0 -0.89860447138E+01 -0.30210929756E+03  0.44275645658E+03  0.53610273876E+03  0.47000000000E+01 0. -1.
         -5    1    3    3    0  502 -0.43487462469E+02 -0.67534049594E+02  0.89193834530E+02  0.12012342555E+03  0.47000000000E+01 0.  1.
         11    1    5    5    0    0 -0.82570580730E+02  0.32831051609E+03  0.51990289878E+03  0.62040689869E+03  0.00000000000E+00 0. -1.
        -11    1    5    5    0    0 -0.40040557160E+02  0.82788065969E+02  0.74730710992E+02  0.11849805589E+03  0.00000000000E+00 0.  1.
          1    1    6    6  503    0  0.16858766557E+03 -0.35848199595E+02  0.59115239091E+03  0.61576622485E+03  0.00000000000E+00 0. -1.
         -1    1    6    6    0  503  0.64969795017E+01 -0.56070353186E+01  0.20682176638E+03  0.20699974067E+03  0.00000000000E+00 0.  1.
<mgrwt>
<rscale>  0 0.49708861E+03</rscale>
<asrwt>0</asrwt>
<pdfrwt beam="1">  1        2 0.31865037E+00 0.49708861E+03</pdfrwt>
<pdfrwt beam="2">  1       -2 0.22564542E-01 0.49708861E+03</pdfrwt>
<totfact> 0.11153655E+02</totfact>
</mgrwt>
</event>
<event>
12    1  0.3147868E-008  0.7498697E+03  0.7818608E-02  0.9635555E-01
          2   -1    0    0  501    0  0.00000000000E+00  0.00000000000E+00  0.10439103762E+04  0.10439103762E+04  0.00000000000E+00 0. -1.
         -2   -1    0    0    0  501 -0.00000000000E+00 -0.00000000000E+00 -0.64610684979E+03  0.64610684979E+03  0.00000000000E+00 0.  1.
         23    2    1    2    0    0  0.20814895892E+03  0.67636399506E+03  0.13777557187E+03  0.72645881556E+03  0.89252784733E+02 0.  0.
    5000000    2    1    2    0    0 -0.20814895892E+03 -0.67636399506E+03  0.26002795453E+03  0.96355841043E+03  0.60003002446E+03 0.  0.
         23    2    4    4    0    0  0.36536270903E+02 -0.44111658392E+03 -0.97901082677E+02  0.46204727228E+03  0.89355022989E+02 0.  0.
         23    2    4    4    0    0 -0.24468522983E+03 -0.23524741114E+03  0.35792903720E+03  0.50151113814E+03  0.90487677974E+02 0.  0.
          5    1    3    3  502    0  0.59443156899E+02  0.19282896756E+03 -0.10850843008E+01  0.20184094490E+03  0.47000000000E+01 0. -1.
         -5    1    3    3    0  502  0.14870580202E+03  0.48353502750E+03  0.13886065617E+03  0.52461787066E+03  0.47000000000E+01 0.  1.
         11    1    5    5    0    0 -0.21605164388E+02 -0.26880098675E+03 -0.55930766682E+02  0.27540697934E+03  0.00000000000E+00 0. -1.
        -11    1    5    5    0    0  0.58141435292E+02 -0.17231559717E+03 -0.41970315995E+02  0.18664029294E+03  0.00000000000E+00 0.  1.
          1    1    6    6  503    0 -0.46609057603E+02 -0.31179674263E+02  0.11315690196E+03  0.12628959102E+03  0.00000000000E+00 0. -1.
         -1    1    6    6    0  503 -0.19807617222E+03 -0.20406773688E+03  0.24477213524E+03  0.37522154713E+03  0.00000000000E+00 0.  1.
<mgrwt>
<rscale>  0 0.74986974E+03</rscale>
<asrwt>0</asrwt>
<pdfrwt beam="1">  1        2 0.16060160E+00 0.74986974E+03</pdfrwt>
<pdfrwt beam="2">  1       -2 0.99401053E-01 0.74986974E+03</pdfrwt>
<totfact> 0.20123967E+01</totfact>
</mgrwt>
</event>
<event>
12    1  0.3147868E-008  0.1425074E+04  0.7818608E-02  0.8935866E-01
         -1   -1    0    0    0  501 -0.00000000000E+00  0.00000000000E+00  0.15061940658E+04  0.15061940658E+04  0.00000000000E+00 0.  1.
          1   -1    0    0  501    0  0.00000000000E+00 -0.00000000000E+00 -0.16527818050E+04  0.16527818050E+04  0.00000000000E+00 0. -1.
         23    2    1    2    0    0  0.11126653860E+04  0.79227496776E+03 -0.73705115353E+03  0.15546034366E+04  0.88450869609E+02 0.  0.
    5000000    2    1    2    0    0 -0.11126653860E+04 -0.79227496776E+03  0.59046341435E+03  0.16043724343E+04  0.59969990693E+03 0.  0.
         23    2    4    4    0    0 -0.52926361359E+03 -0.45472396416E+02  0.24230812892E+03  0.59092558613E+03  0.91061009786E+02 0.  0.
         23    2    4    4    0    0 -0.58340177245E+03 -0.74680257134E+03  0.34815528543E+03  0.10134468481E+04  0.88264956747E+02 0.  0.
          5    1    3    3  502    0  0.35570998983E+03  0.29094927496E+03 -0.27968579120E+03  0.53798448794E+03  0.47000000000E+01 0. -1.
         -5    1    3    3    0  502  0.75695539621E+03  0.50132569280E+03 -0.45736536233E+03  0.10166189487E+04  0.47000000000E+01 0.  1.
         13    1    5    5    0    0 -0.23637519730E+03 -0.24631670797E+02  0.59325678604E+02  0.24494793171E+03  0.00000000000E+00 0. -1.
        -13    1    5    5    0    0 -0.29288841628E+03 -0.20840725619E+02  0.18298245032E+03  0.34597765442E+03  0.00000000000E+00 0.  1.
          3    1    6    6  503    0 -0.39847281394E+03 -0.44424643599E+03  0.20414107574E+03  0.63072106208E+03  0.00000000000E+00 0. -1.
         -3    1    6    6    0  503 -0.18492895851E+03 -0.30255613535E+03  0.14401420969E+03  0.38272578607E+03  0.00000000000E+00 0.  1.
<mgrwt>
<rscale>  0 0.14250735E+04</rscale>
<asrwt>0</asrwt>
<pdfrwt beam="1">  1        1 0.25427412E+00 0.14250735E+04</pdfrwt>
<pdfrwt beam="2">  1       -1 0.23172216E+00 0.14250735E+04</pdfrwt>
<totfact> 0.44994529E-01</totfact>
</mgrwt>
</event>
<event>
12    1  0.3147868E-008  0.1061071E+04  0.7818608E-02  0.9243988E-01
         -2   -1    0    0    0  501 -0.00000000000E+00  0.00000000000E+00  0.40469782727E+03  0.40469782727E+03  0.00000000000E+00 0.  1.
          2   -1    0    0  501    0  0.00000000000E+00 -0.00000000000E+00 -0.32466508650E+04  0.32466508650E+04  0.00000000000E+00 0. -1.
         23    2    1    2    0    0 -0.92836200761E+03 -0.46355801088E+03 -0.17128065444E+04  0.20046282121E+04  0.89921985121E+02 0.  0.
    5000000    2    1    2    0    0  0.92836200761E+03  0.46355801088E+03 -0.11291464933E+04  0.16467204802E+04  0.59997874124E+03 0.  0.
         23    2    4    4    0    0  0.55733240467E+03  0.12396686378E+03 -0.24985338931E+03  0.62962919571E+03  0.89548954939E+02 0.  0.
         23    2    4    4    0    0  0.37102960294E+03  0.33959114710E+03 -0.87929310403E+03  0.10170912845E+04  0.91286388843E+02 0.  0.
          5    1    3    3  502    0 -0.64720015828E+03 -0.27643671531E+03 -0.11568278831E+04  0.13540894149E+04  0.47000000000E+01 0. -1.
         -5    1    3    3    0  502 -0.28116184933E+03 -0.18712129557E+03 -0.55597866127E+03  0.65053879712E+03  0.47000000000E+01 0.  1.
         13    1    5    5    0    0  0.47044712120E+03  0.12930865049E+03 -0.18809196914E+03  0.52289560123E+03  0.00000000000E+00 0. -1.
        -13    1    5    5    0    0  0.86885283475E+02 -0.53417867017E+01 -0.61761420163E+02  0.10673359448E+03  0.00000000000E+00 0.  1.
          1    1    6    6  503    0  0.23809834628E+03  0.25061551708E+03 -0.52804155078E+03  0.63113139619E+03  0.00000000000E+00 0. -1.
         -1    1    6    6    0  503  0.13293125666E+03  0.88975630014E+02 -0.35125155324E+03  0.38595988832E+03  0.00000000000E+00 0.  1.
<mgrwt>
<rscale>  0 0.10610707E+04</rscale>
<asrwt>0</asrwt>
<pdfrwt beam="1">  1        2 0.49948475E+00 0.10610707E+04</pdfrwt>
<pdfrwt beam="2">  1       -2 0.62261204E-01 0.10610707E+04</pdfrwt>
<totfact> 0.29502402E+00</totfact>
</mgrwt>
</event>
<event>
12    1  0.3147868E-008  0.6498468E+03  0.7818608E-02  0.9807067E-01
          1   -1    0    0  501    0  0.00000000000E+00  0.00000000000E+00  0.84203486883E+03  0.84203486883E+03  0.00000000000E+00 0. -1.
         -1   -1    0    0    0  501 -0.00000000000E+00 -0.00000000000E+00 -0.10192794879E+04  0.10192794879E+04  0.00000000000E+00 0.  1.
         23    2    1    2    0    0  0.19306245584E+03 -0.48413070895E+03  0.56451124167E+03  0.77377632871E+03  0.91658113069E+02 0.  0.
    5000000    2    1    2    0    0 -0.19306245584E+03  0.48413070895E+03 -0.74175586077E+03  0.10875380280E+04  0.60073417603E+03 0.  0.
         23    2    4    4    0    0  0.19307522034E+03  0.99979908167E+02 -0.29233563547E+03  0.37617875177E+03  0.93681944738E+02 0.  0.
         23    2    4    4    0    0 -0.38613767617E+03  0.38415080078E+03 -0.44942022530E+03  0.71135927628E+03  0.85903075223E+02 0.  0.
          5    1    3    3  502    0  0.17861329786E+03 -0.38951736108E+03  0.41751123067E+03  0.59830109685E+03  0.47000000000E+01 0. -1.
         -5    1    3    3    0  502  0.14449157976E+02 -0.94613347873E+02  0.14700001100E+03  0.17547523186E+03  0.47000000000E+01 0.  1.
         13    1    5    5    0    0  0.11626147199E+03  0.24419193033E+02 -0.20725729012E+03  0.23889037478E+03  0.00000000000E+00 0. -1.
        -13    1    5    5    0    0  0.76813748345E+02  0.75560715135E+02 -0.85078345352E+02  0.13728837698E+03  0.00000000000E+00 0.  1.
          3    1    6    6  503    0 -0.46013338997E+02  0.19062714655E+02 -0.62673159898E+02  0.80053353629E+02  0.00000000000E+00 0. -1.
         -3    1    6    6    0  503 -0.34012433718E+03  0.36508808613E+03 -0.38674706540E+03  0.63130592265E+03  0.00000000000E+00 0.  1.
<mgrwt>
<rscale>  0 0.64984677E+03</rscale>
<asrwt>0</asrwt>
<pdfrwt beam="1">  1        1 0.12954383E+00 0.64984677E+03</pdfrwt>
<pdfrwt beam="2">  1       -1 0.15681223E+00 0.64984677E+03</pdfrwt>
<totfact> 0.66031681E+00</totfact>
</mgrwt>
</event>
<event>
12    1  0.3147868E-008  0.8288368E+03  0.7818608E-02  0.9519190E-01
          2   -1    0    0  501    0  0.00000000000E+00  0.00000000000E+00  0.10133176422E+04  0.10133176422E+04  0.00000000000E+00 0.  1.
         -2   -1    0    0    0  501 -0.00000000000E+00 -0.00000000000E+00 -0.92840194152E+03  0.92840194152E+03  0.00000000000E+00 0. -1.
         23    2    1    2    0    0  0.81828469441E+03 -0.94060968114E+02  0.33181878235E+03  0.89317761245E+03  0.96048093322E+02 0.  0.
    5000000    2    1    2    0    0 -0.81828469441E+03  0.94060968114E+02 -0.24690308162E+03  0.10485419713E+04  0.60003485488E+03 0.  0.
         23    2    4    4    0    0 -0.39469130240E+03  0.10446719828E+03 -0.41019297632E+03  0.58540608031E+03  0.88019209988E+02 0.  0.
         23    2    4    4    0    0 -0.42359339201E+03 -0.10406230168E+02  0.16328989470E+03  0.46313589101E+03  0.91058291490E+02 0.  0.
          5    1    3    3  502    0  0.19183209943E+03 -0.53983202328E+00  0.11485462836E+03  0.22363703058E+03  0.47000000000E+01 0. -1.
         -5    1    3    3    0  502  0.62645259498E+03 -0.93521136090E+02  0.21696415398E+03  0.66954058187E+03  0.47000000000E+01 0.  1.
         11    1    5    5    0    0 -0.17097158469E+03  0.53340775889E+02 -0.24113580489E+03  0.30037143264E+03  0.00000000000E+00 0.  1.
        -11    1    5    5    0    0 -0.22371971771E+03  0.51126422393E+02 -0.16905717143E+03  0.28503464766E+03  0.00000000000E+00 0. -1.
          2    1    6    6  503    0 -0.19048194451E+03 -0.83201706124E+01  0.25561094928E+02  0.19236934787E+03  0.00000000000E+00 0. -1.
         -2    1    6    6    0  503 -0.23311144749E+03 -0.20860595559E+01  0.13772879978E+03  0.27076654314E+03  0.00000000000E+00 0.  1.
<mgrwt>
<rscale>  0 0.82883679E+03</rscale>
<asrwt>0</asrwt>
<pdfrwt beam="1">  1        2 0.15589502E+00 0.82883679E+03</pdfrwt>
<pdfrwt beam="2">  1       -2 0.14283107E+00 0.82883679E+03</pdfrwt>
<totfact> 0.84929182E+00</totfact>
</mgrwt>
</event>
<event>
12    1  0.3147868E-008  0.5960389E+03  0.7818608E-02  0.9913658E-01
          2   -1    0    0  501    0  0.00000000000E+00  0.00000000000E+00  0.30130968440E+04  0.30130968440E+04  0.00000000000E+00 0. -1.
         -2   -1    0    0    0  501 -0.00000000000E+00 -0.00000000000E+00 -0.18565879931E+03  0.18565879931E+03  0.00000000000E+00 0.  1.
         23    2    1    2    0    0  0.47355711103E+03 -0.19884340214E+03  0.19483544738E+04  0.20170094919E+04  0.91908098650E+02 0.  0.
    5000000    2    1    2    0    0 -0.47355711103E+03  0.19884340214E+03  0.87908357087E+03  0.11817461515E+04  0.59995083626E+03 0.  0.
         23    2    4    4    0    0 -0.25994865680E+03  0.33362761363E+03  0.25460901323E+03  0.50194117941E+03  0.90766233908E+02 0.  0.
         23    2    4    4    0    0 -0.21360845423E+03 -0.13478421149E+03  0.62447455764E+03  0.67980497205E+03  0.91493013399E+02 0.  0.
          5    1    3    3  502    0  0.18136744888E+03 -0.74240355535E+02  0.92220227719E+03  0.94280693249E+03  0.47000000000E+01 0. -1.
         -5    1    3    3    0  502  0.29218966215E+03 -0.12460304661E+03  0.10261521966E+04  0.10742025594E+04  0.47000000000E+01 0.  1.
         11    1    5    5    0    0 -0.20901286705E+03  0.29127729304E+03  0.17673703982E+03  0.39970591850E+03  0.00000000000E+00 0. -1.
        -11    1    5    5    0    0 -0.50935789747E+02  0.42350320586E+02  0.77871973407E+02  0.10223526091E+03  0.00000000000E+00 0.  1.
          1    1    6    6  503    0 -0.64896082936E+02 -0.53690440220E+02  0.32509468239E+03  0.33582840479E+03  0.00000000000E+00 0. -1.
         -1    1    6    6    0  503 -0.14871237129E+03 -0.81093771266E+02  0.29937987525E+03  0.34397656726E+03  0.00000000000E+00 0.  1.
<mgrwt>
<rscale>  0 0.59603886E+03</rscale>
<asrwt>0</asrwt>
<pdfrwt beam="1">  1        2 0.46355332E+00 0.59603886E+03</pdfrwt>
<pdfrwt beam="2">  1       -2 0.28562894E-01 0.59603886E+03</pdfrwt>
<totfact> 0.20919378E+01</totfact>
</mgrwt>
</event>
<event>
12    1  0.3147868E-008  0.1035187E+04  0.7818608E-02  0.9270773E-01
          2   -1    0    0  501    0  0.00000000000E+00  0.00000000000E+00  0.11648899855E+04  0.11648899855E+04  0.00000000000E+00 0.  1.
         -2   -1    0    0    0  501 -0.00000000000E+00 -0.00000000000E+00 -0.12585951577E+04  0.12585951577E+04  0.00000000000E+00 0. -1.
         23    2    1    2    0    0  0.72282644980E+03  0.61736192960E+03 -0.66379210532E+03  0.11632913501E+04  0.94936702063E+02 0.  0.
    5000000    2    1    2    0    0 -0.72282644980E+03 -0.61736192960E+03  0.57008693313E+03  0.12601937931E+04  0.59956272076E+03 0.  0.
         23    2    4    4    0    0 -0.49445050363E+03 -0.49733372103E+02  0.26637881326E+03  0.57117519687E+03  0.91261845949E+02 0.  0.
         23    2    4    4    0    0 -0.22837594616E+03 -0.56762855749E+03  0.30370811988E+03  0.68901859619E+03  0.90278744774E+02 0.  0.
          5    1    3    3  502    0  0.60883531123E+03  0.48330934591E+03 -0.56906704490E+03  0.96339387149E+03  0.47000000000E+01 0. -1.
         -5    1    3    3    0  502  0.11399113857E+03  0.13405258369E+03 -0.94725060418E+02  0.19989747856E+03  0.47000000000E+01 0.  1.
         11    1    5    5    0    0 -0.16755021630E+03 -0.36104236725E+02  0.13668086983E+03  0.21922192196E+03  0.00000000000E+00 0. -1.
        -11    1    5    5    0    0 -0.32690028734E+03 -0.13629135378E+02  0.12969794343E+03  0.35195327491E+03  0.00000000000E+00 0.  1.
          3    1    6    6  503    0  0.83739181238E+01 -0.25329297495E+02  0.11036813325E+02  0.28870522418E+02  0.00000000000E+00 0. -1.
         -3    1    6    6    0  503 -0.23674986429E+03 -0.54229926000E+03  0.29267130655E+03  0.66014807378E+03  0.00000000000E+00 0.  1.
<mgrwt>
<rscale>  0 0.10351867E+04</rscale>
<asrwt>0</asrwt>
<pdfrwt beam="1">  1        2 0.17921384E+00 0.10351867E+04</pdfrwt>
<pdfrwt beam="2">  1       -2 0.19363002E+00 0.10351867E+04</pdfrwt>
<totfact> 0.28791876E+00</totfact>
</mgrwt>
</event>
<event>
12    1  0.3147868E-008  0.1124528E+04  0.7818608E-02  0.9181610E-01
          2   -1    0    0  501    0  0.00000000000E+00  0.00000000000E+00  0.12276515289E+04  0.12276515289E+04  0.00000000000E+00 0. -1.
         -2   -1    0    0    0  501 -0.00000000000E+00 -0.00000000000E+00 -0.11709723071E+04  0.11709723071E+04  0.00000000000E+00 0.  1.
         23    2    1    2    0    0  0.92163089638E+03 -0.51852341400E+03 -0.34322572896E+03  0.11187116725E+04  0.12426530155E+03 0.  0.
    5000000    2    1    2    0    0 -0.92163089638E+03  0.51852341400E+03  0.39990495072E+03  0.12799121635E+04  0.59998428023E+03 0.  0.
         23    2    4    4    0    0 -0.89818716956E+03  0.58821810909E+03  0.42943517113E+03  0.11599861162E+04  0.91719617635E+02 0.  0.
         23    2    4    4    0    0 -0.23443726814E+02 -0.69694695094E+02 -0.29530220402E+02  0.11992604721E+03  0.90018131677E+02 0.  0.
          5    1    3    3  502    0  0.38527080573E+03 -0.25858606758E+03 -0.20243266685E+03  0.50626220746E+03  0.47000000000E+01 0. -1.
         -5    1    3    3    0  502  0.53636009065E+03 -0.25993734641E+03 -0.14079306212E+03  0.61244946505E+03  0.47000000000E+01 0.  1.
         11    1    5    5    0    0 -0.33337479755E+03  0.27172074050E+03  0.17641403943E+03  0.46485785975E+03  0.00000000000E+00 0. -1.
        -11    1    5    5    0    0 -0.56481237201E+03  0.31649736859E+03  0.25302113170E+03  0.69512825650E+03  0.00000000000E+00 0.  1.
          4    1    6    6  503    0  0.16639975864E+02  0.11959504190E+02  0.73522190474E+01  0.21770936180E+02  0.00000000000E+00 0. -1.
         -4    1    6    6    0  503 -0.40083702678E+02 -0.81654199284E+02 -0.36882439449E+02  0.98155111028E+02  0.00000000000E+00 0.  1.
<mgrwt>
<rscale>  0 0.11245278E+04</rscale>
<asrwt>0</asrwt>
<pdfrwt beam="1">  1        2 0.18886947E+00 0.11245278E+04</pdfrwt>
<pdfrwt beam="2">  1       -2 0.18014959E+00 0.11245278E+04</pdfrwt>
<totfact> 0.32274496E+00</totfact>
</mgrwt>
</event>
<event>
12    1  0.3147868E-008  0.1966083E+04  0.7818608E-02  0.8622644E-01
          2   -1    0    0  501    0  0.00000000000E+00  0.00000000000E+00  0.13724150052E+04  0.13724150052E+04  0.00000000000E+00 0. -1.
         -2   -1    0    0    0  501 -0.00000000000E+00 -0.00000000000E+00 -0.29029426209E+04  0.29029426209E+04  0.00000000000E+00 0.  1.
         23    2    1    2    0    0 -0.24451340725E+03 -0.19165053230E+04 -0.46724825882E+03  0.19898938218E+04  0.92612240278E+02 0.  0.
    5000000    2    1    2    0    0  0.24451340725E+03  0.19165053230E+04 -0.10632793569E+04  0.22854638044E+04  0.60000195902E+03 0.  0.
         23    2    4    4    0    0  0.14782484604E+03  0.14394630983E+03 -0.24909459404E+02  0.22691248026E+03  0.91082749791E+02 0.  0.
         23    2    4    4    0    0  0.96688561216E+02  0.17725590132E+04 -0.10383698975E+04  0.20585513241E+04  0.90040973460E+02 0.  0.
          5    1    3    3  502    0 -0.37890590333E+02 -0.59932343589E+03 -0.12589742522E+03  0.61359313011E+03  0.47000000000E+01 0. -1.
         -5    1    3    3    0  502 -0.20662281692E+03 -0.13171818871E+04 -0.34135083360E+03  0.13763006917E+04  0.47000000000E+01 0.  1.
         11    1    5    5    0    0  0.26654438830E+02 -0.87188633562E+01  0.81874162293E+01  0.29214918656E+02  0.00000000000E+00 0. -1.
        -11    1    5    5    0    0  0.12117040721E+03  0.15266517318E+03 -0.33096875634E+02  0.19769756160E+03  0.00000000000E+00 0.  1.
          1    1    6    6  503    0  0.18073958062E+02  0.18719523413E+03 -0.14179589159E+03  0.23553088654E+03  0.00000000000E+00 0. -1.
         -1    1    6    6    0  503  0.78614603155E+02  0.15853637791E+04 -0.89657400593E+03  0.18230204376E+04  0.00000000000E+00 0.  1.
<mgrwt>
<rscale>  0 0.19660827E+04</rscale>
<asrwt>0</asrwt>
<pdfrwt beam="1">  1        2 0.21114077E+00 0.19660827E+04</pdfrwt>
<pdfrwt beam="2">  1       -2 0.44660655E+00 0.19660827E+04</pdfrwt>
<totfact> 0.49150817E-02</totfact>
</mgrwt>
</event>
<event>
12    1  0.3147868E-008  0.1383340E+04  0.7818608E-02  0.8965967E-01
          2   -1    0    0  501    0  0.00000000000E+00  0.00000000000E+00  0.19974670829E+04  0.19974670829E+04  0.00000000000E+00 0. -1.
         -2   -1    0    0    0  501 -0.00000000000E+00 -0.00000000000E+00 -0.96461030672E+03  0.96461030672E+03  0.00000000000E+00 0.  1.
         23    2    1    2    0    0  0.10987631551E+04  0.73265464167E+03  0.44192844055E+03  0.13957680919E+04  0.93832429894E+02 0.  0.
    5000000    2    1    2    0    0 -0.10987631551E+04 -0.73265464167E+03  0.59092833565E+03  0.15663092977E+04  0.60005435015E+03 0.  0.
         23    2    4    4    0    0 -0.42780512351E+03 -0.62405785085E+03  0.26389617162E+03  0.80606706776E+03  0.87392811019E+02 0.  0.
         23    2    4    4    0    0 -0.67095803162E+03 -0.10859679082E+03  0.32703216402E+03  0.76024222993E+03  0.95080327599E+02 0.  0.
          5    1    3    3  502    0  0.89783233007E+03  0.57665037462E+03  0.38989324379E+03  0.11360754284E+04  0.47000000000E+01 0. -1.
         -5    1    3    3    0  502  0.20093082506E+03  0.15600426705E+03  0.52035196762E+02  0.25969266355E+03  0.47000000000E+01 0.  1.
         13    1    5    5    0    0 -0.40454562063E+03 -0.54528359418E+03  0.24473989517E+03  0.72172638413E+03  0.00000000000E+00 0. -1.
        -13    1    5    5    0    0 -0.23259502875E+02 -0.78774256669E+02  0.19156276453E+02  0.84340683630E+02  0.00000000000E+00 0.  1.
          4    1    6    6  503    0 -0.40405687705E+03 -0.26887758525E+02  0.22348804800E+03  0.46252764138E+03  0.00000000000E+00 0. -1.
         -4    1    6    6    0  503 -0.26690115457E+03 -0.81709032295E+02  0.10354411603E+03  0.29771458855E+03  0.00000000000E+00 0.  1.
<mgrwt>
<rscale>  0 0.13833402E+04</rscale>
<asrwt>0</asrwt>
<pdfrwt beam="1">  1        2 0.30730263E+00 0.13833402E+04</pdfrwt>
<pdfrwt beam="2">  1       -2 0.14840159E+00 0.13833402E+04</pdfrwt>
<totfact> 0.19734145E+00</totfact>
</mgrwt>
</event>
<event>
12    1  0.3147868E-008  0.4270730E+03  0.7818608E-02  0.1034789E+00
         -4   -1    0    0    0  501 -0.00000000000E+00  0.00000000000E+00  0.16911283528E+03  0.16911283528E+03  0.00000000000E+00 0.  1.
          4   -1    0    0  501    0  0.00000000000E+00 -0.00000000000E+00 -0.15323854123E+04  0.15323854123E+04  0.00000000000E+00 0. -1.
         23    2    1    2    0    0  0.19175629537E+03  0.25978920663E+03 -0.49444074569E+03  0.59746804946E+03  0.90749713182E+02 0.  0.
    5000000    2    1    2    0    0 -0.19175629537E+03 -0.25978920663E+03 -0.86883183132E+03  0.11040301981E+04  0.59979414676E+03 0.  0.
         23    2    4    4    0    0 -0.25822122581E+02 -0.33612936668E+03 -0.19052780137E+03  0.39619109382E+03  0.83766380846E+02 0.  0.
         23    2    4    4    0    0 -0.16593417279E+03  0.76340160055E+02 -0.67830402995E+03  0.70783910428E+03  0.87050966484E+02 0.  0.
          5    1    3    3  502    0  0.11478135133E+03  0.18217310373E+03 -0.39360817902E+03  0.44867726366E+03  0.47000000000E+01 0. -1.
         -5    1    3    3    0  502  0.76974944040E+02  0.77616102903E+02 -0.10083256666E+03  0.14879078580E+03  0.47000000000E+01 0.  1.
         11    1    5    5    0    0  0.28098025226E+02 -0.75951798846E+02 -0.34195312721E+02  0.87906166915E+02  0.00000000000E+00 0. -1.
        -11    1    5    5    0    0 -0.53920147807E+02 -0.26017756784E+03 -0.15633248865E+03  0.30828492690E+03  0.00000000000E+00 0.  1.
          2    1    6    6  503    0 -0.13612357008E+03  0.63794770253E+02 -0.39406817761E+03  0.42176904539E+03  0.00000000000E+00 0. -1.
         -2    1    6    6    0  503 -0.29810602708E+02  0.12545389802E+02 -0.28423585234E+03  0.28607005889E+03  0.00000000000E+00 0.  1.
<mgrwt>
<rscale>  0 0.42707300E+03</rscale>
<asrwt>0</asrwt>
<pdfrwt beam="1">  1        4 0.23575161E+00 0.42707300E+03</pdfrwt>
<pdfrwt beam="2">  1       -4 0.26017358E-01 0.42707300E+03</pdfrwt>
<totfact> 0.21994780E+00</totfact>
</mgrwt>
</event>
<event>
12    1  0.3147868E-008  0.9609065E+03  0.7818608E-02  0.9352493E-01
          1   -1    0    0  501    0  0.00000000000E+00  0.00000000000E+00  0.93564949512E+03  0.93564949512E+03  0.00000000000E+00 0. -1.
         -1   -1    0    0    0  501 -0.00000000000E+00 -0.00000000000E+00 -0.11493924549E+04  0.11493924549E+04  0.00000000000E+00 0.  1.
         23    2    1    2    0    0 -0.55041106931E+03  0.77132084255E+03 -0.11941402098E+03  0.95951911492E+03  0.92352780835E+02 0.  0.
    5000000    2    1    2    0    0  0.55041106931E+03 -0.77132084255E+03 -0.94328938803E+02  0.11255228351E+04  0.60001293010E+03 0.  0.
         23    2    4    4    0    0  0.37134626309E+03 -0.35220126813E+03 -0.31827234109E+03  0.60990159186E+03  0.93482021071E+02 0.  0.
         23    2    4    4    0    0  0.17906480622E+03 -0.41911957442E+03  0.22394340229E+03  0.51562124325E+03  0.89382305699E+02 0.  0.
          5    1    3    3  502    0 -0.17578310724E+03  0.30131882292E+03 -0.13031687811E+02  0.34911982001E+03  0.47000000000E+01 0. -1.
         -5    1    3    3    0  502 -0.37462796207E+03  0.47000201963E+03 -0.10638233317E+03  0.61039929491E+03  0.47000000000E+01 0.  1.
         13    1    5    5    0    0  0.27932340257E+03 -0.28947402713E+03 -0.28723846490E+03  0.49429010846E+03  0.00000000000E+00 0. -1.
        -13    1    5    5    0    0  0.92022860519E+02 -0.62727241002E+02 -0.31033876198E+02  0.11561148340E+03  0.00000000000E+00 0.  1.
          4    1    6    6  503    0  0.14834682870E+03 -0.38360328388E+03  0.17258324516E+03  0.44603053427E+03  0.00000000000E+00 0. -1.
         -4    1    6    6    0  503  0.30717977516E+02 -0.35516290545E+02  0.51360157127E+02  0.69590708983E+02  0.00000000000E+00 0.  1.
<mgrwt>
<rscale>  0 0.96090645E+03</rscale>
<asrwt>0</asrwt>
<pdfrwt beam="1">  1        1 0.14394608E+00 0.96090645E+03</pdfrwt>
<pdfrwt beam="2">  1       -1 0.17682961E+00 0.96090645E+03</pdfrwt>
<totfact> 0.37632291E+00</totfact>
</mgrwt>
</event>
<event>
12    1  0.3147868E-008  0.6181289E+03  0.7818608E-02  0.9868492E-01
          2   -1    0    0  501    0  0.00000000000E+00  0.00000000000E+00  0.11038397534E+04  0.11038397534E+04  0.00000000000E+00 0. -1.
         -2   -1    0    0    0  501 -0.00000000000E+00 -0.00000000000E+00 -0.41565978703E+03  0.41565978703E+03  0.00000000000E+00 0.  1.
         23    2    1    2    0    0  0.37551639049E+03  0.37740227137E+03  0.17667883357E+03  0.56814298592E+03  0.90144374565E+02 0.  0.
    5000000    2    1    2    0    0 -0.37551639049E+03 -0.37740227137E+03  0.51150113281E+03  0.95135655451E+03  0.60000070916E+03 0.  0.
         23    2    4    4    0    0 -0.88523072967E+02 -0.38707063141E+03  0.66973164085E+02  0.41343550458E+03  0.93720347808E+02 0.  0.
         23    2    4    4    0    0 -0.28699331752E+03  0.96683600445E+01  0.44452796872E+03  0.53792104993E+03  0.96412133545E+02 0.  0.
          5    1    3    3  502    0  0.87608014943E+02  0.62568687846E+02  0.38935048853E+01  0.10782974711E+03  0.47000000000E+01 0. -1.
         -5    1    3    3    0  502  0.28790837554E+03  0.31483358352E+03  0.17278532868E+03  0.46031323882E+03  0.47000000000E+01 0.  1.
         11    1    5    5    0    0 -0.46076830185E+02 -0.11938589827E+03 -0.18384488313E+02  0.12928285422E+03  0.00000000000E+00 0. -1.
        -11    1    5    5    0    0 -0.42446242783E+02 -0.26768473314E+03  0.85357652398E+02  0.28415265036E+03  0.00000000000E+00 0.  1.
          3    1    6    6  503    0 -0.12277269590E+03 -0.43471858024E+02  0.18576179888E+03  0.22687085142E+03  0.00000000000E+00 0. -1.
         -3    1    6    6    0  503 -0.16422062162E+03  0.53140218068E+02  0.25876616984E+03  0.31105019851E+03  0.00000000000E+00 0.  1.
<mgrwt>
<rscale>  0 0.61812886E+03</rscale>
<asrwt>0</asrwt>
<pdfrwt beam="1">  1        2 0.16982150E+00 0.61812886E+03</pdfrwt>
<pdfrwt beam="2">  1       -2 0.63947660E-01 0.61812886E+03</pdfrwt>
<totfact> 0.50465586E+01</totfact>
</mgrwt>
</event>
<event>
12    1  0.3147868E-008  0.1157537E+04  0.7818608E-02  0.9150858E-01
         -1   -1    0    0    0  501 -0.00000000000E+00  0.00000000000E+00  0.10046010105E+04  0.10046010105E+04  0.00000000000E+00 0.  1.
          1   -1    0    0  501    0  0.00000000000E+00 -0.00000000000E+00 -0.13802696295E+04  0.13802696295E+04  0.00000000000E+00 0. -1.
         23    2    1    2    0    0 -0.23476302284E+03 -0.10734198526E+04 -0.15054704166E+03  0.11129218651E+04  0.92665038065E+02 0.  0.
    5000000    2    1    2    0    0  0.23476302284E+03  0.10734198526E+04 -0.22512157729E+03  0.12719487749E+04  0.59985840369E+03 0.  0.
         23    2    4    4    0    0  0.39476007745E+03  0.87374357217E+03 -0.87575171431E+02  0.96787396149E+03  0.99233290936E+02 0.  0.
         23    2    4    4    0    0 -0.15999705461E+03  0.19967628045E+03 -0.13754640585E+03  0.30407481339E+03  0.89848783608E+02 0.  0.
          5    1    3    3  502    0 -0.72306278017E+02 -0.43052451507E+03 -0.99945493963E+02  0.44787358449E+03  0.47000000000E+01 0. -1.
         -5    1    3    3    0  502 -0.16245674482E+03 -0.64289533754E+03 -0.50601547702E+02  0.66504828065E+03  0.47000000000E+01 0.  1.
         11    1    5    5    0    0  0.19871443844E+03  0.45832574947E+03  0.35824170460E+01  0.49956256303E+03  0.00000000000E+00 0.  1.
        -11    1    5    5    0    0  0.19604563902E+03  0.41541782269E+03 -0.91157588477E+02  0.46831139846E+03  0.00000000000E+00 0. -1.
          4    1    6    6  503    0 -0.31661525912E+02  0.51407958770E+02  0.65482995306E+01  0.60729817015E+02  0.00000000000E+00 0.  1.
         -4    1    6    6    0  503 -0.12833552870E+03  0.14826832168E+03 -0.14409470539E+03  0.24334499637E+03  0.00000000000E+00 0. -1.
<mgrwt>
<rscale>  0 0.11575374E+04</rscale>
<asrwt>0</asrwt>
<pdfrwt beam="1">  1        1 0.21234917E+00 0.11575374E+04</pdfrwt>
<pdfrwt beam="2">  1       -1 0.15455400E+00 0.11575374E+04</pdfrwt>
<totfact> 0.25144988E+00</totfact>
</mgrwt>
</event>
<event>
12    1  0.3147868E-008  0.9600052E+03  0.7818608E-02  0.9353532E-01
          1   -1    0    0  501    0  0.00000000000E+00  0.00000000000E+00  0.18878170058E+04  0.18878170058E+04  0.00000000000E+00 0. -1.
         -1   -1    0    0    0  501 -0.00000000000E+00 -0.00000000000E+00 -0.55816822259E+03  0.55816822259E+03  0.00000000000E+00 0.  1.
         23    2    1    2    0    0 -0.67685755485E+03  0.55650386557E+03  0.10027300506E+04  0.13348575392E+04  0.92435889281E+02 0.  0.
    5000000    2    1    2    0    0  0.67685755485E+03 -0.55650386557E+03  0.32691873264E+03  0.11111276892E+04  0.59991347879E+03 0.  0.
         23    2    4    4    0    0  0.53633837036E+03 -0.88996104269E+02  0.25926648004E+03  0.60963869869E+03  0.94133316004E+02 0.  0.
         23    2    4    4    0    0  0.14051918450E+03 -0.46750776130E+03  0.67652252603E+02  0.50148899052E+03  0.92764391055E+02 0.  0.
          5    1    3    3  502    0 -0.38815138471E+03  0.35715390940E+03  0.54982909207E+03  0.76194129232E+03  0.47000000000E+01 0. -1.
         -5    1    3    3    0  502 -0.28870617014E+03  0.19934995617E+03  0.45290095855E+03  0.57291624690E+03  0.47000000000E+01 0.  1.
         13    1    5    5    0    0  0.42988680002E+03 -0.10431019378E+03  0.18819436426E+03  0.48072902564E+03  0.00000000000E+00 0.  1.
        -13    1    5    5    0    0  0.10645157034E+03  0.15314089509E+02  0.71072115778E+02  0.12890967305E+03  0.00000000000E+00 0. -1.
          2    1    6    6  503    0  0.16168554668E+02 -0.14808756960E+03  0.53975657534E+02  0.15844469709E+03  0.00000000000E+00 0. -1.
         -2    1    6    6    0  503  0.12435062983E+03 -0.31942019170E+03  0.13676595068E+02  0.34304429343E+03  0.00000000000E+00 0.  1.
<mgrwt>
<rscale>  0 0.96000516E+03</rscale>
<asrwt>0</asrwt>
<pdfrwt beam="1">  1        1 0.29043338E+00 0.96000516E+03</pdfrwt>
<pdfrwt beam="2">  1       -1 0.85872035E-01 0.96000516E+03</pdfrwt>
<totfact> 0.48272200E+00</totfact>
</mgrwt>
</event>
<event>
12    1  0.3147868E-008  0.9721608E+03  0.7818608E-02  0.9339617E-01
         -1   -1    0    0    0  501 -0.00000000000E+00  0.00000000000E+00  0.14334519021E+04  0.14334519021E+04  0.00000000000E+00 0.  1.
          1   -1    0    0  501    0  0.00000000000E+00 -0.00000000000E+00 -0.68721624051E+03  0.68721624051E+03  0.00000000000E+00 0. -1.
         23    2    1    2    0    0  0.77419686604E+03 -0.45720079692E+03  0.32717928570E+03  0.96145322322E+03  0.94512747026E+02 0.  0.
    5000000    2    1    2    0    0 -0.77419686604E+03  0.45720079692E+03  0.41905637590E+03  0.11592149194E+04  0.59979798857E+03 0.  0.
         23    2    4    4    0    0  0.40520460215E+02 -0.57575952169E+02  0.41017563491E+02  0.12000054097E+03  0.88095353758E+02 0.  0.
         23    2    4    4    0    0 -0.81471732626E+03  0.51477674909E+03  0.37803881241E+03  0.10392143784E+04  0.91070069491E+02 0.  0.
          5    1    3    3  502    0  0.40069087552E+03 -0.28580365696E+03  0.15700463968E+03  0.51663280475E+03  0.47000000000E+01 0. -1.
         -5    1    3    3    0  502  0.37350599052E+03 -0.17139713996E+03  0.17017464602E+03  0.44482041847E+03  0.47000000000E+01 0.  1.
         13    1    5    5    0    0  0.26261873977E+02 -0.55160314206E+02  0.66747309997E+02  0.90485079875E+02  0.00000000000E+00 0.  1.
        -13    1    5    5    0    0  0.14258586238E+02 -0.24156379626E+01 -0.25729746506E+02  0.29515461093E+02  0.00000000000E+00 0. -1.
          3    1    6    6  503    0 -0.79580207252E+02  0.72555525334E+02  0.66140594647E+02  0.12637995056E+03  0.00000000000E+00 0. -1.
         -3    1    6    6    0  503 -0.73513711901E+03  0.44222122375E+03  0.31189821776E+03  0.91283442788E+03  0.00000000000E+00 0.  1.
<mgrwt>
<rscale>  0 0.97216076E+03</rscale>
<asrwt>0</asrwt>
<pdfrwt beam="1">  1        1 0.10572558E+00 0.97216076E+03</pdfrwt>
<pdfrwt beam="2">  1       -1 0.22053106E+00 0.97216076E+03</pdfrwt>
<totfact> 0.30852384E+00</totfact>
</mgrwt>
</event>
<event>
12    1  0.3147868E-008  0.2053229E+04  0.7818608E-02  0.8582131E-01
         -2   -1    0    0    0  501 -0.00000000000E+00  0.00000000000E+00  0.21214714574E+04  0.21214714574E+04  0.00000000000E+00 0. -1.
          2   -1    0    0  501    0  0.00000000000E+00 -0.00000000000E+00 -0.20692625010E+04  0.20692625010E+04  0.00000000000E+00 0.  1.
         23    2    1    2    0    0  0.12547905533E+04  0.16150157968E+04 -0.13161226988E+03  0.20514593781E+04  0.91588393100E+02 0.  0.
    5000000    2    1    2    0    0 -0.12547905533E+04 -0.16150157968E+04  0.18382122636E+03  0.21392745803E+04  0.59994177221E+03 0.  0.
         23    2    4    4    0    0 -0.10154199111E+04 -0.13697584974E+04  0.35622352925E+03  0.17442300794E+04  0.90152260311E+02 0.  0.
         23    2    4    4    0    0 -0.23937064226E+03 -0.24525729940E+03 -0.17240230289E+03  0.39504450092E+03  0.94277019364E+02 0.  0.
          5    1    3    3  502    0  0.59725911393E+03  0.82076684780E+03 -0.97842194102E+02  0.10197901022E+04  0.47000000000E+01 0. -1.
         -5    1    3    3    0  502  0.65753143938E+03  0.79424894902E+03 -0.33770075775E+02  0.10316692759E+04  0.47000000000E+01 0.  1.
         11    1    5    5    0    0 -0.75165230895E+03 -0.10393332224E+04  0.23104162018E+03  0.13032938928E+04  0.00000000000E+00 0. -1.
        -11    1    5    5    0    0 -0.26376760210E+03 -0.33042527498E+03  0.12518190907E+03  0.44093618657E+03  0.00000000000E+00 0.  1.
          2    1    6    6  503    0 -0.19705917538E+03 -0.14103585341E+03 -0.10670982915E+03  0.26478371964E+03  0.00000000000E+00 0.  1.
         -2    1    6    6    0  503 -0.42311466878E+02 -0.10422144599E+03 -0.65692473737E+02  0.13026078128E+03  0.00000000000E+00 0. -1.
<mgrwt>
<rscale>  0 0.20532294E+04</rscale>
<asrwt>0</asrwt>
<pdfrwt beam="1">  1        2 0.31834808E+00 0.20532294E+04</pdfrwt>
<pdfrwt beam="2">  1       -2 0.32638023E+00 0.20532294E+04</pdfrwt>
<totfact> 0.11821100E-01</totfact>
</mgrwt>
</event>
<event>
12    1  0.3147868E-008  0.1033698E+04  0.7818608E-02  0.9272338E-01
         -2   -1    0    0    0  501 -0.00000000000E+00  0.00000000000E+00  0.15015553560E+04  0.15015553560E+04  0.00000000000E+00 0.  1.
          2   -1    0    0  501    0  0.00000000000E+00 -0.00000000000E+00 -0.15652780296E+04  0.15652780296E+04  0.00000000000E+00 0. -1.
         23    2    1    2    0    0 -0.87839594897E+03  0.44335071287E+03  0.10660850065E+04  0.14529589209E+04  0.80081751556E+02 0.  0.
    5000000    2    1    2    0    0  0.87839594897E+03 -0.44335071287E+03 -0.11298076800E+04  0.16138744647E+04  0.59998841343E+03 0.  0.
         23    2    4    4    0    0  0.84175521665E+03 -0.26766233314E+03 -0.67089063709E+03  0.11130751092E+04  0.92989151861E+02 0.  0.
         23    2    4    4    0    0  0.36640732311E+02 -0.17568837973E+03 -0.45891704295E+03  0.50079935556E+03  0.89365497696E+02 0.  0.
          5    1    3    3  502    0 -0.32909008661E+03  0.18667459021E+03  0.36017564189E+03  0.52239474610E+03  0.47000000000E+01 0. -1.
         -5    1    3    3    0  502 -0.54930586235E+03  0.25667612266E+03  0.70590936458E+03  0.93056417477E+03  0.47000000000E+01 0.  1.
         13    1    5    5    0    0  0.64517901144E+03 -0.23255691407E+03 -0.48241231076E+03  0.83848691859E+03  0.00000000000E+00 0. -1.
        -13    1    5    5    0    0  0.19657620522E+03 -0.35105419072E+02 -0.18847832633E+03  0.27458819057E+03  0.00000000000E+00 0.  1.
          2    1    6    6  503    0  0.52881194928E+02 -0.58424703009E+02 -0.22926971151E+03  0.24243445983E+03  0.00000000000E+00 0.  1.
         -2    1    6    6    0  503 -0.16240462617E+02 -0.11726367672E+03 -0.22964733145E+03  0.25836489573E+03  0.00000000000E+00 0. -1.
<mgrwt>
<rscale>  0 0.10336984E+04</rscale>
<asrwt>0</asrwt>
<pdfrwt beam="1">  1        2 0.24081200E+00 0.10336984E+04</pdfrwt>
<pdfrwt beam="2">  1       -2 0.23100852E+00 0.10336984E+04</pdfrwt>
<totfact> 0.97470708E-01</totfact>
</mgrwt>
</event>
<event>
12    1  0.3147868E-008  0.8887237E+03  0.7818608E-02  0.9439788E-01
         -1   -1    0    0    0  501 -0.00000000000E+00  0.00000000000E+00  0.73254913558E+03  0.73254913558E+03  0.00000000000E+00 0.  1.
          1   -1    0    0  501    0  0.00000000000E+00 -0.00000000000E+00 -0.13119768280E+04  0.13119768280E+04  0.00000000000E+00 0. -1.
         23    2    1    2    0    0 -0.64565033141E+03 -0.59722570052E+03 -0.37366901754E+03  0.96011840164E+03  0.93037211330E+02 0.  0.
    5000000    2    1    2    0    0  0.64565033141E+03  0.59722570052E+03 -0.20575867492E+03  0.10844075620E+04  0.60005019821E+03 0.  0.
         23    2    4    4    0    0  0.22515294811E+03  0.15565785765E+03 -0.34774573605E+03  0.45182936233E+03  0.91101355850E+02 0.  0.
         23    2    4    4    0    0  0.42049738330E+03  0.44156784287E+03  0.14198706113E+03  0.63257819965E+03  0.90524272576E+02 0.  0.
          5    1    3    3  502    0 -0.23121344903E+03 -0.27491665821E+03 -0.14363289203E+03  0.38689963252E+03  0.47000000000E+01 0. -1.
         -5    1    3    3    0  502 -0.41443688238E+03 -0.32230904231E+03 -0.23003612551E+03  0.57321876912E+03  0.47000000000E+01 0.  1.
         11    1    5    5    0    0  0.96037744859E+02  0.10985415971E+03 -0.13498674313E+03  0.19877777960E+03  0.00000000000E+00 0. -1.
        -11    1    5    5    0    0  0.12911520325E+03  0.45803697944E+02 -0.21275899292E+03  0.25305158273E+03  0.00000000000E+00 0.  1.
          2    1    6    6  503    0  0.21380226245E+03  0.20675158509E+03  0.24537986303E+02  0.29842878236E+03  0.00000000000E+00 0. -1.
         -2    1    6    6    0  503  0.20669512085E+03  0.23481625778E+03  0.11744907483E+03  0.33414941729E+03  0.00000000000E+00 0.  1.
<mgrwt>
<rscale>  0 0.88872367E+03</rscale>
<asrwt>0</asrwt>
<pdfrwt beam="1">  1        1 0.20184259E+00 0.88872367E+03</pdfrwt>
<pdfrwt beam="2">  1       -1 0.11269987E+00 0.88872367E+03</pdfrwt>
<totfact> 0.65030424E+00</totfact>
</mgrwt>
</event>
<event>
12    1  0.3147868E-008  0.8267042E+03  0.7818608E-02  0.9522148E-01
          1   -1    0    0  501    0  0.00000000000E+00  0.00000000000E+00  0.38710534081E+04  0.38710534081E+04  0.00000000000E+00 0. -1.
         -1   -1    0    0    0  501 -0.00000000000E+00 -0.00000000000E+00 -0.39865715739E+03  0.39865715739E+03  0.00000000000E+00 0.  1.
         23    2    1    2    0    0  0.39718845385E+03 -0.61818282522E+03  0.77227241368E+02  0.74448726575E+03  0.91589130312E+02 0.  0.
    5000000    2    1    2    0    0 -0.39718845385E+03  0.61818282522E+03  0.33951690094E+04  0.35252232998E+04  0.60009835674E+03 0.  0.
         23    2    4    4    0    0 -0.48039145393E+03  0.28001093861E+03  0.24349112396E+04  0.24992576538E+04  0.91181142921E+02 0.  0.
         23    2    4    4    0    0  0.83203000083E+02  0.33817188661E+03  0.96025776976E+03  0.10259656459E+04  0.96060179511E+02 0.  0.
          5    1    3    3  502    0  0.10938876011E+03 -0.20642859446E+03 -0.13143033587E+02  0.23403737902E+03  0.47000000000E+01 0.  1.
         -5    1    3    3    0  502  0.28779969374E+03 -0.41175423076E+03  0.90370274955E+02  0.51044988673E+03  0.47000000000E+01 0. -1.
         11    1    5    5    0    0 -0.26775706442E+03  0.10588136509E+03  0.11834318879E+04  0.12179555584E+04  0.00000000000E+00 0. -1.
        -11    1    5    5    0    0 -0.21263438951E+03  0.17412957351E+03  0.12514793517E+04  0.12813020954E+04  0.00000000000E+00 0.  1.
          3    1    6    6  503    0  0.18415942708E+02  0.11858268015E+02  0.12477494617E+03  0.12668288226E+03  0.00000000000E+00 0. -1.
         -3    1    6    6    0  503  0.64787057375E+02  0.32631361859E+03  0.83548282359E+03  0.89928276365E+03  0.00000000000E+00 0.  1.
<mgrwt>
<rscale>  0 0.82670416E+03</rscale>
<asrwt>0</asrwt>
<pdfrwt beam="1">  1        1 0.59554665E+00 0.82670416E+03</pdfrwt>
<pdfrwt beam="2">  1       -1 0.61331873E-01 0.82670416E+03</pdfrwt>
<totfact> 0.36430579E-01</totfact>
</mgrwt>
</event>
<event>
12    1  0.3147868E-008  0.3349610E+03  0.7818608E-02  0.1068963E+00
          2   -1    0    0  501    0  0.00000000000E+00  0.00000000000E+00  0.36827101909E+03  0.36827101909E+03  0.00000000000E+00 0. -1.
         -2   -1    0    0    0  501 -0.00000000000E+00 -0.00000000000E+00 -0.69281488278E+03  0.69281488278E+03  0.00000000000E+00 0.  1.
         23    2    1    2    0    0  0.28025539756E+03  0.10476173723E+03 -0.22068899149E+03  0.38262059228E+03  0.90425534117E+02 0.  0.
    5000000    2    1    2    0    0 -0.28025539756E+03 -0.10476173723E+03 -0.10385487221E+03  0.67846530959E+03  0.60000936025E+03 0.  0.
         23    2    4    4    0    0 -0.59874177676E+02 -0.10998832948E+03  0.22475255301E+03  0.27280528120E+03  0.90700945935E+02 0.  0.
         23    2    4    4    0    0 -0.22038121989E+03  0.52265922511E+01 -0.32860742522E+03  0.40566002839E+03  0.89342147827E+02 0.  0.
          5    1    3    3  502    0  0.17557371041E+03  0.11060035821E+03 -0.14322464776E+03  0.25217842245E+03  0.47000000000E+01 0. -1.
         -5    1    3    3    0  502  0.10468168716E+03 -0.58386209807E+01 -0.77464343726E+02  0.13044216983E+03  0.47000000000E+01 0.  1.
         11    1    5    5    0    0 -0.22506803765E+02 -0.23802792516E+02  0.14775767931E+03  0.15134550189E+03  0.00000000000E+00 0. -1.
        -11    1    5    5    0    0 -0.37367373911E+02 -0.86185536962E+02  0.76994873699E+02  0.12145977931E+03  0.00000000000E+00 0.  1.
          4    1    6    6  503    0 -0.23599768410E+02  0.23229140872E+02 -0.18459181162E+02  0.37911520991E+02  0.00000000000E+00 0. -1.
         -4    1    6    6    0  503 -0.19678145148E+03 -0.18002548621E+02 -0.31014824406E+03  0.36774850740E+03  0.00000000000E+00 0.  1.
<mgrwt>
<rscale>  0 0.33496100E+03</rscale>
<asrwt>0</asrwt>
<pdfrwt beam="1">  1        2 0.56657080E-01 0.33496100E+03</pdfrwt>
<pdfrwt beam="2">  1       -2 0.10658690E+00 0.33496100E+03</pdfrwt>
<totfact> 0.64653752E+01</totfact>
</mgrwt>
</event>
<event>
12    1  0.3147868E-008  0.6926950E+03  0.7818608E-02  0.9729807E-01
         -2   -1    0    0    0  501 -0.00000000000E+00  0.00000000000E+00  0.45753002149E+03  0.45753002149E+03  0.00000000000E+00 0.  1.
          2   -1    0    0  501    0  0.00000000000E+00 -0.00000000000E+00 -0.15687810218E+04  0.15687810218E+04  0.00000000000E+00 0. -1.
         23    2    1    2    0    0  0.67826650166E+03  0.23013779133E+02 -0.83421579929E+03  0.10793169105E+04  0.91836333841E+02 0.  0.
    5000000    2    1    2    0    0 -0.67826650166E+03 -0.23013779133E+02 -0.27703520100E+03  0.94699413277E+03  0.59956175964E+03 0.  0.
         23    2    4    4    0    0 -0.17354858198E+03 -0.52230789405E+02  0.17070756284E+03  0.26472429301E+03  0.89948394270E+02 0.  0.
         23    2    4    4    0    0 -0.50471791968E+03  0.29217010272E+02 -0.44774276384E+03  0.68226983976E+03  0.97081097791E+02 0.  0.
          5    1    3    3  502    0  0.35535661662E+03  0.57669167029E+02 -0.43600000926E+03  0.56543978978E+03  0.47000000000E+01 0. -1.
         -5    1    3    3    0  502  0.32290988504E+03 -0.34655387896E+02 -0.39821579003E+03  0.51387712072E+03  0.47000000000E+01 0.  1.
         11    1    5    5    0    0 -0.46056768640E+02  0.65824890018E+01  0.93637769750E+02  0.10455901215E+03  0.00000000000E+00 0. -1.
        -11    1    5    5    0    0 -0.12749181334E+03 -0.58813278406E+02  0.77069793088E+02  0.16016528086E+03  0.00000000000E+00 0.  1.
          3    1    6    6  503    0 -0.13160533277E+03  0.47888991892E+02 -0.10203985125E+03  0.17327853416E+03  0.00000000000E+00 0. -1.
         -3    1    6    6    0  503 -0.37311258691E+03 -0.18671981620E+02 -0.34570291259E+03  0.50899130561E+03  0.00000000000E+00 0.  1.
<mgrwt>
<rscale>  0 0.69269497E+03</rscale>
<asrwt>0</asrwt>
<pdfrwt beam="1">  1        2 0.24135093E+00 0.69269497E+03</pdfrwt>
<pdfrwt beam="2">  1       -2 0.70389233E-01 0.69269497E+03</pdfrwt>
<totfact> 0.22018651E+01</totfact>
</mgrwt>
</event>
<event>
12    1  0.3147868E-008  0.6707846E+03  0.7818608E-02  0.9768542E-01
         -1   -1    0    0    0  501 -0.00000000000E+00  0.00000000000E+00  0.46751413766E+03  0.46751413766E+03  0.00000000000E+00 0. -1.
          1   -1    0    0  501    0  0.00000000000E+00 -0.00000000000E+00 -0.11157247744E+04  0.11157247744E+04  0.00000000000E+00 0.  1.
         23    2    1    2    0    0 -0.87360347835E+02  0.57476905965E+03 -0.13943150714E+03  0.60499359514E+03  0.92654210236E+02 0.  0.
    5000000    2    1    2    0    0  0.87360347835E+02 -0.57476905965E+03 -0.50877912965E+03  0.97824531697E+03  0.60009698807E+03 0.  0.
         23    2    4    4    0    0  0.20054760030E+03 -0.41257847755E+02  0.65950048252E+01  0.22237376644E+03  0.86516171444E+02 0.  0.
         23    2    4    4    0    0 -0.11318725247E+03 -0.53351121190E+03 -0.51537413447E+03  0.75587155053E+03  0.91026013185E+02 0.  0.
          5    1    3    3  502    0 -0.85535626040E+02  0.35640818245E+03 -0.12004901430E+03  0.38571620613E+03  0.47000000000E+01 0. -1.
         -5    1    3    3    0  502 -0.18247217950E+01  0.21836087721E+03 -0.19382492835E+02  0.21927738901E+03  0.47000000000E+01 0.  1.
         11    1    5    5    0    0  0.12577839194E+03 -0.55336593592E-01  0.38026713823E+02  0.13140105747E+03  0.00000000000E+00 0.  1.
        -11    1    5    5    0    0  0.74769208365E+02 -0.41202511161E+02 -0.31431708998E+02  0.90972708963E+02  0.00000000000E+00 0. -1.
          4    1    6    6  503    0 -0.49061777036E+02 -0.25022044185E+03 -0.30323501279E+03  0.39619288291E+03  0.00000000000E+00 0.  1.
         -4    1    6    6    0  503 -0.64125475433E+02 -0.28329077005E+03 -0.21213912168E+03  0.35967866762E+03  0.00000000000E+00 0. -1.
<mgrwt>
<rscale>  0 0.67078456E+03</rscale>
<asrwt>0</asrwt>
<pdfrwt beam="1">  1        1 0.17164997E+00 0.67078456E+03</pdfrwt>
<pdfrwt beam="2">  1       -1 0.71925251E-01 0.67078456E+03</pdfrwt>
<totfact> 0.25017832E+01</totfact>
</mgrwt>
</event>
<event>
12    1  0.3147868E-008  0.9534901E+03  0.7818608E-02  0.9361081E-01
         -1   -1    0    0    0  501 -0.00000000000E+00  0.00000000000E+00  0.10354680255E+04  0.10354680255E+04  0.00000000000E+00 0.  1.
          1   -1    0    0  501    0  0.00000000000E+00 -0.00000000000E+00 -0.96064290948E+03  0.96064290948E+03  0.00000000000E+00 0. -1.
         23    2    1    2    0    0  0.64451783508E+03  0.58447560946E+03  0.28159722615E+03  0.91910273156E+03  0.91857800911E+02 0.  0.
    5000000    2    1    2    0    0 -0.64451783508E+03 -0.58447560946E+03 -0.20677211010E+03  0.10770082035E+04  0.60014747105E+03 0.  0.
         23    2    4    4    0    0  0.40786470057E+02 -0.26921120432E+03  0.11010358713E+02  0.28688564002E+03  0.89687980121E+02 0.  0.
         23    2    4    4    0    0 -0.68530430514E+03 -0.31526440513E+03 -0.21778246881E+03  0.79012256344E+03  0.88491953002E+02 0.  0.
          5    1    3    3  502    0  0.58274416035E+03  0.48821513364E+03  0.25110896416E+03  0.80063885430E+03  0.47000000000E+01 0. -1.
         -5    1    3    3    0  502  0.61773674729E+02  0.96260475819E+02  0.30488261993E+02  0.11846387725E+03  0.47000000000E+01 0.  1.
         13    1    5    5    0    0  0.51026770042E+02 -0.15352962169E+03  0.41081873484E+02  0.16692152745E+03  0.00000000000E+00 0. -1.
        -13    1    5    5    0    0 -0.10240299986E+02 -0.11568158263E+03 -0.30071514771E+02  0.11996411257E+03  0.00000000000E+00 0.  1.
          2    1    6    6  503    0 -0.60126841434E+03 -0.27612848079E+03 -0.15941467242E+03  0.68057599265E+03  0.00000000000E+00 0. -1.
         -2    1    6    6    0  503 -0.84035890802E+02 -0.39135924340E+02 -0.58367796386E+02  0.10954657079E+03  0.00000000000E+00 0.  1.
<mgrwt>
<rscale>  0 0.95349006E+03</rscale>
<asrwt>0</asrwt>
<pdfrwt beam="1">  1        1 0.14779122E+00 0.95349006E+03</pdfrwt>
<pdfrwt beam="2">  1       -1 0.15930277E+00 0.95349006E+03</pdfrwt>
<totfact> 0.48473715E+00</totfact>
</mgrwt>
</event>
<event>
12    1  0.3147868E-008  0.9524120E+03  0.7818608E-02  0.9362336E-01
         -1   -1    0    0    0  501 -0.00000000000E+00  0.00000000000E+00  0.10652973384E+04  0.10652973384E+04  0.00000000000E+00 0.  1.
          1   -1    0    0  501    0  0.00000000000E+00 -0.00000000000E+00 -0.12111601222E+04  0.12111601222E+04  0.00000000000E+00 0. -1.
         23    2    1    2    0    0 -0.16153870982E+03 -0.85737257417E+03  0.52375638069E+03  0.10236086313E+04  0.11077634204E+03 0.  0.
    5000000    2    1    2    0    0  0.16153870982E+03  0.85737257417E+03 -0.66961916441E+03  0.12528488293E+04  0.60004822982E+03 0.  0.
         23    2    4    4    0    0 -0.98051080302E+02  0.73103692201E+03 -0.37809501288E+03  0.83465293396E+03  0.98288787276E+02 0.  0.
         23    2    4    4    0    0  0.25958979012E+03  0.12633565216E+03 -0.29152415153E+03  0.41819589537E+03  0.80956283540E+02 0.  0.
          5    1    3    3  502    0 -0.64669782117E+02 -0.42504716769E+03  0.31976391425E+03  0.53583423401E+03  0.47000000000E+01 0. -1.
         -5    1    3    3    0  502 -0.96868927698E+02 -0.43232540648E+03  0.20399246644E+03  0.48777439724E+03  0.47000000000E+01 0.  1.
         11    1    5    5    0    0 -0.81090635129E+02  0.27426110432E+03 -0.16684206400E+03  0.33110590265E+03  0.00000000000E+00 0. -1.
        -11    1    5    5    0    0 -0.16960445172E+02  0.45677581769E+03 -0.21125294888E+03  0.50354703131E+03  0.00000000000E+00 0.  1.
          3    1    6    6  503    0  0.16806365520E+03  0.82274021394E+02 -0.23991006771E+03  0.30425523395E+03  0.00000000000E+00 0. -1.
         -3    1    6    6    0  503  0.91526134915E+02  0.44061630765E+02 -0.51614083821E+02  0.11394066143E+03  0.00000000000E+00 0.  1.
<mgrwt>
<rscale>  0 0.95241202E+03</rscale>
<asrwt>0</asrwt>
<pdfrwt beam="1">  1        1 0.18633233E+00 0.95241202E+03</pdfrwt>
<pdfrwt beam="2">  1       -1 0.16389190E+00 0.95241202E+03</pdfrwt>
<totfact> 0.28932204E+00</totfact>
</mgrwt>
</event>
<event>
12    1  0.3147868E-008  0.9752602E+03  0.7818608E-02  0.9336103E-01
          1   -1    0    0  501    0  0.00000000000E+00  0.00000000000E+00  0.14780480805E+04  0.14780480805E+04  0.00000000000E+00 0. -1.
         -1   -1    0    0    0  501 -0.00000000000E+00 -0.00000000000E+00 -0.69101851037E+03  0.69101851037E+03  0.00000000000E+00 0.  1.
         23    2    1    2    0    0 -0.55195732557E+03 -0.69803923520E+03  0.11276373665E+03  0.90159022792E+03  0.90739272904E+02 0.  0.
    5000000    2    1    2    0    0  0.55195732557E+03  0.69803923520E+03  0.67426583348E+03  0.12674763629E+04  0.59995520940E+03 0.  0.
         23    2    4    4    0    0  0.53852945882E+02  0.50995662838E+03  0.42015206121E+03  0.67025652151E+03  0.98793458717E+02 0.  0.
         23    2    4    4    0    0  0.49810437969E+03  0.18808260682E+03  0.25411377227E+03  0.59721984142E+03  0.92815352605E+02 0.  0.
          5    1    3    3  502    0 -0.13467386096E+03 -0.22742205915E+03  0.12356496462E+02  0.26463676014E+03  0.47000000000E+01 0. -1.
         -5    1    3    3    0  502 -0.41728346462E+03 -0.47061717605E+03  0.10040724018E+03  0.63695346778E+03  0.47000000000E+01 0.  1.
         11    1    5    5    0    0  0.75939287098E+02  0.35514083920E+03  0.26175726951E+03  0.44767025714E+03  0.00000000000E+00 0. -1.
        -11    1    5    5    0    0 -0.22086341216E+02  0.15481578918E+03  0.15839479170E+03  0.22258626437E+03  0.00000000000E+00 0.  1.
          1    1    6    6  503    0  0.18193472934E+03  0.10762248700E+03  0.13001893703E+03  0.24816883252E+03  0.00000000000E+00 0. -1.
         -1    1    6    6    0  503  0.31616965035E+03  0.80460119817E+02  0.12409483524E+03  0.34905100890E+03  0.00000000000E+00 0.  1.
<mgrwt>
<rscale>  0 0.97526020E+03</rscale>
<asrwt>0</asrwt>
<pdfrwt beam="1">  1        1 0.22739201E+00 0.97526020E+03</pdfrwt>
<pdfrwt beam="2">  1       -1 0.10631054E+00 0.97526020E+03</pdfrwt>
<totfact> 0.56506807E+00</totfact>
</mgrwt>
</event>
<event>
12    1  0.3147868E-008  0.5530791E+03  0.7818608E-02  0.1000784E+00
          1   -1    0    0  501    0  0.00000000000E+00  0.00000000000E+00  0.66626870139E+03  0.66626870139E+03  0.00000000000E+00 0. -1.
         -1   -1    0    0    0  501 -0.00000000000E+00 -0.00000000000E+00 -0.10217488187E+04  0.10217488187E+04  0.00000000000E+00 0.  1.
         23    2    1    2    0    0 -0.56109558305E+02  0.53534400271E+03 -0.63402776897E+03  0.83530978489E+03  0.77522520184E+02 0.  0.
    5000000    2    1    2    0    0  0.56109558305E+02 -0.53534400271E+03  0.27854765165E+03  0.85270773522E+03  0.59981680844E+03 0.  0.
         23    2    4    4    0    0 -0.47433749559E+02 -0.25915899388E+03  0.42738103378E+03  0.50995193850E+03  0.89348121595E+02 0.  0.
         23    2    4    4    0    0  0.10354330786E+03 -0.27618500883E+03 -0.14883338213E+03  0.34275579672E+03  0.91273133188E+02 0.  0.
          5    1    3    3  502    0 -0.27766201538E+02  0.47027612677E+03 -0.52792519963E+03  0.70757169514E+03  0.47000000000E+01 0. -1.
         -5    1    3    3    0  502 -0.28343356767E+02  0.65067875936E+02 -0.10610256935E+03  0.12773808975E+03  0.47000000000E+01 0.  1.
         11    1    5    5    0    0 -0.26440526752E+02 -0.35735578044E+02  0.13007119012E+03  0.13745780259E+03  0.00000000000E+00 0. -1.
        -11    1    5    5    0    0 -0.20993222806E+02 -0.22342341583E+03  0.29730984367E+03  0.37249413591E+03  0.00000000000E+00 0.  1.
          4    1    6    6  503    0  0.85771029815E+02 -0.23628648698E+03 -0.84890992762E+02  0.26531953215E+03  0.00000000000E+00 0. -1.
         -4    1    6    6    0  503  0.17772278048E+02 -0.39898521848E+02 -0.63942389371E+02  0.77436264574E+02  0.00000000000E+00 0.  1.
<mgrwt>
<rscale>  0 0.55307912E+03</rscale>
<asrwt>0</asrwt>
<pdfrwt beam="1">  1        1 0.10250288E+00 0.55307912E+03</pdfrwt>
<pdfrwt beam="2">  1       -1 0.15719212E+00 0.55307912E+03</pdfrwt>
<totfact> 0.95766199E+00</totfact>
</mgrwt>
</event>
<event>
12    1  0.3147868E-008  0.4323327E+03  0.7818608E-02  0.1033126E+00
         -2   -1    0    0    0  501 -0.00000000000E+00  0.00000000000E+00  0.77226996287E+03  0.77226996287E+03  0.00000000000E+00 0.  1.
          2   -1    0    0  501    0  0.00000000000E+00 -0.00000000000E+00 -0.79722663368E+03  0.79722663368E+03  0.00000000000E+00 0. -1.
         23    2    1    2    0    0 -0.16188694897E+03 -0.35590169044E+03  0.52934159509E+03  0.66390308822E+03  0.87700562985E+02 0.  0.
    5000000    2    1    2    0    0  0.16188694897E+03  0.35590169044E+03 -0.55429826591E+03  0.90559350833E+03  0.59998303078E+03 0.  0.
         23    2    4    4    0    0  0.85407951172E+02  0.22663620868E+02 -0.53666713712E+03  0.55139454409E+03  0.90643087713E+02 0.  0.
         23    2    4    4    0    0  0.76478997800E+02  0.33323806957E+03 -0.17631128789E+02  0.35419896424E+03  0.90826215660E+02 0.  0.
          5    1    3    3  502    0 -0.53247353915E+02 -0.55084891979E+02  0.14328883688E+03  0.16255278157E+03  0.47000000000E+01 0. -1.
         -5    1    3    3    0  502 -0.10863959506E+03 -0.30081679846E+03  0.38605275822E+03  0.50135030665E+03  0.47000000000E+01 0.  1.
         13    1    5    5    0    0  0.63059329737E+02  0.57107116178E+02 -0.33943222656E+03  0.34993133356E+03  0.00000000000E+00 0. -1.
        -13    1    5    5    0    0  0.22348621435E+02 -0.34443495309E+02 -0.19723491056E+03  0.20146321052E+03  0.00000000000E+00 0.  1.
          4    1    6    6  503    0  0.45499940790E+02  0.19410709953E+03 -0.55053588532E+02  0.20683014362E+03  0.00000000000E+00 0.  1.
         -4    1    6    6    0  503  0.30979057010E+02  0.13913097004E+03  0.37422459744E+02  0.14736882062E+03  0.00000000000E+00 0. -1.
<mgrwt>
<rscale>  0 0.43233268E+03</rscale>
<asrwt>0</asrwt>
<pdfrwt beam="1">  1        2 0.12265025E+00 0.43233268E+03</pdfrwt>
<pdfrwt beam="2">  1       -2 0.11881076E+00 0.43233268E+03</pdfrwt>
<totfact> 0.19903860E+01</totfact>
</mgrwt>
</event>
<event>
12    1  0.3147868E-008  0.7164593E+03  0.7818608E-02  0.9689491E-01
         -1   -1    0    0    0  501 -0.00000000000E+00  0.00000000000E+00  0.41287933484E+03  0.41287933484E+03  0.00000000000E+00 0.  1.
          1   -1    0    0  501    0  0.00000000000E+00 -0.00000000000E+00 -0.18716022971E+04  0.18716022971E+04  0.00000000000E+00 0. -1.
         23    2    1    2    0    0  0.42610650074E+03 -0.47944025423E+03 -0.12087827820E+04  0.13712571959E+04  0.88095266097E+02 0.  0.
    5000000    2    1    2    0    0 -0.42610650074E+03  0.47944025423E+03 -0.24994018030E+03  0.91322443608E+03  0.60006588770E+03 0.  0.
         23    2    4    4    0    0 -0.32369197597E+03  0.33067513361E+02 -0.28899515400E+03  0.44474069601E+03  0.91684960094E+02 0.  0.
         23    2    4    4    0    0 -0.10241452476E+03  0.44637274087E+03  0.39054973693E+02  0.46848374007E+03  0.90633134473E+02 0.  0.
          5    1    3    3  502    0  0.13273880738E+03 -0.15241008864E+03 -0.29887675227E+03  0.36082936293E+03  0.47000000000E+01 0. -1.
         -5    1    3    3    0  502  0.29336769335E+03 -0.32703016559E+03 -0.90990602969E+03  0.10104278329E+04  0.47000000000E+01 0.  1.
         13    1    5    5    0    0 -0.26124376038E+03  0.40951806007E+02 -0.27241095316E+03  0.37964862723E+03  0.00000000000E+00 0.  1.
        -13    1    5    5    0    0 -0.62448215595E+02 -0.78842926458E+01 -0.16584200832E+02  0.65092068785E+02  0.00000000000E+00 0. -1.
          1    1    6    6  503    0 -0.40136127266E+02  0.57099775942E+02 -0.12494919337E+02  0.70904274439E+02  0.00000000000E+00 0. -1.
         -1    1    6    6    0  503 -0.62278397497E+02  0.38927296493E+03  0.51549893031E+02  0.39757946563E+03  0.00000000000E+00 0.  1.
<mgrwt>
<rscale>  0 0.71645926E+03</rscale>
<asrwt>0</asrwt>
<pdfrwt beam="1">  1        1 0.28793882E+00 0.71645926E+03</pdfrwt>
<pdfrwt beam="2">  1       -1 0.63519896E-01 0.71645926E+03</pdfrwt>
<totfact> 0.96110262E+00</totfact>
</mgrwt>
</event>
<event>
12    1  0.3147868E-008  0.1410581E+04  0.7818608E-02  0.8946195E-01
         -1   -1    0    0    0  501 -0.00000000000E+00  0.00000000000E+00  0.14810336049E+04  0.14810336049E+04  0.00000000000E+00 0.  1.
          1   -1    0    0  501    0  0.00000000000E+00 -0.00000000000E+00 -0.16126089303E+04  0.16126089303E+04  0.00000000000E+00 0. -1.
         23    2    1    2    0    0 -0.13434141689E+04  0.28384469786E+03  0.50431084443E+03  0.14657524875E+04  0.93656207901E+02 0.  0.
    5000000    2    1    2    0    0  0.13434141689E+04 -0.28384469786E+03 -0.63588616980E+03  0.16278900476E+04  0.60028771822E+03 0.  0.
         23    2    4    4    0    0  0.64115487099E+03  0.96091547910E+02 -0.10006991747E+03  0.66221278365E+03  0.90546276956E+02 0.  0.
         23    2    4    4    0    0  0.70225929789E+03 -0.37993624577E+03 -0.53581625233E+03  0.96567726400E+03  0.88959820274E+02 0.  0.
          5    1    3    3  502    0 -0.15923272441E+03  0.39887744258E+02  0.92537043057E+02  0.18849744561E+03  0.47000000000E+01 0. -1.
         -5    1    3    3    0  502 -0.11841814445E+04  0.24395695360E+03  0.41177380138E+03  0.12772550419E+04  0.47000000000E+01 0.  1.
         13    1    5    5    0    0  0.57088294404E+03  0.74364643159E+02 -0.11519976683E+03  0.58711874628E+03  0.00000000000E+00 0.  1.
        -13    1    5    5    0    0  0.70271926953E+02  0.21726904751E+02  0.15129849365E+02  0.75094037376E+02  0.00000000000E+00 0. -1.
          3    1    6    6  503    0  0.43815822340E+03 -0.24622968458E+03 -0.28564320630E+03  0.57810356131E+03  0.00000000000E+00 0. -1.
         -3    1    6    6    0  503  0.26410107449E+03 -0.13370656119E+03 -0.25017304603E+03  0.38757370269E+03  0.00000000000E+00 0.  1.
<mgrwt>
<rscale>  0 0.14105809E+04</rscale>
<asrwt>0</asrwt>
<pdfrwt beam="1">  1        1 0.24809368E+00 0.14105809E+04</pdfrwt>
<pdfrwt beam="2">  1       -1 0.22785132E+00 0.14105809E+04</pdfrwt>
<totfact> 0.50959395E-01</totfact>
</mgrwt>
</event>
<event>
12    1  0.3147868E-008  0.9758707E+03  0.7818608E-02  0.9335413E-01
         -2   -1    0    0    0  501 -0.00000000000E+00  0.00000000000E+00  0.57999576000E+03  0.57999576000E+03  0.00000000000E+00 0. -1.
          2   -1    0    0  501    0  0.00000000000E+00 -0.00000000000E+00 -0.17068933698E+04  0.17068933698E+04  0.00000000000E+00 0.  1.
         23    2    1    2    0    0 -0.77161296185E+03  0.46438337427E+03 -0.57208926837E+03  0.10707974967E+04  0.91009157183E+02 0.  0.
    5000000    2    1    2    0    0  0.77161296185E+03 -0.46438337427E+03 -0.55480834147E+03  0.12160916332E+04  0.60002340233E+03 0.  0.
         23    2    4    4    0    0 -0.47239324927E+02 -0.11421473718E+03 -0.20307402478E+03  0.25442034166E+03  0.90631620863E+02 0.  0.
         23    2    4    4    0    0  0.81885228678E+03 -0.35016863709E+03 -0.35173431669E+03  0.96167129153E+03  0.89204828605E+02 0.  0.
          5    1    3    3  502    0 -0.59057232043E+03  0.39342994568E+03 -0.46955888069E+03  0.85092327519E+03  0.47000000000E+01 0. -1.
         -5    1    3    3    0  502 -0.18104064142E+03  0.70953428582E+02 -0.10253038768E+03  0.21987422148E+03  0.47000000000E+01 0.  1.
         13    1    5    5    0    0 -0.18440333152E+02  0.13140252357E+02 -0.32433599468E+02  0.39555663225E+02  0.00000000000E+00 0.  1.
        -13    1    5    5    0    0 -0.28798991776E+02 -0.12735498954E+03 -0.17064042531E+03  0.21486467843E+03  0.00000000000E+00 0. -1.
          3    1    6    6  503    0  0.65781696644E+03 -0.31593327879E+03 -0.27258220316E+03  0.77899811005E+03  0.00000000000E+00 0. -1.
         -3    1    6    6    0  503  0.16103532034E+03 -0.34235358298E+02 -0.79152113526E+02  0.18267318147E+03  0.00000000000E+00 0.  1.
<mgrwt>
<rscale>  0 0.97587072E+03</rscale>
<asrwt>0</asrwt>
<pdfrwt beam="1">  1        2 0.26259898E+00 0.97587072E+03</pdfrwt>
<pdfrwt beam="2">  1       -2 0.89230118E-01 0.97587072E+03</pdfrwt>
<totfact> 0.10484839E+01</totfact>
</mgrwt>
</event>
<event>
12    1  0.3147868E-008  0.7521749E+03  0.7818608E-02  0.9631945E-01
          2   -1    0    0  501    0  0.00000000000E+00  0.00000000000E+00  0.14240803378E+04  0.14240803378E+04  0.00000000000E+00 0.  1.
         -2   -1    0    0    0  501 -0.00000000000E+00 -0.00000000000E+00 -0.40562871747E+03  0.40562871747E+03  0.00000000000E+00 0. -1.
         23    2    1    2    0    0  0.31027966543E+02  0.63706287343E+03  0.41988813371E+03  0.76898392065E+03  0.90655314066E+02 0.  0.
    5000000    2    1    2    0    0 -0.31027966543E+02 -0.63706287343E+03  0.59856348666E+03  0.10607251347E+04  0.60003976895E+03 0.  0.
         23    2    4    4    0    0 -0.29794924362E+03 -0.39219354598E+03  0.32243506349E+03  0.59639665952E+03  0.95577591725E+02 0.  0.
         23    2    4    4    0    0  0.26692127708E+03 -0.24486932745E+03  0.27612842317E+03  0.46432847514E+03  0.90255587409E+02 0.  0.
          5    1    3    3  502    0  0.92447987304E+01  0.17535491772E+03  0.16558945039E+03  0.24140581922E+03  0.47000000000E+01 0. -1.
         -5    1    3    3    0  502  0.21783167813E+02  0.46170795571E+03  0.25429868332E+03  0.52757810143E+03  0.47000000000E+01 0.  1.
         13    1    5    5    0    0 -0.18591159492E+03 -0.31461030897E+03  0.23326487827E+03  0.43353808492E+03  0.00000000000E+00 0.  1.
        -13    1    5    5    0    0 -0.11203764870E+03 -0.77583237006E+02  0.89170185215E+02  0.16285857461E+03  0.00000000000E+00 0. -1.
          2    1    6    6  503    0  0.95325277007E+02 -0.60707516154E+02  0.42020414917E+02  0.12057373770E+03  0.00000000000E+00 0. -1.
         -2    1    6    6    0  503  0.17159600007E+03 -0.18416181130E+03  0.23410800825E+03  0.34375473743E+03  0.00000000000E+00 0.  1.
<mgrwt>
<rscale>  0 0.75217486E+03</rscale>
<asrwt>0</asrwt>
<pdfrwt beam="1">  1        2 0.21908928E+00 0.75217486E+03</pdfrwt>
<pdfrwt beam="2">  1       -2 0.62404419E-01 0.75217486E+03</pdfrwt>
<totfact> 0.34117081E+01</totfact>
</mgrwt>
</event>
<event>
12    1  0.3147868E-008  0.4726142E+03  0.7818608E-02  0.1021185E+00
         -1   -1    0    0    0  501 -0.00000000000E+00  0.00000000000E+00  0.34328229218E+03  0.34328229218E+03  0.00000000000E+00 0.  1.
          1   -1    0    0  501    0  0.00000000000E+00 -0.00000000000E+00 -0.12560380057E+04  0.12560380057E+04  0.00000000000E+00 0. -1.
         23    2    1    2    0    0 -0.38482349756E+03 -0.22380549319E+03 -0.48092854593E+02  0.45668440977E+03  0.89831533485E+02 0.  0.
    5000000    2    1    2    0    0  0.38482349756E+03  0.22380549319E+03 -0.86466285898E+03  0.11426358882E+04  0.59983071791E+03 0.  0.
         23    2    4    4    0    0  0.51121539557E+02 -0.11493038714E+02 -0.67508815637E+03  0.68341252948E+03  0.92537369952E+02 0.  0.
         23    2    4    4    0    0  0.33370195800E+03  0.23529853191E+03 -0.18957470261E+03  0.45922335867E+03  0.90692499087E+02 0.  0.
          5    1    3    3  502    0 -0.18078420235E+03 -0.14307423557E+03  0.58517623131E+01  0.23067184012E+03  0.47000000000E+01 0. -1.
         -5    1    3    3    0  502 -0.20403929521E+03 -0.80731257627E+02 -0.53944616906E+02  0.22601256965E+03  0.47000000000E+01 0.  1.
         13    1    5    5    0    0  0.16224059749E+02  0.27768755202E+02 -0.48888680762E+03  0.48994350139E+03  0.00000000000E+00 0. -1.
        -13    1    5    5    0    0  0.34897479808E+02 -0.39261793916E+02 -0.18620134874E+03  0.19346902810E+03  0.00000000000E+00 0.  1.
          3    1    6    6  503    0  0.76338805417E+02  0.76364127163E+02 -0.90622525539E+02  0.14096643311E+03  0.00000000000E+00 0. -1.
         -3    1    6    6    0  503  0.25736315258E+03  0.15893440474E+03 -0.98952177069E+02  0.31825692556E+03  0.00000000000E+00 0.  1.
<mgrwt>
<rscale>  0 0.47261422E+03</rscale>
<asrwt>0</asrwt>
<pdfrwt beam="1">  1        1 0.19323661E+00 0.47261422E+03</pdfrwt>
<pdfrwt beam="2">  1       -1 0.52812661E-01 0.47261422E+03</pdfrwt>
<totfact> 0.37593112E+01</totfact>
</mgrwt>
</event>
<event>
12    1  0.3147868E-008  0.8241015E+03  0.7818608E-02  0.9525772E-01
         -2   -1    0    0    0  501 -0.00000000000E+00  0.00000000000E+00  0.80229119488E+03  0.80229119488E+03  0.00000000000E+00 0.  1.
          2   -1    0    0  501    0  0.00000000000E+00 -0.00000000000E+00 -0.15775533232E+04  0.15775533232E+04  0.00000000000E+00 0. -1.
         23    2    1    2    0    0  0.79083160364E+03 -0.12964707262E+03  0.34669599412E+03  0.87627841144E+03  0.73775017816E+02 0.  0.
    5000000    2    1    2    0    0 -0.79083160364E+03  0.12964707262E+03 -0.11219581224E+04  0.15035661066E+04  0.59974829699E+03 0.  0.
         23    2    4    4    0    0 -0.61342769991E+03  0.17830331025E+03 -0.11276581331E+04  0.12993771829E+04  0.93180388138E+02 0.  0.
         23    2    4    4    0    0 -0.17740390374E+03 -0.48656237639E+02  0.57000107507E+01  0.20418892369E+03  0.88436711354E+02 0.  0.
          5    1    3    3  502    0  0.36193053281E+03 -0.45669551590E+02  0.19470021123E+03  0.41353316768E+03  0.47000000000E+01 0. -1.
         -5    1    3    3    0  502  0.42890107084E+03 -0.83977521025E+02  0.15199578289E+03  0.46274524376E+03  0.47000000000E+01 0.  1.
         13    1    5    5    0    0 -0.20109669298E+03  0.91010472424E+02 -0.45247001092E+03  0.50344006277E+03  0.00000000000E+00 0. -1.
        -13    1    5    5    0    0 -0.41233100693E+03  0.87292837830E+02 -0.67518812223E+03  0.79593712013E+03  0.00000000000E+00 0.  1.
          2    1    6    6  503    0 -0.18498034671E+03 -0.34681854514E+02  0.57906697950E+01  0.18829256905E+03  0.00000000000E+00 0. -1.
         -2    1    6    6    0  503  0.75764429780E+01 -0.13974383125E+02 -0.90659044236E-01  0.15896354644E+02  0.00000000000E+00 0.  1.
<mgrwt>
<rscale>  0 0.82410150E+03</rscale>
<asrwt>0</asrwt>
<pdfrwt beam="1">  1        2 0.24270051E+00 0.82410150E+03</pdfrwt>
<pdfrwt beam="2">  1       -2 0.12342941E+00 0.82410150E+03</pdfrwt>
<totfact> 0.57725804E+00</totfact>
</mgrwt>
</event>
<event>
12    1  0.3147868E-008  0.1624666E+04  0.7818608E-02  0.8805536E-01
         -2   -1    0    0    0  501 -0.00000000000E+00  0.00000000000E+00  0.15651881484E+04  0.15651881484E+04  0.00000000000E+00 0. -1.
          2   -1    0    0  501    0  0.00000000000E+00 -0.00000000000E+00 -0.36083850572E+04  0.36083850572E+04  0.00000000000E+00 0.  1.
         23    2    1    2    0    0  0.85034228766E+03  0.13235389993E+04  0.87650647269E+03  0.18032511043E+04  0.92808726104E+02 0.  0.
    5000000    2    1    2    0    0 -0.85034228766E+03 -0.13235389993E+04 -0.29197033815E+04  0.33703221012E+04  0.59963800863E+03 0.  0.
         23    2    4    4    0    0 -0.29980463641E+03 -0.85163685323E+02 -0.55556150108E+03  0.64362708979E+03  0.92041164253E+02 0.  0.
         23    2    4    4    0    0 -0.55053765125E+03 -0.12383753140E+04 -0.23641418804E+04  0.27266950114E+04  0.95045941829E+02 0.  0.
          5    1    3    3  502    0  0.48103168591E+03  0.66405659443E+03  0.44944707456E+03  0.93508684425E+03  0.47000000000E+01 0. -1.
         -5    1    3    3    0  502  0.36931060175E+03  0.65948240492E+03  0.42705939813E+03  0.86816426009E+03  0.47000000000E+01 0.  1.
         13    1    5    5    0    0 -0.81908347195E+02 -0.83379413184E+00 -0.83836812739E+02  0.11721042498E+03  0.00000000000E+00 0.  1.
        -13    1    5    5    0    0 -0.21789628921E+03 -0.84329891192E+02 -0.47172468834E+03  0.52641666482E+03  0.00000000000E+00 0. -1.
          3    1    6    6  503    0 -0.30606089380E+03 -0.79018621739E+03 -0.15157183162E+04  0.17365107379E+04  0.00000000000E+00 0.  1.
         -3    1    6    6    0  503 -0.24447675745E+03 -0.44818909663E+03 -0.84842356419E+03  0.99018427353E+03  0.00000000000E+00 0. -1.
<mgrwt>
<rscale>  0 0.16246662E+04</rscale>
<asrwt>0</asrwt>
<pdfrwt beam="1">  1        2 0.55513616E+00 0.16246662E+04</pdfrwt>
<pdfrwt beam="2">  1       -2 0.24079818E+00 0.16246662E+04</pdfrwt>
<totfact> 0.46426519E-02</totfact>
</mgrwt>
</event>
<event>
12    1  0.3147868E-008  0.1735702E+04  0.7818608E-02  0.8741260E-01
         -2   -1    0    0    0  501 -0.00000000000E+00  0.00000000000E+00  0.21214175024E+04  0.21214175024E+04  0.00000000000E+00 0.  1.
          2   -1    0    0  501    0  0.00000000000E+00 -0.00000000000E+00 -0.16536851285E+04  0.16536851285E+04  0.00000000000E+00 0. -1.
         23    2    1    2    0    0 -0.14786584814E+04  0.88287103180E+03  0.83301874719E+03  0.19152298780E+04  0.91066398315E+02 0.  0.
    5000000    2    1    2    0    0  0.14786584814E+04 -0.88287103180E+03 -0.36528637334E+03  0.18598727529E+04  0.59983360946E+03 0.  0.
         23    2    4    4    0    0  0.61920253892E+03 -0.21571119139E+03 -0.38875023779E+03  0.76781194536E+03  0.92007248344E+02 0.  0.
         23    2    4    4    0    0  0.85945594249E+03 -0.66715984041E+03  0.23463864447E+02  0.10920608076E+04  0.90991674023E+02 0.  0.
          5    1    3    3  502    0 -0.89182611223E+03  0.48765609161E+03  0.46619150923E+03  0.11182660200E+04  0.47000000000E+01 0. -1.
         -5    1    3    3    0  502 -0.58683236918E+03  0.39521494019E+03  0.36682723796E+03  0.79696385801E+03  0.47000000000E+01 0.  1.
         13    1    5    5    0    0  0.43972175198E+03 -0.18602032375E+03 -0.31207115386E+03  0.57039213273E+03  0.00000000000E+00 0.  1.
        -13    1    5    5    0    0  0.17948078695E+03 -0.29690867642E+02 -0.76679083928E+02  0.19741981262E+03  0.00000000000E+00 0. -1.
          3    1    6    6  503    0  0.16244245273E+03 -0.13093328997E+03 -0.31151652557E+02  0.21095379193E+03  0.00000000000E+00 0. -1.
         -3    1    6    6    0  503  0.69701348976E+03 -0.53622655044E+03  0.54615517004E+02  0.88110701563E+03  0.00000000000E+00 0.  1.
<mgrwt>
<rscale>  0 0.17357021E+04</rscale>
<asrwt>0</asrwt>
<pdfrwt beam="1">  1        2 0.25441309E+00 0.17357021E+04</pdfrwt>
<pdfrwt beam="2">  1       -2 0.32637193E+00 0.17357021E+04</pdfrwt>
<totfact> 0.20861088E-01</totfact>
</mgrwt>
</event>
<event>
12    1  0.3147868E-008  0.5829997E+03  0.7818608E-02  0.9941318E-01
          2   -1    0    0  501    0  0.00000000000E+00  0.00000000000E+00  0.95489797619E+03  0.95489797619E+03  0.00000000000E+00 0. -1.
         -2   -1    0    0    0  501 -0.00000000000E+00 -0.00000000000E+00 -0.48509005656E+03  0.48509005656E+03  0.00000000000E+00 0.  1.
         23    2    1    2    0    0 -0.21342610250E+03  0.39123439651E+03 -0.13931237513E+03  0.47590185298E+03  0.91975983681E+02 0.  0.
    5000000    2    1    2    0    0  0.21342610250E+03 -0.39123439651E+03  0.60912029476E+03  0.96408617977E+03  0.59984962640E+03 0.  0.
         23    2    4    4    0    0  0.40435536559E+03 -0.21189895164E+03  0.33043143680E+03  0.57083007130E+03  0.90871384303E+02 0.  0.
         23    2    4    4    0    0 -0.19092926309E+03 -0.17933544486E+03  0.27868885796E+03  0.39325610847E+03  0.91475144226E+02 0.  0.
          5    1    3    3  502    0 -0.13534765116E+03  0.24746614859E+03 -0.13358943120E+03  0.31213251593E+03  0.47000000000E+01 0.  1.
         -5    1    3    3    0  502 -0.78078451338E+02  0.14376824791E+03 -0.57229439277E+01  0.16376933705E+03  0.47000000000E+01 0. -1.
         11    1    5    5    0    0  0.32846487426E+03 -0.18817402070E+03  0.23079713203E+03  0.44335758913E+03  0.00000000000E+00 0. -1.
        -11    1    5    5    0    0  0.75890491328E+02 -0.23724930944E+02  0.99634304770E+02  0.12747248217E+03  0.00000000000E+00 0.  1.
          1    1    6    6  503    0 -0.12341250144E+03 -0.12294097844E+03  0.11908136031E+03  0.21101066339E+03  0.00000000000E+00 0. -1.
         -1    1    6    6    0  503 -0.67516761653E+02 -0.56394466421E+02  0.15960749765E+03  0.18224544508E+03  0.00000000000E+00 0.  1.
<mgrwt>
<rscale>  0 0.58299972E+03</rscale>
<asrwt>0</asrwt>
<pdfrwt beam="1">  1        2 0.14690738E+00 0.58299972E+03</pdfrwt>
<pdfrwt beam="2">  1       -2 0.74629240E-01 0.58299972E+03</pdfrwt>
<totfact> 0.44906022E+01</totfact>
</mgrwt>
</event>
<event>
12    1  0.3147868E-008  0.1051764E+04  0.7818608E-02  0.9253524E-01
          1   -1    0    0  501    0  0.00000000000E+00  0.00000000000E+00  0.15557655860E+04  0.15557655860E+04  0.00000000000E+00 0. -1.
         -1   -1    0    0    0  501 -0.00000000000E+00 -0.00000000000E+00 -0.14746601709E+04  0.14746601709E+04  0.00000000000E+00 0.  1.
         23    2    1    2    0    0 -0.82919918386E+03  0.51182778668E+03 -0.10404201050E+04  0.14282054402E+04  0.88078457336E+02 0.  0.
    5000000    2    1    2    0    0  0.82919918386E+03 -0.51182778668E+03  0.11215255202E+04  0.16022203167E+04  0.59979286505E+03 0.  0.
         23    2    4    4    0    0  0.69817754772E+03 -0.11184062617E+03  0.66685633087E+03  0.97606989392E+03  0.89748860700E+02 0.  0.
         23    2    4    4    0    0  0.13102163614E+03 -0.39998716051E+03  0.45466918932E+03  0.62615042275E+03  0.90464813478E+02 0.  0.
          5    1    3    3  502    0 -0.44631058728E+03  0.26175045732E+03 -0.49056366853E+03  0.71300858698E+03  0.47000000000E+01 0. -1.
         -5    1    3    3    0  502 -0.38288859658E+03  0.25007732936E+03 -0.54985643651E+03  0.71519685320E+03  0.47000000000E+01 0.  1.
         11    1    5    5    0    0  0.22339802329E+03 -0.24566272599E+02  0.26886769454E+03  0.35042833180E+03  0.00000000000E+00 0.  1.
        -11    1    5    5    0    0  0.47477952442E+03 -0.87274353572E+02  0.39798863632E+03  0.62564156211E+03  0.00000000000E+00 0. -1.
          1    1    6    6  503    0  0.52855880332E+02 -0.19004219852E+03  0.14913940889E+03  0.24729000099E+03  0.00000000000E+00 0. -1.
         -1    1    6    6    0  503  0.78165755812E+02 -0.20994496199E+03  0.30552978043E+03  0.37886042176E+03  0.00000000000E+00 0.  1.
<mgrwt>
<rscale>  0 0.10517643E+04</rscale>
<asrwt>0</asrwt>
<pdfrwt beam="1">  1        1 0.23934855E+00 0.10517643E+04</pdfrwt>
<pdfrwt beam="2">  1       -1 0.22687080E+00 0.10517643E+04</pdfrwt>
<totfact> 0.59344416E-01</totfact>
</mgrwt>
</event>
<event>
12    1  0.3147868E-008  0.4294409E+03  0.7818608E-02  0.1034037E+00
          1   -1    0    0  501    0  0.00000000000E+00  0.00000000000E+00  0.27615990791E+04  0.27615990791E+04  0.00000000000E+00 0. -1.
         -1   -1    0    0    0  501 -0.00000000000E+00 -0.00000000000E+00 -0.23836720461E+03  0.23836720461E+03  0.00000000000E+00 0.  1.
         23    2    1    2    0    0  0.23076648364E+03  0.32927105377E+03  0.40203985432E+02  0.41403006343E+03  0.90177248533E+02 0.  0.
    5000000    2    1    2    0    0 -0.23076648364E+03 -0.32927105377E+03  0.24830278891E+04  0.25859362203E+04  0.59997169991E+03 0.  0.
         23    2    4    4    0    0 -0.18893488099E+03 -0.18073327342E+03  0.23385843831E+04  0.23549694528E+04  0.92429982716E+02 0.  0.
         23    2    4    4    0    0 -0.41831602655E+02 -0.14853778036E+03  0.14444350603E+03  0.23096676748E+03  0.93104060446E+02 0.  0.
          5    1    3    3  502    0  0.19281389275E+03  0.30230428345E+03  0.59353151267E+02  0.36346934340E+03  0.47000000000E+01 0. -1.
         -5    1    3    3    0  502  0.37952590898E+02  0.26966770323E+02 -0.19149165835E+02  0.50560720028E+02  0.47000000000E+01 0.  1.
         11    1    5    5    0    0 -0.13261350979E+03 -0.65993065862E+02  0.11378383839E+04  0.11474395913E+04  0.00000000000E+00 0. -1.
        -11    1    5    5    0    0 -0.56321371203E+02 -0.11474020756E+03  0.12007459992E+04  0.12075298616E+04  0.00000000000E+00 0.  1.
          1    1    6    6  503    0 -0.28625074236E+02 -0.19745423096E+00  0.99712280037E+01  0.30312691255E+02  0.00000000000E+00 0. -1.
         -1    1    6    6    0  503 -0.13206528419E+02 -0.14834032613E+03  0.13447227803E+03  0.20065407622E+03  0.00000000000E+00 0.  1.
<mgrwt>
<rscale>  0 0.42944090E+03</rscale>
<asrwt>0</asrwt>
<pdfrwt beam="1">  1        1 0.42486138E+00 0.42944090E+03</pdfrwt>
<pdfrwt beam="2">  1       -1 0.36671880E-01 0.42944090E+03</pdfrwt>
<totfact> 0.72398318E+00</totfact>
</mgrwt>
</event>
<event>
12    1  0.3147868E-008  0.1174247E+04  0.7818608E-02  0.9135701E-01
         -2   -1    0    0    0  501 -0.00000000000E+00  0.00000000000E+00  0.49718151882E+03  0.49718151882E+03  0.00000000000E+00 0.  1.
          2   -1    0    0  501    0  0.00000000000E+00 -0.00000000000E+00 -0.31563804659E+04  0.31563804659E+04  0.00000000000E+00 0. -1.
         23    2    1    2    0    0 -0.66709332759E+03 -0.93353310252E+03 -0.85978677123E+03  0.14367232091E+04  0.91884309096E+02 0.  0.
    5000000    2    1    2    0    0  0.66709332759E+03  0.93353310252E+03 -0.17994121758E+04  0.22168387756E+04  0.59999368117E+03 0.  0.
         23    2    4    4    0    0  0.10763051743E+03  0.38433368504E+02 -0.20693829405E+02  0.14642294351E+03  0.89162726039E+02 0.  0.
         23    2    4    4    0    0  0.55946281016E+03  0.89509973401E+03 -0.17787183464E+04  0.20704158321E+04  0.92631486208E+02 0.  0.
          5    1    3    3  502    0 -0.29771948703E+03 -0.47611431532E+03 -0.45731265672E+03  0.72420901003E+03  0.47000000000E+01 0. -1.
         -5    1    3    3    0  502 -0.36937384055E+03 -0.45741878720E+03 -0.40247411450E+03  0.71251419903E+03  0.47000000000E+01 0.  1.
         13    1    5    5    0    0  0.11956103848E+03  0.47165297545E+02 -0.11564988885E+02  0.12904710838E+03  0.00000000000E+00 0. -1.
        -13    1    5    5    0    0 -0.11930521047E+02 -0.87319290410E+01 -0.91288405194E+01  0.17375835130E+02  0.00000000000E+00 0.  1.
          4    1    6    6  503    0  0.31516576971E+03  0.51875759866E+03 -0.93352867876E+03  0.11135145723E+04  0.00000000000E+00 0. -1.
         -4    1    6    6    0  503  0.24429704045E+03  0.37634213535E+03 -0.84518966764E+03  0.95690125985E+03  0.00000000000E+00 0.  1.
<mgrwt>
<rscale>  0 0.11742474E+04</rscale>
<asrwt>0</asrwt>
<pdfrwt beam="1">  1        2 0.48559700E+00 0.11742474E+04</pdfrwt>
<pdfrwt beam="2">  1       -2 0.76489463E-01 0.11742474E+04</pdfrwt>
<totfact> 0.21162905E+00</totfact>
</mgrwt>
</event>
<event>
12    1  0.3147868E-008  0.2168734E+04  0.7818608E-02  0.8531555E-01
          2   -1    0    0  501    0  0.00000000000E+00  0.00000000000E+00  0.15966476605E+04  0.15966476605E+04  0.00000000000E+00 0. -1.
         -2   -1    0    0    0  501 -0.00000000000E+00 -0.00000000000E+00 -0.34929118994E+04  0.34929118994E+04  0.00000000000E+00 0.  1.
         23    2    1    2    0    0  0.18624366722E+04  0.10958194665E+04 -0.18504132656E+04  0.28463934059E+04  0.91845014555E+02 0.  0.
    5000000    2    1    2    0    0 -0.18624366722E+04 -0.10958194665E+04 -0.45850973323E+02  0.22431661539E+04  0.60016782753E+03 0.  0.
         23    2    4    4    0    0 -0.10887142787E+04 -0.76258002964E+03  0.22965948272E+03  0.13521025645E+04  0.92794313384E+02 0.  0.
         23    2    4    4    0    0 -0.77372239351E+03 -0.33323943684E+03 -0.27551045605E+03  0.89106358944E+03  0.91615744028E+02 0.  0.
          5    1    3    3  502    0  0.12256354904E+04  0.74027357758E+03 -0.11729759519E+04  0.18509678546E+04  0.47000000000E+01 0. -1.
         -5    1    3    3    0  502  0.63680118182E+03  0.35554588889E+03 -0.67743731366E+03  0.99542555132E+03  0.47000000000E+01 0.  1.
         11    1    5    5    0    0 -0.71195444580E+03 -0.46195319205E+03  0.17980341365E+03  0.86753049059E+03  0.00000000000E+00 0. -1.
        -11    1    5    5    0    0 -0.37675983293E+03 -0.30062683758E+03  0.49856069074E+02  0.48457207390E+03  0.00000000000E+00 0.  1.
          3    1    6    6  503    0 -0.17754679436E+03 -0.43910436974E+02 -0.35801575534E+02  0.18636722747E+03  0.00000000000E+00 0. -1.
         -3    1    6    6    0  503 -0.59617559915E+03 -0.28932899986E+03 -0.23970888051E+03  0.70469636197E+03  0.00000000000E+00 0.  1.
<mgrwt>
<rscale>  0 0.21687341E+04</rscale>
<asrwt>0</asrwt>
<pdfrwt beam="1">  1        2 0.24563810E+00 0.21687341E+04</pdfrwt>
<pdfrwt beam="2">  1       -2 0.53737106E+00 0.21687341E+04</pdfrwt>
<totfact> 0.96137684E-03</totfact>
</mgrwt>
</event>
<event>
12    1  0.3147868E-008  0.4650694E+03  0.7818608E-02  0.1023321E+00
         -2   -1    0    0    0  501 -0.00000000000E+00  0.00000000000E+00  0.78698084752E+02  0.78698084752E+02  0.00000000000E+00 0.  1.
          2   -1    0    0  501    0  0.00000000000E+00 -0.00000000000E+00 -0.29955111685E+04  0.29955111685E+04  0.00000000000E+00 0. -1.
         23    2    1    2    0    0  0.14617696190E+03 -0.24244352288E+03 -0.11295120627E+04  0.11678371512E+04  0.88879389158E+02 0.  0.
    5000000    2    1    2    0    0 -0.14617696190E+03  0.24244352288E+03 -0.17873010210E+04  0.19063721021E+04  0.59971917254E+03 0.  0.
         23    2    4    4    0    0  0.18978661116E+03 -0.40029101936E+02 -0.58049850663E+03  0.61894484690E+03  0.92157042717E+02 0.  0.
         23    2    4    4    0    0 -0.33596357306E+03  0.28247262481E+03 -0.12068025144E+04  0.12874272552E+04  0.91838567521E+02 0.  0.
          5    1    3    3  502    0  0.15264997251E+03 -0.20043204315E+03 -0.10079859541E+04  0.10390056745E+04  0.47000000000E+01 0. -1.
         -5    1    3    3    0  502 -0.64730106129E+01 -0.42011479722E+02 -0.12152610860E+03  0.12883147661E+03  0.47000000000E+01 0.  1.
         11    1    5    5    0    0  0.14594895938E+03 -0.41692789108E+02 -0.53341769556E+03  0.55459338739E+03  0.00000000000E+00 0.  1.
        -11    1    5    5    0    0  0.43837651785E+02  0.16636871719E+01 -0.47080811075E+02  0.64351459505E+02  0.00000000000E+00 0. -1.
          1    1    6    6  503    0 -0.80311072250E+02  0.53238562236E+02 -0.17211198502E+03  0.19724793592E+03  0.00000000000E+00 0. -1.
         -1    1    6    6    0  503 -0.25565250081E+03  0.22923406257E+03 -0.10346905294E+04  0.10901793193E+04  0.00000000000E+00 0.  1.
<mgrwt>
<rscale>  0 0.46506942E+03</rscale>
<asrwt>0</asrwt>
<pdfrwt beam="1">  1        2 0.46084777E+00 0.46506942E+03</pdfrwt>
<pdfrwt beam="2">  1       -2 0.12107400E-01 0.46506942E+03</pdfrwt>
<totfact> 0.97154676E+01</totfact>
</mgrwt>
</event>
<event>
12    1  0.3147868E-008  0.1135665E+04  0.7818608E-02  0.9171111E-01
         -1   -1    0    0    0  501 -0.00000000000E+00  0.00000000000E+00  0.12542789932E+04  0.12542789932E+04  0.00000000000E+00 0.  1.
          1   -1    0    0  501    0  0.00000000000E+00 -0.00000000000E+00 -0.10602807869E+04  0.10602807869E+04  0.00000000000E+00 0. -1.
         23    2    1    2    0    0 -0.75057753842E+02 -0.10599710690E+04  0.23997685375E+03  0.10933864809E+04  0.93449306524E+02 0.  0.
    5000000    2    1    2    0    0  0.75057753842E+02  0.10599710690E+04 -0.45978647441E+02  0.12211732991E+04  0.59998154727E+03 0.  0.
         23    2    4    4    0    0  0.31561907561E+03  0.71360128746E+03 -0.68503880199E+02  0.78808905825E+03  0.86887189988E+02 0.  0.
         23    2    4    4    0    0 -0.24056132177E+03  0.34636978151E+03  0.22525232758E+02  0.43308424089E+03  0.95983324199E+02 0.  0.
          5    1    3    3  502    0  0.91303705902E+01 -0.52257857274E+03  0.11091738907E+03  0.53431871158E+03  0.47000000000E+01 0. -1.
         -5    1    3    3    0  502 -0.84188124433E+02 -0.53739249623E+03  0.12905946468E+03  0.55906776935E+03  0.47000000000E+01 0.  1.
         11    1    5    5    0    0  0.65564913537E+02  0.93739344325E+02  0.11271075128E+02  0.11494720395E+03  0.00000000000E+00 0. -1.
        -11    1    5    5    0    0  0.25005416207E+03  0.61986194313E+03 -0.79774955327E+02  0.67314185430E+03  0.00000000000E+00 0.  1.
          1    1    6    6  503    0 -0.23513921945E+02  0.40630821267E+02  0.33995699833E+02  0.57960984888E+02  0.00000000000E+00 0. -1.
         -1    1    6    6    0  503 -0.21704739982E+03  0.30573896024E+03 -0.11470467075E+02  0.37512325600E+03  0.00000000000E+00 0.  1.
<mgrwt>
<rscale>  0 0.11356651E+04</rscale>
<asrwt>0</asrwt>
<pdfrwt beam="1">  1        1 0.16312012E+00 0.11356651E+04</pdfrwt>
<pdfrwt beam="2">  1       -1 0.19296600E+00 0.11356651E+04</pdfrwt>
<totfact> 0.22611040E+00</totfact>
</mgrwt>
</event>
<event>
12    1  0.3147868E-008  0.1016674E+04  0.7818608E-02  0.9290444E-01
         -2   -1    0    0    0  501 -0.00000000000E+00  0.00000000000E+00  0.75121542794E+03  0.75121542794E+03  0.00000000000E+00 0.  1.
          2   -1    0    0  501    0  0.00000000000E+00 -0.00000000000E+00 -0.15219106173E+04  0.15219106173E+04  0.00000000000E+00 0. -1.
         23    2    1    2    0    0 -0.73896221301E+03  0.64796859364E+03 -0.35924912523E+03  0.10503717687E+04  0.91062988764E+02 0.  0.
    5000000    2    1    2    0    0  0.73896221301E+03 -0.64796859364E+03 -0.41144606413E+03  0.12227542765E+04  0.59992641759E+03 0.  0.
         23    2    4    4    0    0  0.21006535864E+03 -0.10414572728E+01  0.87900482805E+02  0.24503447126E+03  0.90481256023E+02 0.  0.
         23    2    4    4    0    0  0.52889685437E+03 -0.64692713636E+03 -0.49934654693E+03  0.97771980529E+03  0.91336966199E+02 0.  0.
          5    1    3    3  502    0 -0.35735221742E+03  0.37273212538E+03 -0.19571239649E+03  0.55222755882E+03  0.47000000000E+01 0. -1.
         -5    1    3    3    0  502 -0.38160999559E+03  0.27523646826E+03 -0.16353672874E+03  0.49814420989E+03  0.47000000000E+01 0.  1.
         11    1    5    5    0    0  0.13341217539E+03 -0.85871399558E+00  0.10091726538E+03  0.16728371225E+03  0.00000000000E+00 0. -1.
        -11    1    5    5    0    0  0.76653183255E+02 -0.18274327725E+00 -0.13016782572E+02  0.77750759011E+02  0.00000000000E+00 0.  1.
          1    1    6    6  503    0  0.22459112400E+03 -0.30253412462E+03 -0.17647703345E+03  0.41606755807E+03  0.00000000000E+00 0. -1.
         -1    1    6    6    0  503  0.30430573036E+03 -0.34439301174E+03 -0.32286951349E+03  0.56165224722E+03  0.00000000000E+00 0.  1.
<mgrwt>
<rscale>  0 0.10166739E+04</rscale>
<asrwt>0</asrwt>
<pdfrwt beam="1">  1        2 0.23414010E+00 0.10166739E+04</pdfrwt>
<pdfrwt beam="2">  1       -2 0.11557160E+00 0.10166739E+04</pdfrwt>
<totfact> 0.71347323E+00</totfact>
</mgrwt>
</event>
<event>
12    1  0.3147868E-008  0.9832471E+03  0.7818608E-02  0.9327112E-01
          2   -1    0    0  501    0  0.00000000000E+00  0.00000000000E+00  0.18837587625E+04  0.18837587625E+04  0.00000000000E+00 0. -1.
         -2   -1    0    0    0  501 -0.00000000000E+00 -0.00000000000E+00 -0.90735939115E+03  0.90735939115E+03  0.00000000000E+00 0.  1.
         23    2    1    2    0    0  0.79522149859E+03  0.57012411741E+03  0.12706913832E+04  0.16063274127E+04  0.90622427834E+02 0.  0.
    5000000    2    1    2    0    0 -0.79522149859E+03 -0.57012411741E+03 -0.29429201176E+03  0.11847907410E+04  0.59975209106E+03 0.  0.
         23    2    4    4    0    0 -0.29969716261E+03 -0.25328397734E+03 -0.41345310275E+03  0.57786351047E+03  0.94929479642E+02 0.  0.
         23    2    4    4    0    0 -0.49552433598E+03 -0.31684014008E+03  0.11916109099E+03  0.60692723055E+03  0.90715244915E+02 0.  0.
          5    1    3    3  502    0  0.10013659026E+03  0.43597381448E+02  0.11644119198E+03  0.15971446261E+03  0.47000000000E+01 0. -1.
         -5    1    3    3    0  502  0.69508490833E+03  0.52652673596E+03  0.11542501912E+04  0.14466129501E+04  0.47000000000E+01 0.  1.
         13    1    5    5    0    0 -0.55562684938E+02 -0.21167012516E+02 -0.27305255740E+02  0.65428062538E+02  0.00000000000E+00 0.  1.
        -13    1    5    5    0    0 -0.24413447767E+03 -0.23211696482E+03 -0.38614784701E+03  0.51243544793E+03  0.00000000000E+00 0. -1.
          3    1    6    6  503    0 -0.26872800027E+03 -0.18856675860E+03  0.10993738213E+03  0.34620570268E+03  0.00000000000E+00 0. -1.
         -3    1    6    6    0  503 -0.22679633572E+03 -0.12827338147E+03  0.92237088542E+01  0.26072152787E+03  0.00000000000E+00 0.  1.
<mgrwt>
<rscale>  0 0.98324712E+03</rscale>
<asrwt>0</asrwt>
<pdfrwt beam="1">  1        2 0.28980904E+00 0.98324712E+03</pdfrwt>
<pdfrwt beam="2">  1       -2 0.13959375E+00 0.98324712E+03</pdfrwt>
<totfact> 0.28021190E+00</totfact>
</mgrwt>
</event>
<event>
12    1  0.3147868E-008  0.1039946E+04  0.7818608E-02  0.9265786E-01
         -4   -1    0    0    0  501 -0.00000000000E+00  0.00000000000E+00  0.12792043673E+04  0.12792043673E+04  0.00000000000E+00 0. -1.
          4   -1    0    0  501    0  0.00000000000E+00 -0.00000000000E+00 -0.13938785939E+04  0.13938785939E+04  0.00000000000E+00 0.  1.
         23    2    1    2    0    0 -0.98175750057E+03 -0.13636904714E+03  0.73413182764E+03  0.12367663222E+04  0.90537774035E+02 0.  0.
    5000000    2    1    2    0    0  0.98175750057E+03  0.13636904714E+03 -0.84880605432E+03  0.14363166389E+04  0.60007454746E+03 0.  0.
         23    2    4    4    0    0 -0.30286830471E+02 -0.45101952097E+02 -0.95581063479E+01  0.10602639283E+03  0.90547006562E+02 0.  0.
         23    2    4    4    0    0  0.10120443310E+04  0.18147099923E+03 -0.83924794797E+03  0.13302902461E+04  0.90385669005E+02 0.  0.
          5    1    3    3  502    0 -0.28800270747E+03 -0.81172577242E+02  0.21329587693E+03  0.36749390188E+03  0.47000000000E+01 0. -1.
         -5    1    3    3    0  502 -0.69375479310E+03 -0.55196469894E+02  0.52083595071E+03  0.86927242036E+03  0.47000000000E+01 0.  1.
         13    1    5    5    0    0 -0.67581304506E+01 -0.16467378417E+02  0.40210596797E+02  0.43974299015E+02  0.00000000000E+00 0. -1.
        -13    1    5    5    0    0 -0.23528700020E+02 -0.28634573680E+02 -0.49768703145E+02  0.62052093818E+02  0.00000000000E+00 0.  1.
          4    1    6    6  503    0  0.10062924473E+04  0.17543694472E+03 -0.83914110937E+03  0.13219532565E+04  0.00000000000E+00 0. -1.
         -4    1    6    6    0  503  0.57518837864E+01  0.60340545116E+01 -0.10683859604E+00  0.83369895902E+01  0.00000000000E+00 0.  1.
<mgrwt>
<rscale>  0 0.10399459E+04</rscale>
<asrwt>0</asrwt>
<pdfrwt beam="1">  1        4 0.21444286E+00 0.10399459E+04</pdfrwt>
<pdfrwt beam="2">  1       -4 0.19680067E+00 0.10399459E+04</pdfrwt>
<totfact> 0.27927700E-02</totfact>
</mgrwt>
</event>
<event>
12    1  0.3147868E-008  0.7500416E+03  0.7818608E-02  0.9635285E-01
         -1   -1    0    0    0  501 -0.00000000000E+00  0.00000000000E+00  0.43642268127E+03  0.43642268127E+03  0.00000000000E+00 0.  1.
          1   -1    0    0  501    0  0.00000000000E+00 -0.00000000000E+00 -0.14960390514E+04  0.14960390514E+04  0.00000000000E+00 0. -1.
         23    2    1    2    0    0  0.36289292482E+03 -0.58808165349E+03 -0.52365722821E+03  0.87185098437E+03  0.91520162951E+02 0.  0.
    5000000    2    1    2    0    0 -0.36289292482E+03  0.58808165349E+03 -0.53595914193E+03  0.10606107483E+04  0.60009303575E+03 0.  0.
         23    2    4    4    0    0 -0.40798096584E+03  0.58050533114E+03 -0.25157360205E+03  0.75834803922E+03  0.91474386485E+02 0.  0.
         23    2    4    4    0    0  0.45088041020E+02  0.75763223573E+01 -0.28438553988E+03  0.30226270909E+03  0.91636662459E+02 0.  0.
          5    1    3    3  502    0  0.53368449974E+02 -0.11452419232E+03 -0.58010795497E+02  0.13910903808E+03  0.47000000000E+01 0. -1.
         -5    1    3    3    0  502  0.30952447484E+03 -0.47355746117E+03 -0.46564643271E+03  0.73274194629E+03  0.47000000000E+01 0.  1.
         13    1    5    5    0    0 -0.25286246658E+03  0.38569119391E+03 -0.20634315860E+03  0.50524709120E+03  0.00000000000E+00 0. -1.
        -13    1    5    5    0    0 -0.15511849926E+03  0.19481413722E+03 -0.45230443440E+02  0.25310094802E+03  0.00000000000E+00 0.  1.
          3    1    6    6  503    0  0.70811610649E+02 -0.14696055493E+00 -0.24144255880E+03  0.25161243013E+03  0.00000000000E+00 0. -1.
         -3    1    6    6    0  503 -0.25723569628E+02  0.77232829123E+01 -0.42942981086E+02  0.50650278952E+02  0.00000000000E+00 0.  1.
<mgrwt>
<rscale>  0 0.75004164E+03</rscale>
<asrwt>0</asrwt>
<pdfrwt beam="1">  1        1 0.23015985E+00 0.75004164E+03</pdfrwt>
<pdfrwt beam="2">  1       -1 0.67141951E-01 0.75004164E+03</pdfrwt>
<totfact> 0.15326362E+01</totfact>
</mgrwt>
</event>
<event>
12    1  0.3147868E-008  0.4258355E+03  0.7818608E-02  0.1035184E+00
         -2   -1    0    0    0  501 -0.00000000000E+00  0.00000000000E+00  0.25226800896E+03  0.25226800896E+03  0.00000000000E+00 0. -1.
          2   -1    0    0  501    0  0.00000000000E+00 -0.00000000000E+00 -0.16558209563E+04  0.16558209563E+04  0.00000000000E+00 0.  1.
         23    2    1    2    0    0 -0.36957880567E+03 -0.17675866856E+03 -0.98327629732E+03  0.10687346565E+04  0.86771934700E+02 0.  0.
    5000000    2    1    2    0    0  0.36957880567E+03  0.17675866856E+03 -0.42027665004E+03  0.83935430877E+03  0.60004255897E+03 0.  0.
         23    2    4    4    0    0  0.23439939217E+03  0.48830876147E+02 -0.54155247918E+03  0.59927259101E+03  0.92309377215E+02 0.  0.
         23    2    4    4    0    0  0.13517941350E+03  0.12792779241E+03  0.12127582914E+03  0.24008171776E+03  0.91062673829E+02 0.  0.
          5    1    3    3  502    0 -0.27382695363E+03 -0.10186304935E+03 -0.61499803124E+03  0.68088321303E+03  0.47000000000E+01 0. -1.
         -5    1    3    3    0  502 -0.95751852040E+02 -0.74895619202E+02 -0.36827826608E+03  0.38785144348E+03  0.47000000000E+01 0.  1.
         11    1    5    5    0    0  0.75682987883E+02  0.50046597682E+02 -0.26878870300E+03  0.28368987196E+03  0.00000000000E+00 0. -1.
        -11    1    5    5    0    0  0.15871640428E+03 -0.12157215353E+01 -0.27276377618E+03  0.31558271905E+03  0.00000000000E+00 0.  1.
          1    1    6    6  503    0  0.47064437833E+02  0.64271740810E+02  0.10242438557E+03  0.12975620499E+03  0.00000000000E+00 0. -1.
         -1    1    6    6    0  503  0.88114975671E+02  0.63656051599E+02  0.18851443566E+02  0.11032551277E+03  0.00000000000E+00 0.  1.
<mgrwt>
<rscale>  0 0.42583552E+03</rscale>
<asrwt>0</asrwt>
<pdfrwt beam="1">  1        2 0.25474168E+00 0.42583552E+03</pdfrwt>
<pdfrwt beam="2">  1       -2 0.38810464E-01 0.42583552E+03</pdfrwt>
<totfact> 0.69596165E+01</totfact>
</mgrwt>
</event>
<event>
12    1  0.3147868E-008  0.1042806E+04  0.7818608E-02  0.9262804E-01
         -1   -1    0    0    0  501 -0.00000000000E+00  0.00000000000E+00  0.59460629697E+03  0.59460629697E+03  0.00000000000E+00 0.  1.
          1   -1    0    0  501    0  0.00000000000E+00 -0.00000000000E+00 -0.22676253979E+04  0.22676253979E+04  0.00000000000E+00 0. -1.
         23    2    1    2    0    0  0.17036771603E+03 -0.94172045307E+03 -0.16311947621E+03  0.97660630997E+03  0.10625135656E+03 0.  0.
    5000000    2    1    2    0    0 -0.17036771603E+03  0.94172045307E+03 -0.15098996247E+04  0.18856253849E+04  0.59993636749E+03 0.  0.
         23    2    4    4    0    0 -0.19036641025E+03  0.37442086149E+02 -0.21996971357E+03  0.30758464863E+03  0.92630239225E+02 0.  0.
         23    2    4    4    0    0  0.19998694224E+02  0.90427836692E+03 -0.12899299112E+04  0.15780407363E+04  0.90410602149E+02 0.  0.
          5    1    3    3  502    0  0.87628098186E+02 -0.23761520777E+03 -0.58423115757E+02  0.25995195905E+03  0.47000000000E+01 0. -1.
         -5    1    3    3    0  502  0.82739617839E+02 -0.70410524529E+03 -0.10469636046E+03  0.71665435093E+03  0.47000000000E+01 0.  1.
         13    1    5    5    0    0 -0.13539467623E+03 -0.18274222264E+02 -0.13531291997E+03  0.19228950014E+03  0.00000000000E+00 0. -1.
        -13    1    5    5    0    0 -0.54971734017E+02  0.55716308413E+02 -0.84656793597E+02  0.11529514849E+03  0.00000000000E+00 0.  1.
          3    1    6    6  503    0  0.51465734892E+02  0.41807924917E+03 -0.62568326743E+03  0.75426688354E+03  0.00000000000E+00 0. -1.
         -3    1    6    6    0  503 -0.31467040668E+02  0.48619911774E+03 -0.66424664372E+03  0.82377385273E+03  0.00000000000E+00 0.  1.
<mgrwt>
<rscale>  0 0.10428055E+04</rscale>
<asrwt>0</asrwt>
<pdfrwt beam="1">  1        1 0.34886544E+00 0.10428055E+04</pdfrwt>
<pdfrwt beam="2">  1       -1 0.91477894E-01 0.10428055E+04</pdfrwt>
<totfact> 0.23022484E+00</totfact>
</mgrwt>
</event>
<event>
12    1  0.3147868E-008  0.8596014E+03  0.7818608E-02  0.9477540E-01
         -2   -1    0    0    0  501 -0.00000000000E+00  0.00000000000E+00  0.46143985871E+03  0.46143985871E+03  0.00000000000E+00 0. -1.
          2   -1    0    0  501    0  0.00000000000E+00 -0.00000000000E+00 -0.18109940813E+04  0.18109940813E+04  0.00000000000E+00 0.  1.
         23    2    1    2    0    0 -0.62589840304E+03 -0.43443837076E+03 -0.95570019490E+03  0.12257648674E+04  0.93011497384E+02 0.  0.
    5000000    2    1    2    0    0  0.62589840304E+03  0.43443837076E+03 -0.39385402765E+03  0.10466690726E+04  0.59992469820E+03 0.  0.
         23    2    4    4    0    0  0.30432637272E+02 -0.11328185364E+03 -0.65529244442E+01  0.14616303184E+03  0.86958422725E+02 0.  0.
         23    2    4    4    0    0  0.59546576577E+03  0.54772022439E+03 -0.38730110321E+03  0.90050604075E+03  0.79574257630E+02 0.  0.
          5    1    3    3  502    0 -0.29403114819E+03 -0.19624787555E+03 -0.51683768121E+03  0.62618753060E+03  0.47000000000E+01 0. -1.
         -5    1    3    3    0  502 -0.33186725485E+03 -0.23819049521E+03 -0.43886251369E+03  0.59957733677E+03  0.47000000000E+01 0.  1.
         11    1    5    5    0    0 -0.20546472916E+02 -0.81717026064E+02  0.74512127503E+01  0.84589304699E+02  0.00000000000E+00 0.  1.
        -11    1    5    5    0    0  0.50979110188E+02 -0.31564827572E+02 -0.14004137194E+02  0.61573727138E+02  0.00000000000E+00 0. -1.
          1    1    6    6  503    0  0.68577540721E+02  0.32128072768E+02 -0.33359463298E+02  0.82752316842E+02  0.00000000000E+00 0. -1.
         -1    1    6    6    0  503  0.52688822505E+03  0.51559215162E+03 -0.35394163991E+03  0.81775372391E+03  0.00000000000E+00 0.  1.
<mgrwt>
<rscale>  0 0.85960144E+03</rscale>
<asrwt>0</asrwt>
<pdfrwt beam="1">  1        2 0.27861448E+00 0.85960144E+03</pdfrwt>
<pdfrwt beam="2">  1       -2 0.70990747E-01 0.85960144E+03</pdfrwt>
<totfact> 0.15584125E+01</totfact>
</mgrwt>
</event>
<event>
12    1  0.3147868E-008  0.1728160E+04  0.7818608E-02  0.8745465E-01
          2   -1    0    0  501    0  0.00000000000E+00  0.00000000000E+00  0.31982003470E+04  0.31982003470E+04  0.00000000000E+00 0. -1.
         -2   -1    0    0    0  501 -0.00000000000E+00 -0.00000000000E+00 -0.11921888339E+04  0.11921888339E+04  0.00000000000E+00 0.  1.
         23    2    1    2    0    0 -0.13520651617E+04  0.10685102558E+04  0.65671720829E+02  0.17268034427E+04  0.87994241341E+02 0.  0.
    5000000    2    1    2    0    0  0.13520651617E+04 -0.10685102558E+04  0.19403397923E+04  0.26635857382E+04  0.59998008879E+03 0.  0.
         23    2    4    4    0    0  0.62801330182E+03 -0.52074121896E+03  0.50851175222E+03  0.96568811350E+03  0.91636270127E+02 0.  0.
         23    2    4    4    0    0  0.72405185992E+03 -0.54776903683E+03  0.14318280400E+04  0.16978976247E+04  0.91775781962E+02 0.  0.
          5    1    3    3  502    0 -0.78058730844E+03  0.65980549173E+03  0.12189274056E+02  0.10221695072E+04  0.47000000000E+01 0. -1.
         -5    1    3    3    0  502 -0.57147785331E+03  0.40870476406E+03  0.53482446773E+02  0.70463393553E+03  0.47000000000E+01 0.  1.
         13    1    5    5    0    0  0.53647655465E+03 -0.40458898765E+03  0.43585551939E+03  0.80091783373E+03  0.00000000000E+00 0.  1.
        -13    1    5    5    0    0  0.91536747177E+02 -0.11615223131E+03  0.72656232838E+02  0.16477027976E+03  0.00000000000E+00 0. -1.
          2    1    6    6  503    0  0.27167176490E+03 -0.15547585130E+03  0.52434684812E+03  0.61067004619E+03  0.00000000000E+00 0. -1.
         -2    1    6    6    0  503  0.45238009502E+03 -0.39229318553E+03  0.90748119193E+03  0.10872275785E+04  0.00000000000E+00 0.  1.
<mgrwt>
<rscale>  0 0.17281598E+04</rscale>
<asrwt>0</asrwt>
<pdfrwt beam="1">  1        2 0.49203082E+00 0.17281598E+04</pdfrwt>
<pdfrwt beam="2">  1       -2 0.18341367E+00 0.17281598E+04</pdfrwt>
<totfact> 0.20571378E-01</totfact>
</mgrwt>
</event>
<event>
12    1  0.3147868E-008  0.4681303E+03  0.7818608E-02  0.1022449E+00
         -1   -1    0    0    0  501 -0.00000000000E+00  0.00000000000E+00  0.13183945580E+04  0.13183945580E+04  0.00000000000E+00 0.  1.
          1   -1    0    0  501    0  0.00000000000E+00 -0.00000000000E+00 -0.46158474890E+03  0.46158474890E+03  0.00000000000E+00 0. -1.
         23    2    1    2    0    0  0.43610852507E+03  0.63778967165E+02 -0.19548394455E+03  0.49097840492E+03  0.92668329155E+02 0.  0.
    5000000    2    1    2    0    0 -0.43610852507E+03 -0.63778967165E+02  0.10522937537E+04  0.12890009020E+04  0.59995231396E+03 0.  0.
         23    2    4    4    0    0 -0.17098127956E+03 -0.97576042548E+02  0.19339953019E+02  0.21814302901E+03  0.91960128778E+02 0.  0.
         23    2    4    4    0    0 -0.26512724551E+03  0.33797075383E+02  0.10329538007E+04  0.10708578730E+04  0.91150047859E+02 0.  0.
          5    1    3    3  502    0  0.15913919204E+03  0.24764110928E+02 -0.24113897176E+02  0.16291750572E+03  0.47000000000E+01 0. -1.
         -5    1    3    3    0  502  0.27696933304E+03  0.39014856237E+02 -0.17137004737E+03  0.32806089920E+03  0.47000000000E+01 0.  1.
         11    1    5    5    0    0 -0.68465018280E+02 -0.91897443768E+02  0.11394521467E+02  0.11516264159E+03  0.00000000000E+00 0.  1.
        -11    1    5    5    0    0 -0.10251626128E+03 -0.56785987808E+01  0.79454315513E+01  0.10298038742E+03  0.00000000000E+00 0. -1.
          3    1    6    6  503    0 -0.26872635453E+03  0.39262323306E+02  0.96190010753E+03  0.99950347699E+03  0.00000000000E+00 0. -1.
         -3    1    6    6    0  503  0.35991090202E+01 -0.54652479232E+01  0.71053693129E+02  0.71354395995E+02  0.00000000000E+00 0.  1.
<mgrwt>
<rscale>  0 0.46813026E+03</rscale>
<asrwt>0</asrwt>
<pdfrwt beam="1">  1        1 0.71013039E-01 0.46813026E+03</pdfrwt>
<pdfrwt beam="2">  1       -1 0.20282993E+00 0.46813026E+03</pdfrwt>
<totfact> 0.77120467E+00</totfact>
</mgrwt>
</event>
<event>
12    1  0.3147868E-008  0.1363118E+04  0.7818608E-02  0.8980957E-01
          1   -1    0    0  501    0  0.00000000000E+00  0.00000000000E+00  0.11940083137E+04  0.11940083137E+04  0.00000000000E+00 0. -1.
         -1   -1    0    0    0  501 -0.00000000000E+00 -0.00000000000E+00 -0.19016898913E+04  0.19016898913E+04  0.00000000000E+00 0.  1.
         23    2    1    2    0    0  0.12657495974E+04 -0.50040259160E+03 -0.84061940850E+03  0.16023579448E+04  0.91570718035E+02 0.  0.
    5000000    2    1    2    0    0 -0.12657495974E+04  0.50040259160E+03  0.13293783091E+03  0.14933402603E+04  0.59988988079E+03 0.  0.
         23    2    4    4    0    0 -0.70519566405E+03  0.25003558461E+03  0.35610436511E+03  0.83342103671E+03  0.89227727848E+02 0.  0.
         23    2    4    4    0    0 -0.56055393333E+03  0.25036700699E+03 -0.22316653420E+03  0.65991922354E+03  0.93732221016E+02 0.  0.
          5    1    3    3  502    0  0.83220440538E+03 -0.33494902204E+03 -0.50315603514E+03  0.10285636127E+04  0.47000000000E+01 0. -1.
         -5    1    3    3    0  502  0.43354519200E+03 -0.16545356955E+03 -0.33746337336E+03  0.57379433209E+03  0.47000000000E+01 0.  1.
         11    1    5    5    0    0 -0.45882227509E+03  0.19492321945E+03  0.26830252015E+03  0.56612647344E+03  0.00000000000E+00 0. -1.
        -11    1    5    5    0    0 -0.24637338896E+03  0.55112365158E+02  0.87801844956E+02  0.26729456328E+03  0.00000000000E+00 0.  1.
          4    1    6    6  503    0 -0.99714953443E+02  0.38431181407E+02 -0.78049469049E+02  0.13233195859E+03  0.00000000000E+00 0. -1.
         -4    1    6    6    0  503 -0.46083897988E+03  0.21193582558E+03 -0.14511706515E+03  0.52758726496E+03  0.00000000000E+00 0.  1.
<mgrwt>
<rscale>  0 0.13631177E+04</rscale>
<asrwt>0</asrwt>
<pdfrwt beam="1">  1        1 0.18369359E+00 0.13631177E+04</pdfrwt>
<pdfrwt beam="2">  1       -1 0.29256768E+00 0.13631177E+04</pdfrwt>
<totfact> 0.38379941E-01</totfact>
</mgrwt>
</event>
<event>
12    1  0.3147868E-008  0.8342902E+03  0.7818608E-02  0.9511668E-01
          3   -1    0    0  501    0  0.00000000000E+00  0.00000000000E+00  0.83342885171E+03  0.83342885171E+03  0.00000000000E+00 0. -1.
         -3   -1    0    0    0  501 -0.00000000000E+00 -0.00000000000E+00 -0.10742542200E+04  0.10742542200E+04  0.00000000000E+00 0.  1.
         23    2    1    2    0    0 -0.76049386329E+03  0.30188476444E+03  0.11672477759E+03  0.83184807694E+03  0.94134065578E+02 0.  0.
    5000000    2    1    2    0    0  0.76049386329E+03 -0.30188476444E+03 -0.35755014588E+03  0.10758349948E+04  0.60007791330E+03 0.  0.
         23    2    4    4    0    0  0.66999677670E+03 -0.24678634695E+03 -0.30760917019E+02  0.72033334080E+03  0.90192605165E+02 0.  0.
         23    2    4    4    0    0  0.90497086596E+02 -0.55098417488E+02 -0.32678922886E+03  0.35550165396E+03  0.91458556628E+02 0.  0.
          5    1    3    3  502    0 -0.32315463917E+02  0.13987603793E+02  0.25032078647E+02  0.43458454061E+02  0.47000000000E+01 0. -1.
         -5    1    3    3    0  502 -0.72817839938E+03  0.28789716065E+03  0.91692698944E+02  0.78838962288E+03  0.47000000000E+01 0.  1.
         13    1    5    5    0    0  0.58869777964E+03 -0.19424043080E+03 -0.48923350387E+02  0.62184235536E+03  0.00000000000E+00 0.  1.
        -13    1    5    5    0    0  0.81298997062E+02 -0.52545916151E+02  0.18162433367E+02  0.98490985442E+02  0.00000000000E+00 0. -1.
          2    1    6    6  503    0  0.26747810742E+02 -0.63590306076E+02 -0.22276322007E+03  0.23320082466E+03  0.00000000000E+00 0. -1.
         -2    1    6    6    0  503  0.63749275854E+02  0.84918885874E+01 -0.10402600879E+03  0.12230082930E+03  0.00000000000E+00 0.  1.
<mgrwt>
<rscale>  0 0.83429015E+03</rscale>
<asrwt>0</asrwt>
<pdfrwt beam="1">  1        3 0.12821982E+00 0.83429015E+03</pdfrwt>
<pdfrwt beam="2">  1       -3 0.16526988E+00 0.83429015E+03</pdfrwt>
<totfact> 0.30904675E-01</totfact>
</mgrwt>
</event>
<event>
12    1  0.3147868E-008  0.4803003E+03  0.7818608E-02  0.1019053E+00
         -1   -1    0    0    0  501 -0.00000000000E+00  0.00000000000E+00  0.53061238919E+03  0.53061238919E+03  0.00000000000E+00 0.  1.
          1   -1    0    0  501    0  0.00000000000E+00 -0.00000000000E+00 -0.85129339194E+03  0.85129339194E+03  0.00000000000E+00 0. -1.
         23    2    1    2    0    0  0.55465918148E+02  0.45449030253E+03 -0.41054435305E+03  0.62174687064E+03  0.91567473323E+02 0.  0.
    5000000    2    1    2    0    0 -0.55465918148E+02 -0.45449030253E+03  0.89863350299E+02  0.76015891048E+03  0.60010686073E+03 0.  0.
         23    2    4    4    0    0 -0.12076517233E+03 -0.27522337400E+03 -0.22077542662E+03  0.38394549062E+03  0.91324795807E+02 0.  0.
         23    2    4    4    0    0  0.65299254181E+02 -0.17926692853E+03  0.31063877692E+03  0.37621341986E+03  0.92948713250E+02 0.  0.
          5    1    3    3  502    0  0.95100876844E+01  0.10668280425E+02 -0.36544548962E+02  0.39520223099E+02  0.47000000000E+01 0. -1.
         -5    1    3    3    0  502  0.45955830464E+02  0.44382202210E+03 -0.37399980408E+03  0.58222664754E+03  0.47000000000E+01 0.  1.
         13    1    5    5    0    0 -0.22328731028E+01 -0.78061154449E+02 -0.90628668943E+02  0.11963312748E+03  0.00000000000E+00 0. -1.
        -13    1    5    5    0    0 -0.11853229923E+03 -0.19716221955E+03 -0.13014675768E+03  0.26431236315E+03  0.00000000000E+00 0.  1.
          2    1    6    6  503    0  0.10781365869E+02 -0.45147794103E+02  0.16281675769E+03  0.16930403937E+03  0.00000000000E+00 0. -1.
         -2    1    6    6    0  503  0.54517888313E+02 -0.13411913442E+03  0.14782201923E+03  0.20690938049E+03  0.00000000000E+00 0.  1.
<mgrwt>
<rscale>  0 0.48030030E+03</rscale>
<asrwt>0</asrwt>
<pdfrwt beam="1">  1        1 0.13096821E+00 0.48030030E+03</pdfrwt>
<pdfrwt beam="2">  1       -1 0.81632676E-01 0.48030030E+03</pdfrwt>
<totfact> 0.31728411E+01</totfact>
</mgrwt>
</event>
<event>
12    1  0.3147868E-008  0.3187525E+03  0.7818608E-02  0.1076225E+00
         -1   -1    0    0    0  501 -0.00000000000E+00  0.00000000000E+00  0.17212978686E+03  0.17212978686E+03  0.00000000000E+00 0.  1.
          1   -1    0    0  501    0  0.00000000000E+00 -0.00000000000E+00 -0.15549242309E+04  0.15549242309E+04  0.00000000000E+00 0. -1.
         23    2    1    2    0    0 -0.26067023494E+03 -0.56439064338E+02 -0.12563854645E+03  0.30867975351E+03  0.91453849063E+02 0.  0.
    5000000    2    1    2    0    0  0.26067023494E+03  0.56439064338E+02 -0.12571558976E+04  0.14183742642E+04  0.60017519377E+03 0.  0.
         23    2    4    4    0    0  0.19037428725E+03 -0.58999011770E+02 -0.12345958061E+04  0.12539614900E+04  0.92029132555E+02 0.  0.
         23    2    4    4    0    0  0.70295947694E+02  0.11543807611E+03 -0.22560091410E+02  0.16441277419E+03  0.90857761993E+02 0.  0.
          5    1    3    3  502    0 -0.24727618113E+03 -0.48321405247E+02 -0.13879525920E+03  0.28769199144E+03  0.47000000000E+01 0. -1.
         -5    1    3    3    0  502 -0.13394053809E+02 -0.81176590906E+01  0.13156712753E+02  0.20987762078E+02  0.47000000000E+01 0.  1.
         11    1    5    5    0    0  0.14747983386E+03 -0.68114966486E+02 -0.75032763180E+03  0.76771186333E+03  0.00000000000E+00 0. -1.
        -11    1    5    5    0    0  0.42894453389E+02  0.91159547159E+01 -0.48426817435E+03  0.48624962668E+03  0.00000000000E+00 0.  1.
          3    1    6    6  503    0  0.92227596651E+02  0.99980311385E+02 -0.19264492069E+02  0.13737944862E+03  0.00000000000E+00 0. -1.
         -3    1    6    6    0  503 -0.21931648958E+02  0.15457764723E+02 -0.32955993411E+01  0.27033325568E+02  0.00000000000E+00 0.  1.
<mgrwt>
<rscale>  0 0.31875255E+03</rscale>
<asrwt>0</asrwt>
<pdfrwt beam="1">  1        1 0.23921910E+00 0.31875255E+03</pdfrwt>
<pdfrwt beam="2">  1       -1 0.26481507E-01 0.31875255E+03</pdfrwt>
<totfact> 0.83037235E+01</totfact>
</mgrwt>
</event>
<event>
12    1  0.3147868E-008  0.1061039E+04  0.7818608E-02  0.9244020E-01
          2   -1    0    0  501    0  0.00000000000E+00  0.00000000000E+00  0.11395411316E+04  0.11395411316E+04  0.00000000000E+00 0.  1.
         -2   -1    0    0    0  501 -0.00000000000E+00 -0.00000000000E+00 -0.10814268812E+04  0.10814268812E+04  0.00000000000E+00 0. -1.
         23    2    1    2    0    0 -0.10243067025E+03  0.10136204230E+04  0.15525139243E+03  0.10346873975E+04  0.92501954565E+02 0.  0.
    5000000    2    1    2    0    0  0.10243067025E+03 -0.10136204230E+04 -0.97137142017E+02  0.11862806152E+04  0.59992305311E+03 0.  0.
         23    2    4    4    0    0 -0.13949360675E+03 -0.56168083775E+03 -0.25823861181E+03  0.64077216895E+03  0.94646511037E+02 0.  0.
         23    2    4    4    0    0  0.24192427700E+03 -0.45193958522E+03  0.16110146980E+03  0.54550844628E+03  0.94069319672E+02 0.  0.
          5    1    3    3  502    0 -0.58526895795E+02  0.23010424686E+03  0.52714835089E+02  0.24325769421E+03  0.47000000000E+01 0. -1.
         -5    1    3    3    0  502 -0.43903774457E+02  0.78351617610E+03  0.10253655734E+03  0.79142970327E+03  0.47000000000E+01 0.  1.
         13    1    5    5    0    0 -0.55530367907E+01 -0.17596357842E+02 -0.31089266492E+02  0.36152600431E+02  0.00000000000E+00 0.  1.
        -13    1    5    5    0    0 -0.13394056996E+03 -0.54408447991E+03 -0.22714934532E+03  0.60461956852E+03  0.00000000000E+00 0. -1.
          4    1    6    6  503    0  0.53360570856E+02 -0.19616690903E+03  0.57264928491E+02  0.21120624696E+03  0.00000000000E+00 0. -1.
         -4    1    6    6    0  503  0.18856370615E+03 -0.25577267619E+03  0.10383654130E+03  0.33430219932E+03  0.00000000000E+00 0.  1.
<mgrwt>
<rscale>  0 0.10610394E+04</rscale>
<asrwt>0</asrwt>
<pdfrwt beam="1">  1        2 0.17531402E+00 0.10610394E+04</pdfrwt>
<pdfrwt beam="2">  1       -2 0.16637337E+00 0.10610394E+04</pdfrwt>
<totfact> 0.45917646E+00</totfact>
</mgrwt>
</event>
<event>
12    1  0.3147868E-008  0.8145268E+03  0.7818608E-02  0.9539225E-01
         -1   -1    0    0    0  501 -0.00000000000E+00  0.00000000000E+00  0.93973305257E+03  0.93973305257E+03  0.00000000000E+00 0.  1.
          1   -1    0    0  501    0  0.00000000000E+00 -0.00000000000E+00 -0.13082591185E+04  0.13082591185E+04  0.00000000000E+00 0. -1.
         23    2    1    2    0    0  0.22980036194E+03  0.75997606642E+03 -0.82842627412E+03  0.11517308202E+04  0.99105815355E+02 0.  0.
    5000000    2    1    2    0    0 -0.22980036194E+03 -0.75997606642E+03  0.45990020816E+03  0.10962613509E+04  0.59992409534E+03 0.  0.
         23    2    4    4    0    0  0.35168581167E+02 -0.11461919929E+03  0.35321073032E+03  0.38446503439E+03  0.93172703680E+02 0.  0.
         23    2    4    4    0    0 -0.26496894311E+03 -0.64535686713E+03  0.10668947784E+03  0.71179631652E+03  0.92613847620E+02 0.  0.
          5    1    3    3  502    0  0.14870466047E+03  0.43392319962E+03 -0.54319326484E+03  0.71097358051E+03  0.47000000000E+01 0.  1.
         -5    1    3    3    0  502  0.81095701471E+02  0.32605286681E+03 -0.28523300928E+03  0.44075723968E+03  0.47000000000E+01 0. -1.
         13    1    5    5    0    0  0.31828592714E+02 -0.20257703922E+02  0.31390740660E+02  0.49079654456E+02  0.00000000000E+00 0. -1.
        -13    1    5    5    0    0  0.33399884527E+01 -0.94361495368E+02  0.32181998966E+03  0.33538537994E+03  0.00000000000E+00 0.  1.
          3    1    6    6  503    0 -0.10818699926E+03 -0.36787789855E+03  0.34428915984E+02  0.38499860429E+03  0.00000000000E+00 0. -1.
         -3    1    6    6    0  503 -0.15678194385E+03 -0.27747896858E+03  0.72260561856E+02  0.32679771224E+03  0.00000000000E+00 0.  1.
<mgrwt>
<rscale>  0 0.81452682E+03</rscale>
<asrwt>0</asrwt>
<pdfrwt beam="1">  1        1 0.20127063E+00 0.81452682E+03</pdfrwt>
<pdfrwt beam="2">  1       -1 0.14457432E+00 0.81452682E+03</pdfrwt>
<totfact> 0.35409044E+00</totfact>
</mgrwt>
</event>
<event>
12    1  0.3147868E-008  0.1128484E+04  0.7818608E-02  0.9177866E-01
         -2   -1    0    0    0  501 -0.00000000000E+00  0.00000000000E+00  0.83524002650E+03  0.83524002650E+03  0.00000000000E+00 0.  1.
          2   -1    0    0  501    0  0.00000000000E+00 -0.00000000000E+00 -0.15743218190E+04  0.15743218190E+04  0.00000000000E+00 0. -1.
         23    2    1    2    0    0  0.79767710104E+03 -0.69828322387E+03 -0.22608019450E+03  0.10878164624E+04  0.91346501718E+02 0.  0.
    5000000    2    1    2    0    0 -0.79767710104E+03  0.69828322387E+03 -0.51300159798E+03  0.13217453830E+04  0.59995999846E+03 0.  0.
         23    2    4    4    0    0 -0.44706757884E+03  0.50664828359E+02 -0.93755005565E+02  0.46814737082E+03  0.89082068068E+02 0.  0.
         23    2    4    4    0    0 -0.35060952220E+03  0.64761839551E+03 -0.41924659241E+03  0.85359801220E+03  0.10259258225E+03 0.  0.
          5    1    3    3  502    0  0.75065825331E+03 -0.62744319838E+03 -0.19840457869E+03  0.99827814126E+03  0.47000000000E+01 0. -1.
         -5    1    3    3    0  502  0.47018847728E+02 -0.70840025484E+02 -0.27675615801E+02  0.89538321194E+02  0.47000000000E+01 0.  1.
         13    1    5    5    0    0 -0.14097044872E+02  0.53757523306E+01  0.13000794501E+02  0.19915974616E+02  0.00000000000E+00 0. -1.
        -13    1    5    5    0    0 -0.43297053397E+03  0.45289076028E+02 -0.10675580007E+03  0.44823139620E+03  0.00000000000E+00 0.  1.
          4    1    6    6  503    0 -0.31733768990E+03  0.50380479321E+03 -0.32308285214E+03  0.67742527886E+03  0.00000000000E+00 0.  1.
         -4    1    6    6    0  503 -0.33271832295E+02  0.14381360229E+03 -0.96163740274E+02  0.17617273334E+03  0.00000000000E+00 0. -1.
<mgrwt>
<rscale>  0 0.11284836E+04</rscale>
<asrwt>0</asrwt>
<pdfrwt beam="1">  1        2 0.24220335E+00 0.11284836E+04</pdfrwt>
<pdfrwt beam="2">  1       -2 0.12849847E+00 0.11284836E+04</pdfrwt>
<totfact> 0.50565166E+00</totfact>
</mgrwt>
</event>
<event>
12    1  0.3713896E-008  0.8906770E+03  0.7818608E-02  0.9437311E-01
         -2   -1    0    0    0  501 -0.00000000000E+00  0.00000000000E+00  0.51171222131E+03  0.51171222131E+03  0.00000000000E+00 0.  1.
          2   -1    0    0  501    0  0.00000000000E+00 -0.00000000000E+00 -0.15807470130E+04  0.15807470130E+04  0.00000000000E+00 0. -1.
         23    2    1    2    0    0 -0.70504408648E+03 -0.36683963850E+03 -0.53605063253E+03  0.96296397269E+03  0.91054092776E+02 0.  0.
    5000000    2    1    2    0    0  0.70504408648E+03  0.36683963850E+03 -0.53298415912E+03  0.11294952616E+04  0.60002412269E+03 0.  0.
         23    2    4    4    0    0  0.49614461460E+03 -0.63672218521E+02 -0.28883421744E+03  0.58485490999E+03  0.91741106185E+02 0.  0.
         23    2    4    4    0    0  0.20889947188E+03  0.43051185702E+03 -0.24414994168E+03  0.54464035160E+03  0.89690970439E+02 0.  0.
          5    1    3    3  502    0 -0.43361510098E+03 -0.17633973848E+03 -0.30304865607E+03  0.55765431686E+03  0.47000000000E+01 0. -1.
         -5    1    3    3    0  502 -0.27142898550E+03 -0.19049990002E+03 -0.23300197645E+03  0.40530965583E+03  0.47000000000E+01 0.  1.
         13    1    5    5    0    0  0.34814015458E+03 -0.69213392498E+02 -0.24168691598E+03  0.42942359773E+03  0.00000000000E+00 0.  1.
        -13    1    5    5    0    0  0.14800446002E+03  0.55411739770E+01 -0.47147301461E+02  0.15543131226E+03  0.00000000000E+00 0. -1.
          3    1    6    6  503    0  0.70987965292E+02  0.14311478634E+03 -0.35491872276E+02  0.16364842280E+03  0.00000000000E+00 0. -1.
         -3    1    6    6    0  503  0.13791150659E+03  0.28739707068E+03 -0.20865806940E+03  0.38099192880E+03  0.00000000000E+00 0.  1.
<mgrwt>
<rscale>  0 0.89067695E+03</rscale>
<asrwt>0</asrwt>
<pdfrwt beam="1">  1        2 0.24319185E+00 0.89067695E+03</pdfrwt>
<pdfrwt beam="2">  1       -2 0.78724958E-01 0.89067695E+03</pdfrwt>
<totfact> 0.16529639E+01</totfact>
</mgrwt>
</event>
<event>
12    1  0.3147868E-008  0.6607004E+03  0.7818608E-02  0.9786905E-01
         -1   -1    0    0    0  501 -0.00000000000E+00  0.00000000000E+00  0.46588445562E+03  0.46588445562E+03  0.00000000000E+00 0.  1.
          1   -1    0    0  501    0  0.00000000000E+00 -0.00000000000E+00 -0.15732946422E+04  0.15732946422E+04  0.00000000000E+00 0. -1.
         23    2    1    2    0    0  0.85438560025E+02 -0.63429292563E+03 -0.27247708172E+02  0.64764884726E+03  0.95285511540E+02 0.  0.
    5000000    2    1    2    0    0 -0.85438560025E+02  0.63429292563E+03 -0.10801624784E+04  0.13915302505E+04  0.59998182924E+03 0.  0.
         23    2    4    4    0    0  0.31214070706E+02  0.38459053192E+03 -0.16198778371E+03  0.42836516450E+03  0.91501238428E+02 0.  0.
         23    2    4    4    0    0 -0.11665263073E+03  0.24970239371E+03 -0.91817469465E+03  0.96316508602E+03  0.93183106544E+02 0.  0.
          5    1    3    3  502    0  0.87630816458E+02 -0.35352214177E+03  0.98860962836E+01  0.36438563311E+03  0.47000000000E+01 0. -1.
         -5    1    3    3    0  502 -0.21922564325E+01 -0.28077078386E+03 -0.37133804456E+02  0.28326321415E+03  0.47000000000E+01 0.  1.
         11    1    5    5    0    0  0.31863092798E+02  0.22671289689E+03 -0.48746159224E+02  0.23407302779E+03  0.00000000000E+00 0. -1.
        -11    1    5    5    0    0 -0.64902209199E+00  0.15787763503E+03 -0.11324162448E+03  0.19429213671E+03  0.00000000000E+00 0.  1.
          3    1    6    6  503    0 -0.35324759566E+02  0.10487328065E+02 -0.15210396904E+03  0.15650380215E+03  0.00000000000E+00 0. -1.
         -3    1    6    6    0  503 -0.81327871164E+02  0.23921506564E+03 -0.76607072561E+03  0.80666128387E+03  0.00000000000E+00 0.  1.
<mgrwt>
<rscale>  0 0.66070039E+03</rscale>
<asrwt>0</asrwt>
<pdfrwt beam="1">  1        1 0.24204532E+00 0.66070039E+03</pdfrwt>
<pdfrwt beam="2">  1       -1 0.71674533E-01 0.66070039E+03</pdfrwt>
<totfact> 0.12047056E+01</totfact>
</mgrwt>
</event>
<event>
12    1  0.3147868E-008  0.3700529E+03  0.7818608E-02  0.1054673E+00
         -2   -1    0    0    0  501 -0.00000000000E+00  0.00000000000E+00  0.51092290544E+03  0.51092290544E+03  0.00000000000E+00 0.  1.
          2   -1    0    0  501    0  0.00000000000E+00 -0.00000000000E+00 -0.57414868417E+03  0.57414868417E+03  0.00000000000E+00 0. -1.
         23    2    1    2    0    0  0.26831372457E+03 -0.24259886444E+03 -0.92627857710E+02  0.38392321002E+03  0.89278481999E+02 0.  0.
    5000000    2    1    2    0    0 -0.26831372457E+03  0.24259886444E+03  0.29402078972E+02  0.70114837959E+03  0.59991508077E+03 0.  0.
         23    2    4    4    0    0 -0.80135979646E+02  0.63063581463E+02  0.29060812295E+03  0.32150591768E+03  0.92272332990E+02 0.  0.
         23    2    4    4    0    0 -0.18817774492E+03  0.17953528298E+03 -0.26120604398E+03  0.37964246192E+03  0.90862643372E+02 0.  0.
          5    1    3    3  502    0  0.13668642909E+03 -0.66897120854E+02 -0.49871019939E+02  0.16021115225E+03  0.47000000000E+01 0. -1.
         -5    1    3    3    0  502  0.13162729548E+03 -0.17570174359E+03 -0.42756837771E+02  0.22371205777E+03  0.47000000000E+01 0.  1.
         13    1    5    5    0    0 -0.69463369770E+02  0.36131791055E+02  0.92053707409E+02  0.12084929091E+03  0.00000000000E+00 0. -1.
        -13    1    5    5    0    0 -0.10672609876E+02  0.26931790409E+02  0.19855441554E+03  0.20065662677E+03  0.00000000000E+00 0.  1.
          2    1    6    6  503    0 -0.12534133606E+03  0.13338160445E+03 -0.12161054887E+03  0.21975037776E+03  0.00000000000E+00 0.  1.
         -2    1    6    6    0  503 -0.62836408865E+02  0.46153678531E+02 -0.13959549511E+03  0.15989208415E+03  0.00000000000E+00 0. -1.
<mgrwt>
<rscale>  0 0.37005289E+03</rscale>
<asrwt>0</asrwt>
<pdfrwt beam="1">  1        2 0.88330568E-01 0.37005289E+03</pdfrwt>
<pdfrwt beam="2">  1       -2 0.78603523E-01 0.37005289E+03</pdfrwt>
<totfact> 0.78570790E+01</totfact>
</mgrwt>
</event>
<event>
12    1  0.3147868E-008  0.4609505E+03  0.7818608E-02  0.1024506E+00
          3   -1    0    0  501    0  0.00000000000E+00  0.00000000000E+00  0.95609214961E+03  0.95609214961E+03  0.00000000000E+00 0. -1.
         -3   -1    0    0    0  501 -0.00000000000E+00 -0.00000000000E+00 -0.36199209496E+03  0.36199209496E+03  0.00000000000E+00 0.  1.
         23    2    1    2    0    0  0.33668717213E+03 -0.17390904320E+03  0.44815962396E+03  0.59398530195E+03  0.91481600290E+02 0.  0.
    5000000    2    1    2    0    0 -0.33668717213E+03  0.17390904320E+03  0.14594043069E+03  0.72409894263E+03  0.59951485571E+03 0.  0.
         23    2    4    4    0    0 -0.11368695506E+03 -0.10727769928E+03  0.27673761041E+03  0.33083605617E+03  0.91845318535E+02 0.  0.
         23    2    4    4    0    0 -0.22300021708E+03  0.28118674249E+03 -0.13079717971E+03  0.39326288645E+03  0.93555944090E+02 0.  0.
          5    1    3    3  502    0  0.76644940321E+02 -0.64354062774E+02  0.17246928890E+03  0.19945836128E+03  0.47000000000E+01 0. -1.
         -5    1    3    3    0  502  0.26004223181E+03 -0.10955498043E+03  0.27569033507E+03  0.39452694067E+03  0.47000000000E+01 0.  1.
         13    1    5    5    0    0 -0.11417640594E+03 -0.58791049541E+02  0.23035631102E+03  0.26373598390E+03  0.00000000000E+00 0. -1.
        -13    1    5    5    0    0  0.48945088676E+00 -0.48486649743E+02  0.46381299389E+02  0.67100072269E+02  0.00000000000E+00 0.  1.
          4    1    6    6  503    0 -0.19886387985E+03  0.21869871761E+03 -0.72249668137E+02  0.30429588617E+03  0.00000000000E+00 0. -1.
         -4    1    6    6    0  503 -0.24136337224E+02  0.62488024880E+02 -0.58547511578E+02  0.88967000287E+02  0.00000000000E+00 0.  1.
<mgrwt>
<rscale>  0 0.46095053E+03</rscale>
<asrwt>0</asrwt>
<pdfrwt beam="1">  1        3 0.14709110E+00 0.46095053E+03</pdfrwt>
<pdfrwt beam="2">  1       -3 0.55691092E-01 0.46095053E+03</pdfrwt>
<totfact> 0.28381388E+00</totfact>
</mgrwt>
</event>
<event>
12    1  0.3147868E-008  0.6927697E+03  0.7818608E-02  0.9729677E-01
         -2   -1    0    0    0  501 -0.00000000000E+00  0.00000000000E+00  0.90930008716E+03  0.90930008716E+03  0.00000000000E+00 0.  1.
          2   -1    0    0  501    0  0.00000000000E+00 -0.00000000000E+00 -0.57335848364E+03  0.57335848364E+03  0.00000000000E+00 0. -1.
         23    2    1    2    0    0 -0.52610117682E+03  0.22992115240E+03  0.29268125107E+03  0.65110303963E+03  0.92879862822E+02 0.  0.
    5000000    2    1    2    0    0  0.52610117682E+03 -0.22992115240E+03  0.43260352447E+02  0.83155553117E+03  0.59997246500E+03 0.  0.
         23    2    4    4    0    0 -0.53836597988E+01 -0.25244546793E+03 -0.73316002932E+02  0.27935241831E+03  0.94365455874E+02 0.  0.
         23    2    4    4    0    0  0.53148483662E+03  0.22524315523E+02  0.11657635538E+03  0.55220311286E+03  0.91404348212E+02 0.  0.
          5    1    3    3  502    0 -0.20213144410E+03  0.13584662087E+03  0.10766444791E+03  0.26631775840E+03  0.47000000000E+01 0. -1.
         -5    1    3    3    0  502 -0.32396973272E+03  0.94074531532E+02  0.18501680316E+03  0.38478528123E+03  0.47000000000E+01 0.  1.
         11    1    5    5    0    0 -0.42712536995E+02 -0.15809153358E+03 -0.20732355226E+02  0.16506702989E+03  0.00000000000E+00 0. -1.
        -11    1    5    5    0    0  0.37328877196E+02 -0.94353934350E+02 -0.52583647705E+02  0.11428538842E+03  0.00000000000E+00 0.  1.
          3    1    6    6  503    0  0.31026612978E+03 -0.30783238328E+02  0.56657590765E+02  0.31689550587E+03  0.00000000000E+00 0. -1.
         -3    1    6    6    0  503  0.22121870684E+03  0.53307553851E+02  0.59918764614E+02  0.23530760699E+03  0.00000000000E+00 0.  1.
<mgrwt>
<rscale>  0 0.69276975E+03</rscale>
<asrwt>0</asrwt>
<pdfrwt beam="1">  1        2 0.88208998E-01 0.69276975E+03</pdfrwt>
<pdfrwt beam="2">  1       -2 0.13989232E+00 0.69276975E+03</pdfrwt>
<totfact> 0.19211855E+01</totfact>
</mgrwt>
</event>
<event>
12    1  0.3147868E-008  0.5487603E+03  0.7818608E-02  0.1001781E+00
         -1   -1    0    0    0  501 -0.00000000000E+00  0.00000000000E+00  0.95531177808E+03  0.95531177808E+03  0.00000000000E+00 0.  1.
          1   -1    0    0  501    0  0.00000000000E+00 -0.00000000000E+00 -0.39594018485E+03  0.39594018485E+03  0.00000000000E+00 0. -1.
         23    2    1    2    0    0  0.90682446433E+02  0.42604186339E+03  0.38787336006E+03  0.59022986834E+03  0.90501815332E+02 0.  0.
    5000000    2    1    2    0    0 -0.90682446433E+02 -0.42604186339E+03  0.17149823316E+03  0.76102209460E+03  0.60000667416E+03 0.  0.
         23    2    4    4    0    0 -0.21552419855E+03 -0.11451743914E+02 -0.85593330994E+02  0.24944256738E+03  0.91178690015E+02 0.  0.
         23    2    4    4    0    0  0.12484175211E+03 -0.41459011948E+03  0.25709156416E+03  0.51157952722E+03  0.90261343163E+02 0.  0.
          5    1    3    3  502    0  0.91435878441E+02  0.29094685675E+03  0.22765901091E+03  0.38060650096E+03  0.47000000000E+01 0. -1.
         -5    1    3    3    0  502 -0.75343200848E+00  0.13509500664E+03  0.16021434915E+03  0.20962336738E+03  0.47000000000E+01 0.  1.
         13    1    5    5    0    0 -0.11450120029E+03 -0.11283228695E+02  0.29719910947E+01  0.11509417382E+03  0.00000000000E+00 0.  1.
        -13    1    5    5    0    0 -0.10102299826E+03 -0.16851521963E+00 -0.88565322088E+02  0.13434839356E+03  0.00000000000E+00 0. -1.
          3    1    6    6  503    0  0.82186806401E+02 -0.13225657219E+03  0.10763191899E+03  0.18929105108E+03  0.00000000000E+00 0. -1.
         -3    1    6    6    0  503  0.42654945712E+02 -0.28233354729E+03  0.14945964517E+03  0.32228847614E+03  0.00000000000E+00 0.  1.
<mgrwt>
<rscale>  0 0.54876034E+03</rscale>
<asrwt>0</asrwt>
<pdfrwt beam="1">  1        1 0.60913875E-01 0.54876034E+03</pdfrwt>
<pdfrwt beam="2">  1       -1 0.14697104E+00 0.54876034E+03</pdfrwt>
<totfact> 0.23523782E+01</totfact>
</mgrwt>
</event>
<event>
12    1  0.3147868E-008  0.5702584E+03  0.7818608E-02  0.9969107E-01
          1   -1    0    0  501    0  0.00000000000E+00  0.00000000000E+00  0.78658869758E+03  0.78658869758E+03  0.00000000000E+00 0. -1.
         -1   -1    0    0    0  501 -0.00000000000E+00 -0.00000000000E+00 -0.64057679862E+03  0.64057679862E+03  0.00000000000E+00 0.  1.
         23    2    1    2    0    0  0.22357053607E+03 -0.44423327390E+03 -0.23751086175E+03  0.55852841379E+03  0.90639910188E+02 0.  0.
    5000000    2    1    2    0    0 -0.22357053607E+03  0.44423327390E+03  0.38352276071E+03  0.86863708241E+03  0.60009473145E+03 0.  0.
         23    2    4    4    0    0  0.94325493895E+02  0.87537062314E+02  0.34690871480E+03  0.38112307683E+03  0.91373449164E+02 0.  0.
         23    2    4    4    0    0 -0.31789602997E+03  0.35669621159E+03  0.36614045912E+02  0.48751400558E+03  0.89661831627E+02 0.  0.
          5    1    3    3  502    0  0.20982688111E+03 -0.35617672356E+03 -0.17175130256E+03  0.44767150721E+03  0.47000000000E+01 0. -1.
         -5    1    3    3    0  502  0.13743654963E+02 -0.88056550340E+02 -0.65759559194E+02  0.11085690657E+03  0.47000000000E+01 0.  1.
         13    1    5    5    0    0  0.92080516950E+02  0.10384687629E+03  0.32735174977E+03  0.35555894504E+03  0.00000000000E+00 0.  1.
        -13    1    5    5    0    0  0.22449769450E+01 -0.16309813973E+02  0.19556965026E+02  0.25564131793E+02  0.00000000000E+00 0. -1.
          3    1    6    6  503    0 -0.16341451349E+03  0.13273829421E+03 -0.13103141954E+02  0.21093944699E+03  0.00000000000E+00 0. -1.
         -3    1    6    6    0  503 -0.15448151648E+03  0.22395791738E+03  0.49717187865E+02  0.27657455859E+03  0.00000000000E+00 0.  1.
<mgrwt>
<rscale>  0 0.57025839E+03</rscale>
<asrwt>0</asrwt>
<pdfrwt beam="1">  1        1 0.12101365E+00 0.57025839E+03</pdfrwt>
<pdfrwt beam="2">  1       -1 0.98550277E-01 0.57025839E+03</pdfrwt>
<totfact> 0.23520702E+01</totfact>
</mgrwt>
</event>
<event>
12    1  0.3147868E-008  0.1364601E+04  0.7818608E-02  0.8979848E-01
         -1   -1    0    0    0  501 -0.00000000000E+00  0.00000000000E+00  0.52378112494E+03  0.52378112494E+03  0.00000000000E+00 0.  1.
          1   -1    0    0  501    0  0.00000000000E+00 -0.00000000000E+00 -0.39352536833E+04  0.39352536833E+04  0.00000000000E+00 0. -1.
         23    2    1    2    0    0  0.11622173234E+04  0.60369398001E+03 -0.99992164122E+03  0.16499820269E+04  0.86034134172E+02 0.  0.
    5000000    2    1    2    0    0 -0.11622173234E+04 -0.60369398001E+03 -0.24115509172E+04  0.28090527813E+04  0.60000347828E+03 0.  0.
         23    2    4    4    0    0 -0.10839612685E+04 -0.69619328656E+03 -0.21526698455E+04  0.25103395484E+04  0.90333052601E+02 0.  0.
         23    2    4    4    0    0 -0.78256054886E+02  0.92499306556E+02 -0.25888107163E+03  0.29871323295E+03  0.86775886373E+02 0.  0.
          5    1    3    3  502    0  0.64131793615E+03  0.28862788171E+03 -0.55620706396E+03  0.89665106777E+03  0.47000000000E+01 0. -1.
         -5    1    3    3    0  502  0.52089938726E+03  0.31506609829E+03 -0.44371457726E+03  0.75333095915E+03  0.47000000000E+01 0.  1.
         13    1    5    5    0    0 -0.36484532415E+03 -0.19070810329E+03 -0.72714685098E+03  0.83559812954E+03  0.00000000000E+00 0. -1.
        -13    1    5    5    0    0 -0.71911594438E+03 -0.50548518327E+03 -0.14255229946E+04  0.16747414189E+04  0.00000000000E+00 0.  1.
          1    1    6    6  503    0 -0.46057523115E+02  0.79167328846E+02 -0.24435743121E+03  0.26095845565E+03  0.00000000000E+00 0. -1.
         -1    1    6    6    0  503 -0.32198531771E+02  0.13331977710E+02 -0.14523640420E+02  0.37754777299E+02  0.00000000000E+00 0.  1.
<mgrwt>
<rscale>  0 0.13646010E+04</rscale>
<asrwt>0</asrwt>
<pdfrwt beam="1">  1        1 0.60542365E+00 0.13646010E+04</pdfrwt>
<pdfrwt beam="2">  1       -1 0.80581711E-01 0.13646010E+04</pdfrwt>
<totfact> 0.16620936E-01</totfact>
</mgrwt>
</event>
<event>
12    1  0.3147868E-008  0.6121600E+03  0.7818608E-02  0.9880494E-01
          2   -1    0    0  501    0  0.00000000000E+00  0.00000000000E+00  0.28679918821E+03  0.28679918821E+03  0.00000000000E+00 0. -1.
         -2   -1    0    0    0  501 -0.00000000000E+00 -0.00000000000E+00 -0.14296173712E+04  0.14296173712E+04  0.00000000000E+00 0.  1.
         23    2    1    2    0    0 -0.20389141026E+03 -0.44995121193E+03 -0.44978692132E+03  0.67509359583E+03  0.97032408224E+02 0.  0.
    5000000    2    1    2    0    0  0.20389141026E+03  0.44995121193E+03 -0.69303126167E+03  0.10413229636E+04  0.60002781980E+03 0.  0.
         23    2    4    4    0    0 -0.35999598729E+02  0.46283569880E+03 -0.60794164437E+03  0.77090798101E+03  0.95881265295E+02 0.  0.
         23    2    4    4    0    0  0.23989100898E+03 -0.12884486864E+02 -0.85089617301E+02  0.27041498257E+03  0.90389787227E+02 0.  0.
          5    1    3    3  502    0 -0.11300224745E+03 -0.34811152214E+03 -0.31000546774E+03  0.47966302735E+03  0.47000000000E+01 0. -1.
         -5    1    3    3    0  502 -0.90889162809E+02 -0.10183968979E+03 -0.13978145357E+03  0.19543056848E+03  0.47000000000E+01 0.  1.
         13    1    5    5    0    0 -0.52047324813E+02  0.12786252275E+03 -0.15962975479E+03  0.21104361482E+03  0.00000000000E+00 0.  1.
        -13    1    5    5    0    0  0.16047726084E+02  0.33497317605E+03 -0.44831188959E+03  0.55986436619E+03  0.00000000000E+00 0. -1.
          1    1    6    6  503    0  0.24180001301E+03 -0.67610112457E+01 -0.93931186997E+02  0.25949186009E+03  0.00000000000E+00 0. -1.
         -1    1    6    6    0  503 -0.19090040257E+01 -0.61234756185E+01  0.88415696957E+01  0.10923122480E+02  0.00000000000E+00 0.  1.
<mgrwt>
<rscale>  0 0.61215997E+03</rscale>
<asrwt>0</asrwt>
<pdfrwt beam="1">  1        2 0.44122951E-01 0.61215997E+03</pdfrwt>
<pdfrwt beam="2">  1       -2 0.21994114E+00 0.61215997E+03</pdfrwt>
<totfact> 0.11831976E+01</totfact>
</mgrwt>
</event>
<event>
12    1  0.3147868E-008  0.9350566E+03  0.7818608E-02  0.9382790E-01
         -2   -1    0    0    0  501 -0.00000000000E+00  0.00000000000E+00  0.10712547456E+04  0.10712547456E+04  0.00000000000E+00 0. -1.
          2   -1    0    0  501    0  0.00000000000E+00 -0.00000000000E+00 -0.85593625941E+03  0.85593625941E+03  0.00000000000E+00 0.  1.
         23    2    1    2    0    0  0.68467843377E+03 -0.51686937936E+03  0.17044019738E+03  0.87937370295E+03  0.91157750960E+02 0.  0.
    5000000    2    1    2    0    0 -0.68467843377E+03  0.51686937936E+03  0.44878288768E+02  0.10478173020E+04  0.59997376996E+03 0.  0.
         23    2    4    4    0    0 -0.23320755302E+03  0.50326039914E+03  0.13470475118E+03  0.57811171206E+03  0.91711446957E+02 0.  0.
         23    2    4    4    0    0 -0.45147088075E+03  0.13608980215E+02 -0.89826462410E+02  0.46970558996E+03  0.92430446214E+02 0.  0.
          5    1    3    3  502    0  0.49768934274E+03 -0.36785602024E+03  0.16347364983E+03  0.64012378310E+03  0.47000000000E+01 0. -1.
         -5    1    3    3    0  502  0.18698909103E+03 -0.14901335912E+03  0.69665475478E+01  0.23924991985E+03  0.47000000000E+01 0.  1.
         11    1    5    5    0    0 -0.14741750710E+03  0.35174556858E+03  0.50547414031E+02  0.38472315693E+03  0.00000000000E+00 0.  1.
        -11    1    5    5    0    0 -0.85790045920E+02  0.15151483056E+03  0.84157337147E+02  0.19338855513E+03  0.00000000000E+00 0. -1.
          3    1    6    6  503    0 -0.53990181910E+02 -0.20201122072E+02  0.99565665784E+01  0.58499216180E+02  0.00000000000E+00 0. -1.
         -3    1    6    6    0  503 -0.39748069884E+03  0.33810102287E+02 -0.99783028989E+02  0.41120637378E+03  0.00000000000E+00 0.  1.
<mgrwt>
<rscale>  0 0.93505661E+03</rscale>
<asrwt>0</asrwt>
<pdfrwt beam="1">  1        2 0.13168250E+00 0.93505661E+03</pdfrwt>
<pdfrwt beam="2">  1       -2 0.16480842E+00 0.93505661E+03</pdfrwt>
<totfact> 0.72845561E+00</totfact>
</mgrwt>
</event>
<event>
12    1  0.3147868E-008  0.6269419E+03  0.7818608E-02  0.9851035E-01
         -2   -1    0    0    0  501 -0.00000000000E+00  0.00000000000E+00  0.40989349823E+03  0.40989349823E+03  0.00000000000E+00 0.  1.
          2   -1    0    0  501    0  0.00000000000E+00 -0.00000000000E+00 -0.14703541549E+04  0.14703541549E+04  0.00000000000E+00 0. -1.
         23    2    1    2    0    0  0.53682296232E+03  0.21005877928E+03 -0.83349244411E+03  0.10179140222E+04  0.95580952846E+02 0.  0.
    5000000    2    1    2    0    0 -0.53682296232E+03 -0.21005877928E+03 -0.22696821257E+03  0.86233363095E+03  0.59983425871E+03 0.  0.
         23    2    4    4    0    0 -0.30814074664E+03  0.61119885429E+02 -0.34665411101E+03  0.47648349091E+03  0.90449346566E+02 0.  0.
         23    2    4    4    0    0 -0.22868221568E+03 -0.27117866471E+03  0.11968589844E+03  0.38585014004E+03  0.93392678098E+02 0.  0.
          5    1    3    3  502    0  0.56196649508E+02  0.10449599560E+02 -0.13640925507E+03  0.14797578321E+03  0.47000000000E+01 0. -1.
         -5    1    3    3    0  502  0.48062631281E+03  0.19960917972E+03 -0.69708318905E+03  0.86993823898E+03  0.47000000000E+01 0.  1.
         13    1    5    5    0    0 -0.15670174086E+03  0.26230931562E+02 -0.24064680815E+03  0.28836501804E+03  0.00000000000E+00 0.  1.
        -13    1    5    5    0    0 -0.15143900578E+03  0.34888953866E+02 -0.10600730286E+03  0.18811847286E+03  0.00000000000E+00 0. -1.
          1    1    6    6  503    0 -0.50474394732E+02 -0.11199166969E+03  0.71346434385E+02  0.14205672213E+03  0.00000000000E+00 0. -1.
         -1    1    6    6    0  503 -0.17820782095E+03 -0.15918699502E+03  0.48339464055E+02  0.24379341791E+03  0.00000000000E+00 0.  1.
<mgrwt>
<rscale>  0 0.62694186E+03</rscale>
<asrwt>0</asrwt>
<pdfrwt beam="1">  1        2 0.22620833E+00 0.62694186E+03</pdfrwt>
<pdfrwt beam="2">  1       -2 0.63060538E-01 0.62694186E+03</pdfrwt>
<totfact> 0.31916756E+01</totfact>
</mgrwt>
</event>
<event>
12    1  0.3147868E-008  0.1001088E+04  0.7818608E-02  0.9307353E-01
         -1   -1    0    0    0  501 -0.00000000000E+00  0.00000000000E+00  0.35870107498E+03  0.35870107498E+03  0.00000000000E+00 0.  1.
          1   -1    0    0  501    0  0.00000000000E+00 -0.00000000000E+00 -0.32399929944E+04  0.32399929944E+04  0.00000000000E+00 0. -1.
         23    2    1    2    0    0  0.79149920300E+02  0.93218959741E+03 -0.18837299735E+04  0.21052947902E+04  0.92657352272E+02 0.  0.
    5000000    2    1    2    0    0 -0.79149920300E+02 -0.93218959741E+03 -0.99756194591E+03  0.14933992792E+04  0.59989117002E+03 0.  0.
         23    2    4    4    0    0 -0.27704818067E+03 -0.62207896221E+03 -0.42973378751E+03  0.81058679070E+03  0.92961752884E+02 0.  0.
         23    2    4    4    0    0  0.19789826037E+03 -0.31011063520E+03 -0.56782815840E+03  0.68281248853E+03  0.92042107186E+02 0.  0.
          5    1    3    3  502    0  0.20876101031E+02  0.52532492097E+03 -0.11440757259E+04  0.12591002505E+04  0.47000000000E+01 0. -1.
         -5    1    3    3    0  502  0.58273819269E+02  0.40686467644E+03 -0.73965424764E+03  0.84619453968E+03  0.47000000000E+01 0.  1.
         11    1    5    5    0    0 -0.14513668837E+03 -0.42468186355E+03 -0.25918009163E+03  0.51826022753E+03  0.00000000000E+00 0.  1.
        -11    1    5    5    0    0 -0.13191149230E+03 -0.19739709866E+03 -0.17055369588E+03  0.29232656317E+03  0.00000000000E+00 0. -1.
          3    1    6    6  503    0  0.18433829227E+03 -0.21552241220E+03 -0.41953758668E+03  0.50640132582E+03  0.00000000000E+00 0. -1.
         -3    1    6    6    0  503  0.13559968093E+02 -0.94588222998E+02 -0.14829057173E+03  0.17641116271E+03  0.00000000000E+00 0.  1.
<mgrwt>
<rscale>  0 0.10010878E+04</rscale>
<asrwt>0</asrwt>
<pdfrwt beam="1">  1        1 0.49846048E+00 0.10010878E+04</pdfrwt>
<pdfrwt beam="2">  1       -1 0.55184779E-01 0.10010878E+04</pdfrwt>
<totfact> 0.13600692E+00</totfact>
</mgrwt>
</event>
<event>
12    1  0.3147868E-008  0.7405080E+03  0.7818608E-02  0.9650361E-01
         -2   -1    0    0    0  501 -0.00000000000E+00  0.00000000000E+00  0.35946090577E+03  0.35946090577E+03  0.00000000000E+00 0.  1.
          2   -1    0    0  501    0  0.00000000000E+00 -0.00000000000E+00 -0.15690688466E+04  0.15690688466E+04  0.00000000000E+00 0. -1.
         23    2    1    2    0    0 -0.60888155556E+03 -0.15190577099E+03 -0.52893546543E+03  0.82526873604E+03  0.86508081281E+02 0.  0.
    5000000    2    1    2    0    0  0.60888155556E+03  0.15190577099E+03 -0.68067247544E+03  0.11032610164E+04  0.60004811428E+03 0.  0.
         23    2    4    4    0    0  0.21442552402E+03  0.34765528173E+03 -0.32164336276E+03  0.52776794050E+03  0.90785714409E+02 0.  0.
         23    2    4    4    0    0  0.39445603155E+03 -0.19574951074E+03 -0.35902911268E+03  0.57549307587E+03  0.91525651315E+02 0.  0.
          5    1    3    3  502    0 -0.37253460097E+03 -0.56489965339E+02 -0.34514817945E+03  0.51100146857E+03  0.47000000000E+01 0. -1.
         -5    1    3    3    0  502 -0.23634695459E+03 -0.95415805648E+02 -0.18378728598E+03  0.31426726747E+03  0.47000000000E+01 0.  1.
         11    1    5    5    0    0  0.71170778553E+01  0.70476693788E+01 -0.35759556967E+02  0.37135809609E+02  0.00000000000E+00 0.  1.
        -11    1    5    5    0    0  0.20730844616E+03  0.34060761235E+03 -0.28588380580E+03  0.49063213089E+03  0.00000000000E+00 0. -1.
          2    1    6    6  503    0  0.80621079405E+02 -0.45431814404E+02 -0.12744401801E+03  0.15749852676E+03  0.00000000000E+00 0.  1.
         -2    1    6    6    0  503  0.31383495214E+03 -0.15031769634E+03 -0.23158509467E+03  0.41799454912E+03  0.00000000000E+00 0. -1.
<mgrwt>
<rscale>  0 0.74050797E+03</rscale>
<asrwt>0</asrwt>
<pdfrwt beam="1">  1        2 0.24139520E+00 0.74050797E+03</pdfrwt>
<pdfrwt beam="2">  1       -2 0.55301680E-01 0.74050797E+03</pdfrwt>
<totfact> 0.36566099E+01</totfact>
</mgrwt>
</event>
<event>
12    1  0.3147868E-008  0.4933035E+03  0.7818608E-02  0.1015542E+00
         -1   -1    0    0    0  501 -0.00000000000E+00  0.00000000000E+00  0.18292407342E+03  0.18292407342E+03  0.00000000000E+00 0.  1.
          1   -1    0    0  501    0  0.00000000000E+00 -0.00000000000E+00 -0.21749637481E+04  0.21749637481E+04  0.00000000000E+00 0. -1.
         23    2    1    2    0    0  0.30598879174E+03 -0.10781568197E+03 -0.14446827662E+04  0.14833663012E+04  0.89520536452E+02 0.  0.
    5000000    2    1    2    0    0 -0.30598879174E+03  0.10781568197E+03 -0.54735690848E+03  0.87452152039E+03  0.59994578289E+03 0.  0.
         23    2    4    4    0    0 -0.36908683834E+03  0.27890865082E+03 -0.33827428006E+03  0.58003910971E+03  0.89446914419E+02 0.  0.
         23    2    4    4    0    0  0.63098046595E+02 -0.17109296885E+03 -0.20908262842E+03  0.29448241068E+03  0.98742985676E+02 0.  0.
          5    1    3    3  502    0  0.25243643335E+03 -0.89457990405E+02 -0.10071493483E+04  0.10421606329E+04  0.47000000000E+01 0. -1.
         -5    1    3    3    0  502  0.53552358389E+02 -0.18357691566E+02 -0.43753341793E+03  0.44120566830E+03  0.47000000000E+01 0.  1.
         11    1    5    5    0    0 -0.31515654334E+03  0.26983163134E+03 -0.31342659683E+03  0.51997017961E+03  0.00000000000E+00 0. -1.
        -11    1    5    5    0    0 -0.53930294993E+02  0.90770194864E+01 -0.24847683225E+02  0.60068930092E+02  0.00000000000E+00 0.  1.
          3    1    6    6  503    0 -0.42819945999E+01 -0.74320477015E+02 -0.13799048730E+03  0.15679044412E+03  0.00000000000E+00 0. -1.
         -3    1    6    6    0  503  0.67380041195E+02 -0.96772491838E+02 -0.71092141122E+02  0.13769196657E+03  0.00000000000E+00 0.  1.
<mgrwt>
<rscale>  0 0.49330353E+03</rscale>
<asrwt>0</asrwt>
<pdfrwt beam="1">  1        1 0.33460984E+00 0.49330353E+03</pdfrwt>
<pdfrwt beam="2">  1       -1 0.28142163E-01 0.49330353E+03</pdfrwt>
<totfact> 0.28084411E+01</totfact>
</mgrwt>
</event>
<event>
12    1  0.3147868E-008  0.5167793E+03  0.7818608E-02  0.1009490E+00
         -2   -1    0    0    0  501 -0.00000000000E+00  0.00000000000E+00  0.11843866004E+03  0.11843866004E+03  0.00000000000E+00 0. -1.
          2   -1    0    0  501    0  0.00000000000E+00 -0.00000000000E+00 -0.27701731214E+04  0.27701731214E+04  0.00000000000E+00 0.  1.
         23    2    1    2    0    0 -0.38506706336E+03  0.75906390195E+02 -0.67800435377E+03  0.78863810214E+03  0.90673750690E+02 0.  0.
    5000000    2    1    2    0    0  0.38506706336E+03 -0.75906390195E+02 -0.19737301076E+04  0.20999736793E+04  0.60020037721E+03 0.  0.
         23    2    4    4    0    0  0.13369239740E+03 -0.27737662468E+03 -0.13927438317E+04  0.14295547933E+04  0.95289439276E+02 0.  0.
         23    2    4    4    0    0  0.25137466596E+03  0.20147023448E+03 -0.58098627588E+03  0.67041888600E+03  0.90205054639E+02 0.  0.
          5    1    3    3  502    0 -0.14194680283E+03 -0.14832440000E+02 -0.25917385538E+03  0.29590889379E+03  0.47000000000E+01 0. -1.
         -5    1    3    3    0  502 -0.24312026053E+03  0.90738830195E+02 -0.41883049839E+03  0.49272920835E+03  0.47000000000E+01 0.  1.
         13    1    5    5    0    0  0.10476282738E+02 -0.38781605990E+02 -0.36892050622E+03  0.37110120638E+03  0.00000000000E+00 0. -1.
        -13    1    5    5    0    0  0.12321611466E+03 -0.23859501869E+03 -0.10238233255E+04  0.10584535869E+04  0.00000000000E+00 0.  1.
          3    1    6    6  503    0  0.12865149897E+03  0.93281956933E+02 -0.37562647401E+03  0.40785779342E+03  0.00000000000E+00 0. -1.
         -3    1    6    6    0  503  0.12272316699E+03  0.10818827755E+03 -0.20535980187E+03  0.26256109258E+03  0.00000000000E+00 0.  1.
<mgrwt>
<rscale>  0 0.51677933E+03</rscale>
<asrwt>0</asrwt>
<pdfrwt beam="1">  1        2 0.42618044E+00 0.51677933E+03</pdfrwt>
<pdfrwt beam="2">  1       -2 0.18221334E-01 0.51677933E+03</pdfrwt>
<totfact> 0.65820801E+01</totfact>
</mgrwt>
</event>
<event>
12    1  0.3147868E-008  0.9620653E+03  0.7818608E-02  0.9351158E-01
          2   -1    0    0  501    0  0.00000000000E+00  0.00000000000E+00  0.97984647862E+03  0.97984647862E+03  0.00000000000E+00 0. -1.
         -2   -1    0    0    0  501 -0.00000000000E+00 -0.00000000000E+00 -0.10606983533E+04  0.10606983533E+04  0.00000000000E+00 0.  1.
         23    2    1    2    0    0  0.86970599104E+03 -0.26343006202E+03  0.15454485470E+03  0.92647166290E+03  0.93175756513E+02 0.  0.
    5000000    2    1    2    0    0 -0.86970599104E+03  0.26343006202E+03 -0.23539672941E+03  0.11140731691E+04  0.59996958037E+03 0.  0.
         23    2    4    4    0    0 -0.43510711011E+03 -0.83444904336E+02  0.91522327061E+02  0.46213969267E+03  0.94421977628E+02 0.  0.
         23    2    4    4    0    0 -0.43459888093E+03  0.34687496636E+03 -0.32691905648E+03  0.65193347639E+03  0.94566159707E+02 0.  0.
          5    1    3    3  502    0  0.48481567615E+03 -0.12092997610E+03  0.45353638194E+02  0.50174629193E+03  0.47000000000E+01 0. -1.
         -5    1    3    3    0  502  0.38489031489E+03 -0.14250008592E+03  0.10919121651E+03  0.42472537097E+03  0.47000000000E+01 0.  1.
         13    1    5    5    0    0 -0.43913822237E+03 -0.77708251590E+02  0.89647254343E+02  0.45488194174E+03  0.00000000000E+00 0.  1.
        -13    1    5    5    0    0  0.40311122601E+01 -0.57366527464E+01  0.18750727173E+01  0.72577509245E+01  0.00000000000E+00 0. -1.
          4    1    6    6  503    0 -0.10083383989E+03  0.42920646642E+02 -0.91735099723E+02  0.14291596725E+03  0.00000000000E+00 0. -1.
         -4    1    6    6    0  503 -0.33376504104E+03  0.30395431972E+03 -0.23518395675E+03  0.50901750914E+03  0.00000000000E+00 0.  1.
<mgrwt>
<rscale>  0 0.96206532E+03</rscale>
<asrwt>0</asrwt>
<pdfrwt beam="1">  1        2 0.15074561E+00 0.96206532E+03</pdfrwt>
<pdfrwt beam="2">  1       -2 0.16318436E+00 0.96206532E+03</pdfrwt>
<totfact> 0.61633787E+00</totfact>
</mgrwt>
</event>
<event>
12    1  0.3176256E-008  0.7209666E+03  0.7818608E-02  0.9682033E-01
         -2   -1    0    0    0  501 -0.00000000000E+00  0.00000000000E+00  0.50026233681E+03  0.50026233681E+03  0.00000000000E+00 0.  1.
          2   -1    0    0  501    0  0.00000000000E+00 -0.00000000000E+00 -0.11764878187E+04  0.11764878187E+04  0.00000000000E+00 0. -1.
         23    2    1    2    0    0  0.51887067432E+03 -0.31938580473E+03 -0.53877331915E+02  0.61912856909E+03  0.95829793065E+02 0.  0.
    5000000    2    1    2    0    0 -0.51887067432E+03  0.31938580473E+03 -0.62234815002E+03  0.10576215865E+04  0.60001010939E+03 0.  0.
         23    2    4    4    0    0 -0.58318981715E+03  0.87271497739E+02 -0.45968892943E+03  0.75329760859E+03  0.91742564347E+02 0.  0.
         23    2    4    4    0    0  0.64319142832E+02  0.23211430699E+03 -0.16265922059E+03  0.30432397787E+03  0.90227810659E+02 0.  0.
          5    1    3    3  502    0  0.35721015624E+03 -0.24154063289E+03  0.16827312844E+01  0.43123763129E+03  0.47000000000E+01 0.  1.
         -5    1    3    3    0  502  0.16166051808E+03 -0.77845171845E+02 -0.55560063199E+02  0.18789093781E+03  0.47000000000E+01 0. -1.
         11    1    5    5    0    0 -0.28546624804E+03  0.49692499785E+02 -0.16867822099E+03  0.33527998082E+03  0.00000000000E+00 0. -1.
        -11    1    5    5    0    0 -0.29772356911E+03  0.37578997954E+02 -0.29101070845E+03  0.41801762776E+03  0.00000000000E+00 0.  1.
          4    1    6    6  503    0  0.20681934557E+02  0.50260685846E+02  0.30776822168E+01  0.54436670421E+02  0.00000000000E+00 0. -1.
         -4    1    6    6    0  503  0.43637208275E+02  0.18185362115E+03 -0.16573690281E+03  0.24988730745E+03  0.00000000000E+00 0.  1.
<mgrwt>
<rscale>  0 0.72096657E+03</rscale>
<asrwt>0</asrwt>
<pdfrwt beam="1">  1        2 0.18099812E+00 0.72096657E+03</pdfrwt>
<pdfrwt beam="2">  1       -2 0.76963437E-01 0.72096657E+03</pdfrwt>
<totfact> 0.30130734E+01</totfact>
</mgrwt>
</event>
<event>
12    1  0.3147868E-008  0.1503905E+04  0.7818608E-02  0.8881860E-01
          2   -1    0    0  501    0  0.00000000000E+00  0.00000000000E+00  0.10639218576E+04  0.10639218576E+04  0.00000000000E+00 0. -1.
         -2   -1    0    0    0  501 -0.00000000000E+00 -0.00000000000E+00 -0.22671691780E+04  0.22671691780E+04  0.00000000000E+00 0.  1.
         23    2    1    2    0    0 -0.54477287550E+03 -0.13689392378E+04 -0.84320009048E+03  0.16999876838E+04  0.90551697808E+02 0.  0.
    5000000    2    1    2    0    0  0.54477287550E+03  0.13689392378E+04 -0.36004722987E+03  0.16311033518E+04  0.60007667352E+03 0.  0.
         23    2    4    4    0    0  0.25205285639E+03  0.19378641588E+03 -0.24507494096E+03  0.41128929873E+03  0.89517278619E+02 0.  0.
         23    2    4    4    0    0  0.29272001911E+03  0.11751528219E+04 -0.11497228891E+03  0.12198140531E+04  0.89769329986E+02 0.  0.
          5    1    3    3  502    0 -0.34721421943E+03 -0.97839685744E+03 -0.60738570100E+03  0.12028123730E+04  0.47000000000E+01 0. -1.
         -5    1    3    3    0  502 -0.19755865606E+03 -0.39054238031E+03 -0.23581438948E+03  0.49717531082E+03  0.47000000000E+01 0.  1.
         11    1    5    5    0    0  0.19319240338E+03  0.14029484688E+03 -0.22759269183E+03  0.32985509267E+03  0.00000000000E+00 0.  1.
        -11    1    5    5    0    0  0.58860453007E+02  0.53491568999E+02 -0.17482249128E+02  0.81434206061E+02  0.00000000000E+00 0. -1.
          1    1    6    6  503    0  0.18054423078E+03  0.56153218235E+03 -0.34441994332E+02  0.59084757938E+03  0.00000000000E+00 0. -1.
         -1    1    6    6    0  503  0.11217578833E+03  0.61362063952E+03 -0.80530294578E+02  0.62896647373E+03  0.00000000000E+00 0.  1.
<mgrwt>
<rscale>  0 0.15039054E+04</rscale>
<asrwt>0</asrwt>
<pdfrwt beam="1">  1        2 0.16368029E+00 0.15039054E+04</pdfrwt>
<pdfrwt beam="2">  1       -2 0.34879526E+00 0.15039054E+04</pdfrwt>
<totfact> 0.34421513E-01</totfact>
</mgrwt>
</event>
<event>
12    1  0.3147868E-008  0.8271446E+03  0.7818608E-02  0.9521537E-01
         -1   -1    0    0    0  501 -0.00000000000E+00  0.00000000000E+00  0.82787032375E+03  0.82787032375E+03  0.00000000000E+00 0.  1.
          1   -1    0    0  501    0  0.00000000000E+00 -0.00000000000E+00 -0.10520497746E+04  0.10520497746E+04  0.00000000000E+00 0. -1.
         23    2    1    2    0    0 -0.14426601114E+03 -0.74637071232E+03 -0.44640331400E+03  0.88621991520E+03  0.90707756927E+02 0.  0.
    5000000    2    1    2    0    0  0.14426601114E+03  0.74637071232E+03  0.22222386312E+03  0.99370018316E+03  0.60014555442E+03 0.  0.
         23    2    4    4    0    0 -0.84942428607E+02 -0.20070872210E+02 -0.60359709093E+02  0.14035074739E+03  0.91853044164E+02 0.  0.
         23    2    4    4    0    0  0.22920843975E+03  0.76644158453E+03  0.28258357222E+03  0.85334943577E+03  0.91556391889E+02 0.  0.
          5    1    3    3  502    0 -0.13134643965E+03 -0.59971124772E+03 -0.39579404484E+03  0.73046593608E+03  0.47000000000E+01 0. -1.
         -5    1    3    3    0  502 -0.12919571489E+02 -0.14665946461E+03 -0.50609269152E+02  0.15575397911E+03  0.47000000000E+01 0.  1.
         11    1    5    5    0    0 -0.30271678456E+02 -0.14792360964E+02 -0.76091483105E+02  0.83217199307E+02  0.00000000000E+00 0. -1.
        -11    1    5    5    0    0 -0.54670750151E+02 -0.52785112469E+01  0.15731774011E+02  0.57133548083E+02  0.00000000000E+00 0.  1.
          3    1    6    6  503    0  0.10835557273E+03  0.22596422457E+03  0.70764189470E+02  0.26040032919E+03  0.00000000000E+00 0. -1.
         -3    1    6    6    0  503  0.12085286701E+03  0.54047735996E+03  0.21181938275E+03  0.59294910658E+03  0.00000000000E+00 0.  1.
<mgrwt>
<rscale>  0 0.82714459E+03</rscale>
<asrwt>0</asrwt>
<pdfrwt beam="1">  1        1 0.16185381E+00 0.82714459E+03</pdfrwt>
<pdfrwt beam="2">  1       -1 0.12736467E+00 0.82714459E+03</pdfrwt>
<totfact> 0.75364989E+00</totfact>
</mgrwt>
</event>
<event>
12    1  0.3147868E-008  0.1543242E+04  0.7818608E-02  0.8856196E-01
         -2   -1    0    0    0  501 -0.00000000000E+00  0.00000000000E+00  0.21420098689E+04  0.21420098689E+04  0.00000000000E+00 0.  1.
          2   -1    0    0  501    0  0.00000000000E+00 -0.00000000000E+00 -0.12103787940E+04  0.12103787940E+04  0.00000000000E+00 0. -1.
         23    2    1    2    0    0  0.78293730866E+03 -0.13007519091E+04  0.78875970651E+03  0.17136693413E+04  0.97848751558E+02 0.  0.
    5000000    2    1    2    0    0 -0.78293730866E+03  0.13007519091E+04  0.14287136840E+03  0.16387193217E+04  0.60003535652E+03 0.  0.
         23    2    4    4    0    0 -0.20046134503E+03  0.70215893516E+03 -0.14686396961E+03  0.75017276756E+03  0.89320963620E+02 0.  0.
         23    2    4    4    0    0 -0.58247596364E+03  0.59859297395E+03  0.28973533801E+03  0.88854655415E+03  0.89311903584E+02 0.  0.
          5    1    3    3  502    0  0.17676230047E+03 -0.30067691284E+03  0.22799845964E+03  0.41672161497E+03  0.47000000000E+01 0. -1.
         -5    1    3    3    0  502  0.60617500819E+03 -0.10000749963E+04  0.56076124687E+03  0.12969477263E+04  0.47000000000E+01 0.  1.
         11    1    5    5    0    0 -0.11822267865E+03  0.46942302727E+03 -0.13718606100E+03  0.50314470643E+03  0.00000000000E+00 0. -1.
        -11    1    5    5    0    0 -0.82238666374E+02  0.23273590789E+03 -0.96779086097E+01  0.24702806112E+03  0.00000000000E+00 0.  1.
          4    1    6    6  503    0 -0.32241114899E+03  0.28913544343E+03  0.11433338740E+03  0.44790666116E+03  0.00000000000E+00 0. -1.
         -4    1    6    6    0  503 -0.26006481465E+03  0.30945753053E+03  0.17540195061E+03  0.44063989299E+03  0.00000000000E+00 0.  1.
<mgrwt>
<rscale>  0 0.15432416E+04</rscale>
<asrwt>0</asrwt>
<pdfrwt beam="1">  1        2 0.18621212E+00 0.15432416E+04</pdfrwt>
<pdfrwt beam="2">  1       -2 0.32953998E+00 0.15432416E+04</pdfrwt>
<totfact> 0.36712041E-01</totfact>
</mgrwt>
</event>
<event>
12    1  0.3147868E-008  0.6252049E+03  0.7818608E-02  0.9854451E-01
          1   -1    0    0  501    0  0.00000000000E+00  0.00000000000E+00  0.95443041990E+03  0.95443041990E+03  0.00000000000E+00 0. -1.
         -1   -1    0    0    0  501 -0.00000000000E+00 -0.00000000000E+00 -0.45299363842E+03  0.45299363842E+03  0.00000000000E+00 0.  1.
         23    2    1    2    0    0  0.48641627018E+03  0.77011827528E+02  0.36294869232E+03  0.61889621788E+03  0.93643824036E+02 0.  0.
    5000000    2    1    2    0    0 -0.48641627018E+03 -0.77011827528E+02  0.13848808917E+03  0.78852784044E+03  0.60005465987E+03 0.  0.
         23    2    4    4    0    0  0.13944146158E+02 -0.22249666767E+03  0.89210598114E+02  0.25728630671E+03  0.92404039234E+02 0.  0.
         23    2    4    4    0    0 -0.50036041634E+03  0.14548484014E+03  0.49277491055E+02  0.53124153374E+03  0.90900556069E+02 0.  0.
          5    1    3    3  502    0  0.40096762729E+03  0.80092320889E+02  0.25824803621E+03  0.48363618166E+03  0.47000000000E+01 0. -1.
         -5    1    3    3    0  502  0.85448642890E+02 -0.30804933617E+01  0.10470065610E+03  0.13526003623E+03  0.47000000000E+01 0.  1.
         11    1    5    5    0    0  0.40005893450E+02 -0.14605299280E+03  0.90682864259E+02  0.17650872524E+03  0.00000000000E+00 0. -1.
        -11    1    5    5    0    0 -0.26061747292E+02 -0.76443674874E+02 -0.14722661451E+01  0.80777581467E+02  0.00000000000E+00 0.  1.
          4    1    6    6  503    0 -0.44619839637E+03  0.14606877944E+03  0.66989855453E+02  0.47425387503E+03  0.00000000000E+00 0. -1.
         -4    1    6    6    0  503 -0.54162019968E+02 -0.58393929519E+00 -0.17712364398E+02  0.56987658705E+02  0.00000000000E+00 0.  1.
<mgrwt>
<rscale>  0 0.62520492E+03</rscale>
<asrwt>0</asrwt>
<pdfrwt beam="1">  1        1 0.14683545E+00 0.62520492E+03</pdfrwt>
<pdfrwt beam="2">  1       -1 0.69691329E-01 0.62520492E+03</pdfrwt>
<totfact> 0.35624465E+01</totfact>
</mgrwt>
</event>
<event>
12    1  0.3147868E-008  0.1126498E+04  0.7818608E-02  0.9179744E-01
          1   -1    0    0  501    0  0.00000000000E+00  0.00000000000E+00  0.26794015014E+04  0.26794015014E+04  0.00000000000E+00 0. -1.
         -1   -1    0    0    0  501 -0.00000000000E+00 -0.00000000000E+00 -0.51399868941E+03  0.51399868941E+03  0.00000000000E+00 0.  1.
         23    2    1    2    0    0  0.10110228498E+04 -0.41614156821E+03  0.10754976915E+04  0.15371332364E+04  0.10364504146E+03 0.  0.
    5000000    2    1    2    0    0 -0.10110228498E+04  0.41614156821E+03  0.10899051206E+04  0.16562669544E+04  0.59998837067E+03 0.  0.
         23    2    4    4    0    0 -0.68290258705E+03  0.99776942594E+02  0.93589367771E+03  0.11663504575E+04  0.90360567178E+02 0.  0.
         23    2    4    4    0    0 -0.32812026272E+03  0.31636462562E+03  0.15401144286E+03  0.48991649692E+03  0.92461701617E+02 0.  0.
          5    1    3    3  502    0  0.39030014414E+03 -0.10869228051E+03  0.41521939222E+03  0.58015295227E+03  0.47000000000E+01 0. -1.
         -5    1    3    3    0  502  0.62072270563E+03 -0.30744928771E+03  0.66027829924E+03  0.95698028414E+03  0.47000000000E+01 0.  1.
         13    1    5    5    0    0 -0.31078843243E+03  0.64328238791E+02  0.36165136697E+03  0.48116450749E+03  0.00000000000E+00 0. -1.
        -13    1    5    5    0    0 -0.37211415462E+03  0.35448703804E+02  0.57424231073E+03  0.68518595002E+03  0.00000000000E+00 0.  1.
          4    1    6    6  503    0 -0.29138852878E+03  0.23388251730E+03  0.11017853056E+03  0.38954796264E+03  0.00000000000E+00 0. -1.
         -4    1    6    6    0  503 -0.36731733942E+02  0.82482108316E+02  0.43832912307E+02  0.10036853427E+03  0.00000000000E+00 0.  1.
<mgrwt>
<rscale>  0 0.11264975E+04</rscale>
<asrwt>0</asrwt>
<pdfrwt beam="1">  1        1 0.41221561E+00 0.11264975E+04</pdfrwt>
<pdfrwt beam="2">  1       -1 0.79076723E-01 0.11264975E+04</pdfrwt>
<totfact> 0.16283912E+00</totfact>
</mgrwt>
</event>
<event>
12    1  0.3147868E-008  0.8597380E+03  0.7818608E-02  0.9477359E-01
         -1   -1    0    0    0  501 -0.00000000000E+00  0.00000000000E+00  0.84866164576E+03  0.84866164576E+03  0.00000000000E+00 0.  1.
          1   -1    0    0  501    0  0.00000000000E+00 -0.00000000000E+00 -0.10772316393E+04  0.10772316393E+04  0.00000000000E+00 0. -1.
         23    2    1    2    0    0 -0.48423311404E+03 -0.70180046567E+03  0.58986747497E+01  0.85756858016E+03  0.91561307145E+02 0.  0.
    5000000    2    1    2    0    0  0.48423311404E+03  0.70180046567E+03 -0.23446866824E+03  0.10683247049E+04  0.59944684192E+03 0.  0.
         23    2    4    4    0    0  0.43498313413E+03  0.57481384718E+03  0.63085332678E+02  0.72861130406E+03  0.85284156299E+02 0.  0.
         23    2    4    4    0    0  0.49249979904E+02  0.12698661849E+03 -0.29755400092E+03  0.33971340080E+03  0.91190182712E+02 0.  0.
          5    1    3    3  502    0 -0.19748246810E+03 -0.27521424247E+03  0.46478031858E+02  0.34194224938E+03  0.47000000000E+01 0. -1.
         -5    1    3    3    0  502 -0.28675064594E+03 -0.42658622319E+03 -0.40579357108E+02  0.51562633077E+03  0.47000000000E+01 0.  1.
         11    1    5    5    0    0  0.16482582897E+03  0.22126168263E+03 -0.17325844463E+02  0.27644976213E+03  0.00000000000E+00 0.  1.
        -11    1    5    5    0    0  0.27015730517E+03  0.35355216455E+03  0.80411177140E+02  0.45216154193E+03  0.00000000000E+00 0. -1.
          3    1    6    6  503    0 -0.30374767813E+00  0.71207707905E+02 -0.22358366196E+03  0.23464927834E+03  0.00000000000E+00 0. -1.
         -3    1    6    6    0  503  0.49553727582E+02  0.55778910580E+02 -0.73970338958E+02  0.10506412246E+03  0.00000000000E+00 0.  1.
<mgrwt>
<rscale>  0 0.85973797E+03</rscale>
<asrwt>0</asrwt>
<pdfrwt beam="1">  1        1 0.16572795E+00 0.85973797E+03</pdfrwt>
<pdfrwt beam="2">  1       -1 0.13056333E+00 0.85973797E+03</pdfrwt>
<totfact> 0.67473162E+00</totfact>
</mgrwt>
</event>
<event>
12    1  0.3147868E-008  0.1640773E+04  0.7818608E-02  0.8795884E-01
         -2   -1    0    0    0  501 -0.00000000000E+00  0.00000000000E+00  0.16786034642E+04  0.16786034642E+04  0.00000000000E+00 0.  1.
          2   -1    0    0  501    0  0.00000000000E+00 -0.00000000000E+00 -0.17895773477E+04  0.17895773477E+04  0.00000000000E+00 0. -1.
         23    2    1    2    0    0 -0.14965414704E+03  0.15973436605E+04  0.44596032881E+03  0.16670802624E+04  0.79830149052E+02 0.  0.
    5000000    2    1    2    0    0  0.14965414704E+03 -0.15973436605E+04 -0.55693421229E+03  0.18011005495E+04  0.59990360818E+03 0.  0.
         23    2    4    4    0    0 -0.99424972561E+02 -0.11232617511E+03  0.40138391718E+02  0.17871878671E+03  0.88469313614E+02 0.  0.
         23    2    4    4    0    0  0.24907911960E+03 -0.14850174854E+04 -0.59707260401E+03  0.16223817628E+04  0.91156733180E+02 0.  0.
          5    1    3    3  502    0 -0.44023926068E+02  0.49431658726E+03  0.10024128211E+03  0.50631748848E+03  0.47000000000E+01 0. -1.
         -5    1    3    3    0  502 -0.10563022098E+03  0.11030270733E+04  0.34571904670E+03  0.11607627739E+04  0.47000000000E+01 0.  1.
         13    1    5    5    0    0 -0.90628870015E+02 -0.12540647060E+03  0.46735711565E+02  0.16163106658E+03  0.00000000000E+00 0. -1.
        -13    1    5    5    0    0 -0.87961025461E+01  0.13080295492E+02 -0.65973198472E+01  0.17087720133E+02  0.00000000000E+00 0.  1.
          4    1    6    6  503    0  0.11144457104E+03 -0.82248755992E+03 -0.36868470411E+03  0.90820377102E+03  0.00000000000E+00 0. -1.
         -4    1    6    6    0  503  0.13763454857E+03 -0.66252992550E+03 -0.22838789989E+03  0.71417799180E+03  0.00000000000E+00 0.  1.
<mgrwt>
<rscale>  0 0.16407734E+04</rscale>
<asrwt>0</asrwt>
<pdfrwt beam="1">  1        2 0.27531959E+00 0.16407734E+04</pdfrwt>
<pdfrwt beam="2">  1       -2 0.25824669E+00 0.16407734E+04</pdfrwt>
<totfact> 0.46262843E-01</totfact>
</mgrwt>
</event>
<event>
12    1  0.3147868E-008  0.9286683E+03  0.7818608E-02  0.9390438E-01
          2   -1    0    0  501    0  0.00000000000E+00  0.00000000000E+00  0.16268689660E+04  0.16268689660E+04  0.00000000000E+00 0. -1.
         -2   -1    0    0    0  501 -0.00000000000E+00 -0.00000000000E+00 -0.67123055375E+03  0.67123055375E+03  0.00000000000E+00 0.  1.
         23    2    1    2    0    0  0.17964003350E+03  0.86918219910E+03  0.47553359141E+02  0.89371229968E+03  0.93338715239E+02 0.  0.
    5000000    2    1    2    0    0 -0.17964003350E+03 -0.86918219910E+03  0.90808505315E+03  0.14043872201E+04  0.59994730052E+03 0.  0.
         23    2    4    4    0    0 -0.24021463721E+03 -0.80684450683E+03  0.51473836227E+03  0.99121936477E+03  0.94122884405E+02 0.  0.
         23    2    4    4    0    0  0.60574603709E+02 -0.62337692274E+02  0.39334669088E+03  0.41316785535E+03  0.91819317001E+02 0.  0.
          5    1    3    3  502    0  0.11049521066E+02  0.13723702386E+03 -0.21463324729E+02  0.13942330128E+03  0.47000000000E+01 0. -1.
         -5    1    3    3    0  502  0.16859051244E+03  0.73194517525E+03  0.69016683869E+02  0.75428899840E+03  0.47000000000E+01 0.  1.
         13    1    5    5    0    0 -0.48677142425E+02 -0.27425172453E+03  0.13405409835E+03  0.30911805817E+03  0.00000000000E+00 0. -1.
        -13    1    5    5    0    0 -0.19153749479E+03 -0.53259278230E+03  0.38068426392E+03  0.68210130660E+03  0.00000000000E+00 0.  1.
          2    1    6    6  503    0  0.83839527305E+02 -0.48716132578E+02  0.26929201857E+03  0.28621760809E+03  0.00000000000E+00 0. -1.
         -2    1    6    6    0  503 -0.23264923596E+02 -0.13621559697E+02  0.12405467231E+03  0.12695024727E+03  0.00000000000E+00 0.  1.
<mgrwt>
<rscale>  0 0.92866828E+03</rscale>
<asrwt>0</asrwt>
<pdfrwt beam="1">  1        2 0.25028753E+00 0.92866828E+03</pdfrwt>
<pdfrwt beam="2">  1       -2 0.10326624E+00 0.92866828E+03</pdfrwt>
<totfact> 0.82749110E+00</totfact>
</mgrwt>
</event>
<event>
12    1  0.3147868E-008  0.1092306E+04  0.7818608E-02  0.9212723E-01
          1   -1    0    0  501    0  0.00000000000E+00  0.00000000000E+00  0.20305941191E+04  0.20305941191E+04  0.00000000000E+00 0. -1.
         -1   -1    0    0    0  501 -0.00000000000E+00 -0.00000000000E+00 -0.82592949413E+03  0.82592949413E+03  0.00000000000E+00 0.  1.
         23    2    1    2    0    0 -0.90002794827E+03  0.58330875152E+03 -0.78769680199E+02  0.10793463644E+04  0.92111369946E+02 0.  0.
    5000000    2    1    2    0    0  0.90002794827E+03 -0.58330875152E+03  0.12834343051E+04  0.17771772488E+04  0.60071286891E+03 0.  0.
         23    2    4    4    0    0  0.77890008865E+03 -0.55567116688E+03  0.13068105435E+04  0.16216897229E+04  0.81657620806E+02 0.  0.
         23    2    4    4    0    0  0.12112785962E+03 -0.27637584639E+02 -0.23376238314E+02  0.15548752594E+03  0.90521421466E+02 0.  0.
          5    1    3    3  502    0 -0.48725690386E+03  0.31016579289E+03 -0.87952836828E+02  0.58427724664E+03  0.47000000000E+01 0. -1.
         -5    1    3    3    0  502 -0.41277104441E+03  0.27314295863E+03  0.91831566292E+01  0.49506911772E+03  0.47000000000E+01 0.  1.
         13    1    5    5    0    0  0.49736671284E+03 -0.39318425874E+03  0.90181450302E+03  0.11023778419E+04  0.00000000000E+00 0. -1.
        -13    1    5    5    0    0  0.28153337581E+03 -0.16248690815E+03  0.40499604044E+03  0.51931188104E+03  0.00000000000E+00 0.  1.
          4    1    6    6  503    0  0.74904660116E+02 -0.60451155425E+02 -0.22235132688E+02  0.98789935848E+02  0.00000000000E+00 0. -1.
         -4    1    6    6    0  503  0.46223199508E+02  0.32813570785E+02 -0.11411056261E+01  0.56697590094E+02  0.00000000000E+00 0.  1.
<mgrwt>
<rscale>  0 0.10923061E+04</rscale>
<asrwt>0</asrwt>
<pdfrwt beam="1">  1        1 0.31239909E+00 0.10923061E+04</pdfrwt>
<pdfrwt beam="2">  1       -1 0.12706608E+00 0.10923061E+04</pdfrwt>
<totfact> 0.15231043E+00</totfact>
</mgrwt>
</event>
<event>
12    1  0.3147868E-008  0.9687404E+03  0.7818608E-02  0.9343510E-01
         -1   -1    0    0    0  501 -0.00000000000E+00  0.00000000000E+00  0.65628068124E+03  0.65628068124E+03  0.00000000000E+00 0.  1.
          1   -1    0    0  501    0  0.00000000000E+00 -0.00000000000E+00 -0.15460676622E+04  0.15460676622E+04  0.00000000000E+00 0. -1.
         23    2    1    2    0    0 -0.88843612390E+03  0.45772239604E+02 -0.17052116148E+03  0.91062325846E+03  0.93506193219E+02 0.  0.
    5000000    2    1    2    0    0  0.88843612390E+03 -0.45772239604E+02 -0.71926581949E+03  0.12917250850E+04  0.59983041933E+03 0.  0.
         23    2    4    4    0    0  0.21186223264E+03  0.21416355888E+03 -0.35525926907E+03  0.47556721185E+03  0.95934296061E+02 0.  0.
         23    2    4    4    0    0  0.67657389126E+03 -0.25993579849E+03 -0.36400655043E+03  0.81615787315E+03  0.91071705118E+02 0.  0.
          5    1    3    3  502    0 -0.40474523476E+03  0.63524510267E+02 -0.96745072931E+02  0.42099378570E+03  0.47000000000E+01 0.  1.
         -5    1    3    3    0  502 -0.48369088915E+03 -0.17752270663E+02 -0.73776088554E+02  0.48962947276E+03  0.47000000000E+01 0. -1.
         11    1    5    5    0    0  0.13476539986E+03  0.70116414285E+02 -0.18872638918E+03  0.24227190205E+03  0.00000000000E+00 0. -1.
        -11    1    5    5    0    0  0.77096832773E+02  0.14404714460E+03 -0.16653287989E+03  0.23329530980E+03  0.00000000000E+00 0.  1.
          4    1    6    6  503    0  0.59308640429E+03 -0.20098516658E+03 -0.33357991334E+03  0.70952243004E+03  0.00000000000E+00 0. -1.
         -4    1    6    6    0  503  0.83487486974E+02 -0.58950631907E+02 -0.30426637084E+02  0.10663544311E+03  0.00000000000E+00 0.  1.
<mgrwt>
<rscale>  0 0.96874038E+03</rscale>
<asrwt>0</asrwt>
<pdfrwt beam="1">  1        1 0.23785656E+00 0.96874038E+03</pdfrwt>
<pdfrwt beam="2">  1       -1 0.10096626E+00 0.96874038E+03</pdfrwt>
<totfact> 0.57230285E+00</totfact>
</mgrwt>
</event>
<event>
12    1  0.3147868E-008  0.1005208E+04  0.7818608E-02  0.9302852E-01
          1   -1    0    0  501    0  0.00000000000E+00  0.00000000000E+00  0.10161696120E+04  0.10161696120E+04  0.00000000000E+00 0. -1.
         -1   -1    0    0    0  501 -0.00000000000E+00 -0.00000000000E+00 -0.10985913975E+04  0.10985913975E+04  0.00000000000E+00 0.  1.
         23    2    1    2    0    0 -0.18500272848E+03 -0.94905157608E+03  0.26125467979E+02  0.97155978785E+03  0.91219393167E+02 0.  0.
    5000000    2    1    2    0    0  0.18500272848E+03  0.94905157608E+03 -0.10854725347E+03  0.11432012217E+04  0.60016799609E+03 0.  0.
         23    2    4    4    0    0 -0.10704393109E+03  0.32560141275E+03 -0.25267786621E+03  0.43508863614E+03  0.89338312330E+02 0.  0.
         23    2    4    4    0    0  0.29204665957E+03  0.62345016333E+03  0.14413061274E+03  0.70811258560E+03  0.81660534121E+02 0.  0.
          5    1    3    3  502    0 -0.14094561679E+03 -0.86237759962E+03  0.25947744285E+02  0.87421745959E+03  0.47000000000E+01 0. -1.
         -5    1    3    3    0  502 -0.44057111691E+02 -0.86673976467E+02  0.17772369378E+00  0.97342328269E+02  0.47000000000E+01 0.  1.
         13    1    5    5    0    0 -0.81648839727E+02  0.29922600887E+03 -0.19373400665E+03  0.36569878691E+03  0.00000000000E+00 0.  1.
        -13    1    5    5    0    0 -0.25395091363E+02  0.26375403882E+02 -0.58943859569E+02  0.69389849230E+02  0.00000000000E+00 0. -1.
          2    1    6    6  503    0  0.86793883189E+01  0.71462295144E+02  0.25700368850E+02  0.76437558620E+02  0.00000000000E+00 0. -1.
         -2    1    6    6    0  503  0.28336727125E+03  0.55198786819E+03  0.11843024389E+03  0.63167502698E+03  0.00000000000E+00 0.  1.
<mgrwt>
<rscale>  0 0.10052075E+04</rscale>
<asrwt>0</asrwt>
<pdfrwt beam="1">  1        1 0.15633379E+00 0.10052075E+04</pdfrwt>
<pdfrwt beam="2">  1       -1 0.16901406E+00 0.10052075E+04</pdfrwt>
<totfact> 0.36864748E+00</totfact>
</mgrwt>
</event>
<event>
12    1  0.3147868E-008  0.1283520E+04  0.7818608E-02  0.9042737E-01
          2   -1    0    0  501    0  0.00000000000E+00  0.00000000000E+00  0.21156635535E+04  0.21156635535E+04  0.00000000000E+00 0.  1.
         -2   -1    0    0    0  501 -0.00000000000E+00 -0.00000000000E+00 -0.87490012161E+03  0.87490012161E+03  0.00000000000E+00 0. -1.
         23    2    1    2    0    0 -0.90879720186E+03 -0.88671381104E+03  0.32507817257E+03  0.13140744684E+04  0.94562959861E+02 0.  0.
    5000000    2    1    2    0    0  0.90879720186E+03  0.88671381104E+03  0.91568525935E+03  0.16764892068E+04  0.59996902368E+03 0.  0.
         23    2    4    4    0    0  0.62529912170E+03  0.46478767814E+03  0.22770179216E+03  0.81670108238E+03  0.90144187056E+02 0.  0.
         23    2    4    4    0    0  0.28349808015E+03  0.42192613290E+03  0.68798346719E+03  0.85978812437E+03  0.86726839012E+02 0.  0.
          5    1    3    3  502    0 -0.37860784878E+03 -0.42779345810E+03  0.12421984656E+03  0.58463989448E+03  0.47000000000E+01 0. -1.
         -5    1    3    3    0  502 -0.53018935308E+03 -0.45892035294E+03  0.20085832602E+03  0.72943457390E+03  0.47000000000E+01 0.  1.
         13    1    5    5    0    0  0.42369524351E+03  0.26267718427E+03  0.15620484906E+03  0.52241450725E+03  0.00000000000E+00 0.  1.
        -13    1    5    5    0    0  0.20160387819E+03  0.20211049386E+03  0.71496943100E+02  0.29428657513E+03  0.00000000000E+00 0. -1.
          1    1    6    6  503    0  0.36340675285E+02  0.86971550828E+02  0.17861286588E+03  0.20195853829E+03  0.00000000000E+00 0. -1.
         -1    1    6    6    0  503  0.24715740487E+03  0.33495458208E+03  0.50937060132E+03  0.65782958608E+03  0.00000000000E+00 0.  1.
<mgrwt>
<rscale>  0 0.12835198E+04</rscale>
<asrwt>0</asrwt>
<pdfrwt beam="1">  1        2 0.32548670E+00 0.12835198E+04</pdfrwt>
<pdfrwt beam="2">  1       -2 0.13460002E+00 0.12835198E+04</pdfrwt>
<totfact> 0.22127639E+00</totfact>
</mgrwt>
</event>
<event>
12    1  0.3147868E-008  0.8692522E+03  0.7818608E-02  0.9464855E-01
          1   -1    0    0  501    0  0.00000000000E+00  0.00000000000E+00  0.98103115298E+03  0.98103115298E+03  0.00000000000E+00 0. -1.
         -1   -1    0    0    0  501 -0.00000000000E+00 -0.00000000000E+00 -0.99255291937E+03  0.99255291937E+03  0.00000000000E+00 0.  1.
         23    2    1    2    0    0 -0.36156714724E+03  0.72966647951E+03 -0.37217437444E+03  0.89968417085E+03  0.88169546867E+02 0.  0.
    5000000    2    1    2    0    0  0.36156714724E+03 -0.72966647951E+03  0.36065260805E+03  0.10738999015E+04  0.60003893330E+03 0.  0.
         23    2    4    4    0    0  0.26643019657E+03 -0.10685524461E+03  0.31490353659E+03  0.43547002162E+03  0.89815418695E+02 0.  0.
         23    2    4    4    0    0  0.95136950672E+02 -0.62281123491E+03  0.45749071460E+02  0.63842987988E+03  0.92492487685E+02 0.  0.
          5    1    3    3  502    0 -0.22749309793E+03  0.48134374761E+03 -0.28712827806E+03  0.60490466276E+03  0.47000000000E+01 0. -1.
         -5    1    3    3    0  502 -0.13407404931E+03  0.24832273190E+03 -0.85046096383E+02  0.29477950808E+03  0.47000000000E+01 0.  1.
         13    1    5    5    0    0  0.10530686743E+03 -0.59991819022E+02  0.74387910481E+02  0.14220448623E+03  0.00000000000E+00 0. -1.
        -13    1    5    5    0    0  0.16112332913E+03 -0.46863425586E+02  0.24051562611E+03  0.29326553539E+03  0.00000000000E+00 0.  1.
          2    1    6    6  503    0  0.10554373792E+03 -0.47105359364E+03  0.13425643341E+02  0.48291947216E+03  0.00000000000E+00 0. -1.
         -2    1    6    6    0  503 -0.10406787248E+02 -0.15175764127E+03  0.32323428119E+02  0.15551040772E+03  0.00000000000E+00 0.  1.
<mgrwt>
<rscale>  0 0.86925219E+03</rscale>
<asrwt>0</asrwt>
<pdfrwt beam="1">  1        1 0.15092787E+00 0.86925219E+03</pdfrwt>
<pdfrwt beam="2">  1       -1 0.15270045E+00 0.86925219E+03</pdfrwt>
<totfact> 0.53025385E+00</totfact>
</mgrwt>
</event>
<event>
12    1  0.3147868E-008  0.8104719E+03  0.7818608E-02  0.9544982E-01
          1   -1    0    0  501    0  0.00000000000E+00  0.00000000000E+00  0.54257847900E+03  0.54257847900E+03  0.00000000000E+00 0. -1.
         -1   -1    0    0    0  501 -0.00000000000E+00 -0.00000000000E+00 -0.12666378824E+04  0.12666378824E+04  0.00000000000E+00 0.  1.
         23    2    1    2    0    0 -0.24477697239E+03 -0.66655251044E+03 -0.20501121988E+03  0.74449713060E+03  0.89656911662E+02 0.  0.
    5000000    2    1    2    0    0  0.24477697239E+03  0.66655251044E+03 -0.51904818350E+03  0.10647192308E+04  0.60000667346E+03 0.  0.
         23    2    4    4    0    0  0.26840120145E+03  0.31091990289E+02 -0.13627723079E+03  0.31709800457E+03  0.94729847809E+02 0.  0.
         23    2    4    4    0    0 -0.23624229064E+02  0.63546052015E+03 -0.38277095271E+03  0.74762122620E+03  0.89753655985E+02 0.  0.
          5    1    3    3  502    0 -0.15013181591E+03 -0.30726458297E+03 -0.12693040541E+03  0.36480748885E+03  0.47000000000E+01 0. -1.
         -5    1    3    3    0  502 -0.94645156475E+02 -0.35928792747E+03 -0.78080814466E+02  0.37968964176E+03  0.47000000000E+01 0.  1.
         11    1    5    5    0    0  0.12694312295E+03  0.16025900519E+01 -0.11451320846E+03  0.17096900208E+03  0.00000000000E+00 0.  1.
        -11    1    5    5    0    0  0.14145807850E+03  0.29489400238E+02 -0.21764022327E+02  0.14612900249E+03  0.00000000000E+00 0. -1.
          1    1    6    6  503    0 -0.13468533111E+02  0.33232160014E+03 -0.14785433927E+03  0.36397795667E+03  0.00000000000E+00 0. -1.
         -1    1    6    6    0  503 -0.10155695953E+02  0.30313892002E+03 -0.23491661344E+03  0.38364326954E+03  0.00000000000E+00 0.  1.
<mgrwt>
<rscale>  0 0.81047187E+03</rscale>
<asrwt>0</asrwt>
<pdfrwt beam="1">  1        1 0.83473613E-01 0.81047187E+03</pdfrwt>
<pdfrwt beam="2">  1       -1 0.19486736E+00 0.81047187E+03</pdfrwt>
<totfact> 0.66265929E+00</totfact>
</mgrwt>
</event>
<event>
12    1  0.3147868E-008  0.2808684E+03  0.7818608E-02  0.1095216E+00
          2   -1    0    0  501    0  0.00000000000E+00  0.00000000000E+00  0.62390425573E+03  0.62390425573E+03  0.00000000000E+00 0. -1.
         -2   -1    0    0    0  501 -0.00000000000E+00 -0.00000000000E+00 -0.27725541777E+03  0.27725541777E+03  0.00000000000E+00 0.  1.
         23    2    1    2    0    0 -0.10874116772E+03 -0.12326457705E+03  0.17074488461E+03  0.25470027629E+03  0.93271740684E+02 0.  0.
    5000000    2    1    2    0    0  0.10874116772E+03  0.12326457705E+03  0.17590395334E+03  0.64645939721E+03  0.59995729342E+03 0.  0.
         23    2    4    4    0    0 -0.11547386161E+03 -0.67116537544E+01  0.30877661993E+03  0.34209162711E+03  0.91128597654E+02 0.  0.
         23    2    4    4    0    0  0.22421502933E+03  0.12997623080E+03 -0.13287266659E+03  0.30436777010E+03  0.88421682853E+02 0.  0.
          5    1    3    3  502    0 -0.72043108016E+02 -0.50411571210E+02  0.14388298559E+03  0.16868888365E+03  0.47000000000E+01 0. -1.
         -5    1    3    3    0  502 -0.36698059704E+02 -0.72853005838E+02  0.26861899026E+02  0.86011392646E+02  0.47000000000E+01 0.  1.
         13    1    5    5    0    0 -0.32482999387E+02 -0.19983178704E+02  0.23740761116E+02  0.44923228053E+02  0.00000000000E+00 0. -1.
        -13    1    5    5    0    0 -0.82990862225E+02  0.13271524950E+02  0.28503585882E+03  0.29716839906E+03  0.00000000000E+00 0.  1.
          3    1    6    6  503    0  0.30039009887E+02  0.52984096709E+02 -0.52988249248E+02  0.80730484808E+02  0.00000000000E+00 0. -1.
         -3    1    6    6    0  503  0.19417601944E+03  0.76992134093E+02 -0.79884417343E+02  0.22363728529E+03  0.00000000000E+00 0.  1.
<mgrwt>
<rscale>  0 0.28086837E+03</rscale>
<asrwt>0</asrwt>
<pdfrwt beam="1">  1        2 0.95985270E-01 0.28086837E+03</pdfrwt>
<pdfrwt beam="2">  1       -2 0.42654680E-01 0.28086837E+03</pdfrwt>
<totfact> 0.25546147E+02</totfact>
</mgrwt>
</event>
<event>
12    1  0.3147868E-008  0.6665181E+03  0.7818608E-02  0.9776268E-01
         -2   -1    0    0    0  501 -0.00000000000E+00  0.00000000000E+00  0.30647585506E+03  0.30647585506E+03  0.00000000000E+00 0.  1.
          2   -1    0    0  501    0  0.00000000000E+00 -0.00000000000E+00 -0.16010052359E+04  0.16010052359E+04  0.00000000000E+00 0. -1.
         23    2    1    2    0    0 -0.21708267554E+03  0.51715841895E+03 -0.64955998888E+03  0.86322898840E+03  0.93050464492E+02 0.  0.
    5000000    2    1    2    0    0  0.21708267554E+03 -0.51715841895E+03 -0.64496939201E+03  0.10442521026E+04  0.59991600984E+03 0.  0.
         23    2    4    4    0    0 -0.12587461151E+03  0.12301901199E+02 -0.30020161518E+02  0.15840053311E+03  0.90519413360E+02 0.  0.
         23    2    4    4    0    0  0.34295728705E+03 -0.52946032015E+03 -0.61494923049E+03  0.88585156950E+03  0.92857502384E+02 0.  0.
          5    1    3    3  502    0 -0.19064311620E+03  0.48049368176E+03 -0.55588065774E+03  0.75910761530E+03  0.47000000000E+01 0. -1.
         -5    1    3    3    0  502 -0.26439559341E+02  0.36664737192E+02 -0.93679331142E+02  0.10412137309E+03  0.47000000000E+01 0.  1.
         11    1    5    5    0    0 -0.96853939865E+01  0.20763652905E+02 -0.34960156485E+02  0.41798907642E+02  0.00000000000E+00 0.  1.
        -11    1    5    5    0    0 -0.11618921752E+03 -0.84617517064E+01  0.49399949667E+01  0.11660162547E+03  0.00000000000E+00 0. -1.
          3    1    6    6  503    0  0.12876897167E+03 -0.17919051826E+03 -0.15705252311E+03  0.27084346940E+03  0.00000000000E+00 0. -1.
         -3    1    6    6    0  503  0.21418831537E+03 -0.35026980189E+03 -0.45789670739E+03  0.61500810011E+03  0.00000000000E+00 0.  1.
<mgrwt>
<rscale>  0 0.66651813E+03</rscale>
<asrwt>0</asrwt>
<pdfrwt beam="1">  1        2 0.24630850E+00 0.66651813E+03</pdfrwt>
<pdfrwt beam="2">  1       -2 0.47150132E-01 0.66651813E+03</pdfrwt>
<totfact> 0.49061905E+01</totfact>
</mgrwt>
</event>
<event>
12    1  0.3147868E-008  0.4183321E+03  0.7818608E-02  0.1037611E+00
         -2   -1    0    0    0  501 -0.00000000000E+00  0.00000000000E+00  0.76979324879E+02  0.76979324879E+02  0.00000000000E+00 0.  1.
          2   -1    0    0  501    0  0.00000000000E+00 -0.00000000000E+00 -0.27813836905E+04  0.27813836905E+04  0.00000000000E+00 0. -1.
         23    2    1    2    0    0  0.58793811401E+02 -0.21381968116E+03 -0.39731349899E+03  0.46421590961E+03  0.91993619082E+02 0.  0.
    5000000    2    1    2    0    0 -0.58793811401E+02  0.21381968116E+03 -0.23070908666E+04  0.23941471058E+04  0.60008043530E+03 0.  0.
         23    2    4    4    0    0 -0.14525438546E+03  0.38782093680E+03 -0.14695492077E+04  0.15295029977E+04  0.91107796401E+02 0.  0.
         23    2    4    4    0    0  0.86460574055E+02 -0.17400125564E+03 -0.83754165897E+03  0.86464410812E+03  0.91550725602E+02 0.  0.
          5    1    3    3  502    0  0.37973413362E+02 -0.92966642195E+02 -0.26657391979E+03  0.28490089750E+03  0.47000000000E+01 0. -1.
         -5    1    3    3    0  502  0.20820398039E+02 -0.12085303896E+03 -0.13073957920E+03  0.17931501212E+03  0.47000000000E+01 0.  1.
         11    1    5    5    0    0 -0.82162640782E+02  0.29573357376E+03 -0.11775344315E+04  0.12168797737E+04  0.00000000000E+00 0.  1.
        -11    1    5    5    0    0 -0.63091744673E+02  0.92087363034E+02 -0.29201477618E+03  0.31262322400E+03  0.00000000000E+00 0. -1.
          3    1    6    6  503    0  0.15235724640E+02 -0.44700749709E+02 -0.80383544203E+02  0.93229815555E+02  0.00000000000E+00 0. -1.
         -3    1    6    6    0  503  0.71224849415E+02 -0.12930050593E+03 -0.75715811477E+03  0.77141429256E+03  0.00000000000E+00 0.  1.
<mgrwt>
<rscale>  0 0.41833210E+03</rscale>
<asrwt>0</asrwt>
<pdfrwt beam="1">  1        2 0.42790522E+00 0.41833210E+03</pdfrwt>
<pdfrwt beam="2">  1       -2 0.11842972E-01 0.41833210E+03</pdfrwt>
<totfact> 0.13610759E+02</totfact>
</mgrwt>
</event>
<event>
12    1  0.3147868E-008  0.6824181E+03  0.7818608E-02  0.9747781E-01
         -1   -1    0    0    0  501 -0.00000000000E+00  0.00000000000E+00  0.11514055592E+04  0.11514055592E+04  0.00000000000E+00 0.  1.
          1   -1    0    0  501    0  0.00000000000E+00 -0.00000000000E+00 -0.59039189324E+03  0.59039189324E+03  0.00000000000E+00 0. -1.
         23    2    1    2    0    0  0.67326149262E+03  0.52188259383E+02  0.54035043670E+01  0.68144912413E+03  0.91318448604E+02 0.  0.
    5000000    2    1    2    0    0 -0.67326149262E+03 -0.52188259383E+02  0.55561016163E+03  0.10603483283E+04  0.59969264950E+03 0.  0.
         23    2    4    4    0    0 -0.49068310571E+03 -0.30902704467E+02  0.66071418837E+03  0.82848504657E+03  0.90107415356E+02 0.  0.
         23    2    4    4    0    0 -0.18257838691E+03 -0.21285554916E+02 -0.10510402675E+03  0.23186328178E+03  0.94476360978E+02 0.  0.
          5    1    3    3  502    0  0.33958534976E+03  0.57339210561E+02 -0.30512379135E+02  0.34577317727E+03  0.47000000000E+01 0. -1.
         -5    1    3    3    0  502  0.33367614286E+03 -0.51509511775E+01  0.35915883502E+02  0.33567594686E+03  0.47000000000E+01 0.  1.
         13    1    5    5    0    0 -0.38873903075E+03  0.10755833493E+02  0.49449411602E+03  0.62909311931E+03  0.00000000000E+00 0. -1.
        -13    1    5    5    0    0 -0.10194407496E+03 -0.41658537961E+02  0.16622007236E+03  0.19939192727E+03  0.00000000000E+00 0.  1.
          1    1    6    6  503    0 -0.43678765231E+02  0.11005735913E+02  0.12803276079E+02  0.46828246107E+02  0.00000000000E+00 0. -1.
         -1    1    6    6    0  503 -0.13889962168E+03 -0.32291290829E+02 -0.11790730283E+03  0.18503503567E+03  0.00000000000E+00 0.  1.
<mgrwt>
<rscale>  0 0.68241807E+03</rscale>
<asrwt>0</asrwt>
<pdfrwt beam="1">  1        1 0.90829523E-01 0.68241807E+03</pdfrwt>
<pdfrwt beam="2">  1       -1 0.17713932E+00 0.68241807E+03</pdfrwt>
<totfact> 0.79733210E+00</totfact>
</mgrwt>
</event>
<event>
12    1  0.3147868E-008  0.5673181E+03  0.7818608E-02  0.9975631E-01
         -1   -1    0    0    0  501 -0.00000000000E+00  0.00000000000E+00  0.10153015599E+04  0.10153015599E+04  0.00000000000E+00 0.  1.
          1   -1    0    0  501    0  0.00000000000E+00 -0.00000000000E+00 -0.55366307719E+03  0.55366307719E+03  0.00000000000E+00 0. -1.
         23    2    1    2    0    0 -0.20001923231E+03  0.50331312158E+03 -0.13342025397E+03  0.56520482419E+03  0.91234519091E+02 0.  0.
    5000000    2    1    2    0    0  0.20001923231E+03 -0.50331312158E+03  0.59505873673E+03  0.10037598129E+04  0.60008921859E+03 0.  0.
         23    2    4    4    0    0  0.80477158724E+02 -0.43371847329E+03  0.68198457696E+03  0.81720896898E+03  0.90217784455E+02 0.  0.
         23    2    4    4    0    0  0.11954207359E+03 -0.69594648291E+02 -0.86925840226E+02  0.18655084396E+03  0.90063273612E+02 0.  0.
          5    1    3    3  502    0 -0.12380728168E+03  0.30734204537E+03 -0.35706734144E+02  0.33329331933E+03  0.47000000000E+01 0. -1.
         -5    1    3    3    0  502 -0.76211950633E+02  0.19597107621E+03 -0.97713519826E+02  0.23191150486E+03  0.47000000000E+01 0.  1.
         11    1    5    5    0    0  0.18410721145E+02 -0.43219805068E+02  0.12992544092E+03  0.13815761434E+03  0.00000000000E+00 0.  1.
        -11    1    5    5    0    0  0.62066437579E+02 -0.39049866822E+03  0.55205913604E+03  0.67905135464E+03  0.00000000000E+00 0. -1.
          3    1    6    6  503    0  0.26430135332E+02 -0.48280619388E+02 -0.70800931005E+02  0.89679106225E+02  0.00000000000E+00 0. -1.
         -3    1    6    6    0  503  0.93111938257E+02 -0.21314028903E+02 -0.16124909221E+02  0.96871737734E+02  0.00000000000E+00 0.  1.
<mgrwt>
<rscale>  0 0.56731811E+03</rscale>
<asrwt>0</asrwt>
<pdfrwt beam="1">  1        1 0.85178935E-01 0.56731811E+03</pdfrwt>
<pdfrwt beam="2">  1       -1 0.15620024E+00 0.56731811E+03</pdfrwt>
<totfact> 0.12672493E+01</totfact>
</mgrwt>
</event>
<event>
12    1  0.3147868E-008  0.1161702E+04  0.7818608E-02  0.9147055E-01
         -2   -1    0    0    0  501 -0.00000000000E+00  0.00000000000E+00  0.93643584481E+03  0.93643584481E+03  0.00000000000E+00 0.  1.
          2   -1    0    0  501    0  0.00000000000E+00 -0.00000000000E+00 -0.23347041595E+04  0.23347041595E+04  0.00000000000E+00 0. -1.
         23    2    1    2    0    0 -0.50562351859E+03  0.10206664882E+04  0.25936028604E+03  0.11722722929E+04  0.97669586324E+02 0.  0.
    5000000    2    1    2    0    0  0.50562351859E+03 -0.10206664882E+04 -0.16576286008E+04  0.20988677115E+04  0.60008155245E+03 0.  0.
         23    2    4    4    0    0  0.19718662353E+03 -0.71655966259E+03 -0.13969353892E+04  0.15849995260E+04  0.91949449714E+02 0.  0.
         23    2    4    4    0    0  0.30843689505E+03 -0.30410682556E+03 -0.26069321159E+03  0.51386818549E+03  0.92115589881E+02 0.  0.
          5    1    3    3  502    0 -0.17310576659E+03  0.26917101714E+03  0.98606937503E+02  0.33490903395E+03  0.47000000000E+01 0. -1.
         -5    1    3    3    0  502 -0.33251775199E+03  0.75149547102E+03  0.16075334853E+03  0.83736325893E+03  0.47000000000E+01 0.  1.
         11    1    5    5    0    0  0.12992354980E+03 -0.59880530015E+03 -0.11205718028E+04  0.12771566393E+04  0.00000000000E+00 0.  1.
        -11    1    5    5    0    0  0.67263073729E+02 -0.11775436244E+03 -0.27636358641E+03  0.30784288664E+03  0.00000000000E+00 0. -1.
          4    1    6    6  503    0  0.18015594950E+03 -0.18253925284E+03 -0.20572201551E+03  0.32878304797E+03  0.00000000000E+00 0. -1.
         -4    1    6    6    0  503  0.12828094555E+03 -0.12156757273E+03 -0.54971196083E+02  0.18508513751E+03  0.00000000000E+00 0.  1.
<mgrwt>
<rscale>  0 0.11617021E+04</rscale>
<asrwt>0</asrwt>
<pdfrwt beam="1">  1        2 0.35918525E+00 0.11617021E+04</pdfrwt>
<pdfrwt beam="2">  1       -2 0.14406705E+00 0.11617021E+04</pdfrwt>
<totfact> 0.14165785E+00</totfact>
</mgrwt>
</event>
<event>
12    1  0.3147868E-008  0.5606200E+03  0.7818608E-02  0.9990653E-01
          1   -1    0    0  501    0  0.00000000000E+00  0.00000000000E+00  0.61174579260E+03  0.61174579260E+03  0.00000000000E+00 0. -1.
         -1   -1    0    0    0  501 -0.00000000000E+00 -0.00000000000E+00 -0.79616797024E+03  0.79616797024E+03  0.00000000000E+00 0.  1.
         23    2    1    2    0    0  0.39157048692E+03 -0.11116522382E+03  0.31885372459E+03  0.52533776480E+03  0.92881194111E+02 0.  0.
    5000000    2    1    2    0    0 -0.39157048692E+03  0.11116522382E+03 -0.50327590223E+03  0.88257599804E+03  0.59997383720E+03 0.  0.
         23    2    4    4    0    0  0.56094648490E+02 -0.15050169045E+03 -0.63196930517E+02  0.19651194950E+03  0.93945334390E+02 0.  0.
         23    2    4    4    0    0 -0.44766513541E+03  0.26166691427E+03 -0.44007897172E+03  0.68606404854E+03  0.90225993276E+02 0.  0.
          5    1    3    3  502    0  0.16022020477E+03 -0.91700711341E+02  0.15557653661E+03  0.24146569781E+03  0.47000000000E+01 0. -1.
         -5    1    3    3    0  502  0.23135028215E+03 -0.19464512483E+02  0.16327718798E+03  0.28387206698E+03  0.47000000000E+01 0.  1.
         11    1    5    5    0    0  0.61021805714E+02 -0.35442343341E+02 -0.29804528911E+02  0.76603723263E+02  0.00000000000E+00 0.  1.
        -11    1    5    5    0    0 -0.49271572241E+01 -0.11505934711E+03 -0.33392401606E+02  0.11990822624E+03  0.00000000000E+00 0. -1.
          1    1    6    6  503    0 -0.10027585943E+03  0.53837970001E+02 -0.51461003218E+02  0.12490800555E+03  0.00000000000E+00 0. -1.
         -1    1    6    6    0  503 -0.34738927598E+03  0.20782894427E+03 -0.38861796850E+03  0.56115604299E+03  0.00000000000E+00 0.  1.
<mgrwt>
<rscale>  0 0.56062003E+03</rscale>
<asrwt>0</asrwt>
<pdfrwt beam="1">  1        1 0.94114738E-01 0.56062003E+03</pdfrwt>
<pdfrwt beam="2">  1       -1 0.12248738E+00 0.56062003E+03</pdfrwt>
<totfact> 0.20606534E+01</totfact>
</mgrwt>
</event>
<event>
12    1  0.3147868E-008  0.1069033E+04  0.7818608E-02  0.9235912E-01
         -2   -1    0    0    0  501 -0.00000000000E+00  0.00000000000E+00  0.84113441872E+03  0.84113441872E+03  0.00000000000E+00 0.  1.
          2   -1    0    0  501    0  0.00000000000E+00 -0.00000000000E+00 -0.17906259707E+04  0.17906259707E+04  0.00000000000E+00 0. -1.
         23    2    1    2    0    0  0.76094378302E+03 -0.66614102045E+03  0.14443876950E+03  0.10256988331E+04  0.91740056818E+02 0.  0.
    5000000    2    1    2    0    0 -0.76094378302E+03  0.66614102045E+03 -0.10939303215E+04  0.16060615563E+04  0.59997572820E+03 0.  0.
         23    2    4    4    0    0 -0.70776399101E+03  0.73184798010E+03 -0.10601221872E+04  0.14725465712E+04  0.89459596567E+02 0.  0.
         23    2    4    4    0    0 -0.53179792009E+02 -0.65706959644E+02 -0.33808134260E+02  0.13351498518E+03  0.97661489352E+02 0.  0.
          5    1    3    3  502    0  0.99962841122E+02 -0.12814601093E+03  0.36360712526E+02  0.16660780635E+03  0.47000000000E+01 0. -1.
         -5    1    3    3    0  502  0.66098094190E+03 -0.53799500952E+03  0.10807805697E+03  0.85909102674E+03  0.47000000000E+01 0.  1.
         11    1    5    5    0    0 -0.27975567329E+02  0.33012447348E+02 -0.74842988272E+02  0.86451876445E+02  0.00000000000E+00 0.  1.
        -11    1    5    5    0    0 -0.67978842368E+03  0.69883553275E+03 -0.98527919897E+03  0.13860946947E+04  0.00000000000E+00 0. -1.
          1    1    6    6  503    0  0.92145416450E+01 -0.33595601196E+02  0.24244010972E+02  0.42442246235E+02  0.00000000000E+00 0. -1.
         -1    1    6    6    0  503 -0.62394333654E+02 -0.32111358448E+02 -0.58052145232E+02  0.91072738948E+02  0.00000000000E+00 0.  1.
<mgrwt>
<rscale>  0 0.10690327E+04</rscale>
<asrwt>0</asrwt>
<pdfrwt beam="1">  1        2 0.27548091E+00 0.10690327E+04</pdfrwt>
<pdfrwt beam="2">  1       -2 0.12940530E+00 0.10690327E+04</pdfrwt>
<totfact> 0.37907847E+00</totfact>
</mgrwt>
</event>
<event>
12    1  0.3147868E-008  0.1192531E+04  0.7818608E-02  0.9119420E-01
          1   -1    0    0  501    0  0.00000000000E+00  0.00000000000E+00  0.21479301467E+04  0.21479301467E+04  0.00000000000E+00 0. -1.
         -1   -1    0    0    0  501 -0.00000000000E+00 -0.00000000000E+00 -0.75408197984E+03  0.75408197984E+03  0.00000000000E+00 0.  1.
         23    2    1    2    0    0 -0.32790448928E+03 -0.11295862256E+04  0.93025618457E+03  0.15025784944E+04  0.94229335271E+02 0.  0.
    5000000    2    1    2    0    0  0.32790448928E+03  0.11295862256E+04  0.46359198230E+03  0.13994336322E+04  0.60000880795E+03 0.  0.
         23    2    4    4    0    0  0.21959518975E+03  0.32708274259E+03 -0.89489583996E+02  0.41442839420E+03  0.92397729515E+02 0.  0.
         23    2    4    4    0    0  0.10830929953E+03  0.80250348303E+03  0.55308156630E+03  0.98500523797E+03  0.92700351735E+02 0.  0.
          5    1    3    3  502    0 -0.13819914854E+03 -0.49154193029E+03  0.46312213440E+03  0.68935961244E+03  0.47000000000E+01 0. -1.
         -5    1    3    3    0  502 -0.18970534074E+03 -0.63804429532E+03  0.46713405016E+03  0.81321888192E+03  0.47000000000E+01 0.  1.
         13    1    5    5    0    0  0.82813535562E+02  0.15841741158E+03  0.20427473073E+01  0.17876893125E+03  0.00000000000E+00 0.  1.
        -13    1    5    5    0    0  0.13678165419E+03  0.16866533101E+03 -0.91532331303E+02  0.23565946296E+03  0.00000000000E+00 0. -1.
          1    1    6    6  503    0  0.25184559206E+01  0.26669499503E+03  0.21602391810E+03  0.34321843800E+03  0.00000000000E+00 0. -1.
         -1    1    6    6    0  503  0.10579084361E+03  0.53580848800E+03  0.33705764820E+03  0.64178679997E+03  0.00000000000E+00 0.  1.
<mgrwt>
<rscale>  0 0.11925305E+04</rscale>
<asrwt>0</asrwt>
<pdfrwt beam="1">  1        1 0.33045079E+00 0.11925305E+04</pdfrwt>
<pdfrwt beam="2">  1       -1 0.11601261E+00 0.11925305E+04</pdfrwt>
<totfact> 0.15678850E+00</totfact>
</mgrwt>
</event>
<event>
12    1  0.3147868E-008  0.7004456E+03  0.7818608E-02  0.9716471E-01
         -2   -1    0    0    0  501 -0.00000000000E+00  0.00000000000E+00  0.14204087675E+04  0.14204087675E+04  0.00000000000E+00 0.  1.
          2   -1    0    0  501    0  0.00000000000E+00 -0.00000000000E+00 -0.63962764348E+03  0.63962764348E+03  0.00000000000E+00 0. -1.
         23    2    1    2    0    0  0.59272000290E+03 -0.10125486892E+02  0.10201145464E+04  0.11831917735E+04  0.88823183121E+02 0.  0.
    5000000    2    1    2    0    0 -0.59272000290E+03  0.10125486892E+02 -0.23933342236E+03  0.87684463746E+03  0.60013040571E+03 0.  0.
         23    2    4    4    0    0 -0.36335774010E+03 -0.25225532685E+03 -0.97070435314E+01  0.44943494673E+03  0.78968015270E+02 0.  0.
         23    2    4    4    0    0 -0.22936226280E+03  0.26238081374E+03 -0.22962637883E+03  0.42740969073E+03  0.92195611924E+02 0.  0.
          5    1    3    3  502    0  0.31525969082E+03 -0.39848456425E+02  0.48863843033E+03  0.58289465406E+03  0.47000000000E+01 0. -1.
         -5    1    3    3    0  502  0.27746031207E+03  0.29722969533E+02  0.53147611605E+03  0.60029711945E+03  0.47000000000E+01 0.  1.
         13    1    5    5    0    0 -0.19521645163E+03 -0.91416784373E+02 -0.20286695539E+02  0.21651337480E+03  0.00000000000E+00 0. -1.
        -13    1    5    5    0    0 -0.16814128847E+03 -0.16083854248E+03  0.10579652007E+02  0.23292157193E+03  0.00000000000E+00 0.  1.
          4    1    6    6  503    0 -0.22657349710E+03  0.26711420823E+03 -0.23325587323E+03  0.42082520388E+03  0.00000000000E+00 0. -1.
         -4    1    6    6    0  503 -0.27887656992E+01 -0.47333944852E+01  0.36294943983E+01  0.65844868490E+01  0.00000000000E+00 0.  1.
<mgrwt>
<rscale>  0 0.70044556E+03</rscale>
<asrwt>0</asrwt>
<pdfrwt beam="1">  1        2 0.98404253E-01 0.70044556E+03</pdfrwt>
<pdfrwt beam="2">  1       -2 0.21852442E+00 0.70044556E+03</pdfrwt>
<totfact> 0.47735215E+00</totfact>
</mgrwt>
</event>
<event>
12    1  0.3147868E-008  0.7987938E+03  0.7818608E-02  0.9561765E-01
         -1   -1    0    0    0  501 -0.00000000000E+00  0.00000000000E+00  0.58982442369E+03  0.58982442369E+03  0.00000000000E+00 0.  1.
          1   -1    0    0  501    0  0.00000000000E+00 -0.00000000000E+00 -0.14113779304E+04  0.14113779304E+04  0.00000000000E+00 0. -1.
         23    2    1    2    0    0 -0.30421926137E+03  0.70662373062E+03 -0.86454095434E+02  0.77962021771E+03  0.92015855006E+02 0.  0.
    5000000    2    1    2    0    0  0.30421926137E+03 -0.70662373062E+03 -0.73509941127E+03  0.12215821364E+04  0.60002109614E+03 0.  0.
         23    2    4    4    0    0  0.31739275574E+03 -0.38660774733E+03 -0.12066714941E+03  0.52242686813E+03  0.90363487656E+02 0.  0.
         23    2    4    4    0    0 -0.13173494370E+02 -0.32001598329E+03 -0.61443226186E+03  0.69915526826E+03  0.93312990534E+02 0.  0.
          5    1    3    3  502    0 -0.35746374755E+02  0.11921940187E+03 -0.44974466307E+02  0.13242304071E+03  0.47000000000E+01 0. -1.
         -5    1    3    3    0  502 -0.26847288662E+03  0.58740432875E+03 -0.41479629127E+02  0.64719717700E+03  0.47000000000E+01 0.  1.
         13    1    5    5    0    0  0.26977779071E+03 -0.34355509589E+03 -0.13390867169E+03  0.45688258079E+03  0.00000000000E+00 0.  1.
        -13    1    5    5    0    0  0.47614965031E+02 -0.43052651443E+02  0.13241522276E+02  0.65544287343E+02  0.00000000000E+00 0. -1.
          3    1    6    6  503    0 -0.26934397461E+02 -0.59883242240E+02 -0.19141082562E+03  0.20235999761E+03  0.00000000000E+00 0. -1.
         -3    1    6    6    0  503  0.13760903091E+02 -0.26013274105E+03 -0.42302143624E+03  0.49679527065E+03  0.00000000000E+00 0.  1.
<mgrwt>
<rscale>  0 0.79879381E+03</rscale>
<asrwt>0</asrwt>
<pdfrwt beam="1">  1        1 0.21713506E+00 0.79879381E+03</pdfrwt>
<pdfrwt beam="2">  1       -1 0.90742221E-01 0.79879381E+03</pdfrwt>
<totfact> 0.92186503E+00</totfact>
</mgrwt>
</event>
<event>
12    1  0.3147868E-008  0.1174426E+04  0.7818608E-02  0.9135541E-01
         -1   -1    0    0    0  501 -0.00000000000E+00  0.00000000000E+00  0.77267130180E+03  0.77267130180E+03  0.00000000000E+00 0.  1.
          1   -1    0    0  501    0  0.00000000000E+00 -0.00000000000E+00 -0.20701587354E+04  0.20701587354E+04  0.00000000000E+00 0. -1.
         23    2    1    2    0    0 -0.59876278115E+01  0.11125756907E+04 -0.10930138269E+04  0.15623152796E+04  0.91045525614E+02 0.  0.
    5000000    2    1    2    0    0  0.59876278115E+01 -0.11125756907E+04 -0.20447360667E+03  0.12805147576E+04  0.60004005648E+03 0.  0.
         23    2    4    4    0    0 -0.23036408760E+03 -0.83336591227E+03 -0.43737551553E+02  0.86987622932E+03  0.84884181848E+02 0.  0.
         23    2    4    4    0    0  0.23635171542E+03 -0.27920977844E+03 -0.16073605511E+03  0.41063852828E+03  0.94697876133E+02 0.  0.
          5    1    3    3  502    0 -0.37017235310E+02  0.71861328877E+03 -0.74407023649E+03  0.10351028651E+04  0.47000000000E+01 0. -1.
         -5    1    3    3    0  502  0.31029607498E+02  0.39396240194E+03 -0.34894359044E+03  0.52721241449E+03  0.47000000000E+01 0.  1.
         13    1    5    5    0    0 -0.10366409692E+02 -0.11277741977E+03  0.14637296031E+02  0.11419483042E+03  0.00000000000E+00 0. -1.
        -13    1    5    5    0    0 -0.21999767791E+03 -0.72058849250E+03 -0.58374847585E+02  0.75568139890E+03  0.00000000000E+00 0.  1.
          3    1    6    6  503    0  0.46120157069E+02 -0.77005510108E+02 -0.83204756247E+02  0.12239260164E+03  0.00000000000E+00 0. -1.
         -3    1    6    6    0  503  0.19023155835E+03 -0.20220426833E+03 -0.77531298867E+02  0.28824592664E+03  0.00000000000E+00 0.  1.
<mgrwt>
<rscale>  0 0.11744258E+04</rscale>
<asrwt>0</asrwt>
<pdfrwt beam="1">  1        1 0.31848596E+00 0.11744258E+04</pdfrwt>
<pdfrwt beam="2">  1       -1 0.11887251E+00 0.11744258E+04</pdfrwt>
<totfact> 0.16719888E+00</totfact>
</mgrwt>
</event>
<event>
12    1  0.3147868E-008  0.1551344E+04  0.7818608E-02  0.8851009E-01
         -2   -1    0    0    0  501 -0.00000000000E+00  0.00000000000E+00  0.16163108082E+04  0.16163108082E+04  0.00000000000E+00 0.  1.
          2   -1    0    0  501    0  0.00000000000E+00 -0.00000000000E+00 -0.16508386014E+04  0.16508386014E+04  0.00000000000E+00 0. -1.
         23    2    1    2    0    0  0.10408457084E+04 -0.10824333908E+04  0.46579065245E+03  0.15744425513E+04  0.82985427997E+02 0.  0.
    5000000    2    1    2    0    0 -0.10408457084E+04  0.10824333908E+04 -0.50031844561E+03  0.16927068583E+04  0.59993010170E+03 0.  0.
         23    2    4    4    0    0 -0.46221767843E+03  0.86468214352E+03 -0.38499951843E+03  0.10573140021E+04  0.91476108077E+02 0.  0.
         23    2    4    4    0    0 -0.57862802995E+03  0.21775124724E+03 -0.11531892718E+03  0.63539285613E+03  0.90551774925E+02 0.  0.
          5    1    3    3  502    0  0.74335559047E+03 -0.78014583673E+03  0.37240612229E+03  0.11401374787E+04  0.47000000000E+01 0. -1.
         -5    1    3    3    0  502  0.29749011791E+03 -0.30228755403E+03  0.93384530157E+02  0.43430507256E+03  0.47000000000E+01 0.  1.
         11    1    5    5    0    0 -0.39851972919E+03  0.70697988703E+03 -0.28580262367E+03  0.86041947613E+03  0.00000000000E+00 0.  1.
        -11    1    5    5    0    0 -0.63697949244E+02  0.15770225649E+03 -0.99196894757E+02  0.19689452600E+03  0.00000000000E+00 0. -1.
          3    1    6    6  503    0 -0.53179032302E+03  0.21032016359E+03 -0.12858631582E+03  0.58614841080E+03  0.00000000000E+00 0. -1.
         -3    1    6    6    0  503 -0.46837706927E+02  0.74310836534E+01  0.13267388642E+02  0.49244445329E+02  0.00000000000E+00 0.  1.
<mgrwt>
<rscale>  0 0.15513444E+04</rscale>
<asrwt>0</asrwt>
<pdfrwt beam="1">  1        2 0.25397517E+00 0.15513444E+04</pdfrwt>
<pdfrwt beam="2">  1       -2 0.24866320E+00 0.15513444E+04</pdfrwt>
<totfact> 0.63926555E-01</totfact>
</mgrwt>
</event>
<event>
12    1  0.3147868E-008  0.8386585E+03  0.7818608E-02  0.9505687E-01
         -2   -1    0    0    0  501 -0.00000000000E+00  0.00000000000E+00  0.36489108188E+03  0.36489108188E+03  0.00000000000E+00 0.  1.
          2   -1    0    0  501    0  0.00000000000E+00 -0.00000000000E+00 -0.26609867275E+04  0.26609867275E+04  0.00000000000E+00 0. -1.
         23    2    1    2    0    0  0.33057088868E+03 -0.67505239829E+03 -0.17795953116E+04  0.19341376849E+04  0.94637510588E+02 0.  0.
    5000000    2    1    2    0    0 -0.33057088868E+03  0.67505239829E+03 -0.51650033410E+03  0.10917401245E+04  0.60012586302E+03 0.  0.
         23    2    4    4    0    0 -0.45567990009E+03  0.40830988915E+03 -0.20063974045E+03  0.65029576752E+03  0.90923830119E+02 0.  0.
         23    2    4    4    0    0  0.12510901142E+03  0.26674250914E+03 -0.31586059365E+03  0.44144435699E+03  0.91111880543E+02 0.  0.
          5    1    3    3  502    0  0.64483506716E+01 -0.73342312992E+02 -0.19108101014E+03  0.20482851007E+03  0.47000000000E+01 0. -1.
         -5    1    3    3    0  502  0.32412253800E+03 -0.60171008530E+03 -0.15885143014E+04  0.17293091748E+04  0.47000000000E+01 0.  1.
         11    1    5    5    0    0 -0.31348107942E+03  0.29136678580E+03 -0.18260322773E+03  0.46530520070E+03  0.00000000000E+00 0.  1.
        -11    1    5    5    0    0 -0.14219882068E+03  0.11694310335E+03 -0.18036512721E+02  0.18499056682E+03  0.00000000000E+00 0. -1.
          4    1    6    6  503    0  0.46101681335E+02  0.19787699319E+03 -0.21898795244E+03  0.29872461025E+03  0.00000000000E+00 0. -1.
         -4    1    6    6    0  503  0.79007330080E+02  0.68865515947E+02 -0.96872641209E+02  0.14271974673E+03  0.00000000000E+00 0.  1.
<mgrwt>
<rscale>  0 0.83865851E+03</rscale>
<asrwt>0</asrwt>
<pdfrwt beam="1">  1        2 0.40938256E+00 0.83865851E+03</pdfrwt>
<pdfrwt beam="2">  1       -2 0.56137091E-01 0.83865851E+03</pdfrwt>
<totfact> 0.86653501E+00</totfact>
</mgrwt>
</event>
<event>
12    1  0.3147868E-008  0.4693689E+03  0.7818608E-02  0.1022098E+00
          2   -1    0    0  501    0  0.00000000000E+00  0.00000000000E+00  0.24194669673E+04  0.24194669673E+04  0.00000000000E+00 0. -1.
         -2   -1    0    0    0  501 -0.00000000000E+00 -0.00000000000E+00 -0.11034058974E+03  0.11034058974E+03  0.00000000000E+00 0.  1.
         23    2    1    2    0    0  0.33383636612E+03 -0.10873250634E+01  0.72760910771E+03  0.80571553941E+03  0.91184511863E+02 0.  0.
    5000000    2    1    2    0    0 -0.33383636612E+03  0.10873250634E+01  0.15815172699E+04  0.17240920176E+04  0.59987374403E+03 0.  0.
         23    2    4    4    0    0 -0.35666733925E+03 -0.17444115552E+03  0.13903162737E+04  0.14487099624E+04  0.90221431016E+02 0.  0.
         23    2    4    4    0    0  0.22830973128E+02  0.17552848059E+03  0.19120099616E+03  0.27538205523E+03  0.89140084023E+02 0.  0.
          5    1    3    3  502    0  0.14812873534E+03 -0.36179680278E+02  0.39003417611E+03  0.41880764085E+03  0.47000000000E+01 0. -1.
         -5    1    3    3    0  502  0.18570763079E+03  0.35092355214E+02  0.33757493159E+03  0.38690789856E+03  0.47000000000E+01 0.  1.
         11    1    5    5    0    0 -0.95121733030E+02 -0.13530471618E+02  0.25179909351E+03  0.26950695955E+03  0.00000000000E+00 0. -1.
        -11    1    5    5    0    0 -0.26154560622E+03 -0.16091068390E+03  0.11385171802E+04  0.11792030029E+04  0.00000000000E+00 0.  1.
          1    1    6    6  503    0 -0.29831147622E+02  0.60115728081E+02  0.40458651715E+02  0.78362622658E+02  0.00000000000E+00 0. -1.
         -1    1    6    6    0  503  0.52662120750E+02  0.11541275250E+03  0.15074234444E+03  0.19701943257E+03  0.00000000000E+00 0.  1.
<mgrwt>
<rscale>  0 0.46936891E+03</rscale>
<asrwt>0</asrwt>
<pdfrwt beam="1">  1        2 0.37222565E+00 0.46936891E+03</pdfrwt>
<pdfrwt beam="2">  1       -2 0.16975477E-01 0.46936891E+03</pdfrwt>
<totfact> 0.11846072E+02</totfact>
</mgrwt>
</event>
<event>
12    1  0.3147868E-008  0.6872176E+03  0.7818608E-02  0.9739345E-01
         -1   -1    0    0    0  501 -0.00000000000E+00  0.00000000000E+00  0.99931703549E+03  0.99931703549E+03  0.00000000000E+00 0.  1.
          1   -1    0    0  501    0  0.00000000000E+00 -0.00000000000E+00 -0.61502306296E+03  0.61502306296E+03  0.00000000000E+00 0. -1.
         23    2    1    2    0    0 -0.60735181553E+03  0.26810395604E+03  0.21221416662E+03  0.70280375583E+03  0.90234736218E+02 0.  0.
    5000000    2    1    2    0    0  0.60735181553E+03 -0.26810395604E+03  0.17207980591E+03  0.91153634262E+03  0.60044240794E+03 0.  0.
         23    2    4    4    0    0  0.15019142857E+03  0.31617098376E+02  0.29544978288E+03  0.34399674445E+03  0.86522135125E+02 0.  0.
         23    2    4    4    0    0  0.45716038696E+03 -0.29972105442E+03 -0.12336997697E+03  0.56753959817E+03  0.89736917768E+02 0.  0.
          5    1    3    3  502    0 -0.12155762042E+03  0.85415889516E+02  0.23270566666E+02  0.15045178143E+03  0.47000000000E+01 0. -1.
         -5    1    3    3    0  502 -0.48579419511E+03  0.18268806653E+03  0.18894359995E+03  0.55235197440E+03  0.47000000000E+01 0.  1.
         13    1    5    5    0    0  0.14821962883E+03  0.28503708002E+02  0.21078856015E+03  0.25925535063E+03  0.00000000000E+00 0. -1.
        -13    1    5    5    0    0  0.19717997457E+01  0.31133903736E+01  0.84661222726E+02  0.84741393824E+02  0.00000000000E+00 0.  1.
          3    1    6    6  503    0  0.23140756366E+03 -0.10542395958E+03 -0.33899571728E+02  0.25654015813E+03  0.00000000000E+00 0. -1.
         -3    1    6    6    0  503  0.22575282330E+03 -0.19429709484E+03 -0.89470405239E+02  0.31099944004E+03  0.00000000000E+00 0.  1.
<mgrwt>
<rscale>  0 0.68721759E+03</rscale>
<asrwt>0</asrwt>
<pdfrwt beam="1">  1        1 0.94618933E-01 0.68721759E+03</pdfrwt>
<pdfrwt beam="2">  1       -1 0.15374108E+00 0.68721759E+03</pdfrwt>
<totfact> 0.11195309E+01</totfact>
</mgrwt>
</event>
<event>
12    1  0.3147868E-008  0.5348080E+03  0.7818608E-02  0.1005073E+00
         -1   -1    0    0    0  501 -0.00000000000E+00  0.00000000000E+00  0.66805700495E+03  0.66805700495E+03  0.00000000000E+00 0.  1.
          1   -1    0    0  501    0  0.00000000000E+00 -0.00000000000E+00 -0.65908611444E+03  0.65908611444E+03  0.00000000000E+00 0. -1.
         23    2    1    2    0    0  0.25646419980E+03  0.40709807270E+03  0.21043224981E+03  0.53219618607E+03  0.86303662345E+02 0.  0.
    5000000    2    1    2    0    0 -0.25646419980E+03 -0.40709807270E+03 -0.20146135929E+03  0.79494693332E+03  0.59987600463E+03 0.  0.
         23    2    4    4    0    0 -0.15811373111E+03 -0.49752791875E+01  0.15537547489E+03  0.24026436083E+03  0.92524156408E+02 0.  0.
         23    2    4    4    0    0 -0.98350468695E+02 -0.40212279351E+03 -0.35683683419E+03  0.55468257249E+03  0.94681963636E+02 0.  0.
          5    1    3    3  502    0  0.81792563693E+02  0.93404988503E+02  0.90169390495E+02  0.15351587649E+03  0.47000000000E+01 0. -1.
         -5    1    3    3    0  502  0.17467163611E+03  0.31369308419E+03  0.12026285931E+03  0.37868030958E+03  0.47000000000E+01 0.  1.
         11    1    5    5    0    0 -0.46975603951E+02  0.30073721622E+02  0.14878188146E+02  0.57727779979E+02  0.00000000000E+00 0. -1.
        -11    1    5    5    0    0 -0.11113812715E+03 -0.35049000809E+02  0.14049728675E+03  0.18253658085E+03  0.00000000000E+00 0.  1.
          2    1    6    6  503    0 -0.14974298544E+02 -0.65500205473E+02 -0.11042111356E+03  0.12925683291E+03  0.00000000000E+00 0. -1.
         -2    1    6    6    0  503 -0.83376170151E+02 -0.33662258804E+03 -0.24641572063E+03  0.42542573958E+03  0.00000000000E+00 0.  1.
<mgrwt>
<rscale>  0 0.53480799E+03</rscale>
<asrwt>0</asrwt>
<pdfrwt beam="1">  1        1 0.10139786E+00 0.53480799E+03</pdfrwt>
<pdfrwt beam="2">  1       -1 0.10277800E+00 0.53480799E+03</pdfrwt>
<totfact> 0.28097270E+01</totfact>
</mgrwt>
</event>
<event>
12    1  0.3147868E-008  0.2585441E+04  0.7818608E-02  0.8373163E-01
         -2   -1    0    0    0  501 -0.00000000000E+00  0.00000000000E+00  0.27229285325E+04  0.27229285325E+04  0.00000000000E+00 0.  1.
          2   -1    0    0  501    0  0.00000000000E+00 -0.00000000000E+00 -0.24743537637E+04  0.24743537637E+04  0.00000000000E+00 0. -1.
         23    2    1    2    0    0 -0.17702648682E+04  0.18454741251E+04  0.24808307257E+03  0.25706640551E+04  0.84593282215E+02 0.  0.
    5000000    2    1    2    0    0  0.17702648682E+04 -0.18454741251E+04  0.49169619004E+00  0.26266182411E+04  0.59959210531E+03 0.  0.
         23    2    4    4    0    0  0.42019112454E+03 -0.79162743617E+03  0.11443536336E+03  0.90775796627E+03  0.87718265471E+02 0.  0.
         23    2    4    4    0    0  0.13500737437E+04 -0.10538466889E+04 -0.11394366717E+03  0.17188602748E+04  0.90584369621E+02 0.  0.
          5    1    3    3  502    0 -0.67084352426E+03  0.69079251585E+03  0.13392039310E+03  0.97220476016E+03  0.47000000000E+01 0. -1.
         -5    1    3    3    0  502 -0.10994213440E+04  0.11546816092E+04  0.11416267947E+03  0.15984592950E+04  0.47000000000E+01 0.  1.
         11    1    5    5    0    0  0.31048087610E+03 -0.49622987541E+03  0.78789321000E+02  0.59063543813E+03  0.00000000000E+00 0.  1.
        -11    1    5    5    0    0  0.10971024844E+03 -0.29539756076E+03  0.35646042362E+02  0.31712252814E+03  0.00000000000E+00 0. -1.
          4    1    6    6  503    0  0.19602781736E+03 -0.13650052587E+03 -0.44630527405E+02  0.24300449115E+03  0.00000000000E+00 0. -1.
         -4    1    6    6    0  503  0.11540459263E+04 -0.91734616304E+03 -0.69313139767E+02  0.14758557837E+04  0.00000000000E+00 0.  1.
<mgrwt>
<rscale>  0 0.25854409E+04</rscale>
<asrwt>0</asrwt>
<pdfrwt beam="1">  1        2 0.38066981E+00 0.25854409E+04</pdfrwt>
<pdfrwt beam="2">  1       -2 0.41891208E+00 0.25854409E+04</pdfrwt>
<totfact> 0.16714054E-02</totfact>
</mgrwt>
</event>
<event>
12    1  0.3147868E-008  0.1633607E+04  0.7818608E-02  0.8800164E-01
         -1   -1    0    0    0  501 -0.00000000000E+00  0.00000000000E+00  0.75158682483E+03  0.75158682483E+03  0.00000000000E+00 0.  1.
          1   -1    0    0  501    0  0.00000000000E+00 -0.00000000000E+00 -0.36173216716E+04  0.36173216716E+04  0.00000000000E+00 0. -1.
         23    2    1    2    0    0  0.11424779578E+04 -0.10934129857E+04 -0.16385810991E+04  0.22792259532E+04  0.95472960462E+02 0.  0.
    5000000    2    1    2    0    0 -0.11424779578E+04  0.10934129857E+04 -0.12271537477E+04  0.20896825432E+04  0.60004913937E+03 0.  0.
         23    2    4    4    0    0 -0.71302938071E+03  0.10145229627E+04 -0.94487461436E+03  0.15617377453E+04  0.92568939305E+02 0.  0.
         23    2    4    4    0    0 -0.42944857713E+03  0.78890022920E+02 -0.28227913334E+03  0.52794479795E+03  0.91621419131E+02 0.  0.
          5    1    3    3  502    0  0.66059419199E+03 -0.64351164791E+03 -0.88868248470E+03  0.12807304854E+04  0.47000000000E+01 0. -1.
         -5    1    3    3    0  502  0.48188376585E+03 -0.44990133774E+03 -0.74989861437E+03  0.99849546785E+03  0.47000000000E+01 0.  1.
         11    1    5    5    0    0 -0.45861486528E+03  0.72438976654E+03 -0.63746578616E+03  0.10683776285E+04  0.00000000000E+00 0. -1.
        -11    1    5    5    0    0 -0.25441451543E+03  0.29013319619E+03 -0.30740882821E+03  0.49336011681E+03  0.00000000000E+00 0.  1.
          3    1    6    6  503    0 -0.34429017216E+03  0.33373490272E+02 -0.24742898322E+03  0.42528885976E+03  0.00000000000E+00 0. -1.
         -3    1    6    6    0  503 -0.85158404979E+02  0.45516532648E+02 -0.34850150121E+02  0.10265593819E+03  0.00000000000E+00 0.  1.
<mgrwt>
<rscale>  0 0.16336074E+04</rscale>
<asrwt>0</asrwt>
<pdfrwt beam="1">  1        1 0.55651103E+00 0.16336074E+04</pdfrwt>
<pdfrwt beam="2">  1       -1 0.11562874E+00 0.16336074E+04</pdfrwt>
<totfact> 0.12912177E-01</totfact>
</mgrwt>
</event>
<event>
12    1  0.3147868E-008  0.4426718E+03  0.7818608E-02  0.1029930E+00
         -1   -1    0    0    0  501 -0.00000000000E+00  0.00000000000E+00  0.28597803592E+03  0.28597803592E+03  0.00000000000E+00 0.  1.
          1   -1    0    0  501    0  0.00000000000E+00 -0.00000000000E+00 -0.10920226401E+04  0.10920226401E+04  0.00000000000E+00 0. -1.
         23    2    1    2    0    0  0.19660753213E+03  0.16185809134E+03 -0.65469041751E+03  0.70878533471E+03  0.94363894020E+02 0.  0.
    5000000    2    1    2    0    0 -0.19660753213E+03 -0.16185809134E+03 -0.15135418662E+03  0.66921534127E+03  0.60007376193E+03 0.  0.
         23    2    4    4    0    0  0.16135240971E+03 -0.16494985222E+03 -0.16890752215E+03  0.30010782239E+03  0.91059871271E+02 0.  0.
         23    2    4    4    0    0 -0.35795994184E+03  0.30917608793E+01  0.17553335530E+02  0.36910751888E+03  0.88246030829E+02 0.  0.
          5    1    3    3  502    0  0.12921027182E+02  0.57499538600E+02 -0.17164048535E+03  0.18153703780E+03  0.47000000000E+01 0. -1.
         -5    1    3    3    0  502  0.18368650495E+03  0.10435855274E+03 -0.48304993216E+03  0.52724829691E+03  0.47000000000E+01 0.  1.
         13    1    5    5    0    0  0.84966474909E+02 -0.26766562722E+02 -0.74624512633E+02  0.11620915895E+03  0.00000000000E+00 0. -1.
        -13    1    5    5    0    0  0.76385934798E+02 -0.13818328950E+03 -0.94283009521E+02  0.18389866344E+03  0.00000000000E+00 0.  1.
          2    1    6    6  503    0 -0.80439672432E+02  0.36647134678E+02 -0.58524389208E+01  0.88587834506E+02  0.00000000000E+00 0. -1.
         -2    1    6    6    0  503 -0.27752026941E+03 -0.33555373799E+02  0.23405774450E+02  0.28051968437E+03  0.00000000000E+00 0.  1.
<mgrwt>
<rscale>  0 0.44267180E+03</rscale>
<asrwt>0</asrwt>
<pdfrwt beam="1">  1        1 0.16800348E+00 0.44267180E+03</pdfrwt>
<pdfrwt beam="2">  1       -1 0.43996622E-01 0.44267180E+03</pdfrwt>
<totfact> 0.69671244E+01</totfact>
</mgrwt>
</event>
<event>
12    1  0.3147868E-008  0.1684706E+04  0.7818608E-02  0.8770136E-01
         -2   -1    0    0    0  501 -0.00000000000E+00  0.00000000000E+00  0.40506781673E+04  0.40506781673E+04  0.00000000000E+00 0.  1.
          2   -1    0    0  501    0  0.00000000000E+00 -0.00000000000E+00 -0.73548605824E+03  0.73548605824E+03  0.00000000000E+00 0. -1.
         23    2    1    2    0    0  0.15788601003E+04 -0.53727707242E+03  0.14318721137E+04  0.22000173528E+04  0.91393290526E+02 0.  0.
    5000000    2    1    2    0    0 -0.15788601003E+04  0.53727707242E+03  0.18833199953E+04  0.25861468728E+04  0.59982962079E+03 0.  0.
         23    2    4    4    0    0 -0.11397422943E+04  0.51351354507E+03  0.16718094949E+04  0.20893783046E+04  0.88577954272E+02 0.  0.
         23    2    4    4    0    0 -0.43911780596E+03  0.23763527356E+02  0.21151050036E+03  0.49676856815E+03  0.93022394021E+02 0.  0.
          5    1    3    3  502    0  0.10440748507E+04 -0.36723022169E+03  0.89491937440E+03  0.14233246665E+04  0.47000000000E+01 0. -1.
         -5    1    3    3    0  502  0.53478524954E+03 -0.17004685074E+03  0.53695273934E+03  0.77669268624E+03  0.47000000000E+01 0.  1.
         13    1    5    5    0    0 -0.52006643991E+03  0.18608733803E+03  0.73604647676E+03  0.92025106099E+03  0.00000000000E+00 0. -1.
        -13    1    5    5    0    0 -0.61967585440E+03  0.32742620704E+03  0.93576301819E+03  0.11691272436E+04  0.00000000000E+00 0.  1.
          2    1    6    6  503    0 -0.27395970648E+03  0.56810728839E+02  0.11379589978E+03  0.30204451078E+03  0.00000000000E+00 0. -1.
         -2    1    6    6    0  503 -0.16515809948E+03 -0.33047201483E+02  0.97714600575E+02  0.19472405736E+03  0.00000000000E+00 0.  1.
<mgrwt>
<rscale>  0 0.16847056E+04</rscale>
<asrwt>0</asrwt>
<pdfrwt beam="1">  1        2 0.11315170E+00 0.16847056E+04</pdfrwt>
<pdfrwt beam="2">  1       -2 0.62318124E+00 0.16847056E+04</pdfrwt>
<totfact> 0.14504419E-02</totfact>
</mgrwt>
</event>
<event>
12    1  0.3147868E-008  0.6547308E+03  0.7818608E-02  0.9797942E-01
          3   -1    0    0  501    0  0.00000000000E+00  0.00000000000E+00  0.20169148134E+04  0.20169148134E+04  0.00000000000E+00 0. -1.
         -3   -1    0    0    0  501 -0.00000000000E+00 -0.00000000000E+00 -0.21697622519E+03  0.21697622519E+03  0.00000000000E+00 0.  1.
         23    2    1    2    0    0 -0.32697397030E+03  0.40486341713E+03  0.69394545508E+03  0.87225243453E+03  0.91856687992E+02 0.  0.
    5000000    2    1    2    0    0  0.32697397030E+03 -0.40486341713E+03  0.11059931332E+04  0.13616386041E+04  0.60001042805E+03 0.  0.
         23    2    4    4    0    0  0.76521235565E+02 -0.49661465631E+03  0.72671329481E+03  0.88825418960E+03  0.91660657554E+02 0.  0.
         23    2    4    4    0    0  0.25045273474E+03  0.91751239177E+02  0.37927983835E+03  0.47338441449E+03  0.95366377068E+02 0.  0.
          5    1    3    3  502    0 -0.32813003225E+03  0.37573675164E+03  0.65812013267E+03  0.82582784140E+03  0.47000000000E+01 0. -1.
         -5    1    3    3    0  502  0.11560619476E+01  0.29126665491E+02  0.35825322405E+02  0.46424593130E+02  0.47000000000E+01 0.  1.
         13    1    5    5    0    0  0.81274748310E+02 -0.32453579548E+03  0.42495956595E+03  0.54085090362E+03  0.00000000000E+00 0.  1.
        -13    1    5    5    0    0 -0.47535127452E+01 -0.17207886083E+03  0.30175372886E+03  0.34740328598E+03  0.00000000000E+00 0. -1.
          4    1    6    6  503    0  0.95433372192E+02  0.24529842999E+01  0.79280030788E+02  0.12409217921E+03  0.00000000000E+00 0.  1.
         -4    1    6    6    0  503  0.15501936255E+03  0.89298254877E+02  0.29999980756E+03  0.34929223528E+03  0.00000000000E+00 0. -1.
<mgrwt>
<rscale>  0 0.65473082E+03</rscale>
<asrwt>0</asrwt>
<pdfrwt beam="1">  1        3 0.31029458E+00 0.65473082E+03</pdfrwt>
<pdfrwt beam="2">  1       -3 0.33380959E-01 0.65473082E+03</pdfrwt>
<totfact> 0.80908100E-01</totfact>
</mgrwt>
</event>
<event>
12    1  0.3147868E-008  0.9689857E+03  0.7818608E-02  0.9343230E-01
         -2   -1    0    0    0  501 -0.00000000000E+00  0.00000000000E+00  0.63204727435E+03  0.63204727435E+03  0.00000000000E+00 0.  1.
          2   -1    0    0  501    0  0.00000000000E+00 -0.00000000000E+00 -0.20155259131E+04  0.20155259131E+04  0.00000000000E+00 0. -1.
         23    2    1    2    0    0 -0.82775781171E+03 -0.50163375733E+03 -0.11119118577E+04  0.14768485324E+04  0.88961716945E+02 0.  0.
    5000000    2    1    2    0    0  0.82775781171E+03  0.50163375733E+03 -0.27156678105E+03  0.11707246550E+04  0.60002356620E+03 0.  0.
         23    2    4    4    0    0  0.32255269888E+03  0.20186947392E+03 -0.40309117176E+03  0.56210103068E+03  0.93185556174E+02 0.  0.
         23    2    4    4    0    0  0.50520511283E+03  0.29976428340E+03  0.13152439071E+03  0.60862362436E+03  0.89628227378E+02 0.  0.
          5    1    3    3  502    0 -0.43413658376E+03 -0.22617797744E+03 -0.51407721228E+03  0.70987922988E+03  0.47000000000E+01 0. -1.
         -5    1    3    3    0  502 -0.39362122795E+03 -0.27545577989E+03 -0.59783464544E+03  0.76696930255E+03  0.47000000000E+01 0.  1.
         11    1    5    5    0    0  0.33696609755E+02  0.21270930009E+02 -0.84020351147E+01  0.40724785653E+02  0.00000000000E+00 0. -1.
        -11    1    5    5    0    0  0.28885608913E+03  0.18059854391E+03 -0.39468913664E+03  0.52137624502E+03  0.00000000000E+00 0.  1.
          2    1    6    6  503    0  0.23352247327E+03  0.13616798851E+03  0.14933307888E+02  0.27073505554E+03  0.00000000000E+00 0. -1.
         -2    1    6    6    0  503  0.27168263956E+03  0.16359629490E+03  0.11659108282E+03  0.33788856881E+03  0.00000000000E+00 0.  1.
<mgrwt>
<rscale>  0 0.96898569E+03</rscale>
<asrwt>0</asrwt>
<pdfrwt beam="1">  1        2 0.31008091E+00 0.96898569E+03</pdfrwt>
<pdfrwt beam="2">  1       -2 0.97238043E-01 0.96898569E+03</pdfrwt>
<totfact> 0.58071454E+00</totfact>
</mgrwt>
</event>
<event>
12    1  0.3147868E-008  0.7327149E+03  0.7818608E-02  0.9662865E-01
          1   -1    0    0  501    0  0.00000000000E+00  0.00000000000E+00  0.16982982868E+04  0.16982982868E+04  0.00000000000E+00 0. -1.
         -1   -1    0    0    0  501 -0.00000000000E+00 -0.00000000000E+00 -0.38551178609E+03  0.38551178609E+03  0.00000000000E+00 0.  1.
         23    2    1    2    0    0  0.14594510373E+03 -0.67732873616E+03  0.48641779209E+03  0.84973324245E+03  0.73281134899E+02 0.  0.
    5000000    2    1    2    0    0 -0.14594510373E+03  0.67732873616E+03  0.82636870866E+03  0.12340768305E+04  0.59998849218E+03 0.  0.
         23    2    4    4    0    0 -0.18783644015E+03  0.20403151059E+03  0.66190588704E+03  0.72330925264E+03  0.90252346803E+02 0.  0.
         23    2    4    4    0    0  0.41891336424E+02  0.47329722557E+03  0.16446282162E+03  0.51076757784E+03  0.89835132743E+02 0.  0.
          5    1    3    3  502    0  0.10763471074E+03 -0.42932810821E+03  0.27124389312E+03  0.51913697134E+03  0.47000000000E+01 0. -1.
         -5    1    3    3    0  502  0.38310392986E+02 -0.24800062795E+03  0.21517389897E+03  0.33059627112E+03  0.47000000000E+01 0.  1.
         13    1    5    5    0    0 -0.91502069609E+02  0.44195573233E+02  0.18289475008E+03  0.20922802643E+03  0.00000000000E+00 0.  1.
        -13    1    5    5    0    0 -0.96334370542E+02  0.15983593736E+03  0.47901113696E+03  0.51408122622E+03  0.00000000000E+00 0. -1.
          2    1    6    6  503    0  0.32369015074E+02  0.46471679794E+02  0.19246695354E+02  0.59814759398E+02  0.00000000000E+00 0. -1.
         -2    1    6    6    0  503  0.95223213499E+01  0.42682554578E+03  0.14521612627E+03  0.45095281844E+03  0.00000000000E+00 0.  1.
<mgrwt>
<rscale>  0 0.73271494E+03</rscale>
<asrwt>0</asrwt>
<pdfrwt beam="1">  1        1 0.26127666E+00 0.73271494E+03</pdfrwt>
<pdfrwt beam="2">  1       -1 0.59309507E-01 0.73271494E+03</pdfrwt>
<totfact> 0.14347391E+01</totfact>
</mgrwt>
</event>
<event>
12    1  0.3147868E-008  0.1094746E+04  0.7818608E-02  0.9210328E-01
          2   -1    0    0  501    0  0.00000000000E+00  0.00000000000E+00  0.82003564790E+03  0.82003564790E+03  0.00000000000E+00 0. -1.
         -2   -1    0    0    0  501 -0.00000000000E+00 -0.00000000000E+00 -0.20155817186E+04  0.20155817186E+04  0.00000000000E+00 0.  1.
         23    2    1    2    0    0 -0.12898112418E+03 -0.10538870137E+04 -0.12139797358E+04  0.16154955791E+04  0.93622643069E+02 0.  0.
    5000000    2    1    2    0    0  0.12898112418E+03  0.10538870137E+04  0.18433665063E+02  0.12201217874E+04  0.60086887764E+03 0.  0.
         23    2    4    4    0    0  0.23168975142E+03  0.46879401378E+03 -0.21930227695E+03  0.57391314947E+03  0.88514666516E+02 0.  0.
         23    2    4    4    0    0 -0.10270862724E+03  0.58509299987E+03  0.23773594201E+03  0.64620863792E+03  0.90467369743E+02 0.  0.
          5    1    3    3  502    0 -0.96501174897E+02 -0.74081093483E+03 -0.91610676196E+03  0.11821112499E+04  0.47000000000E+01 0. -1.
         -5    1    3    3    0  502 -0.32479949283E+02 -0.31307607883E+03 -0.29787297379E+03  0.43338432915E+03  0.47000000000E+01 0.  1.
         13    1    5    5    0    0  0.14273108875E+03  0.21724633075E+03 -0.14165125692E+03  0.29602907038E+03  0.00000000000E+00 0.  1.
        -13    1    5    5    0    0  0.88958662675E+02  0.25154768303E+03 -0.77651020027E+02  0.27788407910E+03  0.00000000000E+00 0. -1.
          3    1    6    6  503    0 -0.94697842937E+02  0.27838349684E+03  0.11930085910E+03  0.31732908431E+03  0.00000000000E+00 0. -1.
         -3    1    6    6    0  503 -0.80107843071E+01  0.30670950303E+03  0.11843508291E+03  0.32887955361E+03  0.00000000000E+00 0.  1.
<mgrwt>
<rscale>  0 0.10947463E+04</rscale>
<asrwt>0</asrwt>
<pdfrwt beam="1">  1        2 0.12615933E+00 0.10947463E+04</pdfrwt>
<pdfrwt beam="2">  1       -2 0.31008949E+00 0.10947463E+04</pdfrwt>
<totfact> 0.91251504E-01</totfact>
</mgrwt>
</event>
<event>
12    1  0.3147868E-008  0.2911560E+03  0.7818608E-02  0.1089747E+00
         -2   -1    0    0    0  501 -0.00000000000E+00  0.00000000000E+00  0.15557267800E+04  0.15557267800E+04  0.00000000000E+00 0.  1.
          2   -1    0    0  501    0  0.00000000000E+00 -0.00000000000E+00 -0.86075274882E+02  0.86075274882E+02  0.00000000000E+00 0. -1.
         23    2    1    2    0    0 -0.80291438906E+02  0.39443365695E+01  0.35172283603E+03  0.37049156544E+03  0.84218606777E+02 0.  0.
    5000000    2    1    2    0    0  0.80291438906E+02 -0.39443365695E+01  0.11179286691E+04  0.12713104895E+04  0.60000298202E+03 0.  0.
         23    2    4    4    0    0 -0.18299521051E+03  0.61145064387E+02  0.14537856799E+03  0.25748578084E+03  0.89095641485E+02 0.  0.
         23    2    4    4    0    0  0.26328664942E+03 -0.65089400956E+02  0.97255010111E+03  0.10138247086E+04  0.91816941530E+02 0.  0.
          5    1    3    3  502    0 -0.10125296860E+01  0.22368938635E+02  0.25607309091E+02  0.34339757002E+02  0.47000000000E+01 0. -1.
         -5    1    3    3    0  502 -0.79278909220E+02 -0.18424602066E+02  0.32611552694E+03  0.33615180844E+03  0.47000000000E+01 0.  1.
         11    1    5    5    0    0 -0.12132851811E+03  0.32286503456E+01  0.11611086290E+03  0.16796656207E+03  0.00000000000E+00 0. -1.
        -11    1    5    5    0    0 -0.61666692399E+02  0.57916414041E+02  0.29267705093E+02  0.89519218765E+02  0.00000000000E+00 0.  1.
          4    1    6    6  503    0  0.97032419930E+02 -0.14202830526E+02  0.21095106203E+03  0.23263138543E+03  0.00000000000E+00 0. -1.
         -4    1    6    6    0  503  0.16625422949E+03 -0.50886570430E+02  0.76159903908E+03  0.78119332319E+03  0.00000000000E+00 0.  1.
<mgrwt>
<rscale>  0 0.29115602E+03</rscale>
<asrwt>0</asrwt>
<pdfrwt beam="1">  1        2 0.13242351E-01 0.29115602E+03</pdfrwt>
<pdfrwt beam="2">  1       -2 0.23934256E+00 0.29115602E+03</pdfrwt>
<totfact> 0.37471677E+01</totfact>
</mgrwt>
</event>
<event>
12    1  0.3147868E-008  0.9843500E+03  0.7818608E-02  0.9325878E-01
         -2   -1    0    0    0  501 -0.00000000000E+00  0.00000000000E+00  0.48344903976E+03  0.48344903976E+03  0.00000000000E+00 0.  1.
          2   -1    0    0  501    0  0.00000000000E+00 -0.00000000000E+00 -0.20946609478E+04  0.20946609478E+04  0.00000000000E+00 0. -1.
         23    2    1    2    0    0  0.27327134785E+03  0.87206087479E+03 -0.68194430742E+03  0.11438177862E+04  0.90020501525E+02 0.  0.
    5000000    2    1    2    0    0 -0.27327134785E+03 -0.87206087479E+03 -0.92926760059E+03  0.14342922013E+04  0.59873904702E+03 0.  0.
         23    2    4    4    0    0 -0.59182677105E+02  0.47401571111E+02 -0.20821401429E+02  0.12091793069E+03  0.91859223764E+02 0.  0.
         23    2    4    4    0    0 -0.21408867074E+03 -0.91946244590E+03 -0.90844619917E+03  0.13133742707E+04  0.91827717394E+02 0.  0.
          5    1    3    3  502    0  0.13309846255E+02  0.34037303478E+02 -0.51739932436E+02  0.63520080635E+02  0.47000000000E+01 0. -1.
         -5    1    3    3    0  502  0.25996150159E+03  0.83802357131E+03 -0.63020437499E+03  0.10802977056E+04  0.47000000000E+01 0.  1.
         11    1    5    5    0    0 -0.39511485650E+02 -0.14835324234E+02  0.16977478371E+02  0.45491527950E+02  0.00000000000E+00 0.  1.
        -11    1    5    5    0    0 -0.19671191455E+02  0.62236895345E+02 -0.37798879799E+02  0.75426402735E+02  0.00000000000E+00 0. -1.
          3    1    6    6  503    0 -0.17392016231E+03 -0.59174418136E+03 -0.62723615431E+03  0.87967868697E+03  0.00000000000E+00 0. -1.
         -3    1    6    6    0  503 -0.40168508430E+02 -0.32771826454E+03 -0.28121004486E+03  0.43369558369E+03  0.00000000000E+00 0.  1.
<mgrwt>
<rscale>  0 0.98434997E+03</rscale>
<asrwt>0</asrwt>
<pdfrwt beam="1">  1        2 0.32225553E+00 0.98434997E+03</pdfrwt>
<pdfrwt beam="2">  1       -2 0.74376774E-01 0.98434997E+03</pdfrwt>
<totfact> 0.96791009E+00</totfact>
</mgrwt>
</event>
<event>
12    1  0.3147868E-008  0.6942430E+03  0.7818608E-02  0.9727128E-01
          1   -1    0    0  501    0  0.00000000000E+00  0.00000000000E+00  0.11962952115E+04  0.11962952115E+04  0.00000000000E+00 0. -1.
         -1   -1    0    0    0  501 -0.00000000000E+00 -0.00000000000E+00 -0.84243732460E+03  0.84243732460E+03  0.00000000000E+00 0.  1.
         23    2    1    2    0    0 -0.96057720637E+02 -0.57571296231E+03  0.87268373031E+03  0.10539584149E+04  0.92622602132E+02 0.  0.
    5000000    2    1    2    0    0  0.96057720637E+02  0.57571296231E+03 -0.51882584338E+03  0.98477412129E+03  0.59993942488E+03 0.  0.
         23    2    4    4    0    0  0.22925330030E+03  0.29965692097E+02 -0.73091913401E+02  0.26158339137E+03  0.98124535345E+02 0.  0.
         23    2    4    4    0    0 -0.13319557966E+03  0.54574727022E+03 -0.44573392998E+03  0.72319072991E+03  0.93514437976E+02 0.  0.
          5    1    3    3  502    0 -0.14473028395E+02 -0.24603659609E+03  0.30183712069E+03  0.38970657242E+03  0.47000000000E+01 0. -1.
         -5    1    3    3    0  502 -0.81584692242E+02 -0.32967636623E+03  0.57084660962E+03  0.66425184243E+03  0.47000000000E+01 0.  1.
         11    1    5    5    0    0  0.14288995196E+03  0.36998137448E+02 -0.90590455969E+02  0.17318496257E+03  0.00000000000E+00 0. -1.
        -11    1    5    5    0    0  0.86363348334E+02 -0.70324453515E+01  0.17498542568E+02  0.88398428804E+02  0.00000000000E+00 0.  1.
          3    1    6    6  503    0  0.26500797670E+01  0.14317370867E+03 -0.13510690989E+03  0.19687460699E+03  0.00000000000E+00 0. -1.
         -3    1    6    6    0  503 -0.13584565943E+03  0.40257356155E+03 -0.31062702008E+03  0.52631612292E+03  0.00000000000E+00 0.  1.
<mgrwt>
<rscale>  0 0.69424297E+03</rscale>
<asrwt>0</asrwt>
<pdfrwt beam="1">  1        1 0.18404542E+00 0.69424297E+03</pdfrwt>
<pdfrwt beam="2">  1       -1 0.12960574E+00 0.69424297E+03</pdfrwt>
<totfact> 0.57533466E+00</totfact>
</mgrwt>
</event>
<event>
12    1  0.3147868E-008  0.2417074E+04  0.7818608E-02  0.8433139E-01
         -2   -1    0    0    0  501 -0.00000000000E+00  0.00000000000E+00  0.18843399507E+04  0.18843399507E+04  0.00000000000E+00 0.  1.
          2   -1    0    0  501    0  0.00000000000E+00 -0.00000000000E+00 -0.35961156008E+04  0.35961156008E+04  0.00000000000E+00 0. -1.
         23    2    1    2    0    0  0.21052728978E+04  0.11678286430E+04  0.95000647466E+02  0.24111355713E+04  0.92476520088E+02 0.  0.
    5000000    2    1    2    0    0 -0.21052728978E+04 -0.11678286430E+04 -0.18067762976E+04  0.30693199802E+04  0.60023898378E+03 0.  0.
         23    2    4    4    0    0 -0.51304996617E+03 -0.15968569175E+03 -0.16814038048E+03  0.57030175700E+03  0.90846676083E+02 0.  0.
         23    2    4    4    0    0 -0.15922229316E+04 -0.10081429512E+04 -0.16386359171E+04  0.24990182232E+04  0.91860420478E+02 0.  0.
          5    1    3    3  502    0  0.17251327348E+04  0.96321014875E+03  0.43141397579E+02  0.19762945159E+04  0.47000000000E+01 0. -1.
         -5    1    3    3    0  502  0.38014016300E+03  0.20461849423E+03  0.51859249887E+02  0.43484105545E+03  0.47000000000E+01 0.  1.
         11    1    5    5    0    0 -0.44693584788E+03 -0.15694639984E+03 -0.12053791267E+03  0.48878749261E+03  0.00000000000E+00 0. -1.
        -11    1    5    5    0    0 -0.66114118292E+02 -0.27392919089E+01 -0.47602467811E+02  0.81514264392E+02  0.00000000000E+00 0.  1.
          1    1    6    6  503    0 -0.12788642750E+04 -0.85138009867E+03 -0.13263251961E+04  0.20296503226E+04  0.00000000000E+00 0. -1.
         -1    1    6    6    0  503 -0.31335865664E+03 -0.15676285255E+03 -0.31231072102E+03  0.46936790058E+03  0.00000000000E+00 0.  1.
<mgrwt>
<rscale>  0 0.24170736E+04</rscale>
<asrwt>0</asrwt>
<pdfrwt beam="1">  1        2 0.55324855E+00 0.24170736E+04</pdfrwt>
<pdfrwt beam="2">  1       -2 0.28989846E+00 0.24170736E+04</pdfrwt>
<totfact> 0.21584087E-02</totfact>
</mgrwt>
</event>
<event>
12    1  0.3147868E-008  0.1019676E+04  0.7818608E-02  0.9287224E-01
         -1   -1    0    0    0  501 -0.00000000000E+00  0.00000000000E+00  0.93583623155E+03  0.93583623155E+03  0.00000000000E+00 0.  1.
          1   -1    0    0  501    0  0.00000000000E+00 -0.00000000000E+00 -0.13253724249E+04  0.13253724249E+04  0.00000000000E+00 0. -1.
         23    2    1    2    0    0 -0.23520545434E+02  0.10103000690E+04  0.24496495587E+02  0.10149020179E+04  0.90369144678E+02 0.  0.
    5000000    2    1    2    0    0  0.23520545434E+02 -0.10103000690E+04 -0.41403268889E+03  0.12463066385E+04  0.60049789687E+03 0.  0.
         23    2    4    4    0    0 -0.57793824562E+02 -0.20317358233E+03  0.13161792928E+03  0.26447337001E+03  0.89460904437E+02 0.  0.
         23    2    4    4    0    0  0.81314369996E+02 -0.80712648664E+03 -0.54565061817E+03  0.98183326844E+03  0.90536057462E+02 0.  0.
          5    1    3    3  502    0  0.32968810072E+02  0.49871216907E+03  0.17804488176E+02  0.50013984026E+03  0.47000000000E+01 0. -1.
         -5    1    3    3    0  502 -0.56489355505E+02  0.51158789991E+03  0.66920074111E+01  0.51476217769E+03  0.47000000000E+01 0.  1.
         11    1    5    5    0    0 -0.61806820944E+02 -0.18857396599E+03  0.85764177967E+02  0.21618445362E+03  0.00000000000E+00 0.  1.
        -11    1    5    5    0    0  0.40129963816E+01 -0.14599616346E+02  0.45853751310E+02  0.48288916395E+02  0.00000000000E+00 0. -1.
          1    1    6    6  503    0  0.20934814773E+02 -0.22851001188E+03 -0.20485392920E+03  0.30760400567E+03  0.00000000000E+00 0. -1.
         -1    1    6    6    0  503  0.60379555223E+02 -0.57861647477E+03 -0.34079668897E+03  0.67422926277E+03  0.00000000000E+00 0.  1.
<mgrwt>
<rscale>  0 0.10196762E+04</rscale>
<asrwt>0</asrwt>
<pdfrwt beam="1">  1        1 0.20390345E+00 0.10196762E+04</pdfrwt>
<pdfrwt beam="2">  1       -1 0.14397480E+00 0.10196762E+04</pdfrwt>
<totfact> 0.33835267E+00</totfact>
</mgrwt>
</event>
<event>
12    1  0.3147868E-008  0.1036623E+04  0.7818608E-02  0.9269265E-01
          1   -1    0    0  501    0  0.00000000000E+00  0.00000000000E+00  0.22118567611E+04  0.22118567611E+04  0.00000000000E+00 0. -1.
         -1   -1    0    0    0  501 -0.00000000000E+00 -0.00000000000E+00 -0.58008969974E+03  0.58008969974E+03  0.00000000000E+00 0.  1.
         23    2    1    2    0    0 -0.54602723759E+03 -0.78238752219E+03  0.13035873382E+04  0.16180714543E+04  0.92408352597E+02 0.  0.
    5000000    2    1    2    0    0  0.54602723759E+03  0.78238752219E+03  0.32817972309E+03  0.11738750065E+04  0.60000385106E+03 0.  0.
         23    2    4    4    0    0  0.31647806906E+03  0.81296457333E+03  0.24090029947E+03  0.90979698540E+03  0.92886138235E+02 0.  0.
         23    2    4    4    0    0  0.22954916853E+03 -0.30577051140E+02  0.87279423614E+02  0.26407802115E+03  0.92150565043E+02 0.  0.
          5    1    3    3  502    0 -0.25978809694E+03 -0.41226572828E+03  0.73218997446E+03  0.87953233865E+03  0.47000000000E+01 0. -1.
         -5    1    3    3    0  502 -0.28623914065E+03 -0.37012179391E+03  0.57139736377E+03  0.73853911561E+03  0.47000000000E+01 0.  1.
         11    1    5    5    0    0  0.11126361835E+03  0.20150339304E+03  0.91781146837E+02  0.24780433630E+03  0.00000000000E+00 0. -1.
        -11    1    5    5    0    0  0.20521445071E+03  0.61146118028E+03  0.14911915264E+03  0.66199264910E+03  0.00000000000E+00 0.  1.
          3    1    6    6  503    0  0.11263246692E+03 -0.51894469289E+02  0.74201678228E+02  0.14451642675E+03  0.00000000000E+00 0. -1.
         -3    1    6    6    0  503  0.11691670161E+03  0.21317418149E+02  0.13077745387E+02  0.11956159440E+03  0.00000000000E+00 0.  1.
<mgrwt>
<rscale>  0 0.10366231E+04</rscale>
<asrwt>0</asrwt>
<pdfrwt beam="1">  1        1 0.34028565E+00 0.10366231E+04</pdfrwt>
<pdfrwt beam="2">  1       -1 0.89244570E-01 0.10366231E+04</pdfrwt>
<totfact> 0.26552556E+00</totfact>
</mgrwt>
</event>
<event>
12    1  0.3147868E-008  0.1497985E+04  0.7818608E-02  0.8885794E-01
          2   -1    0    0  501    0  0.00000000000E+00  0.00000000000E+00  0.22981615895E+04  0.22981615895E+04  0.00000000000E+00 0. -1.
         -2   -1    0    0    0  501 -0.00000000000E+00 -0.00000000000E+00 -0.14044898690E+04  0.14044898690E+04  0.00000000000E+00 0.  1.
         23    2    1    2    0    0  0.76219944815E+03  0.12265282789E+04 -0.57548869994E+03  0.15570252525E+04  0.88435148629E+02 0.  0.
    5000000    2    1    2    0    0 -0.76219944815E+03 -0.12265282789E+04  0.14691604204E+04  0.21456262060E+04  0.59996654699E+03 0.  0.
         23    2    4    4    0    0 -0.22903028066E+03 -0.28272589542E+02  0.25589050478E+03  0.35643003222E+03  0.91149375504E+02 0.  0.
         23    2    4    4    0    0 -0.53316916749E+03 -0.11982556893E+04  0.12132699156E+04  0.17891961738E+04  0.95462045086E+02 0.  0.
          5    1    3    3  502    0  0.27515452606E+03  0.45739757312E+03 -0.16807490245E+03  0.55963721815E+03  0.47000000000E+01 0. -1.
         -5    1    3    3    0  502  0.48704492209E+03  0.76913070576E+03 -0.40741379749E+03  0.99738803435E+03  0.47000000000E+01 0.  1.
         13    1    5    5    0    0 -0.31524445271E+02  0.17539178309E+02  0.81009601522E+02  0.88679022120E+02  0.00000000000E+00 0.  1.
        -13    1    5    5    0    0 -0.19750583539E+03 -0.45811767851E+02  0.17488090325E+03  0.26775101010E+03  0.00000000000E+00 0. -1.
          3    1    6    6  503    0 -0.36383383564E+03 -0.74474315444E+03  0.81338933575E+03  0.11613008385E+04  0.00000000000E+00 0. -1.
         -3    1    6    6    0  503 -0.16933533185E+03 -0.45351253489E+03  0.39988057983E+03  0.62789533526E+03  0.00000000000E+00 0.  1.
<mgrwt>
<rscale>  0 0.14979848E+04</rscale>
<asrwt>0</asrwt>
<pdfrwt beam="1">  1        2 0.35356332E+00 0.14979848E+04</pdfrwt>
<pdfrwt beam="2">  1       -2 0.21607536E+00 0.14979848E+04</pdfrwt>
<totfact> 0.44647238E-01</totfact>
</mgrwt>
</event>
<event>
12    1  0.3147868E-008  0.3395279E+03  0.7818608E-02  0.1066997E+00
          2   -1    0    0  501    0  0.00000000000E+00  0.00000000000E+00  0.47685775975E+03  0.47685775975E+03  0.00000000000E+00 0. -1.
         -2   -1    0    0    0  501 -0.00000000000E+00 -0.00000000000E+00 -0.33233449405E+03  0.33233449405E+03  0.00000000000E+00 0.  1.
         23    2    1    2    0    0 -0.89206943709E+02  0.87524703330E+02  0.11943658065E+03  0.19598434720E+03  0.92338047698E+02 0.  0.
    5000000    2    1    2    0    0  0.89206943709E+02 -0.87524703330E+02  0.25086685060E+02  0.61320790660E+03  0.59981342304E+03 0.  0.
         23    2    4    4    0    0  0.19258571556E+03  0.14917700587E+03 -0.13756928737E+03  0.29415830135E+03  0.90888725955E+02 0.  0.
         23    2    4    4    0    0 -0.10337877185E+03 -0.23670170920E+03  0.16265597243E+03  0.31904960526E+03  0.92848347535E+02 0.  0.
          5    1    3    3  502    0  0.17919556148E+02  0.21528974804E+02  0.31450061735E+02  0.42376923340E+02  0.47000000000E+01 0. -1.
         -5    1    3    3    0  502 -0.10712649986E+03  0.65995728525E+02  0.87986518911E+02  0.15360742386E+03  0.47000000000E+01 0.  1.
         13    1    5    5    0    0  0.35023000483E+02  0.80958287098E+02 -0.50594790120E+02  0.10168917150E+03  0.00000000000E+00 0.  1.
        -13    1    5    5    0    0  0.15756271507E+03  0.68218718773E+02 -0.86974497251E+02  0.19246912985E+03  0.00000000000E+00 0. -1.
          2    1    6    6  503    0 -0.11325589958E+02 -0.96201072251E+02  0.20528592786E+02  0.99016859231E+02  0.00000000000E+00 0. -1.
         -2    1    6    6    0  503 -0.92053181890E+02 -0.14050063695E+03  0.14212737964E+03  0.22003274603E+03  0.00000000000E+00 0.  1.
<mgrwt>
<rscale>  0 0.33952793E+03</rscale>
<asrwt>0</asrwt>
<pdfrwt beam="1">  1        2 0.73362733E-01 0.33952793E+03</pdfrwt>
<pdfrwt beam="2">  1       -2 0.51128383E-01 0.33952793E+03</pdfrwt>
<totfact> 0.24198695E+02</totfact>
</mgrwt>
</event>
<event>
12    1  0.3147868E-008  0.4019825E+03  0.7818608E-02  0.1043095E+00
          1   -1    0    0  501    0  0.00000000000E+00  0.00000000000E+00  0.53952760124E+03  0.53952760124E+03  0.00000000000E+00 0. -1.
         -1   -1    0    0    0  501 -0.00000000000E+00 -0.00000000000E+00 -0.53260854306E+03  0.53260854306E+03  0.00000000000E+00 0.  1.
         23    2    1    2    0    0  0.41281216389E+02  0.35709831358E+03  0.29965169129E+02  0.37225206827E+03  0.91925766703E+02 0.  0.
    5000000    2    1    2    0    0 -0.41281216389E+02 -0.35709831358E+03 -0.23046110948E+02  0.69988407604E+03  0.60006937288E+03 0.  0.
         23    2    4    4    0    0  0.52596702599E+02 -0.40545900943E+02  0.24165656058E+03  0.26708189972E+03  0.92328027589E+02 0.  0.
         23    2    4    4    0    0 -0.93877918988E+02 -0.31655241264E+03 -0.26470267153E+03  0.43280217631E+03  0.90728859185E+02 0.  0.
          5    1    3    3  502    0  0.64300624810E+02  0.25319816119E+03  0.43494221757E+02  0.26487301959E+03  0.47000000000E+01 0. -1.
         -5    1    3    3    0  502 -0.23019408421E+02  0.10390015239E+03 -0.13529052629E+02  0.10737904868E+03  0.47000000000E+01 0.  1.
         11    1    5    5    0    0  0.25355573356E+02 -0.61529083654E+02  0.92123775325E+02  0.11364648352E+03  0.00000000000E+00 0.  1.
        -11    1    5    5    0    0  0.27241129243E+02  0.20983182710E+02  0.14953278526E+03  0.15343541620E+03  0.00000000000E+00 0. -1.
          3    1    6    6  503    0 -0.85554888839E+01 -0.12782976632E+03 -0.14537701322E+03  0.19377337671E+03  0.00000000000E+00 0. -1.
         -3    1    6    6    0  503 -0.85322430105E+02 -0.18872264631E+03 -0.11932565831E+03  0.23902879960E+03  0.00000000000E+00 0.  1.
<mgrwt>
<rscale>  0 0.40198246E+03</rscale>
<asrwt>0</asrwt>
<pdfrwt beam="1">  1        1 0.83004246E-01 0.40198246E+03</pdfrwt>
<pdfrwt beam="2">  1       -1 0.81939776E-01 0.40198246E+03</pdfrwt>
<totfact> 0.62592674E+01</totfact>
</mgrwt>
</event>
<event>
12    1  0.3147868E-008  0.4686992E+03  0.7818608E-02  0.1022288E+00
          1   -1    0    0  501    0  0.00000000000E+00  0.00000000000E+00  0.14234726911E+04  0.14234726911E+04  0.00000000000E+00 0. -1.
         -1   -1    0    0    0  501 -0.00000000000E+00 -0.00000000000E+00 -0.33005261818E+03  0.33005261818E+03  0.00000000000E+00 0.  1.
         23    2    1    2    0    0  0.18306580344E+03  0.28014271935E+03 -0.11350624453E+03  0.36479146615E+03  0.90532395488E+02 0.  0.
    5000000    2    1    2    0    0 -0.18306580344E+03 -0.28014271935E+03  0.12069263174E+04  0.13887338431E+04  0.59993126248E+03 0.  0.
         23    2    4    4    0    0 -0.31660421802E+03 -0.71525028413E+02  0.99336631843E+03  0.10490536336E+04  0.91557757616E+02 0.  0.
         23    2    4    4    0    0  0.13353841458E+03 -0.20861769093E+03  0.21355999900E+03  0.33968020953E+03  0.91765584142E+02 0.  0.
          5    1    3    3  502    0  0.54169554552E+02  0.16035377653E+03 -0.71641677006E+02  0.18385400233E+03  0.47000000000E+01 0. -1.
         -5    1    3    3    0  502  0.12889624889E+03  0.11978894282E+03 -0.41864567524E+02  0.18093746382E+03  0.47000000000E+01 0.  1.
         13    1    5    5    0    0  0.44569116220E+01  0.12516134928E+00  0.45677145288E+02  0.45894240687E+02  0.00000000000E+00 0.  1.
        -13    1    5    5    0    0 -0.32106112964E+03 -0.71650189763E+02  0.94768917314E+03  0.10031593929E+04  0.00000000000E+00 0. -1.
          2    1    6    6  503    0  0.25546096154E+02 -0.10817046567E+03  0.12660066083E+03  0.16846714812E+03  0.00000000000E+00 0. -1.
         -2    1    6    6    0  503  0.10799231843E+03 -0.10044722527E+03  0.86959338162E+02  0.17121306141E+03  0.00000000000E+00 0.  1.
<mgrwt>
<rscale>  0 0.46869918E+03</rscale>
<asrwt>0</asrwt>
<pdfrwt beam="1">  1        1 0.21899580E+00 0.46869918E+03</pdfrwt>
<pdfrwt beam="2">  1       -1 0.50777327E-01 0.46869918E+03</pdfrwt>
<totfact> 0.31028190E+01</totfact>
</mgrwt>
</event>
<event>
12    1  0.3147868E-008  0.5950699E+03  0.7818608E-02  0.9915688E-01
         -2   -1    0    0    0  501 -0.00000000000E+00  0.00000000000E+00  0.37560712433E+03  0.37560712433E+03  0.00000000000E+00 0.  1.
          2   -1    0    0  501    0  0.00000000000E+00 -0.00000000000E+00 -0.15987470384E+04  0.15987470384E+04  0.00000000000E+00 0. -1.
         23    2    1    2    0    0 -0.22207090982E+03 -0.54002064893E+03 -0.14365997381E+03  0.60826890456E+03  0.91733755646E+02 0.  0.
    5000000    2    1    2    0    0  0.22207090982E+03  0.54002064893E+03 -0.10794799402E+04  0.13660852581E+04  0.59997850035E+03 0.  0.
         23    2    4    4    0    0  0.60194397978E+02  0.17614545689E+03 -0.89300293339E+03  0.91680287615E+03  0.91775198959E+02 0.  0.
         23    2    4    4    0    0  0.16187651184E+03  0.36387519204E+03 -0.18647700685E+03  0.44928238200E+03  0.92042513098E+02 0.  0.
          5    1    3    3  502    0 -0.62916386753E+02 -0.17706344146E+03 -0.89674436609E+02  0.20826312349E+03  0.47000000000E+01 0. -1.
         -5    1    3    3    0  502 -0.15915452307E+03 -0.36295720747E+03 -0.53985537200E+02  0.40000578107E+03  0.47000000000E+01 0.  1.
         13    1    5    5    0    0 -0.69713319214E+01  0.78748730894E+02 -0.22698670679E+03  0.24035999489E+03  0.00000000000E+00 0.  1.
        -13    1    5    5    0    0  0.67165729899E+02  0.97396725992E+02 -0.66601622660E+03  0.67644288126E+03  0.00000000000E+00 0. -1.
          1    1    6    6  503    0  0.10562201382E+03  0.12792004770E+03 -0.67352110361E+02  0.17904149009E+03  0.00000000000E+00 0. -1.
         -1    1    6    6    0  503  0.56254498026E+02  0.23595514435E+03 -0.11912489649E+03  0.27024089190E+03  0.00000000000E+00 0.  1.
<mgrwt>
<rscale>  0 0.59506991E+03</rscale>
<asrwt>0</asrwt>
<pdfrwt beam="1">  1        2 0.24596108E+00 0.59506991E+03</pdfrwt>
<pdfrwt beam="2">  1       -2 0.57785713E-01 0.59506991E+03</pdfrwt>
<totfact> 0.32749937E+01</totfact>
</mgrwt>
</event>
<event>
12    1  0.3147868E-008  0.8209945E+03  0.7818608E-02  0.9530116E-01
         -2   -1    0    0    0  501 -0.00000000000E+00  0.00000000000E+00  0.16129894434E+04  0.16129894434E+04  0.00000000000E+00 0. -1.
          2   -1    0    0  501    0  0.00000000000E+00 -0.00000000000E+00 -0.58866177524E+03  0.58866177524E+03  0.00000000000E+00 0.  1.
         23    2    1    2    0    0  0.70383730504E+03 -0.17416896372E+03  0.10280257436E+04  0.12604995531E+04  0.79375146376E+02 0.  0.
    5000000    2    1    2    0    0 -0.70383730504E+03  0.17416896372E+03 -0.36980754894E+01  0.94115166555E+03  0.60002583437E+03 0.  0.
         23    2    4    4    0    0 -0.42548662968E+02 -0.15822837911E+03  0.44630904458E+02  0.19413277553E+03  0.94069167253E+02 0.  0.
         23    2    4    4    0    0 -0.66128864207E+03  0.33239734283E+03 -0.48328979947E+02  0.74701889002E+03  0.88943072153E+02 0.  0.
          5    1    3    3  502    0  0.57782202767E+02  0.57538281296E+01  0.95194697681E+02  0.11160649605E+03  0.47000000000E+01 0. -1.
         -5    1    3    3    0  502  0.64605510227E+03 -0.17992279185E+03  0.93283104595E+03  0.11488930570E+04  0.47000000000E+01 0.  1.
         11    1    5    5    0    0 -0.29635942633E+02 -0.15132698873E+03  0.76867092604E+01  0.15439310902E+03  0.00000000000E+00 0.  1.
        -11    1    5    5    0    0 -0.12912720335E+02 -0.69013903770E+01  0.36944195197E+02  0.39739666510E+02  0.00000000000E+00 0. -1.
          1    1    6    6  503    0 -0.23717168020E+03  0.16171130027E+03  0.21659298241E+01  0.28706382875E+03  0.00000000000E+00 0. -1.
         -1    1    6    6    0  503 -0.42411696187E+03  0.17068604255E+03 -0.50494909771E+02  0.45995506126E+03  0.00000000000E+00 0.  1.
<mgrwt>
<rscale>  0 0.82099446E+03</rscale>
<asrwt>0</asrwt>
<pdfrwt beam="1">  1        2 0.90563351E-01 0.82099446E+03</pdfrwt>
<pdfrwt beam="2">  1       -2 0.24815222E+00 0.82099446E+03</pdfrwt>
<totfact> 0.34141024E+00</totfact>
</mgrwt>
</event>
<event>
12    1  0.3147868E-008  0.2680703E+04  0.7818608E-02  0.8341293E-01
         -2   -1    0    0    0  501 -0.00000000000E+00  0.00000000000E+00  0.20363763031E+04  0.20363763031E+04  0.00000000000E+00 0.  1.
          2   -1    0    0  501    0  0.00000000000E+00 -0.00000000000E+00 -0.38290753332E+04  0.38290753332E+04  0.00000000000E+00 0. -1.
         23    2    1    2    0    0 -0.20557084227E+04 -0.17148469526E+04 -0.15889206396E+04  0.31144280006E+04  0.91409967629E+02 0.  0.
    5000000    2    1    2    0    0  0.20557084227E+04  0.17148469526E+04 -0.20377839062E+03  0.27510236357E+04  0.59997351742E+03 0.  0.
         23    2    4    4    0    0  0.13318967695E+04  0.12092476902E+04 -0.39220106727E+03  0.18435216750E+04  0.92312014399E+02 0.  0.
         23    2    4    4    0    0  0.72381165315E+03  0.50559926242E+03  0.18842267665E+03  0.90750196071E+03  0.92318904954E+02 0.  0.
          5    1    3    3  502    0 -0.14814324216E+04 -0.12764802983E+04 -0.11896790814E+04  0.22889740886E+04  0.47000000000E+01 0. -1.
         -5    1    3    3    0  502 -0.57427600108E+03 -0.43836665434E+03 -0.39924155814E+03  0.82545391198E+03  0.47000000000E+01 0.  1.
         11    1    5    5    0    0  0.91468902626E+03  0.87447252068E+03 -0.30300242917E+03  0.13012181509E+04  0.00000000000E+00 0.  1.
        -11    1    5    5    0    0  0.41720774327E+03  0.33477516951E+03 -0.89198638099E+02  0.54230352406E+03  0.00000000000E+00 0. -1.
          1    1    6    6  503    0  0.65705172708E+03  0.45364447987E+03  0.14188277687E+03  0.81095068195E+03  0.00000000000E+00 0. -1.
         -1    1    6    6    0  503  0.66759926072E+02  0.51954782549E+02  0.46539899778E+02  0.96551278761E+02  0.00000000000E+00 0.  1.
<mgrwt>
<rscale>  0 0.26807030E+04</rscale>
<asrwt>0</asrwt>
<pdfrwt beam="1">  1        2 0.58908851E+00 0.26807030E+04</pdfrwt>
<pdfrwt beam="2">  1       -2 0.31328867E+00 0.26807030E+04</pdfrwt>
<totfact> 0.10122426E-02</totfact>
</mgrwt>
</event>
<event>
12    1  0.3147868E-008  0.1210412E+04  0.7818608E-02  0.9103791E-01
          1   -1    0    0  501    0  0.00000000000E+00  0.00000000000E+00  0.12764095983E+04  0.12764095983E+04  0.00000000000E+00 0. -1.
         -1   -1    0    0    0  501 -0.00000000000E+00 -0.00000000000E+00 -0.11993073262E+04  0.11993073262E+04  0.00000000000E+00 0.  1.
         23    2    1    2    0    0 -0.92735557709E+03 -0.70080662513E+03  0.11943386666E+02  0.11660182589E+04  0.91310696926E+02 0.  0.
    5000000    2    1    2    0    0  0.92735557709E+03  0.70080662513E+03  0.65158885508E+02  0.13096986656E+04  0.59995551688E+03 0.  0.
         23    2    4    4    0    0  0.44796717924E+03  0.67347857810E+02  0.19138175191E+03  0.50028409122E+03  0.91906851437E+02 0.  0.
         23    2    4    4    0    0  0.47938839785E+03  0.63345876732E+03 -0.12622286640E+03  0.80941457441E+03  0.90202524256E+02 0.  0.
          5    1    3    3  502    0 -0.72351199686E+03 -0.49962499831E+03 -0.12971752911E+01  0.87927158557E+03  0.47000000000E+01 0. -1.
         -5    1    3    3    0  502 -0.20384358023E+03 -0.20118162682E+03  0.13240561957E+02  0.28674667330E+03  0.47000000000E+01 0.  1.
         13    1    5    5    0    0  0.38995261065E+03  0.35025360728E+02  0.13818036363E+03  0.41519107329E+03  0.00000000000E+00 0. -1.
        -13    1    5    5    0    0  0.58014568591E+02  0.32322497082E+02  0.53201388283E+02  0.85093017937E+02  0.00000000000E+00 0.  1.
          3    1    6    6  503    0  0.17633846142E+03  0.18178935324E+03 -0.69011826133E+02  0.26249810299E+03  0.00000000000E+00 0. -1.
         -3    1    6    6    0  503  0.30304993643E+03  0.45166941408E+03 -0.57211040271E+02  0.54691647142E+03  0.00000000000E+00 0.  1.
<mgrwt>
<rscale>  0 0.12104124E+04</rscale>
<asrwt>0</asrwt>
<pdfrwt beam="1">  1        1 0.19637071E+00 0.12104124E+04</pdfrwt>
<pdfrwt beam="2">  1       -1 0.18450882E+00 0.12104124E+04</pdfrwt>
<totfact> 0.17789617E+00</totfact>
</mgrwt>
</event>
<event>
12    1  0.3147868E-008  0.1283377E+04  0.7818608E-02  0.9042852E-01
          1   -1    0    0  501    0  0.00000000000E+00  0.00000000000E+00  0.25727719180E+04  0.25727719180E+04  0.00000000000E+00 0. -1.
         -1   -1    0    0    0  501 -0.00000000000E+00 -0.00000000000E+00 -0.92928778754E+03  0.92928778754E+03  0.00000000000E+00 0.  1.
         23    2    1    2    0    0 -0.18169987454E+02  0.12256357550E+04 -0.16102692371E+03  0.12395952813E+04  0.90297501196E+02 0.  0.
    5000000    2    1    2    0    0  0.18169987454E+02 -0.12256357550E+04  0.18045110542E+04  0.22624644243E+04  0.59997664450E+03 0.  0.
         23    2    4    4    0    0  0.27172021092E+03 -0.55732103269E+03  0.10150242289E+04  0.11927768149E+04  0.89463614908E+02 0.  0.
         23    2    4    4    0    0 -0.25355022347E+03 -0.66831472236E+03  0.78948682535E+03  0.10696876094E+04  0.10004924006E+03 0.  0.
          5    1    3    3  502    0  0.20060752376E+02  0.29308702503E+03 -0.89778436818E+01  0.29394749481E+03  0.47000000000E+01 0. -1.
         -5    1    3    3    0  502 -0.38230739830E+02  0.93254873002E+03 -0.15204908003E+03  0.94564778648E+03  0.47000000000E+01 0.  1.
         13    1    5    5    0    0  0.89363889999E+02 -0.13826459593E+03  0.33768041420E+03  0.37567414798E+03  0.00000000000E+00 0.  1.
        -13    1    5    5    0    0  0.18235632093E+03 -0.41905643676E+03  0.67734381466E+03  0.81710266688E+03  0.00000000000E+00 0. -1.
          3    1    6    6  503    0 -0.23283962210E+03 -0.64950530835E+03  0.73303588323E+03  0.10066841815E+04  0.00000000000E+00 0. -1.
         -3    1    6    6    0  503 -0.20710601372E+02 -0.18809414007E+02  0.56450942121E+02  0.63003427929E+02  0.00000000000E+00 0.  1.
<mgrwt>
<rscale>  0 0.12833775E+04</rscale>
<asrwt>0</asrwt>
<pdfrwt beam="1">  1        1 0.39581106E+00 0.12833775E+04</pdfrwt>
<pdfrwt beam="2">  1       -1 0.14296735E+00 0.12833775E+04</pdfrwt>
<totfact> 0.46696765E-01</totfact>
</mgrwt>
</event>
<event>
12    1  0.3147868E-008  0.1605317E+04  0.7818608E-02  0.8817288E-01
         -1   -1    0    0    0  501 -0.00000000000E+00  0.00000000000E+00  0.27924301521E+04  0.27924301521E+04  0.00000000000E+00 0.  1.
          1   -1    0    0  501    0  0.00000000000E+00 -0.00000000000E+00 -0.10044937288E+04  0.10044937288E+04  0.00000000000E+00 0. -1.
         23    2    1    2    0    0  0.12832774622E+04  0.92380112486E+03  0.46775196712E+03  0.16514180323E+04  0.90443637233E+02 0.  0.
    5000000    2    1    2    0    0 -0.12832774622E+04 -0.92380112486E+03  0.13201844562E+04  0.21455058485E+04  0.60008231479E+03 0.  0.
         23    2    4    4    0    0 -0.62150275817E+03 -0.23206202259E+03  0.27192893426E+03  0.72297493971E+03  0.92892181706E+02 0.  0.
         23    2    4    4    0    0 -0.66177470403E+03 -0.69173910227E+03  0.10482555219E+04  0.14225309088E+04  0.91136177570E+02 0.  0.
          5    1    3    3  502    0  0.56988066181E+03  0.46534514869E+03  0.21356885700E+03  0.76612258993E+03  0.47000000000E+01 0. -1.
         -5    1    3    3    0  502  0.71339680038E+03  0.45845597617E+03  0.25418311012E+03  0.88529544241E+03  0.47000000000E+01 0.  1.
         11    1    5    5    0    0 -0.21629169076E+03 -0.11208448474E+03  0.13628728753E+03  0.27914020125E+03  0.00000000000E+00 0. -1.
        -11    1    5    5    0    0 -0.40521106741E+03 -0.11997753786E+03  0.13564164674E+03  0.44383473847E+03  0.00000000000E+00 0.  1.
          1    1    6    6  503    0 -0.42772514065E+03 -0.39044764287E+03  0.60017685710E+03  0.83403262380E+03  0.00000000000E+00 0. -1.
         -1    1    6    6    0  503 -0.23404956338E+03 -0.30129145940E+03  0.44807866480E+03  0.58849828502E+03  0.00000000000E+00 0.  1.
<mgrwt>
<rscale>  0 0.16053175E+04</rscale>
<asrwt>0</asrwt>
<pdfrwt beam="1">  1        1 0.15453750E+00 0.16053175E+04</pdfrwt>
<pdfrwt beam="2">  1       -1 0.42960463E+00 0.16053175E+04</pdfrwt>
<totfact> 0.63171247E-02</totfact>
</mgrwt>
</event>
<event>
12    1  0.3147868E-008  0.1742165E+04  0.7818608E-02  0.8737675E-01
         -1   -1    0    0    0  501 -0.00000000000E+00  0.00000000000E+00  0.49301158444E+04  0.49301158444E+04  0.00000000000E+00 0.  1.
          1   -1    0    0  501    0  0.00000000000E+00 -0.00000000000E+00 -0.63140632685E+03  0.63140632685E+03  0.00000000000E+00 0. -1.
         23    2    1    2    0    0  0.13100378259E+04 -0.10864268917E+04  0.17945193354E+04  0.24748583885E+04  0.90010565072E+02 0.  0.
    5000000    2    1    2    0    0 -0.13100378259E+04  0.10864268917E+04  0.25041901822E+04  0.30866637828E+04  0.60000195273E+03 0.  0.
         23    2    4    4    0    0 -0.12539072426E+04  0.81617532546E+03  0.22357957124E+04  0.26917589899E+04  0.91424599387E+02 0.  0.
         23    2    4    4    0    0 -0.56130583311E+02  0.27025156622E+03  0.26839446975E+03  0.39490479285E+03  0.87907067950E+02 0.  0.
          5    1    3    3  502    0  0.57567068847E+03 -0.52399739977E+03  0.85862522635E+03  0.11589777331E+04  0.47000000000E+01 0.  1.
         -5    1    3    3    0  502  0.73436713740E+03 -0.56242949190E+03  0.93589410908E+03  0.13158806554E+04  0.47000000000E+01 0. -1.
         11    1    5    5    0    0 -0.71407208631E+03  0.48119257549E+03  0.13632854831E+04  0.16124492388E+04  0.00000000000E+00 0. -1.
        -11    1    5    5    0    0 -0.53983515624E+03  0.33498274996E+03  0.87251022928E+03  0.10793097511E+04  0.00000000000E+00 0.  1.
          1    1    6    6  503    0 -0.71736975434E+02  0.23907217919E+03  0.20686693279E+03  0.32418455915E+03  0.00000000000E+00 0. -1.
         -1    1    6    6    0  503  0.15606392123E+02  0.31179387027E+02  0.61527536953E+02  0.70720233696E+02  0.00000000000E+00 0.  1.
<mgrwt>
<rscale>  0 0.17421653E+04</rscale>
<asrwt>0</asrwt>
<pdfrwt beam="1">  1        1 0.97139438E-01 0.17421653E+04</pdfrwt>
<pdfrwt beam="2">  1       -1 0.75847934E+00 0.17421653E+04</pdfrwt>
<totfact> 0.34591446E-03</totfact>
</mgrwt>
</event>
<event>
12    1  0.3147868E-008  0.3295187E+03  0.7818608E-02  0.1071350E+00
          2   -1    0    0  501    0  0.00000000000E+00  0.00000000000E+00  0.22668804880E+04  0.22668804880E+04  0.00000000000E+00 0. -1.
         -2   -1    0    0    0  501 -0.00000000000E+00 -0.00000000000E+00 -0.19971801844E+03  0.19971801844E+03  0.00000000000E+00 0.  1.
         23    2    1    2    0    0 -0.23956082511E+03  0.71236249044E+02  0.16993708996E+04  0.17195693747E+04  0.81199678558E+02 0.  0.
    5000000    2    1    2    0    0  0.23956082511E+03 -0.71236249044E+02  0.36779156998E+03  0.74702913179E+03  0.60026485211E+03 0.  0.
         23    2    4    4    0    0  0.27316468717E+03 -0.10041811457E+03  0.49521673269E+03  0.58186920690E+03  0.92894658355E+02 0.  0.
         23    2    4    4    0    0 -0.33603862059E+02  0.29181865527E+02 -0.12742516271E+03  0.16515992489E+03  0.95183128113E+02 0.  0.
          5    1    3    3  502    0 -0.14981966229E+03  0.81832078954E+01  0.85296044840E+03  0.86606957725E+03  0.47000000000E+01 0. -1.
         -5    1    3    3    0  502 -0.89741162823E+02  0.63053041148E+02  0.84641045120E+03  0.85349979743E+03  0.47000000000E+01 0.  1.
         11    1    5    5    0    0  0.72930408481E+02  0.14876589789E+02  0.11816338701E+03  0.13965222317E+03  0.00000000000E+00 0. -1.
        -11    1    5    5    0    0  0.20023427869E+03 -0.11529470436E+03  0.37705334568E+03  0.44221698373E+03  0.00000000000E+00 0.  1.
          3    1    6    6  503    0  0.14023763525E+02 -0.20495920744E+02 -0.59387465950E+01  0.25534631810E+02  0.00000000000E+00 0. -1.
         -3    1    6    6    0  503 -0.47627625584E+02  0.49677786271E+02 -0.12148641611E+03  0.13962529308E+03  0.00000000000E+00 0.  1.
<mgrwt>
<rscale>  0 0.32951875E+03</rscale>
<asrwt>0</asrwt>
<pdfrwt beam="1">  1        2 0.34875083E+00 0.32951875E+03</pdfrwt>
<pdfrwt beam="2">  1       -2 0.30725851E-01 0.32951875E+03</pdfrwt>
<totfact> 0.52055977E+01</totfact>
</mgrwt>
</event>
<event>
12    1  0.3147868E-008  0.3528102E+03  0.7818608E-02  0.1061467E+00
         -3   -1    0    0    0  501 -0.00000000000E+00  0.00000000000E+00  0.22750619541E+04  0.22750619541E+04  0.00000000000E+00 0.  1.
          3   -1    0    0  501    0  0.00000000000E+00 -0.00000000000E+00 -0.12204842658E+03  0.12204842658E+03  0.00000000000E+00 0. -1.
         23    2    1    2    0    0  0.52428737565E+01  0.88776978988E+02 -0.30578465188E+02  0.13080508171E+03  0.90918024305E+02 0.  0.
    5000000    2    1    2    0    0 -0.52428737565E+01 -0.88776978988E+02  0.21835919927E+04  0.22663052990E+04  0.60013071725E+03 0.  0.
         23    2    4    4    0    0  0.18379689199E+03 -0.26274678888E+03  0.12890444505E+04  0.13311558870E+04  0.86736541672E+02 0.  0.
         23    2    4    4    0    0 -0.18903976575E+03  0.17396980989E+03  0.89454754221E+03  0.93514941193E+03  0.91036199243E+02 0.  0.
          5    1    3    3  502    0  0.44607815268E+02  0.33796979431E+02 -0.28525907510E+02  0.62991351795E+02  0.47000000000E+01 0. -1.
         -5    1    3    3    0  502 -0.39364941512E+02  0.54979999557E+02 -0.20525576775E+01  0.67813729912E+02  0.47000000000E+01 0.  1.
         11    1    5    5    0    0  0.16752646680E+03 -0.21439275882E+03  0.11770603666E+04  0.12080978763E+04  0.00000000000E+00 0. -1.
        -11    1    5    5    0    0  0.16270425192E+02 -0.48354030056E+02  0.11198408390E+03  0.12305801073E+03  0.00000000000E+00 0.  1.
          4    1    6    6  503    0 -0.18188197362E+02  0.30324726068E+02  0.26195485898E+03  0.26433075432E+03  0.00000000000E+00 0. -1.
         -4    1    6    6    0  503 -0.17085156839E+03  0.14364508382E+03  0.63259268322E+03  0.67081865761E+03  0.00000000000E+00 0.  1.
<mgrwt>
<rscale>  0 0.35281023E+03</rscale>
<asrwt>0</asrwt>
<pdfrwt beam="1">  1        3 0.18776683E-01 0.35281023E+03</pdfrwt>
<pdfrwt beam="2">  1       -3 0.35000950E+00 0.35281023E+03</pdfrwt>
<totfact> 0.14490226E+00</totfact>
</mgrwt>
</event>
<event>
12    1  0.3147868E-008  0.7538114E+03  0.7818608E-02  0.9629390E-01
         -1   -1    0    0    0  501 -0.00000000000E+00  0.00000000000E+00  0.39753978153E+03  0.39753978153E+03  0.00000000000E+00 0.  1.
          1   -1    0    0  501    0  0.00000000000E+00 -0.00000000000E+00 -0.15120324009E+04  0.15120324009E+04  0.00000000000E+00 0. -1.
         23    2    1    2    0    0  0.56272835837E+02 -0.64848680077E+03 -0.57077004792E+03  0.87068548929E+03  0.92806308221E+02 0.  0.
    5000000    2    1    2    0    0 -0.56272835837E+02  0.64848680077E+03 -0.54372257144E+03  0.10388866931E+04  0.59995796821E+03 0.  0.
         23    2    4    4    0    0  0.22753360981E+03  0.18097391253E+03 -0.81388766576E+02  0.31689028713E+03  0.96292378430E+02 0.  0.
         23    2    4    4    0    0 -0.28380644565E+03  0.46751288824E+03 -0.46233380487E+03  0.72199640599E+03  0.91716213825E+02 0.  0.
          5    1    3    3  502    0  0.79480066641E+02 -0.43911182497E+03 -0.37130446928E+03  0.58053886582E+03  0.47000000000E+01 0. -1.
         -5    1    3    3    0  502 -0.23207230804E+02 -0.20937497580E+03 -0.19946557864E+03  0.29014662348E+03  0.47000000000E+01 0.  1.
         13    1    5    5    0    0  0.13391759352E+03  0.15500281773E+03 -0.79479558235E+02  0.21971981143E+03  0.00000000000E+00 0.  1.
        -13    1    5    5    0    0  0.93616016290E+02  0.25971094798E+02 -0.19092083418E+01  0.97170475699E+02  0.00000000000E+00 0. -1.
          1    1    6    6  503    0 -0.12577738534E+03  0.16641165453E+03 -0.22798195007E+03  0.30901223113E+03  0.00000000000E+00 0. -1.
         -1    1    6    6    0  503 -0.15802906031E+03  0.30110123371E+03 -0.23435185480E+03  0.41298417486E+03  0.00000000000E+00 0.  1.
<mgrwt>
<rscale>  0 0.75381137E+03</rscale>
<asrwt>0</asrwt>
<pdfrwt beam="1">  1        1 0.23262037E+00 0.75381137E+03</pdfrwt>
<pdfrwt beam="2">  1       -1 0.61159967E-01 0.75381137E+03</pdfrwt>
<totfact> 0.18005625E+01</totfact>
</mgrwt>
</event>
<event>
12    1  0.3147868E-008  0.8398905E+03  0.7818608E-02  0.9504007E-01
         -1   -1    0    0    0  501 -0.00000000000E+00  0.00000000000E+00  0.15445885203E+04  0.15445885203E+04  0.00000000000E+00 0.  1.
          1   -1    0    0  501    0  0.00000000000E+00 -0.00000000000E+00 -0.54763893274E+03  0.54763893274E+03  0.00000000000E+00 0. -1.
         23    2    1    2    0    0  0.23457180697E+03  0.75972639582E+03  0.67142334517E+03  0.10443753776E+04  0.87763841419E+02 0.  0.
    5000000    2    1    2    0    0 -0.23457180697E+03 -0.75972639582E+03  0.32552624240E+03  0.10478520754E+04  0.59984873785E+03 0.  0.
         23    2    4    4    0    0 -0.31358024202E+03 -0.62976925559E+03  0.44076543064E+03  0.83529505903E+03  0.92205137185E+02 0.  0.
         23    2    4    4    0    0  0.79008435048E+02 -0.12995714023E+03 -0.11523918824E+03  0.21255701637E+03  0.93644132737E+02 0.  0.
          5    1    3    3  502    0  0.14385545939E+03  0.31921181806E+03  0.29342636562E+03  0.45684975652E+03  0.47000000000E+01 0. -1.
         -5    1    3    3    0  502  0.90716347584E+02  0.44051457776E+03  0.37799697955E+03  0.58752562113E+03  0.47000000000E+01 0.  1.
         11    1    5    5    0    0 -0.62231737832E+02 -0.21651884046E+03  0.15573591065E+03  0.27387382375E+03  0.00000000000E+00 0. -1.
        -11    1    5    5    0    0 -0.25134850419E+03 -0.41325041513E+03  0.28502951999E+03  0.56142123529E+03  0.00000000000E+00 0.  1.
          3    1    6    6  503    0  0.42922984455E+02 -0.12768860019E+03 -0.62225450632E+02  0.14838722290E+03  0.00000000000E+00 0. -1.
         -3    1    6    6    0  503  0.36085450594E+02 -0.22685400355E+01 -0.53013737610E+02  0.64169793469E+02  0.00000000000E+00 0.  1.
<mgrwt>
<rscale>  0 0.83989046E+03</rscale>
<asrwt>0</asrwt>
<pdfrwt beam="1">  1        1 0.84252144E-01 0.83989046E+03</pdfrwt>
<pdfrwt beam="2">  1       -1 0.23762900E+00 0.83989046E+03</pdfrwt>
<totfact> 0.33704151E+00</totfact>
</mgrwt>
</event>
<event>
12    1  0.3147868E-008  0.7200314E+03  0.7818608E-02  0.9683576E-01
          2   -1    0    0  501    0  0.00000000000E+00  0.00000000000E+00  0.16501483913E+04  0.16501483913E+04  0.00000000000E+00 0. -1.
         -2   -1    0    0    0  501 -0.00000000000E+00 -0.00000000000E+00 -0.35348290871E+03  0.35348290871E+03  0.00000000000E+00 0.  1.
         23    2    1    2    0    0  0.15194021086E+02  0.62999711990E+03  0.70320998746E+03  0.95043818304E+03  0.10817219584E+03 0.  0.
    5000000    2    1    2    0    0 -0.15194021086E+02 -0.62999711990E+03  0.59345549518E+03  0.10531931170E+04  0.59991590045E+03 0.  0.
         23    2    4    4    0    0 -0.21861397843E+03 -0.11713589824E+03  0.42228195287E+02  0.26756007135E+03  0.91061962871E+02 0.  0.
         23    2    4    4    0    0  0.20341995735E+03 -0.51286122166E+03  0.55122729989E+03  0.78563304567E+03  0.94664853881E+02 0.  0.
          5    1    3    3  502    0 -0.55999336197E+01  0.20765035495E+03  0.16122045499E+03  0.26299078744E+03  0.47000000000E+01 0. -1.
         -5    1    3    3    0  502  0.20793954705E+02  0.42234676495E+03  0.54198953247E+03  0.68744739560E+03  0.47000000000E+01 0.  1.
         13    1    5    5    0    0 -0.12868561159E+03 -0.29520373137E+02  0.51381048386E+02  0.14167374913E+03  0.00000000000E+00 0. -1.
        -13    1    5    5    0    0 -0.89928366845E+02 -0.87615525099E+02 -0.91528530986E+01  0.12588632222E+03  0.00000000000E+00 0.  1.
          3    1    6    6  503    0  0.86643818978E+02 -0.23171991314E+03  0.31365422965E+03  0.39947496204E+03  0.00000000000E+00 0. -1.
         -3    1    6    6    0  503  0.11677613837E+03 -0.28114130852E+03  0.23757307024E+03  0.38615808363E+03  0.00000000000E+00 0.  1.
<mgrwt>
<rscale>  0 0.72003142E+03</rscale>
<asrwt>0</asrwt>
<pdfrwt beam="1">  1        2 0.25386898E+00 0.72003142E+03</pdfrwt>
<pdfrwt beam="2">  1       -2 0.54381987E-01 0.72003142E+03</pdfrwt>
<totfact> 0.34245852E+01</totfact>
</mgrwt>
</event>
<event>
12    1  0.3147868E-008  0.1190170E+04  0.7818608E-02  0.9121504E-01
          2   -1    0    0  501    0  0.00000000000E+00  0.00000000000E+00  0.12322011129E+04  0.12322011129E+04  0.00000000000E+00 0. -1.
         -2   -1    0    0    0  501 -0.00000000000E+00 -0.00000000000E+00 -0.13118438381E+04  0.13118438381E+04  0.00000000000E+00 0.  1.
         23    2    1    2    0    0 -0.86693736874E+03 -0.80398128960E+03 -0.23558169254E+03  0.12089867822E+04  0.90465409161E+02 0.  0.
    5000000    2    1    2    0    0  0.86693736874E+03  0.80398128960E+03  0.15593896740E+03  0.13350581688E+04  0.60008085893E+03 0.  0.
         23    2    4    4    0    0  0.26158679689E+03  0.22143643317E+03  0.31573635056E+03  0.47502267476E+03  0.92170235091E+02 0.  0.
         23    2    4    4    0    0  0.60535057185E+03  0.58254485644E+03 -0.15979738316E+03  0.86003549406E+03  0.91203195039E+02 0.  0.
          5    1    3    3  502    0 -0.56169980208E+03 -0.57722965470E+03 -0.15252098525E+03  0.81974720668E+03  0.47000000000E+01 0. -1.
         -5    1    3    3    0  502 -0.30523756665E+03 -0.22675163491E+03 -0.83060707290E+02  0.38923957549E+03  0.47000000000E+01 0.  1.
         13    1    5    5    0    0  0.24447285136E+03  0.17149549255E+03  0.29009722206E+03  0.41633409332E+03  0.00000000000E+00 0.  1.
        -13    1    5    5    0    0  0.17113945525E+02  0.49940940618E+02  0.25639128501E+02  0.58688581441E+02  0.00000000000E+00 0. -1.
          3    1    6    6  503    0  0.34248524479E+03  0.37850547310E+03 -0.68898418058E+02  0.51508205956E+03  0.00000000000E+00 0. -1.
         -3    1    6    6    0  503  0.26286532705E+03  0.20403938334E+03 -0.90898965100E+02  0.34495343450E+03  0.00000000000E+00 0.  1.
<mgrwt>
<rscale>  0 0.11901702E+04</rscale>
<asrwt>0</asrwt>
<pdfrwt beam="1">  1        2 0.18956940E+00 0.11901702E+04</pdfrwt>
<pdfrwt beam="2">  1       -2 0.20182213E+00 0.11901702E+04</pdfrwt>
<totfact> 0.22788470E+00</totfact>
</mgrwt>
</event>
<event>
12    1  0.3147868E-008  0.1229782E+04  0.7818608E-02  0.9087180E-01
          3   -1    0    0  501    0  0.00000000000E+00  0.00000000000E+00  0.73285638448E+03  0.73285638448E+03  0.00000000000E+00 0. -1.
         -3   -1    0    0    0  501 -0.00000000000E+00 -0.00000000000E+00 -0.27248800940E+04  0.27248800940E+04  0.00000000000E+00 0.  1.
         23    2    1    2    0    0 -0.82089584070E+03  0.84173180650E+03 -0.17589760448E+04  0.21172325683E+04  0.79338558318E+02 0.  0.
    5000000    2    1    2    0    0  0.82089584070E+03 -0.84173180650E+03 -0.23304766470E+03  0.13405039101E+04  0.60021421485E+03 0.  0.
         23    2    4    4    0    0  0.20668807685E+03  0.14352252775E+02  0.76320853174E+02  0.23868408722E+03  0.90660204002E+02 0.  0.
         23    2    4    4    0    0  0.61420776385E+03 -0.85608405927E+03 -0.30936851787E+03  0.11018198229E+04  0.90371171314E+02 0.  0.
          5    1    3    3  502    0 -0.48524309383E+03  0.44328269058E+03 -0.99861268374E+03  0.11954956236E+04  0.47000000000E+01 0. -1.
         -5    1    3    3    0  502 -0.33565274687E+03  0.39844911591E+03 -0.76036336105E+03  0.92173694473E+03  0.47000000000E+01 0.  1.
         13    1    5    5    0    0  0.14916476935E+03 -0.30217533602E+02  0.40049337548E+02  0.15737591045E+03  0.00000000000E+00 0. -1.
        -13    1    5    5    0    0  0.57523307508E+02  0.44569786377E+02  0.36271515626E+02  0.81308176773E+02  0.00000000000E+00 0.  1.
          2    1    6    6  503    0  0.23039541962E+03 -0.26015559232E+03 -0.77702690435E+02  0.35609084472E+03  0.00000000000E+00 0. -1.
         -2    1    6    6    0  503  0.38381234423E+03 -0.59592846696E+03 -0.23166582744E+03  0.74572897819E+03  0.00000000000E+00 0.  1.
<mgrwt>
<rscale>  0 0.12297824E+04</rscale>
<asrwt>0</asrwt>
<pdfrwt beam="1">  1        3 0.11274714E+00 0.12297824E+04</pdfrwt>
<pdfrwt beam="2">  1       -3 0.41921232E+00 0.12297824E+04</pdfrwt>
<totfact> 0.13717796E-02</totfact>
</mgrwt>
</event>
<event>
12    1  0.3147868E-008  0.1066733E+04  0.7818608E-02  0.9238237E-01
         -2   -1    0    0    0  501 -0.00000000000E+00  0.00000000000E+00  0.14229446657E+04  0.14229446657E+04  0.00000000000E+00 0.  1.
          2   -1    0    0  501    0  0.00000000000E+00 -0.00000000000E+00 -0.95011628124E+03  0.95011628124E+03  0.00000000000E+00 0. -1.
         23    2    1    2    0    0  0.52111715923E+03 -0.91339916100E+03 -0.44680375819E+02  0.10564800462E+04  0.91063885121E+02 0.  0.
    5000000    2    1    2    0    0 -0.52111715923E+03  0.91339916100E+03  0.51750876030E+03  0.13165809007E+04  0.59975730943E+03 0.  0.
         23    2    4    4    0    0 -0.45011396795E+03  0.82330189876E+03  0.19470544367E+03  0.96230131387E+03  0.87664178750E+02 0.  0.
         23    2    4    4    0    0 -0.71003191276E+02  0.90097262238E+02  0.32280331663E+03  0.35427958686E+03  0.90294377458E+02 0.  0.
          5    1    3    3  502    0  0.17025345010E+03 -0.23056595563E+03 -0.34273471571E+02  0.28869301693E+03  0.47000000000E+01 0. -1.
         -5    1    3    3    0  502  0.35086370912E+03 -0.68283320536E+03 -0.10406904247E+02  0.76778702931E+03  0.47000000000E+01 0.  1.
         11    1    5    5    0    0 -0.14114438295E+03  0.30263234299E+03  0.32486783430E+02  0.33550478828E+03  0.00000000000E+00 0.  1.
        -11    1    5    5    0    0 -0.30896958500E+03  0.52066955577E+03  0.16221866024E+03  0.62679652559E+03  0.00000000000E+00 0. -1.
          1    1    6    6  503    0 -0.83017664970E+02  0.47879629801E+02  0.16841793676E+03  0.19377562558E+03  0.00000000000E+00 0. -1.
         -1    1    6    6    0  503  0.12014473694E+02  0.42217632437E+02  0.15438537988E+03  0.16050396128E+03  0.00000000000E+00 0.  1.
<mgrwt>
<rscale>  0 0.10667332E+04</rscale>
<asrwt>0</asrwt>
<pdfrwt beam="1">  1        2 0.14617173E+00 0.10667332E+04</pdfrwt>
<pdfrwt beam="2">  1       -2 0.21891457E+00 0.10667332E+04</pdfrwt>
<totfact> 0.26886500E+00</totfact>
</mgrwt>
</event>
<event>
12    1  0.3147868E-008  0.5016044E+03  0.7818608E-02  0.1013361E+00
         -1   -1    0    0    0  501 -0.00000000000E+00  0.00000000000E+00  0.32313487327E+03  0.32313487327E+03  0.00000000000E+00 0. -1.
          1   -1    0    0  501    0  0.00000000000E+00 -0.00000000000E+00 -0.12719282865E+04  0.12719282865E+04  0.00000000000E+00 0.  1.
         23    2    1    2    0    0  0.71887225457E+01 -0.47669924910E+03 -0.54113414457E+03  0.72704302102E+03  0.92040970051E+02 0.  0.
    5000000    2    1    2    0    0 -0.71887225457E+01  0.47669924910E+03 -0.40765926867E+03  0.86802013877E+03  0.59998252487E+03 0.  0.
         23    2    4    4    0    0 -0.97994853386E+02  0.32293561325E+03  0.63743772471E+02  0.35570158057E+03  0.92573993621E+02 0.  0.
         23    2    4    4    0    0  0.90806130840E+02  0.15376363585E+03 -0.47140304115E+03  0.51231855820E+03  0.91435599010E+02 0.  0.
          5    1    3    3  502    0  0.51009441861E+01 -0.33193839609E+03 -0.43618050851E+03  0.54816479678E+03  0.47000000000E+01 0. -1.
         -5    1    3    3    0  502  0.20877783596E+01 -0.14476085301E+03 -0.10495363606E+03  0.17887822424E+03  0.47000000000E+01 0.  1.
         11    1    5    5    0    0 -0.40365235678E+01  0.49394074560E+02 -0.21721572254E+02  0.54110025184E+02  0.00000000000E+00 0. -1.
        -11    1    5    5    0    0 -0.93958329818E+02  0.27354153869E+03  0.85465344724E+02  0.30159155539E+03  0.00000000000E+00 0.  1.
          3    1    6    6  503    0  0.29087165168E+02  0.10484194109E+03 -0.35860302836E+03  0.37474528381E+03  0.00000000000E+00 0. -1.
         -3    1    6    6    0  503  0.61718965672E+02  0.48921694764E+02 -0.11280001279E+03  0.13757327439E+03  0.00000000000E+00 0.  1.
<mgrwt>
<rscale>  0 0.50160437E+03</rscale>
<asrwt>0</asrwt>
<pdfrwt beam="1">  1        1 0.19568128E+00 0.50160437E+03</pdfrwt>
<pdfrwt beam="2">  1       -1 0.49713057E-01 0.50160437E+03</pdfrwt>
<totfact> 0.40862093E+01</totfact>
</mgrwt>
</event>
<event>
12    1  0.3147868E-008  0.8832590E+03  0.7818608E-02  0.9446754E-01
          1   -1    0    0  501    0  0.00000000000E+00  0.00000000000E+00  0.28378885737E+04  0.28378885737E+04  0.00000000000E+00 0. -1.
         -1   -1    0    0    0  501 -0.00000000000E+00 -0.00000000000E+00 -0.36150499479E+03  0.36150499479E+03  0.00000000000E+00 0.  1.
         23    2    1    2    0    0 -0.83099510490E+03  0.17193804690E+03  0.57181078205E+03  0.10297266458E+04  0.11512531542E+03 0.  0.
    5000000    2    1    2    0    0  0.83099510490E+03 -0.17193804690E+03  0.19045727969E+04  0.21696669227E+04  0.59995121514E+03 0.  0.
         23    2    4    4    0    0  0.35535422575E+03 -0.23469632334E+03  0.41568046329E+03  0.60256095577E+03  0.94501152904E+02 0.  0.
         23    2    4    4    0    0  0.47564087915E+03  0.62758276441E+02  0.14888923336E+04  0.15671059670E+04  0.94063188562E+02 0.  0.
          5    1    3    3  502    0 -0.68877211378E+03  0.16979400834E+03  0.51433623018E+03  0.87624247652E+03  0.47000000000E+01 0. -1.
         -5    1    3    3    0  502 -0.14222299112E+03  0.21440385636E+01  0.57474551873E+02  0.15348416927E+03  0.47000000000E+01 0.  1.
         11    1    5    5    0    0  0.15455348106E+03 -0.95815115626E+02  0.11465649434E+03  0.21497308340E+03  0.00000000000E+00 0.  1.
        -11    1    5    5    0    0  0.20080074469E+03 -0.13888120772E+03  0.30102396895E+03  0.38758787237E+03  0.00000000000E+00 0. -1.
          1    1    6    6  503    0  0.16166516210E+03 -0.23073984724E+02  0.48275962650E+03  0.50963211279E+03  0.00000000000E+00 0. -1.
         -1    1    6    6    0  503  0.31397571705E+03  0.85832261166E+02  0.10061327071E+04  0.10574738542E+04  0.00000000000E+00 0.  1.
<mgrwt>
<rscale>  0 0.88325895E+03</rscale>
<asrwt>0</asrwt>
<pdfrwt beam="1">  1        1 0.43659823E+00 0.88325895E+03</pdfrwt>
<pdfrwt beam="2">  1       -1 0.55616155E-01 0.88325895E+03</pdfrwt>
<totfact> 0.26714389E+00</totfact>
</mgrwt>
</event>
<event>
12    1  0.3147868E-008  0.9311917E+03  0.7818608E-02  0.9387409E-01
          2   -1    0    0  501    0  0.00000000000E+00  0.00000000000E+00  0.47201956398E+04  0.47201956398E+04  0.00000000000E+00 0. -1.
         -2   -1    0    0    0  501 -0.00000000000E+00 -0.00000000000E+00 -0.31941160017E+03  0.31941160017E+03  0.00000000000E+00 0.  1.
         23    2    1    2    0    0 -0.45597763407E+03 -0.75657391687E+03  0.55248425884E+03  0.10459004469E+04  0.91373924444E+02 0.  0.
    5000000    2    1    2    0    0  0.45597763407E+03  0.75657391687E+03  0.38482997808E+04  0.39937067931E+04  0.59996920908E+03 0.  0.
         23    2    4    4    0    0  0.51661738167E+03  0.64881535445E+03  0.36473643038E+04  0.37416653770E+04  0.94543882739E+02 0.  0.
         23    2    4    4    0    0 -0.60639747605E+02  0.10775856242E+03  0.20093547708E+03  0.25204141614E+03  0.88660717008E+02 0.  0.
          5    1    3    3  502    0 -0.19726946787E+03 -0.30248795052E+03  0.17584898459E+03  0.40169535540E+03  0.47000000000E+01 0. -1.
         -5    1    3    3    0  502 -0.25870816620E+03 -0.45408596634E+03  0.37663527424E+03  0.64420509148E+03  0.47000000000E+01 0.  1.
         11    1    5    5    0    0  0.20671318804E+03  0.33448235476E+03  0.17506713298E+04  0.17942850645E+04  0.00000000000E+00 0.  1.
        -11    1    5    5    0    0  0.30990419364E+03  0.31433299969E+03  0.18966929740E+04  0.19473803125E+04  0.00000000000E+00 0. -1.
          3    1    6    6  503    0 -0.53467264408E+02  0.21840013862E+02  0.42645639287E+02  0.71794046543E+02  0.00000000000E+00 0. -1.
         -3    1    6    6    0  503 -0.71724831967E+01  0.85918548556E+02  0.15828983779E+03  0.18024736960E+03  0.00000000000E+00 0.  1.
<mgrwt>
<rscale>  0 0.93119168E+03</rscale>
<asrwt>0</asrwt>
<pdfrwt beam="1">  1        2 0.72618390E+00 0.93119168E+03</pdfrwt>
<pdfrwt beam="2">  1       -2 0.49140249E-01 0.93119168E+03</pdfrwt>
<totfact> 0.31612539E-01</totfact>
</mgrwt>
</event>
<event>
12    1  0.3147868E-008  0.1188909E+04  0.7818608E-02  0.9122620E-01
          1   -1    0    0  501    0  0.00000000000E+00  0.00000000000E+00  0.24100948146E+04  0.24100948146E+04  0.00000000000E+00 0. -1.
         -1   -1    0    0    0  501 -0.00000000000E+00 -0.00000000000E+00 -0.67986829328E+03  0.67986829328E+03  0.00000000000E+00 0.  1.
         23    2    1    2    0    0 -0.86052548740E+03  0.71012729042E+03  0.25976586326E+03  0.11490630820E+04  0.89904280003E+02 0.  0.
    5000000    2    1    2    0    0  0.86052548740E+03 -0.71012729042E+03  0.14704606581E+04  0.19409000259E+04  0.60004456555E+03 0.  0.
         23    2    4    4    0    0  0.68386030179E+02  0.82553663559E+02  0.15689771339E+03  0.21174738704E+03  0.93425408526E+02 0.  0.
         23    2    4    4    0    0  0.79213945722E+03 -0.79268095398E+03  0.13135629447E+04  0.17291526389E+04  0.93237462753E+02 0.  0.
          5    1    3    3  502    0 -0.54563449479E+03  0.47414110068E+03  0.20755299213E+03  0.75208185711E+03  0.47000000000E+01 0. -1.
         -5    1    3    3    0  502 -0.31489099261E+03  0.23598618974E+03  0.52212871132E+02  0.39698122485E+03  0.47000000000E+01 0.  1.
         13    1    5    5    0    0 -0.22637626640E+02  0.21092800130E+02  0.47803607122E+02  0.56943421140E+02  0.00000000000E+00 0. -1.
        -13    1    5    5    0    0  0.91023656820E+02  0.61460863429E+02  0.10909410627E+03  0.15480396590E+03  0.00000000000E+00 0.  1.
          2    1    6    6  503    0  0.13395207164E+03 -0.13317595190E+03  0.27820738273E+03  0.33627122902E+03  0.00000000000E+00 0. -1.
         -2    1    6    6    0  503  0.65818738558E+03 -0.65950500208E+03  0.10353555620E+04  0.13928814099E+04  0.00000000000E+00 0.  1.
<mgrwt>
<rscale>  0 0.11889092E+04</rscale>
<asrwt>0</asrwt>
<pdfrwt beam="1">  1        1 0.37078381E+00 0.11889092E+04</pdfrwt>
<pdfrwt beam="2">  1       -1 0.10459512E+00 0.11889092E+04</pdfrwt>
<totfact> 0.13301584E+00</totfact>
</mgrwt>
</event>
<event>
12    1  0.3147868E-008  0.4625065E+03  0.7818608E-02  0.1024057E+00
          2   -1    0    0  501    0  0.00000000000E+00  0.00000000000E+00  0.45243419772E+03  0.45243419772E+03  0.00000000000E+00 0. -1.
         -2   -1    0    0    0  501 -0.00000000000E+00 -0.00000000000E+00 -0.73112248874E+03  0.73112248874E+03  0.00000000000E+00 0.  1.
         23    2    1    2    0    0  0.35600857612E+03  0.10220380663E+03 -0.28418738830E+03  0.47843436530E+03  0.10463864428E+03 0.  0.
    5000000    2    1    2    0    0 -0.35600857612E+03 -0.10220380663E+03  0.54990972733E+01  0.70512232115E+03  0.59998293589E+03 0.  0.
         23    2    4    4    0    0  0.74695630314E+02  0.73367684188E+01 -0.17691731719E+03  0.21555852899E+03  0.97634404491E+02 0.  0.
         23    2    4    4    0    0 -0.43070420643E+03 -0.10954057504E+03  0.18241641446E+03  0.48956379216E+03  0.94295849929E+02 0.  0.
          5    1    3    3  502    0  0.23349360454E+03  0.33236331285E+02 -0.12855633524E+03  0.26864984349E+03  0.47000000000E+01 0. -1.
         -5    1    3    3    0  502  0.12251497158E+03  0.68967475340E+02 -0.15563105306E+03  0.20978452181E+03  0.47000000000E+01 0.  1.
         13    1    5    5    0    0  0.16755566784E+02 -0.28967290742E+02 -0.96065002077E+01  0.34815769378E+02  0.00000000000E+00 0. -1.
        -13    1    5    5    0    0  0.57940063530E+02  0.36304059160E+02 -0.16731081698E+03  0.18074275961E+03  0.00000000000E+00 0.  1.
          1    1    6    6  503    0 -0.15207063534E+03 -0.17039872639E+02  0.10614195677E+03  0.18623090608E+03  0.00000000000E+00 0. -1.
         -1    1    6    6    0  503 -0.27863357109E+03 -0.92500702405E+02  0.76274457694E+02  0.30333288608E+03  0.00000000000E+00 0.  1.
<mgrwt>
<rscale>  0 0.46250652E+03</rscale>
<asrwt>0</asrwt>
<pdfrwt beam="1">  1        2 0.69605262E-01 0.46250652E+03</pdfrwt>
<pdfrwt beam="2">  1       -2 0.11248038E+00 0.46250652E+03</pdfrwt>
<totfact> 0.44588014E+01</totfact>
</mgrwt>
</event>
<event>
12    1  0.3147868E-008  0.5319163E+03  0.7818608E-02  0.1005768E+00
          2   -1    0    0  501    0  0.00000000000E+00  0.00000000000E+00  0.31797136118E+04  0.31797136118E+04  0.00000000000E+00 0. -1.
         -2   -1    0    0    0  501 -0.00000000000E+00 -0.00000000000E+00 -0.10222854040E+03  0.10222854040E+03  0.00000000000E+00 0.  1.
         23    2    1    2    0    0 -0.38558625643E+03 -0.12454497474E+03  0.11387899772E+04  0.12124623084E+04  0.95047488638E+02 0.  0.
    5000000    2    1    2    0    0  0.38558625643E+03  0.12454497474E+03  0.19386950941E+04  0.20694798438E+04  0.60001661975E+03 0.  0.
         23    2    4    4    0    0  0.44534307624E+03  0.23000439824E+03  0.17732676781E+04  0.18449931364E+04  0.91043595501E+02 0.  0.
         23    2    4    4    0    0 -0.59756819816E+02 -0.10545942350E+03  0.16542741605E+03  0.22448670744E+03  0.91298873585E+02 0.  0.
          5    1    3    3  502    0 -0.10776628987E+03 -0.68345786359E+02  0.44584300421E+03  0.46377019541E+03  0.47000000000E+01 0. -1.
         -5    1    3    3    0  502 -0.27781996656E+03 -0.56199188383E+02  0.69294697303E+03  0.74869211297E+03  0.47000000000E+01 0.  1.
         11    1    5    5    0    0  0.24938865099E+03  0.14604839891E+03  0.11700072937E+04  0.12051729757E+04  0.00000000000E+00 0. -1.
        -11    1    5    5    0    0  0.19595442526E+03  0.83955999330E+02  0.60326038442E+03  0.63982016068E+03  0.00000000000E+00 0.  1.
          1    1    6    6  503    0 -0.66538916294E+02 -0.27163014375E+02  0.64488442447E+02  0.96560944180E+02  0.00000000000E+00 0. -1.
         -1    1    6    6    0  503  0.67820964782E+01 -0.78296409123E+02  0.10093897360E+03  0.12792576326E+03  0.00000000000E+00 0.  1.
<mgrwt>
<rscale>  0 0.53191630E+03</rscale>
<asrwt>0</asrwt>
<pdfrwt beam="1">  1        2 0.48918664E+00 0.53191630E+03</pdfrwt>
<pdfrwt beam="2">  1       -2 0.15727470E-01 0.53191630E+03</pdfrwt>
<totfact> 0.47737173E+01</totfact>
</mgrwt>
</event>
<event>
12    1  0.5212287E-008  0.1406490E+04  0.7818608E-02  0.8949134E-01
          1   -1    0    0  501    0  0.00000000000E+00  0.00000000000E+00  0.16625660216E+04  0.16625660216E+04  0.00000000000E+00 0. -1.
         -1   -1    0    0    0  501 -0.00000000000E+00 -0.00000000000E+00 -0.12928618125E+04  0.12928618125E+04  0.00000000000E+00 0.  1.
         23    2    1    2    0    0  0.41336540140E+03 -0.12817873355E+04  0.57410667268E+03  0.14669112564E+04  0.91544709296E+02 0.  0.
    5000000    2    1    2    0    0 -0.41336540140E+03  0.12817873355E+04 -0.20440246353E+03  0.14885165778E+04  0.60004292059E+03 0.  0.
         23    2    4    4    0    0 -0.45195458027E+03  0.47784521201E+03 -0.74708920691E+02  0.66821517441E+03  0.91274899132E+02 0.  0.
         23    2    4    4    0    0  0.38589178873E+02  0.80394212354E+03 -0.12969354284E+03  0.82030140336E+03  0.90895074521E+02 0.  0.
          5    1    3    3  502    0  0.97209416993E+02 -0.38257047926E+03  0.13253842153E+03  0.41641129372E+03  0.47000000000E+01 0. -1.
         -5    1    3    3    0  502  0.31615598441E+03 -0.89921685628E+03  0.44156825115E+03  0.10504999626E+04  0.47000000000E+01 0.  1.
         13    1    5    5    0    0 -0.23166886157E+03  0.24035003951E+03 -0.83716332340E+02  0.34416133893E+03  0.00000000000E+00 0.  1.
        -13    1    5    5    0    0 -0.22028571870E+03  0.23749517250E+03  0.90074116491E+01  0.32405383548E+03  0.00000000000E+00 0. -1.
          1    1    6    6  503    0 -0.13720955312E+02  0.36125252911E+03 -0.91412231489E+02  0.37289120460E+03  0.00000000000E+00 0. -1.
         -1    1    6    6    0  503  0.52310134186E+02  0.44268959443E+03 -0.38281311355E+02  0.44741019876E+03  0.00000000000E+00 0.  1.
<mgrwt>
<rscale>  0 0.14064895E+04</rscale>
<asrwt>0</asrwt>
<pdfrwt beam="1">  1        1 0.25577939E+00 0.14064895E+04</pdfrwt>
<pdfrwt beam="2">  1       -1 0.19890182E+00 0.14064895E+04</pdfrwt>
<totfact> 0.74040748E-01</totfact>
</mgrwt>
</event>
<event>
12    1  0.3147868E-008  0.1054271E+04  0.7818608E-02  0.9250945E-01
          2   -1    0    0  501    0  0.00000000000E+00  0.00000000000E+00  0.24227465794E+04  0.24227465794E+04  0.00000000000E+00 0. -1.
         -2   -1    0    0    0  501 -0.00000000000E+00 -0.00000000000E+00 -0.50215709797E+03  0.50215709797E+03  0.00000000000E+00 0.  1.
         23    2    1    2    0    0 -0.15936044456E+03  0.99222214025E+03  0.66580182878E+03  0.12090016979E+04  0.92154780234E+02 0.  0.
    5000000    2    1    2    0    0  0.15936044456E+03 -0.99222214025E+03  0.12547876526E+04  0.17159019794E+04  0.59993918264E+03 0.  0.
         23    2    4    4    0    0 -0.92485645570E+02 -0.60235765671E+02  0.39406784802E+03  0.41927442162E+03  0.91212004060E+02 0.  0.
         23    2    4    4    0    0  0.25184609013E+03 -0.93198637458E+03  0.86071980460E+03  0.12966275578E+04  0.91538986511E+02 0.  0.
          5    1    3    3  502    0 -0.12196177872E+02  0.35089755022E+03  0.23331512596E+03  0.42158732845E+03  0.47000000000E+01 0. -1.
         -5    1    3    3    0  502 -0.14716426669E+03  0.64132459002E+03  0.43248670282E+03  0.78741436949E+03  0.47000000000E+01 0.  1.
         13    1    5    5    0    0 -0.52275630315E+02  0.60146510718E+01  0.79765702933E+02  0.95558803450E+02  0.00000000000E+00 0.  1.
        -13    1    5    5    0    0 -0.40210015255E+02 -0.66250416743E+02  0.31430214508E+03  0.32371561817E+03  0.00000000000E+00 0. -1.
          3    1    6    6  503    0  0.11038695004E+03 -0.25836150893E+03  0.26800978612E+03  0.38828493853E+03  0.00000000000E+00 0. -1.
         -3    1    6    6    0  503  0.14145914009E+03 -0.67362486565E+03  0.59271001848E+03  0.90834261925E+03  0.00000000000E+00 0.  1.
<mgrwt>
<rscale>  0 0.10542711E+04</rscale>
<asrwt>0</asrwt>
<pdfrwt beam="1">  1        2 0.37273024E+00 0.10542711E+04</pdfrwt>
<pdfrwt beam="2">  1       -2 0.77254940E-01 0.10542711E+04</pdfrwt>
<totfact> 0.57794744E+00</totfact>
</mgrwt>
</event>
<event>
12    1  0.3147868E-008  0.1859263E+04  0.7818608E-02  0.8675404E-01
          1   -1    0    0  501    0  0.00000000000E+00  0.00000000000E+00  0.40752843333E+04  0.40752843333E+04  0.00000000000E+00 0. -1.
         -1   -1    0    0    0  501 -0.00000000000E+00 -0.00000000000E+00 -0.97474892667E+03  0.97474892667E+03  0.00000000000E+00 0.  1.
         23    2    1    2    0    0  0.70607021557E+03  0.16693178916E+04  0.24159425816E+04  0.30217577628E+04  0.95310266793E+02 0.  0.
    5000000    2    1    2    0    0 -0.70607021557E+03 -0.16693178916E+04  0.68459282510E+03  0.20282754972E+04  0.60006398303E+03 0.  0.
         23    2    4    4    0    0 -0.42013115006E+03 -0.34621657236E+03  0.16819532516E+03  0.57658723279E+03  0.88244384418E+02 0.  0.
         23    2    4    4    0    0 -0.28593906551E+03 -0.13231013193E+04  0.51639749994E+03  0.14516882644E+04  0.91510594186E+02 0.  0.
          5    1    3    3  502    0  0.47188172763E+03  0.11173252506E+04  0.15413123198E+04  0.19613143138E+04  0.47000000000E+01 0. -1.
         -5    1    3    3    0  502  0.23418848794E+03  0.55199264104E+03  0.87463026182E+03  0.10604434490E+04  0.47000000000E+01 0.  1.
         13    1    5    5    0    0 -0.12674452882E+03 -0.55647885211E+02  0.36163096819E+02  0.14306862789E+03  0.00000000000E+00 0. -1.
        -13    1    5    5    0    0 -0.29338662124E+03 -0.29056868715E+03  0.13203222834E+03  0.43351860490E+03  0.00000000000E+00 0.  1.
          1    1    6    6  503    0 -0.20969717205E+03 -0.85233520085E+03  0.37278923169E+03  0.95363515551E+03  0.00000000000E+00 0. -1.
         -1    1    6    6    0  503 -0.76241893465E+02 -0.47076611842E+03  0.14360826825E+03  0.49805310890E+03  0.00000000000E+00 0.  1.
<mgrwt>
<rscale>  0 0.18592632E+04</rscale>
<asrwt>0</asrwt>
<pdfrwt beam="1">  1        1 0.62696681E+00 0.18592632E+04</pdfrwt>
<pdfrwt beam="2">  1       -1 0.14996138E+00 0.18592632E+04</pdfrwt>
<totfact> 0.26378821E-02</totfact>
</mgrwt>
</event>
<event>
12    1  0.3147868E-008  0.9062965E+03  0.7818608E-02  0.9417745E-01
          2   -1    0    0  501    0  0.00000000000E+00  0.00000000000E+00  0.25294734114E+04  0.25294734114E+04  0.00000000000E+00 0. -1.
         -2   -1    0    0    0  501 -0.00000000000E+00 -0.00000000000E+00 -0.35360581744E+03  0.35360581744E+03  0.00000000000E+00 0.  1.
         23    2    1    2    0    0  0.13210962951E+03 -0.83559389171E+03  0.10679298558E+04  0.13654674705E+04  0.91417339769E+02 0.  0.
    5000000    2    1    2    0    0 -0.13210962951E+03  0.83559389171E+03  0.11079377382E+04  0.15176117584E+04  0.59995775795E+03 0.  0.
         23    2    4    4    0    0 -0.27421643646E+03  0.29417392973E+03  0.22936548260E+03  0.47190360455E+03  0.91386719038E+02 0.  0.
         23    2    4    4    0    0  0.14210680695E+03  0.54141996198E+03  0.87857225560E+03  0.10457081538E+04  0.91029746992E+02 0.  0.
          5    1    3    3  502    0  0.98095597212E+02 -0.55739912213E+03  0.77910049443E+03  0.96298296868E+03  0.47000000000E+01 0. -1.
         -5    1    3    3    0  502  0.34014032297E+02 -0.27819476959E+03  0.28882936135E+03  0.40248450181E+03  0.47000000000E+01 0.  1.
         13    1    5    5    0    0 -0.21137129536E+03  0.24832541928E+03  0.22039667043E+03  0.39359627882E+03  0.00000000000E+00 0. -1.
        -13    1    5    5    0    0 -0.62845141105E+02  0.45848510449E+02  0.89688121668E+01  0.78307325727E+02  0.00000000000E+00 0.  1.
          3    1    6    6  503    0  0.29589920700E+02  0.21746092085E+03  0.41003195882E+03  0.46507098680E+03  0.00000000000E+00 0. -1.
         -3    1    6    6    0  503  0.11251688625E+03  0.32395904113E+03  0.46854029677E+03  0.58063716702E+03  0.00000000000E+00 0.  1.
<mgrwt>
<rscale>  0 0.90629652E+03</rscale>
<asrwt>0</asrwt>
<pdfrwt beam="1">  1        2 0.38914974E+00 0.90629652E+03</pdfrwt>
<pdfrwt beam="2">  1       -2 0.54400897E-01 0.90629652E+03</pdfrwt>
<totfact> 0.10908312E+01</totfact>
</mgrwt>
</event>
<event>
12    1  0.3147868E-008  0.6696054E+03  0.7818608E-02  0.9770671E-01
         -1   -1    0    0    0  501 -0.00000000000E+00  0.00000000000E+00  0.29428959896E+03  0.29428959896E+03  0.00000000000E+00 0.  1.
          1   -1    0    0  501    0  0.00000000000E+00 -0.00000000000E+00 -0.16556952453E+04  0.16556952453E+04  0.00000000000E+00 0. -1.
         23    2    1    2    0    0  0.78792109844E+02  0.53841218298E+03 -0.77448837423E+03  0.94955626047E+03  0.75689990324E+02 0.  0.
    5000000    2    1    2    0    0 -0.78792109844E+02 -0.53841218298E+03 -0.58691727211E+03  0.10004285838E+04  0.60024127782E+03 0.  0.
         23    2    4    4    0    0 -0.28598549578E+03 -0.49354670850E+03 -0.44956572145E+03  0.73253965477E+03  0.95545542261E+02 0.  0.
         23    2    4    4    0    0  0.20719338593E+03 -0.44865474479E+02 -0.13735155065E+03  0.26788892901E+03  0.89202129152E+02 0.  0.
          5    1    3    3  502    0  0.39636325613E+02  0.38080067545E+03 -0.48889909283E+03  0.62098679994E+03  0.47000000000E+01 0. -1.
         -5    1    3    3    0  502  0.39155784231E+02  0.15761150752E+03 -0.28558928140E+03  0.32856946053E+03  0.47000000000E+01 0.  1.
         11    1    5    5    0    0 -0.46249036455E+02 -0.80093082634E+02 -0.31925677005E+02  0.97842343139E+02  0.00000000000E+00 0. -1.
        -11    1    5    5    0    0 -0.23973645932E+03 -0.41345362586E+03 -0.41764004445E+03  0.63469731163E+03  0.00000000000E+00 0.  1.
          1    1    6    6  503    0  0.74798769200E+02 -0.51599860954E+02 -0.25340683597E+02  0.94337435674E+02  0.00000000000E+00 0. -1.
         -1    1    6    6    0  503  0.13239461673E+03  0.67343864753E+01 -0.11201086705E+03  0.17355149334E+03  0.00000000000E+00 0.  1.
<mgrwt>
<rscale>  0 0.66960542E+03</rscale>
<asrwt>0</asrwt>
<pdfrwt beam="1">  1        1 0.25472235E+00 0.66960542E+03</pdfrwt>
<pdfrwt beam="2">  1       -1 0.45275323E-01 0.66960542E+03</pdfrwt>
<totfact> 0.25885571E+01</totfact>
</mgrwt>
</event>
<event>
12    1  0.3147868E-008  0.8610612E+03  0.7818608E-02  0.9475610E-01
          1   -1    0    0  501    0  0.00000000000E+00  0.00000000000E+00  0.92070910302E+03  0.92070910302E+03  0.00000000000E+00 0. -1.
         -1   -1    0    0    0  501 -0.00000000000E+00 -0.00000000000E+00 -0.99242085973E+03  0.99242085973E+03  0.00000000000E+00 0.  1.
         23    2    1    2    0    0  0.62619237842E+03 -0.56619699217E+03  0.12688946998E+03  0.85849326215E+03  0.90630098929E+02 0.  0.
    5000000    2    1    2    0    0 -0.62619237842E+03  0.56619699217E+03 -0.19860122670E+03  0.10546367006E+04  0.60010015353E+03 0.  0.
         23    2    4    4    0    0 -0.39904812825E+03  0.27360231230E+03 -0.39007213510E+03  0.62801826120E+03  0.90294140776E+02 0.  0.
         23    2    4    4    0    0 -0.22714425016E+03  0.29259467987E+03  0.19147090840E+03  0.42661843940E+03  0.90199927947E+02 0.  0.
          5    1    3    3  502    0  0.35943068928E+03 -0.26437394639E+03  0.68742268420E+02  0.45147712389E+03  0.47000000000E+01 0.  1.
         -5    1    3    3    0  502  0.26676168913E+03 -0.30182304578E+03  0.58147201562E+02  0.40701613826E+03  0.47000000000E+01 0.  1.
         11    1    5    5    0    0 -0.28006946543E+03  0.13977215461E+03 -0.24174642263E+03  0.39549525095E+03  0.00000000000E+00 0. -1.
        -11    1    5    5    0    0 -0.11897866282E+03  0.13383015769E+03 -0.14832571247E+03  0.23252301024E+03  0.00000000000E+00 0.  1.
          1    1    6    6  503    0 -0.80418332126E+02  0.17625792991E+03  0.89634566910E+02  0.21346737826E+03  0.00000000000E+00 0.  1.
         -1    1    6    6    0  503 -0.14672591804E+03  0.11633674997E+03  0.10183634149E+03  0.21315106114E+03  0.00000000000E+00 0. -1.
<mgrwt>
<rscale>  0 0.86106122E+03</rscale>
<asrwt>0</asrwt>
<pdfrwt beam="1">  1        1 0.14164755E+00 0.86106122E+03</pdfrwt>
<pdfrwt beam="2">  1       -1 0.15268013E+00 0.86106122E+03</pdfrwt>
<totfact> 0.59312940E+00</totfact>
</mgrwt>
</event>
<event>
12    1  0.3147868E-008  0.7277699E+03  0.7818608E-02  0.9670886E-01
         -2   -1    0    0    0  501 -0.00000000000E+00  0.00000000000E+00  0.15796390070E+03  0.15796390070E+03  0.00000000000E+00 0. -1.
          2   -1    0    0  501    0  0.00000000000E+00 -0.00000000000E+00 -0.36082510344E+04  0.36082510344E+04  0.00000000000E+00 0.  1.
         23    2    1    2    0    0  0.44692634884E+03 -0.43987569394E+03 -0.12704092372E+04  0.14199148867E+04  0.94788543839E+02 0.  0.
    5000000    2    1    2    0    0 -0.44692634884E+03  0.43987569394E+03 -0.21798778965E+04  0.23463000484E+04  0.60001873817E+03 0.  0.
         23    2    4    4    0    0 -0.51807387343E+03  0.18232002538E+03 -0.11469696397E+04  0.12749576556E+04  0.91304649373E+02 0.  0.
         23    2    4    4    0    0  0.71147524596E+02  0.25755566856E+03 -0.10329082568E+04  0.10713423929E+04  0.97355858536E+02 0.  0.
          5    1    3    3  502    0  0.11983375006E+03 -0.97552436996E+02 -0.40393631379E+03  0.43250808226E+03  0.47000000000E+01 0. -1.
         -5    1    3    3    0  502  0.32709259878E+03 -0.34232325695E+03 -0.86647292344E+03  0.98740680446E+03  0.47000000000E+01 0.  1.
         11    1    5    5    0    0 -0.33401283444E+03  0.13673873859E+03 -0.65756677992E+03  0.75010407694E+03  0.00000000000E+00 0. -1.
        -11    1    5    5    0    0 -0.18406103899E+03  0.45581286797E+02 -0.48940285982E+03  0.52485357862E+03  0.00000000000E+00 0.  1.
          4    1    6    6  503    0 -0.14566699233E+02  0.56546938232E+02 -0.13249023614E+03  0.14478745672E+03  0.00000000000E+00 0. -1.
         -4    1    6    6    0  503  0.85714223828E+02  0.20100873033E+03 -0.90041802061E+03  0.92655493613E+03  0.00000000000E+00 0.  1.
<mgrwt>
<rscale>  0 0.72776987E+03</rscale>
<asrwt>0</asrwt>
<pdfrwt beam="1">  1        2 0.55511552E+00 0.72776987E+03</pdfrwt>
<pdfrwt beam="2">  1       -2 0.24302140E-01 0.72776987E+03</pdfrwt>
<totfact> 0.11179698E+01</totfact>
</mgrwt>
</event>
<event>
12    1  0.3147868E-008  0.4969377E+03  0.7818608E-02  0.1014581E+00
          1   -1    0    0  501    0  0.00000000000E+00  0.00000000000E+00  0.65987786014E+03  0.65987786014E+03  0.00000000000E+00 0. -1.
         -1   -1    0    0    0  501 -0.00000000000E+00 -0.00000000000E+00 -0.51696029572E+03  0.51696029572E+03  0.00000000000E+00 0.  1.
         23    2    1    2    0    0 -0.37326821877E+02 -0.32998210618E+03  0.31763068564E+03  0.46918870171E+03  0.94695846353E+02 0.  0.
    5000000    2    1    2    0    0  0.37326821877E+02  0.32998210618E+03 -0.17471312122E+03  0.70764945415E+03  0.59996799348E+03 0.  0.
         23    2    4    4    0    0  0.22064551839E+03  0.39650954230E+03 -0.16484043840E+03  0.49105223124E+03  0.89753338431E+02 0.  0.
         23    2    4    4    0    0 -0.18331869651E+03 -0.66527436112E+02 -0.98726828180E+01  0.21659722291E+03  0.93729626373E+02 0.  0.
          5    1    3    3  502    0 -0.55655668227E+02 -0.22912326640E+03  0.26182809309E+03  0.35237914942E+03  0.47000000000E+01 0. -1.
         -5    1    3    3    0  502  0.18328846350E+02 -0.10085883978E+03  0.55802592546E+02  0.11680955229E+03  0.47000000000E+01 0.  1.
         13    1    5    5    0    0  0.10733523132E+03  0.26948592551E+03 -0.80233942363E+02  0.30096677796E+03  0.00000000000E+00 0. -1.
        -13    1    5    5    0    0  0.11331028707E+03  0.12702361679E+03 -0.84606496035E+02  0.19008545328E+03  0.00000000000E+00 0.  1.
          3    1    6    6  503    0 -0.13703466068E+03 -0.46627099141E+02  0.35231578063E+02  0.14897600039E+03  0.00000000000E+00 0.  1.
         -3    1    6    6    0  503 -0.46284035833E+02 -0.19900336971E+02 -0.45104260881E+02  0.67621222513E+02  0.00000000000E+00 0. -1.
<mgrwt>
<rscale>  0 0.49693770E+03</rscale>
<asrwt>0</asrwt>
<pdfrwt beam="1">  1        1 0.10151967E+00 0.49693770E+03</pdfrwt>
<pdfrwt beam="2">  1       -1 0.79532353E-01 0.49693770E+03</pdfrwt>
<totfact> 0.49440756E+01</totfact>
</mgrwt>
</event>
<event>
12    1  0.3147868E-008  0.4036435E+03  0.7818608E-02  0.1042525E+00
         -1   -1    0    0    0  501 -0.00000000000E+00  0.00000000000E+00  0.41218523951E+03  0.41218523951E+03  0.00000000000E+00 0.  1.
          1   -1    0    0  501    0  0.00000000000E+00 -0.00000000000E+00 -0.12245433690E+04  0.12245433690E+04  0.00000000000E+00 0. -1.
         23    2    1    2    0    0  0.35622046562E+03 -0.73597265865E+02  0.18440529766E+03  0.41773937228E+03  0.90505754958E+02 0.  0.
    5000000    2    1    2    0    0 -0.35622046562E+03  0.73597265865E+02 -0.99676342717E+03  0.12189892363E+04  0.60007320446E+03 0.  0.
         23    2    4    4    0    0 -0.14517268625E+03  0.12366246591E+03 -0.95481536611E+03  0.97800984726E+03  0.91996541596E+02 0.  0.
         23    2    4    4    0    0 -0.21104777937E+03 -0.50065200049E+02 -0.41948061068E+02  0.24097938901E+03  0.96248307351E+02 0.  0.
          5    1    3    3  502    0  0.88990676974E+02  0.12958300211E+02  0.71412043022E+02  0.11493053563E+03  0.47000000000E+01 0. -1.
         -5    1    3    3    0  502  0.26722978865E+03 -0.86555566075E+02  0.11299325464E+03  0.30280883665E+03  0.47000000000E+01 0.  1.
         11    1    5    5    0    0 -0.93746914633E+02  0.38213046558E+02 -0.63457399282E+03  0.64259853197E+03  0.00000000000E+00 0. -1.
        -11    1    5    5    0    0 -0.51425771619E+02  0.85449419356E+02 -0.32024137328E+03  0.33541131528E+03  0.00000000000E+00 0.  1.
          2    1    6    6  503    0 -0.10265631932E+03 -0.71157141540E+02 -0.67822655285E+01  0.12509059842E+03  0.00000000000E+00 0. -1.
         -2    1    6    6    0  503 -0.10839146005E+03  0.21091941492E+02 -0.35165795540E+02  0.11588879059E+03  0.00000000000E+00 0.  1.
<mgrwt>
<rscale>  0 0.40364347E+03</rscale>
<asrwt>0</asrwt>
<pdfrwt beam="1">  1        1 0.18839128E+00 0.40364347E+03</pdfrwt>
<pdfrwt beam="2">  1       -1 0.63413115E-01 0.40364347E+03</pdfrwt>
<totfact> 0.28164578E+01</totfact>
</mgrwt>
</event>
<event>
12    1  0.3147868E-008  0.6440652E+03  0.7818608E-02  0.9817980E-01
          2   -1    0    0  501    0  0.00000000000E+00  0.00000000000E+00  0.30337360469E+04  0.30337360469E+04  0.00000000000E+00 0. -1.
         -2   -1    0    0    0  501 -0.00000000000E+00 -0.00000000000E+00 -0.34790830598E+03  0.34790830598E+03  0.00000000000E+00 0.  1.
         23    2    1    2    0    0 -0.10546900247E+03 -0.57280289813E+03  0.22378814844E+02  0.58998371413E+03  0.91395300731E+02 0.  0.
    5000000    2    1    2    0    0  0.10546900247E+03  0.57280289813E+03  0.26634489261E+04  0.27916606387E+04  0.60015170543E+03 0.  0.
         23    2    4    4    0    0  0.20203095236E+03  0.51837729912E+03  0.12538220289E+04  0.13746589414E+04  0.89922160970E+02 0.  0.
         23    2    4    4    0    0 -0.96561949890E+02  0.54425599004E+02  0.14096268972E+04  0.14170016973E+04  0.92517377136E+02 0.  0.
          5    1    3    3  502    0 -0.88864472892E+01 -0.29497730812E+03  0.19594067373E+02  0.29579823989E+03  0.47000000000E+01 0. -1.
         -5    1    3    3    0  502 -0.96582555181E+02 -0.27782559001E+03  0.27847474714E+01  0.29418547423E+03  0.47000000000E+01 0.  1.
         11    1    5    5    0    0  0.17032991580E+03  0.46015182362E+03  0.11625224287E+04  0.12618281889E+04  0.00000000000E+00 0. -1.
        -11    1    5    5    0    0  0.31701036562E+02  0.58225475509E+02  0.91299600164E+02  0.11283075249E+03  0.00000000000E+00 0.  1.
          4    1    6    6  503    0 -0.58427579846E+02  0.77666892822E+02  0.83370292140E+03  0.83934884850E+03  0.00000000000E+00 0. -1.
         -4    1    6    6    0  503 -0.38134370044E+02 -0.23241293818E+02  0.57592397576E+03  0.57765284884E+03  0.00000000000E+00 0.  1.
<mgrwt>
<rscale>  0 0.64406522E+03</rscale>
<asrwt>0</asrwt>
<pdfrwt beam="1">  1        2 0.46672860E+00 0.64406522E+03</pdfrwt>
<pdfrwt beam="2">  1       -2 0.53524357E-01 0.64406522E+03</pdfrwt>
<totfact> 0.59474196E+00</totfact>
</mgrwt>
</event>
<event>
12    1  0.3147868E-008  0.6671178E+03  0.7818608E-02  0.9775179E-01
         -2   -1    0    0    0  501 -0.00000000000E+00  0.00000000000E+00  0.64887430727E+03  0.64887430727E+03  0.00000000000E+00 0.  1.
          2   -1    0    0  501    0  0.00000000000E+00 -0.00000000000E+00 -0.91812019127E+03  0.91812019127E+03  0.00000000000E+00 0. -1.
         23    2    1    2    0    0 -0.62986952244E+03 -0.71711607175E+02  0.37279601566E+02  0.64210614800E+03  0.95038764168E+02 0.  0.
    5000000    2    1    2    0    0  0.62986952244E+03  0.71711607175E+02 -0.30652548557E+03  0.92488835054E+03  0.59965191383E+03 0.  0.
         23    2    4    4    0    0  0.82555547179E+02  0.10213803109E+03 -0.33265958771E+03  0.36886640369E+03  0.90290789741E+02 0.  0.
         23    2    4    4    0    0  0.54731397526E+03 -0.30426423919E+02  0.26134102136E+02  0.55602194685E+03  0.89437460256E+02 0.  0.
          5    1    3    3  502    0 -0.21438013581E+03  0.20072422650E+02  0.18436531978E+02  0.21615674982E+03  0.47000000000E+01 0. -1.
         -5    1    3    3    0  502 -0.41548938664E+03 -0.91784029825E+02  0.18843069588E+02  0.42594939818E+03  0.47000000000E+01 0.  1.
         13    1    5    5    0    0  0.63049550193E+02  0.43351002265E+02 -0.88583004139E+02  0.11705342284E+03  0.00000000000E+00 0.  1.
        -13    1    5    5    0    0  0.19505996986E+02  0.58787028829E+02 -0.24407658357E+03  0.25181298085E+03  0.00000000000E+00 0. -1.
          2    1    6    6  503    0  0.11698724042E+03 -0.42273334390E+02  0.15974954440E+02  0.12541231355E+03  0.00000000000E+00 0. -1.
         -2    1    6    6    0  503  0.43032673484E+03  0.11846910471E+02  0.10159147696E+02  0.43060963330E+03  0.00000000000E+00 0.  1.
<mgrwt>
<rscale>  0 0.66711785E+03</rscale>
<asrwt>0</asrwt>
<pdfrwt beam="1">  1        2 0.14124926E+00 0.66711785E+03</pdfrwt>
<pdfrwt beam="2">  1       -2 0.99826816E-01 0.66711785E+03</pdfrwt>
<totfact> 0.24218384E+01</totfact>
</mgrwt>
</event>
<event>
12    1  0.3147868E-008  0.1595920E+04  0.7818608E-02  0.8823058E-01
         -2   -1    0    0    0  501 -0.00000000000E+00  0.00000000000E+00  0.21483932157E+04  0.21483932157E+04  0.00000000000E+00 0.  1.
          2   -1    0    0  501    0  0.00000000000E+00 -0.00000000000E+00 -0.11982597642E+04  0.11982597642E+04  0.00000000000E+00 0. -1.
         23    2    1    2    0    0  0.11934009672E+04 -0.98336730658E+03  0.52025920993E+03  0.16331778693E+04  0.73370151801E+02 0.  0.
    5000000    2    1    2    0    0 -0.11934009672E+04  0.98336730658E+03  0.42987424159E+03  0.17134751106E+04  0.59998996904E+03 0.  0.
         23    2    4    4    0    0 -0.19871503278E+03  0.49990887485E+03  0.91122271859E+02  0.55340258155E+03  0.92491088418E+02 0.  0.
         23    2    4    4    0    0 -0.99468593443E+03  0.48345843173E+03  0.33875196973E+03  0.11600725291E+04  0.88787455971E+02 0.  0.
          5    1    3    3  502    0  0.92083767352E+03 -0.72266456713E+03  0.40806711110E+03  0.12396479156E+04  0.47000000000E+01 0. -1.
         -5    1    3    3    0  502  0.27256329369E+03 -0.26070273945E+03  0.11219209883E+03  0.39352995371E+03  0.47000000000E+01 0.  1.
         11    1    5    5    0    0 -0.18136369337E+03  0.45206858063E+03  0.10958520578E+03  0.49926717115E+03  0.00000000000E+00 0.  1.
        -11    1    5    5    0    0 -0.17351339410E+02  0.47840294220E+02 -0.18462933922E+02  0.54135410402E+02  0.00000000000E+00 0. -1.
          3    1    6    6  503    0 -0.42915240396E+03  0.21856283040E+03  0.19269272616E+03  0.51872148922E+03  0.00000000000E+00 0. -1.
         -3    1    6    6    0  503 -0.56553353047E+03  0.26489560133E+03  0.14605924357E+03  0.64135103985E+03  0.00000000000E+00 0.  1.
<mgrwt>
<rscale>  0 0.15959203E+04</rscale>
<asrwt>0</asrwt>
<pdfrwt beam="1">  1        2 0.18434766E+00 0.15959203E+04</pdfrwt>
<pdfrwt beam="2">  1       -2 0.33052203E+00 0.15959203E+04</pdfrwt>
<totfact> 0.36625225E-01</totfact>
</mgrwt>
</event>
<event>
12    1  0.3147868E-008  0.5456142E+03  0.7818608E-02  0.1002514E+00
          2   -1    0    0  501    0  0.00000000000E+00  0.00000000000E+00  0.18021885862E+04  0.18021885862E+04  0.00000000000E+00 0. -1.
         -2   -1    0    0    0  501 -0.00000000000E+00 -0.00000000000E+00 -0.23652173383E+03  0.23652173383E+03  0.00000000000E+00 0.  1.
         23    2    1    2    0    0  0.11568013631E+03 -0.36561291564E+03  0.95717753765E+02  0.40545924388E+03  0.90446735953E+02 0.  0.
    5000000    2    1    2    0    0 -0.11568013631E+03  0.36561291564E+03  0.14699490986E+04  0.16332510761E+04  0.59975330531E+03 0.  0.
         23    2    4    4    0    0  0.84443106416E+02 -0.12004970223E+03  0.28034229285E+03  0.32958684883E+03  0.92158127859E+02 0.  0.
         23    2    4    4    0    0 -0.20012324272E+03  0.48566261787E+03  0.11896068057E+04  0.13036642273E+04  0.91970509588E+02 0.  0.
          5    1    3    3  502    0  0.33620874708E+01 -0.44482702004E+02 -0.15571700702E+02  0.47482441729E+02  0.47000000000E+01 0. -1.
         -5    1    3    3    0  502  0.11231804884E+03 -0.32113021364E+03  0.11128945447E+03  0.35797680216E+03  0.47000000000E+01 0.  1.
         11    1    5    5    0    0  0.70897734043E+02 -0.13534338042E+03  0.25059262504E+03  0.29349784163E+03  0.00000000000E+00 0. -1.
        -11    1    5    5    0    0  0.13545372373E+02  0.15293678194E+02  0.29749667813E+02  0.36089007196E+02  0.00000000000E+00 0.  1.
          4    1    6    6  503    0 -0.16462272221E+03  0.28493134475E+03  0.75745696514E+03  0.82584960249E+03  0.00000000000E+00 0. -1.
         -4    1    6    6    0  503 -0.35500520516E+02  0.20073127313E+03  0.43214984057E+03  0.47781462480E+03  0.00000000000E+00 0.  1.
<mgrwt>
<rscale>  0 0.54561421E+03</rscale>
<asrwt>0</asrwt>
<pdfrwt beam="1">  1        2 0.27725977E+00 0.54561421E+03</pdfrwt>
<pdfrwt beam="2">  1       -2 0.36387960E-01 0.54561421E+03</pdfrwt>
<totfact> 0.64374631E+01</totfact>
</mgrwt>
</event>
<event>
12    1  0.3147868E-008  0.3627507E+03  0.7818608E-02  0.1057500E+00
         -1   -1    0    0    0  501 -0.00000000000E+00  0.00000000000E+00  0.15911335662E+03  0.15911335662E+03  0.00000000000E+00 0.  1.
          1   -1    0    0  501    0  0.00000000000E+00 -0.00000000000E+00 -0.14108171403E+04  0.14108171403E+04  0.00000000000E+00 0. -1.
         23    2    1    2    0    0 -0.21809819290E+03  0.45972591303E+02 -0.11749085145E+03  0.26759641384E+03  0.90130126075E+02 0.  0.
    5000000    2    1    2    0    0  0.21809819290E+03 -0.45972591303E+02 -0.11342129322E+04  0.13023340831E+04  0.59996232169E+03 0.  0.
         23    2    4    4    0    0  0.26595996373E+03 -0.18405328879E+03 -0.10644410711E+04  0.11162754987E+04  0.91792591625E+02 0.  0.
         23    2    4    4    0    0 -0.47861770831E+02  0.13808069749E+03 -0.69771861154E+02  0.18605858435E+03  0.91611440739E+02 0.  0.
          5    1    3    3  502    0 -0.22457422833E+03  0.36363543158E+02 -0.10788160488E+03  0.25182617412E+03  0.47000000000E+01 0. -1.
         -5    1    3    3    0  502  0.64760354273E+01  0.96090481448E+01 -0.96092465697E+01  0.15770239717E+02  0.47000000000E+01 0.  1.
         13    1    5    5    0    0  0.21242039433E+03 -0.95888306937E+02 -0.73717527643E+03  0.77313930149E+03  0.00000000000E+00 0.  1.
        -13    1    5    5    0    0  0.53539569401E+02 -0.88164981857E+02 -0.32726579465E+03  0.34313619725E+03  0.00000000000E+00 0. -1.
          3    1    6    6  503    0  0.30884812873E+01  0.25270239570E+02  0.20639303926E+02  0.32773534920E+02  0.00000000000E+00 0. -1.
         -3    1    6    6    0  503 -0.50950252118E+02  0.11281045792E+03 -0.90411165081E+02  0.15328504943E+03  0.00000000000E+00 0.  1.
<mgrwt>
<rscale>  0 0.36275069E+03</rscale>
<asrwt>0</asrwt>
<pdfrwt beam="1">  1        1 0.21704878E+00 0.36275069E+03</pdfrwt>
<pdfrwt beam="2">  1       -1 0.24478979E-01 0.36275069E+03</pdfrwt>
<totfact> 0.11732684E+02</totfact>
</mgrwt>
</event>
<event>
12    1  0.3147868E-008  0.6864985E+03  0.7818608E-02  0.9740604E-01
          4   -1    0    0  501    0  0.00000000000E+00  0.00000000000E+00  0.10964041913E+04  0.10964041913E+04  0.00000000000E+00 0. -1.
         -4   -1    0    0    0  501 -0.00000000000E+00 -0.00000000000E+00 -0.53717199090E+03  0.53717199090E+03  0.00000000000E+00 0.  1.
         23    2    1    2    0    0  0.44383935163E+03 -0.46285036158E+03  0.32505744832E+03  0.72473801750E+03  0.91427687493E+02 0.  0.
    5000000    2    1    2    0    0 -0.44383935163E+03  0.46285036158E+03  0.23417475206E+03  0.90883816468E+03  0.59993763660E+03 0.  0.
         23    2    4    4    0    0 -0.44324503592E+03  0.25483001097E+03 -0.76217403020E+02  0.52403645310E+03  0.86026828993E+02 0.  0.
         23    2    4    4    0    0 -0.59431571250E+00  0.20802035061E+03  0.31039215508E+03  0.38480171158E+03  0.91957858928E+02 0.  0.
          5    1    3    3  502    0  0.36953499787E+03 -0.34130959012E+03  0.27724776631E+03  0.57440122291E+03  0.47000000000E+01 0. -1.
         -5    1    3    3    0  502  0.74304353757E+02 -0.12154077146E+03  0.47809682011E+02  0.15033679459E+03  0.47000000000E+01 0.  1.
         13    1    5    5    0    0 -0.38345976845E+03  0.23885396215E+03 -0.43016163506E+02  0.45380943091E+03  0.00000000000E+00 0. -1.
        -13    1    5    5    0    0 -0.59785267467E+02  0.15976048811E+02 -0.33201239515E+02  0.70227022199E+02  0.00000000000E+00 0.  1.
          1    1    6    6  503    0  0.22927578347E+02  0.13793320615E+03  0.13454181218E+03  0.19404314580E+03  0.00000000000E+00 0. -1.
         -1    1    6    6    0  503 -0.23521894059E+02  0.70087144461E+02  0.17585034290E+03  0.19075856578E+03  0.00000000000E+00 0.  1.
<mgrwt>
<rscale>  0 0.68649849E+03</rscale>
<asrwt>0</asrwt>
<pdfrwt beam="1">  1        4 0.16867757E+00 0.68649849E+03</pdfrwt>
<pdfrwt beam="2">  1       -4 0.82641845E-01 0.68649849E+03</pdfrwt>
<totfact> 0.54630942E-01</totfact>
</mgrwt>
</event>
<event>
12    1  0.3147868E-008  0.7212813E+03  0.7818608E-02  0.9681515E-01
         -2   -1    0    0    0  501 -0.00000000000E+00  0.00000000000E+00  0.90723026326E+03  0.90723026326E+03  0.00000000000E+00 0.  1.
          2   -1    0    0  501    0  0.00000000000E+00 -0.00000000000E+00 -0.87003967592E+03  0.87003967592E+03  0.00000000000E+00 0. -1.
         23    2    1    2    0    0  0.10488397064E+03  0.70324573979E+03 -0.31451887092E+03  0.78259377584E+03  0.89306662647E+02 0.  0.
    5000000    2    1    2    0    0 -0.10488397064E+03 -0.70324573979E+03  0.35170945826E+03  0.99467616333E+03  0.60010491503E+03 0.  0.
         23    2    4    4    0    0 -0.11899014658E+02 -0.26974437453E+03 -0.14735216757E+03  0.32115587024E+03  0.92329938585E+02 0.  0.
         23    2    4    4    0    0 -0.92984955978E+02 -0.43350136526E+03  0.49906162583E+03  0.67352029310E+03  0.89428424537E+02 0.  0.
          5    1    3    3  502    0  0.95849933766E+01  0.24133096562E+03 -0.71066883951E+02  0.25180369151E+03  0.47000000000E+01 0. -1.
         -5    1    3    3    0  502  0.95298977260E+02  0.46191477417E+03 -0.24345198697E+03  0.53079008433E+03  0.47000000000E+01 0.  1.
         13    1    5    5    0    0  0.28827690461E+02 -0.76314807038E+02 -0.14156161401E+02  0.82797236767E+02  0.00000000000E+00 0.  1.
        -13    1    5    5    0    0 -0.40726705119E+02 -0.19342956749E+03 -0.13319600617E+03  0.23835863347E+03  0.00000000000E+00 0. -1.
          2    1    6    6  503    0 -0.95905383143E+02 -0.26955121922E+03  0.34859806096E+03  0.45097262711E+03  0.00000000000E+00 0. -1.
         -2    1    6    6    0  503  0.29204271652E+01 -0.16395014604E+03  0.15046356487E+03  0.22254766598E+03  0.00000000000E+00 0.  1.
<mgrwt>
<rscale>  0 0.72128131E+03</rscale>
<asrwt>0</asrwt>
<pdfrwt beam="1">  1        2 0.13385226E+00 0.72128131E+03</pdfrwt>
<pdfrwt beam="2">  1       -2 0.13957389E+00 0.72128131E+03</pdfrwt>
<totfact> 0.11345461E+01</totfact>
</mgrwt>
</event>
<event>
12    1  0.3147868E-008  0.8208377E+03  0.7818608E-02  0.9530336E-01
         -2   -1    0    0    0  501 -0.00000000000E+00  0.00000000000E+00  0.64360211348E+03  0.64360211348E+03  0.00000000000E+00 0. -1.
          2   -1    0    0  501    0  0.00000000000E+00 -0.00000000000E+00 -0.15660397451E+04  0.15660397451E+04  0.00000000000E+00 0.  1.
         23    2    1    2    0    0 -0.70647998422E+03  0.36919737089E+03 -0.90811438227E+03  0.12118222609E+04  0.91764884000E+02 0.  0.
    5000000    2    1    2    0    0  0.70647998422E+03 -0.36919737089E+03 -0.14323249327E+02  0.99781959766E+03  0.60001510582E+03 0.  0.
         23    2    4    4    0    0  0.58367920385E+03 -0.35644440587E+03  0.21470158957E+03  0.72255236092E+03  0.90835644023E+02 0.  0.
         23    2    4    4    0    0  0.12280078038E+03 -0.12752965025E+02 -0.22902483890E+03  0.27526723674E+03  0.89872159274E+02 0.  0.
          5    1    3    3  502    0 -0.57643970422E+03  0.33917064660E+03 -0.75404510527E+03  0.10079313324E+04  0.47000000000E+01 0. -1.
         -5    1    3    3    0  502 -0.13004028000E+03  0.30026724298E+02 -0.15406927700E+03  0.20389092847E+03  0.47000000000E+01 0.  1.
         11    1    5    5    0    0  0.91746399954E+02 -0.25885316769E+02  0.11556174158E+02  0.96026020901E+02  0.00000000000E+00 0.  1.
        -11    1    5    5    0    0  0.49193280389E+03 -0.33055908910E+03  0.20314541541E+03  0.62652634002E+03  0.00000000000E+00 0. -1.
          3    1    6    6  503    0  0.11783700334E+03 -0.39349051748E+02 -0.20114773998E+03  0.23641979724E+03  0.00000000000E+00 0. -1.
         -3    1    6    6    0  503  0.49637770365E+01  0.26596086723E+02 -0.27877098920E+02  0.38847439499E+02  0.00000000000E+00 0.  1.
<mgrwt>
<rscale>  0 0.82083766E+03</rscale>
<asrwt>0</asrwt>
<pdfrwt beam="1">  1        2 0.24092919E+00 0.82083766E+03</pdfrwt>
<pdfrwt beam="2">  1       -2 0.99015711E-01 0.82083766E+03</pdfrwt>
<totfact> 0.10014022E+01</totfact>
</mgrwt>
</event>
<event>
12    1  0.3147868E-008  0.8352017E+03  0.7818608E-02  0.9510417E-01
         -3   -1    0    0    0  501 -0.00000000000E+00  0.00000000000E+00  0.15695163455E+04  0.15695163455E+04  0.00000000000E+00 0.  1.
          3   -1    0    0  501    0  0.00000000000E+00 -0.00000000000E+00 -0.59246458830E+03  0.59246458830E+03  0.00000000000E+00 0. -1.
         23    2    1    2    0    0 -0.35257254872E+03  0.67172277542E+03  0.91525855426E+03  0.11928202154E+04  0.97994673224E+02 0.  0.
    5000000    2    1    2    0    0  0.35257254872E+03 -0.67172277542E+03  0.61793202970E+02  0.96916071843E+03  0.59994600514E+03 0.  0.
         23    2    4    4    0    0  0.47317120315E+03 -0.50058590203E+03  0.17001254840E+03  0.71536434249E+03  0.91458422733E+02 0.  0.
         23    2    4    4    0    0 -0.12059865443E+03 -0.17113687339E+03 -0.10821934543E+03  0.25379637594E+03  0.94177007973E+02 0.  0.
          5    1    3    3  502    0 -0.11943937292E+03  0.13846825290E+03  0.21903163582E+03  0.28537023033E+03  0.47000000000E+01 0.  1.
         -5    1    3    3    0  502 -0.23313317580E+03  0.53325452252E+03  0.69622691844E+03  0.90744998507E+03  0.47000000000E+01 0. -1.
         13    1    5    5    0    0  0.35662332507E+03 -0.34355350480E+03  0.15655614599E+03  0.51934481175E+03  0.00000000000E+00 0. -1.
        -13    1    5    5    0    0  0.11654787808E+03 -0.15703239724E+03  0.13456402410E+02  0.19601953074E+03  0.00000000000E+00 0.  1.
          1    1    6    6  503    0 -0.11276634456E+03 -0.12673678840E+03 -0.43867182105E+02  0.17522212094E+03  0.00000000000E+00 0. -1.
         -1    1    6    6    0  503 -0.78323098715E+01 -0.44400084988E+02 -0.64352163323E+02  0.78574255003E+02  0.00000000000E+00 0.  1.
<mgrwt>
<rscale>  0 0.83520172E+03</rscale>
<asrwt>0</asrwt>
<pdfrwt beam="1">  1        3 0.91148399E-01 0.83520172E+03</pdfrwt>
<pdfrwt beam="2">  1       -3 0.24146405E+00 0.83520172E+03</pdfrwt>
<totfact> 0.23058259E-01</totfact>
</mgrwt>
</event>
<event>
12    1  0.3147868E-008  0.9901201E+03  0.7818608E-02  0.9319448E-01
          1   -1    0    0  501    0  0.00000000000E+00  0.00000000000E+00  0.16646885187E+04  0.16646885187E+04  0.00000000000E+00 0. -1.
         -1   -1    0    0    0  501 -0.00000000000E+00 -0.00000000000E+00 -0.69936660694E+03  0.69936660694E+03  0.00000000000E+00 0.  1.
         23    2    1    2    0    0  0.23815791367E+03 -0.92383477529E+03  0.13933349204E+03  0.96652394880E+03  0.67563582910E+02 0.  0.
    5000000    2    1    2    0    0 -0.23815791367E+03  0.92383477529E+03  0.82598841974E+03  0.13975311769E+04  0.60053862232E+03 0.  0.
         23    2    4    4    0    0  0.85858935387E+02  0.83841807979E+02 -0.28966158118E+02  0.15265073648E+03  0.89788660084E+02 0.  0.
         23    2    4    4    0    0 -0.32401684906E+03  0.83999296731E+03  0.85495457786E+03  0.12448804404E+04  0.90580776458E+02 0.  0.
          5    1    3    3  502    0  0.65848605799E+02 -0.28986793215E+03  0.73567101048E+02  0.30625751474E+03  0.47000000000E+01 0. -1.
         -5    1    3    3    0  502  0.17230930787E+03 -0.63396684313E+03  0.65766390994E+02  0.66026643407E+03  0.47000000000E+01 0.  1.
         13    1    5    5    0    0  0.24503545234E+02  0.93097174562E+01 -0.47591551629E+02  0.54332774221E+02  0.00000000000E+00 0.  1.
        -13    1    5    5    0    0  0.61355390154E+02  0.74532090523E+02  0.18625393510E+02  0.98317962255E+02  0.00000000000E+00 0. -1.
          3    1    6    6  503    0 -0.12363973389E+03  0.42091513266E+03  0.45283453451E+03  0.63048826186E+03  0.00000000000E+00 0. -1.
         -3    1    6    6    0  503 -0.20037711516E+03  0.41907783465E+03  0.40212004335E+03  0.61439217853E+03  0.00000000000E+00 0.  1.
<mgrwt>
<rscale>  0 0.99012005E+03</rscale>
<asrwt>0</asrwt>
<pdfrwt beam="1">  1        1 0.25610592E+00 0.99012005E+03</pdfrwt>
<pdfrwt beam="2">  1       -1 0.10759486E+00 0.99012005E+03</pdfrwt>
<totfact> 0.40851854E+00</totfact>
</mgrwt>
</event>
<event>
12    1  0.3147868E-008  0.5519732E+03  0.7818608E-02  0.1001038E+00
         -1   -1    0    0    0  501 -0.00000000000E+00  0.00000000000E+00  0.88306267157E+03  0.88306267157E+03  0.00000000000E+00 0.  1.
          1   -1    0    0  501    0  0.00000000000E+00 -0.00000000000E+00 -0.42044478442E+03  0.42044478442E+03  0.00000000000E+00 0. -1.
         23    2    1    2    0    0  0.35521554409E+03  0.28269328235E+03  0.12991348742E+03  0.48088735573E+03  0.91003077097E+02 0.  0.
    5000000    2    1    2    0    0 -0.35521554409E+03 -0.28269328235E+03  0.33270439973E+03  0.82262010026E+03  0.59993169370E+03 0.  0.
         23    2    4    4    0    0 -0.44320505436E+03 -0.31151367709E+03  0.39703703823E+03  0.67788481434E+03  0.91749226528E+02 0.  0.
         23    2    4    4    0    0  0.87989510275E+02  0.28820394743E+02 -0.64332638499E+02  0.14473528592E+03  0.90757068827E+02 0.  0.
          5    1    3    3  502    0  0.13081313168E+03  0.59198023764E+02  0.64403243737E+02  0.15743681031E+03  0.47000000000E+01 0. -1.
         -5    1    3    3    0  502  0.22440241241E+03  0.22349525858E+03  0.65510243687E+02  0.32345054542E+03  0.47000000000E+01 0.  1.
         11    1    5    5    0    0 -0.19956815225E+03 -0.11249191227E+03  0.11958516593E+03  0.25842308262E+03  0.00000000000E+00 0.  1.
        -11    1    5    5    0    0 -0.24363690211E+03 -0.19902176482E+03  0.27745187230E+03  0.41946173173E+03  0.00000000000E+00 0. -1.
          1    1    6    6  503    0  0.39476292237E+01  0.13963998274E+02 -0.57291197364E+02  0.59100408795E+02  0.00000000000E+00 0. -1.
         -1    1    6    6    0  503  0.84041881051E+02  0.14856396470E+02 -0.70414411345E+01  0.85634877123E+02  0.00000000000E+00 0.  1.
<mgrwt>
<rscale>  0 0.55197323E+03</rscale>
<asrwt>0</asrwt>
<pdfrwt beam="1">  1        1 0.64683813E-01 0.55197323E+03</pdfrwt>
<pdfrwt beam="2">  1       -1 0.13585580E+00 0.55197323E+03</pdfrwt>
<totfact> 0.26648113E+01</totfact>
</mgrwt>
</event>
<event>
12    1  0.3147868E-008  0.1121274E+04  0.7818608E-02  0.9184701E-01
          2   -1    0    0  501    0  0.00000000000E+00  0.00000000000E+00  0.47750170516E+04  0.47750170516E+04  0.00000000000E+00 0. -1.
         -2   -1    0    0    0  501 -0.00000000000E+00 -0.00000000000E+00 -0.32777221629E+03  0.32777221629E+03  0.00000000000E+00 0.  1.
         23    2    1    2    0    0 -0.10188403137E+04 -0.42701137760E+03  0.12701501943E+04  0.16860223366E+04  0.94949997718E+02 0.  0.
    5000000    2    1    2    0    0  0.10188403137E+04  0.42701137760E+03  0.31770946410E+04  0.34167669312E+04  0.59999300284E+03 0.  0.
         23    2    4    4    0    0  0.90155153484E+03  0.41635695178E+03  0.30835829830E+04  0.32407708129E+04  0.89236582459E+02 0.  0.
         23    2    4    4    0    0  0.11728877884E+03  0.10654425817E+02  0.93511657984E+02  0.17599611833E+03  0.91433194510E+02 0.  0.
          5    1    3    3  502    0 -0.37010363449E+03 -0.17796492143E+03  0.41117983773E+03  0.58115330377E+03  0.47000000000E+01 0. -1.
         -5    1    3    3    0  502 -0.64873667919E+03 -0.24904645617E+03  0.85897035659E+03  0.11048690328E+04  0.47000000000E+01 0.  1.
         13    1    5    5    0    0  0.12533596526E+03  0.39554255612E+02  0.49615906728E+03  0.51327133503E+03  0.00000000000E+00 0. -1.
        -13    1    5    5    0    0  0.77621556958E+03  0.37680269617E+03  0.25874239157E+04  0.27274994779E+04  0.00000000000E+00 0.  1.
          2    1    6    6  503    0  0.26718626178E+02 -0.32726409004E+02  0.52830147021E+02  0.67645600489E+02  0.00000000000E+00 0.  1.
         -2    1    6    6    0  503  0.90570152663E+02  0.43380834821E+02  0.40681510962E+02  0.10835051784E+03  0.00000000000E+00 0. -1.
<mgrwt>
<rscale>  0 0.11212742E+04</rscale>
<asrwt>0</asrwt>
<pdfrwt beam="1">  1        2 0.73461796E+00 0.11212742E+04</pdfrwt>
<pdfrwt beam="2">  1       -2 0.50426498E-01 0.11212742E+04</pdfrwt>
<totfact> 0.25134616E-01</totfact>
</mgrwt>
</event>
<event>
12    1  0.3147868E-008  0.3506818E+03  0.7818608E-02  0.1062336E+00
          3   -1    0    0  501    0  0.00000000000E+00  0.00000000000E+00  0.16594379883E+04  0.16594379883E+04  0.00000000000E+00 0. -1.
         -3   -1    0    0    0  501 -0.00000000000E+00 -0.00000000000E+00 -0.15513012108E+03  0.15513012108E+03  0.00000000000E+00 0.  1.
         23    2    1    2    0    0  0.18405745008E+03 -0.17637691095E+03  0.84648917508E+03  0.88844312540E+03  0.88324990252E+02 0.  0.
    5000000    2    1    2    0    0 -0.18405745008E+03  0.17637691095E+03  0.65781869218E+03  0.92612498402E+03  0.59999674549E+03 0.  0.
         23    2    4    4    0    0  0.68037769768E+02 -0.13704391303E+02 -0.65714396171E+02  0.13193429533E+03  0.90946841422E+02 0.  0.
         23    2    4    4    0    0 -0.25209521984E+03  0.19008130225E+03  0.72353308835E+03  0.79419068869E+03  0.86924212552E+02 0.  0.
          5    1    3    3  502    0  0.87660711426E+02 -0.14276227626E+03  0.52607772513E+03  0.55212800212E+03  0.47000000000E+01 0. -1.
         -5    1    3    3    0  502  0.96396738649E+02 -0.33614634692E+02  0.32041144995E+03  0.33631512328E+03  0.47000000000E+01 0.  1.
         13    1    5    5    0    0  0.17485583714E+02  0.32214710390E+02 -0.49757421823E+02  0.61800762372E+02  0.00000000000E+00 0. -1.
        -13    1    5    5    0    0  0.50552186054E+02 -0.45919101692E+02 -0.15956974348E+02  0.70133532960E+02  0.00000000000E+00 0.  1.
          4    1    6    6  503    0 -0.11296336452E+03  0.13734637801E+03  0.42223286307E+03  0.45815427525E+03  0.00000000000E+00 0. -1.
         -4    1    6    6    0  503 -0.13913185532E+03  0.52734924241E+02  0.30130022528E+03  0.33603641344E+03  0.00000000000E+00 0.  1.
<mgrwt>
<rscale>  0 0.35068178E+03</rscale>
<asrwt>0</asrwt>
<pdfrwt beam="1">  1        3 0.25529814E+00 0.35068178E+03</pdfrwt>
<pdfrwt beam="2">  1       -3 0.23866174E-01 0.35068178E+03</pdfrwt>
<totfact> 0.31025263E+00</totfact>
</mgrwt>
</event>
<event>
12    1  0.3147868E-008  0.7636380E+03  0.7818608E-02  0.9614194E-01
          2   -1    0    0  501    0  0.00000000000E+00  0.00000000000E+00  0.41449932964E+04  0.41449932964E+04  0.00000000000E+00 0. -1.
         -2   -1    0    0    0  501 -0.00000000000E+00 -0.00000000000E+00 -0.14690535001E+03  0.14690535001E+03  0.00000000000E+00 0.  1.
         23    2    1    2    0    0 -0.15596985568E+03  0.64025472627E+03  0.15634854415E+04  0.16991354500E+04  0.91224126666E+02 0.  0.
    5000000    2    1    2    0    0  0.15596985568E+03 -0.64025472627E+03  0.24346025048E+04  0.25927631963E+04  0.60073199139E+03 0.  0.
         23    2    4    4    0    0 -0.20143712024E+03 -0.13766930508E+03  0.56139958433E+03  0.61856944192E+03  0.89044428330E+02 0.  0.
         23    2    4    4    0    0  0.35740697592E+03 -0.50258542119E+03  0.18732029205E+04  0.19741937544E+04  0.90663921612E+02 0.  0.
          5    1    3    3  502    0 -0.10879910760E+03  0.37080446495E+03  0.80877377815E+03  0.89636505469E+03  0.47000000000E+01 0. -1.
         -5    1    3    3    0  502 -0.47170748085E+02  0.26945026132E+03  0.75471166338E+03  0.80277039535E+03  0.47000000000E+01 0.  1.
         11    1    5    5    0    0 -0.18401176118E+03 -0.10286032100E+03  0.52300947650E+03  0.56389669834E+03  0.00000000000E+00 0.  1.
        -11    1    5    5    0    0 -0.17425359056E+02 -0.34808984084E+02  0.38390107832E+02  0.54672743580E+02  0.00000000000E+00 0. -1.
          2    1    6    6  503    0  0.22592370952E+03 -0.34288929189E+03  0.11123609001E+04  0.11857324155E+04  0.00000000000E+00 0. -1.
         -2    1    6    6    0  503  0.13148326641E+03 -0.15969612930E+03  0.76084202035E+03  0.78846133893E+03  0.00000000000E+00 0.  1.
<mgrwt>
<rscale>  0 0.76363801E+03</rscale>
<asrwt>0</asrwt>
<pdfrwt beam="1">  1        2 0.63769119E+00 0.76363801E+03</pdfrwt>
<pdfrwt beam="2">  1       -2 0.22600826E-01 0.76363801E+03</pdfrwt>
<totfact> 0.49379048E+00</totfact>
</mgrwt>
</event>
<event>
12    1  0.3147868E-008  0.6960526E+03  0.7818608E-02  0.9724007E-01
         -2   -1    0    0    0  501 -0.00000000000E+00  0.00000000000E+00  0.22200601172E+03  0.22200601172E+03  0.00000000000E+00 0.  1.
          2   -1    0    0  501    0  0.00000000000E+00 -0.00000000000E+00 -0.22866296997E+04  0.22866296997E+04  0.00000000000E+00 0. -1.
         23    2    1    2    0    0  0.57684974740E+03 -0.77840140809E+02 -0.86447493071E+03  0.10460870300E+04  0.90368412211E+02 0.  0.
    5000000    2    1    2    0    0 -0.57684974740E+03  0.77840140809E+02 -0.12001487573E+04  0.14625486815E+04  0.59989739735E+03 0.  0.
         23    2    4    4    0    0 -0.25895023395E+03 -0.22891656317E+03 -0.35047605859E+03  0.50059541361E+03  0.91127843855E+02 0.  0.
         23    2    4    4    0    0 -0.31789951345E+03  0.30675670398E+03 -0.84967269873E+03  0.96195326785E+03  0.90832915189E+02 0.  0.
          5    1    3    3  502    0  0.35324382493E+03 -0.75880588118E+01 -0.48575882970E+03  0.60068503321E+03  0.47000000000E+01 0. -1.
         -5    1    3    3    0  502  0.22360592247E+03 -0.70252081998E+02 -0.37871610100E+03  0.44540199679E+03  0.47000000000E+01 0.  1.
         13    1    5    5    0    0 -0.15053509158E+03 -0.18194094102E+03 -0.20132025561E+03  0.31031140027E+03  0.00000000000E+00 0.  1.
        -13    1    5    5    0    0 -0.10841514237E+03 -0.46975622149E+02 -0.14915580298E+03  0.19028401334E+03  0.00000000000E+00 0. -1.
          3    1    6    6  503    0 -0.25824304454E+03  0.28945067635E+03 -0.75305412529E+03  0.84709012491E+03  0.00000000000E+00 0.  1.
         -3    1    6    6    0  503 -0.59656468904E+02  0.17306027625E+02 -0.96618573434E+02  0.11486314294E+03  0.00000000000E+00 0. -1.
<mgrwt>
<rscale>  0 0.69605262E+03</rscale>
<asrwt>0</asrwt>
<pdfrwt beam="1">  1        2 0.35178917E+00 0.69605262E+03</pdfrwt>
<pdfrwt beam="2">  1       -2 0.34154772E-01 0.69605262E+03</pdfrwt>
<totfact> 0.38695425E+01</totfact>
</mgrwt>
</event>
<event>
12    1  0.3147868E-008  0.1039874E+04  0.7818608E-02  0.9265861E-01
          2   -1    0    0  501    0  0.00000000000E+00  0.00000000000E+00  0.18334329580E+04  0.18334329580E+04  0.00000000000E+00 0. -1.
         -2   -1    0    0    0  501 -0.00000000000E+00 -0.00000000000E+00 -0.12060054362E+04  0.12060054362E+04  0.00000000000E+00 0.  1.
         23    2    1    2    0    0 -0.94890130262E+03  0.28288426463E+03  0.13483730377E+04  0.16755058892E+04  0.93664009717E+02 0.  0.
    5000000    2    1    2    0    0  0.94890130262E+03 -0.28288426463E+03 -0.72094551588E+03  0.13639325050E+04  0.60009353606E+03 0.  0.
         23    2    4    4    0    0  0.77011014921E+03 -0.39778215419E+03 -0.72333597389E+03  0.11326646806E+04  0.91728204620E+02 0.  0.
         23    2    4    4    0    0  0.17879115342E+03  0.11489788956E+03  0.23904580067E+01  0.23126782437E+03  0.91166280674E+02 0.  0.
          5    1    3    3  502    0 -0.27005598869E+03  0.12329645050E+03  0.42211952022E+03  0.51608064398E+03  0.47000000000E+01 0. -1.
         -5    1    3    3    0  502 -0.67884531394E+03  0.15958781413E+03  0.92625351748E+03  0.11594252452E+04  0.47000000000E+01 0.  1.
         11    1    5    5    0    0  0.25557853087E+03 -0.14198965211E+03 -0.18998210707E+03  0.34867556231E+03  0.00000000000E+00 0. -1.
        -11    1    5    5    0    0  0.51453161834E+03 -0.25579250209E+03 -0.53335386682E+03  0.78398911832E+03  0.00000000000E+00 0.  1.
          1    1    6    6  503    0  0.10300755136E+03  0.36055437265E+02 -0.36687505992E+02  0.11513697620E+03  0.00000000000E+00 0. -1.
         -1    1    6    6    0  503  0.75783602060E+02  0.78842452296E+02  0.39077963999E+02  0.11613084817E+03  0.00000000000E+00 0.  1.
<mgrwt>
<rscale>  0 0.10398740E+04</rscale>
<asrwt>0</asrwt>
<pdfrwt beam="1">  1        2 0.28206661E+00 0.10398740E+04</pdfrwt>
<pdfrwt beam="2">  1       -2 0.18553930E+00 0.10398740E+04</pdfrwt>
<totfact> 0.13604486E+00</totfact>
</mgrwt>
</event>
<event>
12    1  0.3147868E-008  0.6469505E+03  0.7818608E-02  0.9812518E-01
          2   -1    0    0  501    0  0.00000000000E+00  0.00000000000E+00  0.19786592716E+04  0.19786592716E+04  0.00000000000E+00 0. -1.
         -2   -1    0    0    0  501 -0.00000000000E+00 -0.00000000000E+00 -0.69513350009E+03  0.69513350009E+03  0.00000000000E+00 0.  1.
         23    2    1    2    0    0  0.22783874038E+03  0.48156974293E+03 -0.48851674162E+03  0.72861865103E+03  0.91742154220E+02 0.  0.
    5000000    2    1    2    0    0 -0.22783874038E+03 -0.48156974293E+03  0.17720425131E+04  0.19451741206E+04  0.59978978185E+03 0.  0.
         23    2    4    4    0    0  0.12418192394E+03  0.27595747773E+02  0.53177182524E+03  0.55596902793E+03  0.10068570091E+03 0.  0.
         23    2    4    4    0    0 -0.35202066432E+03 -0.50916549071E+03  0.12402706879E+04  0.13892050927E+04  0.91931307998E+02 0.  0.
          5    1    3    3  502    0  0.40582635442E+02  0.31025696930E+02 -0.62685144765E+02  0.81000379898E+02  0.47000000000E+01 0. -1.
         -5    1    3    3    0  502  0.18725610494E+03  0.45054404600E+03 -0.42583159685E+03  0.64761827113E+03  0.47000000000E+01 0.  1.
         13    1    5    5    0    0  0.84076760922E+02  0.35390113614E+02  0.17963282763E+03  0.20146789975E+03  0.00000000000E+00 0. -1.
        -13    1    5    5    0    0  0.40105163019E+02 -0.77943658410E+01  0.35213899761E+03  0.35450112818E+03  0.00000000000E+00 0.  1.
          2    1    6    6  503    0 -0.22228569623E+03 -0.37521266852E+03  0.80189908776E+03  0.91281850568E+03  0.00000000000E+00 0. -1.
         -2    1    6    6    0  503 -0.12973496809E+03 -0.13395282218E+03  0.43837160012E+03  0.47638658704E+03  0.00000000000E+00 0.  1.
<mgrwt>
<rscale>  0 0.64695053E+03</rscale>
<asrwt>0</asrwt>
<pdfrwt beam="1">  1        2 0.30440912E+00 0.64695053E+03</pdfrwt>
<pdfrwt beam="2">  1       -2 0.10694362E+00 0.64695053E+03</pdfrwt>
<totfact> 0.50938738E+00</totfact>
</mgrwt>
</event>
<event>
12    1  0.3147868E-008  0.1022478E+04  0.7818608E-02  0.9284229E-01
          1   -1    0    0  501    0  0.00000000000E+00  0.00000000000E+00  0.20012927674E+04  0.20012927674E+04  0.00000000000E+00 0. -1.
         -1   -1    0    0    0  501 -0.00000000000E+00 -0.00000000000E+00 -0.67601940151E+03  0.67601940151E+03  0.00000000000E+00 0.  1.
         23    2    1    2    0    0  0.95221114123E+03  0.22219126674E+03  0.82134248766E+02  0.98573315305E+03  0.94068048237E+02 0.  0.
    5000000    2    1    2    0    0 -0.95221114123E+03 -0.22219126674E+03  0.12431391171E+04  0.16915790159E+04  0.59997473771E+03 0.  0.
         23    2    4    4    0    0 -0.95027228426E+03 -0.17840268118E+03  0.12584402447E+04  0.15893657145E+04  0.86986171468E+02 0.  0.
         23    2    4    4    0    0 -0.19388569707E+01 -0.43788585563E+02 -0.15301127588E+02  0.10221330137E+03  0.91061710277E+02 0.  0.
          5    1    3    3  502    0  0.82359388152E+03  0.18118537352E+03  0.10106358852E+03  0.84933559926E+03  0.47000000000E+01 0.  1.
         -5    1    3    3    0  502  0.12861725971E+03  0.41005893219E+02 -0.18929339758E+02  0.13639755378E+03  0.47000000000E+01 0. -1.
         13    1    5    5    0    0 -0.11305707272E+03 -0.26492347461E+02  0.20057611565E+03  0.23176394097E+03  0.00000000000E+00 0. -1.
        -13    1    5    5    0    0 -0.83721521153E+03 -0.15191033372E+03  0.10578641291E+04  0.13576017735E+04  0.00000000000E+00 0.  1.
          1    1    6    6  503    0 -0.33382623736E+02 -0.56524957725E+02 -0.17157619601E+01  0.65668974809E+02  0.00000000000E+00 0. -1.
         -1    1    6    6    0  503  0.31443766765E+02  0.12736372162E+02 -0.13585365628E+02  0.36544326557E+02  0.00000000000E+00 0.  1.
<mgrwt>
<rscale>  0 0.10224779E+04</rscale>
<asrwt>0</asrwt>
<pdfrwt beam="1">  1        1 0.30789119E+00 0.10224779E+04</pdfrwt>
<pdfrwt beam="2">  1       -1 0.10400299E+00 0.10224779E+04</pdfrwt>
<totfact> 0.26094691E+00</totfact>
</mgrwt>
</event>
<event>
12    1  0.3147868E-008  0.1811176E+04  0.7818608E-02  0.8700378E-01
          1   -1    0    0  501    0  0.00000000000E+00  0.00000000000E+00  0.21527961937E+04  0.21527961937E+04  0.00000000000E+00 0. -1.
         -1   -1    0    0    0  501 -0.00000000000E+00 -0.00000000000E+00 -0.18760525179E+04  0.18760525179E+04  0.00000000000E+00 0.  1.
         23    2    1    2    0    0  0.13781149244E+04  0.11193747621E+04  0.97685129396E+03  0.20284848621E+04  0.91168976082E+02 0.  0.
    5000000    2    1    2    0    0 -0.13781149244E+04 -0.11193747621E+04 -0.70010761819E+03  0.20003638495E+04  0.59925307707E+03 0.  0.
         23    2    4    4    0    0 -0.12970344730E+04 -0.83029349128E+03 -0.47366201945E+03  0.16137965384E+04  0.91092551023E+02 0.  0.
         23    2    4    4    0    0 -0.81080451426E+02 -0.28908127085E+03 -0.22644559874E+03  0.38656731112E+03  0.89524611581E+02 0.  0.
          5    1    3    3  502    0  0.75043049550E+03  0.66636955672E+03  0.56136785838E+03  0.11499349013E+04  0.47000000000E+01 0. -1.
         -5    1    3    3    0  502  0.62768442893E+03  0.45300520541E+03  0.41548343558E+03  0.87854996084E+03  0.47000000000E+01 0.  1.
         11    1    5    5    0    0 -0.10930864028E+04 -0.70382523261E+03 -0.43371753241E+03  0.13705176905E+04  0.00000000000E+00 0. -1.
        -11    1    5    5    0    0 -0.20394807021E+03 -0.12646825868E+03 -0.39944487041E+02  0.24327884791E+03  0.00000000000E+00 0.  1.
          2    1    6    6  503    0 -0.79194272417E+02 -0.19458150069E+03 -0.19587098556E+03  0.28722662860E+03  0.00000000000E+00 0. -1.
         -2    1    6    6    0  503 -0.18861790096E+01 -0.94499770164E+02 -0.30574613175E+02  0.99340682518E+02  0.00000000000E+00 0.  1.
<mgrwt>
<rscale>  0 0.18111765E+04</rscale>
<asrwt>0</asrwt>
<pdfrwt beam="1">  1        1 0.33119941E+00 0.18111765E+04</pdfrwt>
<pdfrwt beam="2">  1       -1 0.28862346E+00 0.18111765E+04</pdfrwt>
<totfact> 0.83434415E-02</totfact>
</mgrwt>
</event>
<event>
12    1  0.3147868E-008  0.8680311E+03  0.7818608E-02  0.9466451E-01
         -2   -1    0    0    0  501 -0.00000000000E+00  0.00000000000E+00  0.56937804997E+03  0.56937804997E+03  0.00000000000E+00 0. -1.
          2   -1    0    0  501    0  0.00000000000E+00 -0.00000000000E+00 -0.13803885191E+04  0.13803885191E+04  0.00000000000E+00 0.  1.
         23    2    1    2    0    0  0.61254681034E+03 -0.47026204966E+03 -0.22442659293E+03  0.80938937912E+03  0.91563536517E+02 0.  0.
    5000000    2    1    2    0    0 -0.61254681034E+03  0.47026204966E+03 -0.58658387616E+03  0.11403771899E+04  0.60001625086E+03 0.  0.
         23    2    4    4    0    0 -0.32419783543E+03 -0.73130247374E+02 -0.29630082109E+03  0.45400033276E+03  0.88712208828E+02 0.  0.
         23    2    4    4    0    0 -0.28834897491E+03  0.54339229703E+03 -0.29028305507E+03  0.68637685714E+03  0.91807505999E+02 0.  0.
          5    1    3    3  502    0  0.44288494851E+03 -0.38863507661E+03 -0.17488119158E+03  0.61464609456E+03  0.47000000000E+01 0. -1.
         -5    1    3    3    0  502  0.16966186183E+03 -0.81626973049E+02 -0.49545401344E+02  0.19474328456E+03  0.47000000000E+01 0.  1.
         11    1    5    5    0    0 -0.91827959152E+02  0.56441048957E+01 -0.43700965581E+02  0.10185285659E+03  0.00000000000E+00 0. -1.
        -11    1    5    5    0    0 -0.23236987627E+03 -0.78774352270E+02 -0.25259985551E+03  0.35214747618E+03  0.00000000000E+00 0.  1.
          2    1    6    6  503    0 -0.10679738290E+03  0.29286322772E+03 -0.12777430710E+03  0.33689883452E+03  0.00000000000E+00 0. -1.
         -2    1    6    6    0  503 -0.18155159202E+03  0.25052906931E+03 -0.16250874797E+03  0.34947802263E+03  0.00000000000E+00 0.  1.
<mgrwt>
<rscale>  0 0.86803112E+03</rscale>
<asrwt>0</asrwt>
<pdfrwt beam="1">  1        2 0.21236746E+00 0.86803112E+03</pdfrwt>
<pdfrwt beam="2">  1       -2 0.87596624E-01 0.86803112E+03</pdfrwt>
<totfact> 0.16846774E+01</totfact>
</mgrwt>
</event>
<event>
12    1  0.3147868E-008  0.1310558E+04  0.7818608E-02  0.9021234E-01
         -1   -1    0    0    0  501 -0.00000000000E+00  0.00000000000E+00  0.99292804148E+03  0.99292804148E+03  0.00000000000E+00 0.  1.
          1   -1    0    0  501    0  0.00000000000E+00 -0.00000000000E+00 -0.19393431572E+04  0.19393431572E+04  0.00000000000E+00 0. -1.
         23    2    1    2    0    0 -0.32614963032E+03 -0.12675477019E+04 -0.26566361703E+03  0.13392750465E+04  0.10014856315E+03 0.  0.
    5000000    2    1    2    0    0  0.32614963032E+03  0.12675477019E+04 -0.68075149869E+03  0.15929961522E+04  0.60096870129E+03 0.  0.
         23    2    4    4    0    0  0.21930582020E+03  0.81053472392E+03 -0.72470707836E+03  0.11128010567E+04  0.89801230146E+02 0.  0.
         23    2    4    4    0    0  0.10684381012E+03  0.45701297801E+03  0.43955579677E+02  0.48019509548E+03  0.91535648319E+02 0.  0.
          5    1    3    3  502    0 -0.25636150532E+03 -0.92799687596E+03 -0.15367215551E+03  0.97495468847E+03  0.47000000000E+01 0. -1.
         -5    1    3    3    0  502 -0.69788124995E+02 -0.33955082597E+03 -0.11199146151E+03  0.36432035801E+03  0.47000000000E+01 0.  1.
         11    1    5    5    0    0  0.20789527905E+03  0.78323209301E+03 -0.71749059407E+03  0.10823426958E+04  0.00000000000E+00 0. -1.
        -11    1    5    5    0    0  0.11410541152E+02  0.27302630912E+02 -0.72164842968E+01  0.30458360917E+02  0.00000000000E+00 0.  1.
          1    1    6    6  503    0  0.74858093270E+02  0.39409438543E+03  0.65377685736E+02  0.40643370991E+03  0.00000000000E+00 0. -1.
         -1    1    6    6    0  503  0.31985716849E+02  0.62918592578E+02 -0.21422106059E+02  0.73761385578E+02  0.00000000000E+00 0.  1.
<mgrwt>
<rscale>  0 0.13105579E+04</rscale>
<asrwt>0</asrwt>
<pdfrwt beam="1">  1        1 0.29836049E+00 0.13105579E+04</pdfrwt>
<pdfrwt beam="2">  1       -1 0.15275816E+00 0.13105579E+04</pdfrwt>
<totfact> 0.10545900E+00</totfact>
</mgrwt>
</event>
<event>
12    1  0.3147868E-008  0.7788983E+03  0.7818608E-02  0.9591073E-01
          2   -1    0    0  501    0  0.00000000000E+00  0.00000000000E+00  0.21448488456E+04  0.21448488456E+04  0.00000000000E+00 0. -1.
         -2   -1    0    0    0  501 -0.00000000000E+00 -0.00000000000E+00 -0.49443809598E+03  0.49443809598E+03  0.00000000000E+00 0.  1.
         23    2    1    2    0    0  0.61736955518E+03  0.36303754608E+03 -0.23385078940E+02  0.72239068374E+03  0.91433093042E+02 0.  0.
    5000000    2    1    2    0    0 -0.61736955518E+03 -0.36303754608E+03  0.16737958285E+04  0.19168962578E+04  0.59996446571E+03 0.  0.
         23    2    4    4    0    0 -0.63147057318E+03 -0.20971001656E+03  0.15762467181E+04  0.17133007224E+04  0.90068158324E+02 0.  0.
         23    2    4    4    0    0  0.14101017994E+02 -0.15332752953E+03  0.97549110450E+02  0.20359553546E+03  0.90703600209E+02 0.  0.
          5    1    3    3  502    0  0.27718505943E+03  0.18806483041E+03  0.28991755369E+02  0.33624775016E+03  0.47000000000E+01 0. -1.
         -5    1    3    3    0  502  0.34018449576E+03  0.17497271567E+03 -0.52376834309E+02  0.38614293358E+03  0.47000000000E+01 0.  1.
         11    1    5    5    0    0 -0.54480236215E+03 -0.15319086314E+03  0.12807743424E+04  0.14002356839E+04  0.00000000000E+00 0.  1.
        -11    1    5    5    0    0 -0.86668211025E+02 -0.56519153420E+02  0.29547237573E+03  0.31306503850E+03  0.00000000000E+00 0. -1.
          1    1    6    6  503    0  0.41519602309E+02 -0.56006593983E+02  0.70009437040E+02  0.98802516264E+02  0.00000000000E+00 0. -1.
         -1    1    6    6    0  503 -0.27418584314E+02 -0.97320935544E+02  0.27539673410E+02  0.10479301920E+03  0.00000000000E+00 0.  1.
<mgrwt>
<rscale>  0 0.77889826E+03</rscale>
<asrwt>0</asrwt>
<pdfrwt beam="1">  1        2 0.32997674E+00 0.77889826E+03</pdfrwt>
<pdfrwt beam="2">  1       -2 0.76067400E-01 0.77889826E+03</pdfrwt>
<totfact> 0.88779374E+00</totfact>
</mgrwt>
</event>
<event>
12    1  0.3147868E-008  0.6598457E+03  0.7818608E-02  0.9788478E-01
         -2   -1    0    0    0  501 -0.00000000000E+00  0.00000000000E+00  0.10255713417E+04  0.10255713417E+04  0.00000000000E+00 0.  1.
          2   -1    0    0  501    0  0.00000000000E+00 -0.00000000000E+00 -0.45980488405E+03  0.45980488405E+03  0.00000000000E+00 0. -1.
         23    2    1    2    0    0 -0.36466847832E+03  0.38160169485E+03  0.40210271670E+03  0.66969683655E+03  0.90577621494E+02 0.  0.
    5000000    2    1    2    0    0  0.36466847832E+03 -0.38160169485E+03  0.16366374094E+03  0.81567938918E+03  0.59995340923E+03 0.  0.
         23    2    4    4    0    0  0.20397116998E+03  0.12462865451E+03  0.12880925737E+02  0.25626091256E+03  0.91472385715E+02 0.  0.
         23    2    4    4    0    0  0.16069730833E+03 -0.50623034936E+03  0.15078281520E+03  0.55941847662E+03  0.90115387753E+02 0.  0.
          5    1    3    3  502    0 -0.88474265606E+02  0.94358973254E+02  0.15005132682E+03  0.19816357432E+03  0.47000000000E+01 0. -1.
         -5    1    3    3    0  502 -0.27619421271E+03  0.28724272160E+03  0.25205138988E+03  0.47153326223E+03  0.47000000000E+01 0.  1.
         11    1    5    5    0    0  0.94820866287E+02  0.10274196693E+02 -0.12361880379E+02  0.96173654852E+02  0.00000000000E+00 0.  1.
        -11    1    5    5    0    0  0.10915030370E+03  0.11435445782E+03  0.25242806116E+02  0.16008725771E+03  0.00000000000E+00 0. -1.
          2    1    6    6  503    0  0.16485687572E+02 -0.19007994821E+03  0.42752440804E+02  0.19552477030E+03  0.00000000000E+00 0. -1.
         -2    1    6    6    0  503  0.14421162076E+03 -0.31615040115E+03  0.10803037440E+03  0.36389370632E+03  0.00000000000E+00 0.  1.
<mgrwt>
<rscale>  0 0.65984574E+03</rscale>
<asrwt>0</asrwt>
<pdfrwt beam="1">  1        2 0.70739213E-01 0.65984574E+03</pdfrwt>
<pdfrwt beam="2">  1       -2 0.15778021E+00 0.65984574E+03</pdfrwt>
<totfact> 0.18153443E+01</totfact>
</mgrwt>
</event>
<event>
12    1  0.3147868E-008  0.5928237E+03  0.7818608E-02  0.9920407E-01
         -2   -1    0    0    0  501 -0.00000000000E+00  0.00000000000E+00  0.48124835639E+03  0.48124835639E+03  0.00000000000E+00 0.  1.
          2   -1    0    0  501    0  0.00000000000E+00 -0.00000000000E+00 -0.11448954493E+04  0.11448954493E+04  0.00000000000E+00 0. -1.
         23    2    1    2    0    0  0.27282277837E+03  0.51339691596E+03 -0.50240643406E+03  0.77512865372E+03  0.10199776033E+03 0.  0.
    5000000    2    1    2    0    0 -0.27282277837E+03 -0.51339691596E+03 -0.16124065890E+03  0.85101515201E+03  0.60018295307E+03 0.  0.
         23    2    4    4    0    0 -0.12440376780E+03 -0.16296055314E+03 -0.35126596777E+03  0.41595805631E+03  0.87183055541E+02 0.  0.
         23    2    4    4    0    0 -0.14841901057E+03 -0.35043636283E+03  0.19002530887E+03  0.43505709570E+03  0.91275469982E+02 0.  0.
          5    1    3    3  502    0  0.24426950181E+02  0.54134854511E+02 -0.16396545674E+02  0.61791545361E+02  0.47000000000E+01 0. -1.
         -5    1    3    3    0  502  0.24839582819E+03  0.45926206145E+03 -0.48600988839E+03  0.71333710836E+03  0.47000000000E+01 0.  1.
         13    1    5    5    0    0 -0.27922548221E+02 -0.10075412294E+03 -0.20403412883E+03  0.22926183222E+03  0.00000000000E+00 0.  1.
        -13    1    5    5    0    0 -0.96481219576E+02 -0.62206430197E+02 -0.14723183894E+03  0.18669622408E+03  0.00000000000E+00 0. -1.
          1    1    6    6  503    0 -0.44191071346E+02 -0.17512431347E+03  0.49160319762E+02  0.18718470288E+03  0.00000000000E+00 0. -1.
         -1    1    6    6    0  503 -0.10422793923E+03 -0.17531204936E+03  0.14086498911E+03  0.24787239282E+03  0.00000000000E+00 0.  1.
<mgrwt>
<rscale>  0 0.59282371E+03</rscale>
<asrwt>0</asrwt>
<pdfrwt beam="1">  1        2 0.17613776E+00 0.59282371E+03</pdfrwt>
<pdfrwt beam="2">  1       -2 0.74038210E-01 0.59282371E+03</pdfrwt>
<totfact> 0.34801898E+01</totfact>
</mgrwt>
</event>
<event>
12    1  0.3147868E-008  0.7790899E+03  0.7818608E-02  0.9590787E-01
          2   -1    0    0  501    0  0.00000000000E+00  0.00000000000E+00  0.25723098799E+04  0.25723098799E+04  0.00000000000E+00 0. -1.
         -2   -1    0    0    0  501 -0.00000000000E+00 -0.00000000000E+00 -0.37010824142E+03  0.37010824142E+03  0.00000000000E+00 0.  1.
         23    2    1    2    0    0 -0.49715332218E+03 -0.49329947553E+03  0.19374505766E+03  0.73230650583E+03  0.90718646357E+02 0.  0.
    5000000    2    1    2    0    0  0.49715332218E+03  0.49329947553E+03  0.20084565808E+04  0.22101116155E+04  0.60015807718E+03 0.  0.
         23    2    4    4    0    0 -0.51095216654E+02  0.21796779246E+03  0.25932366301E+03  0.35424230194E+03  0.90100868862E+02 0.  0.
         23    2    4    4    0    0  0.54824853883E+03  0.27533168307E+03  0.17491329178E+04  0.18558693135E+04  0.91656689950E+02 0.  0.
          5    1    3    3  502    0 -0.25617469412E+03 -0.22444469644E+03  0.52764577064E+02  0.34468403830E+03  0.47000000000E+01 0. -1.
         -5    1    3    3    0  502 -0.24097862806E+03 -0.26885477910E+03  0.14098048059E+03  0.38762246753E+03  0.47000000000E+01 0.  1.
         11    1    5    5    0    0  0.16463531928E+02  0.89889027299E+02  0.13702490626E+03  0.16470248950E+03  0.00000000000E+00 0.  1.
        -11    1    5    5    0    0 -0.67558748582E+02  0.12807876516E+03  0.12229875675E+03  0.18953981243E+03  0.00000000000E+00 0. -1.
          3    1    6    6  503    0  0.47389513910E+03  0.19975864813E+03  0.14552521774E+04  0.15434503621E+04  0.00000000000E+00 0. -1.
         -3    1    6    6    0  503  0.74353399730E+02  0.75573034945E+02  0.29388074036E+03  0.31241895144E+03  0.00000000000E+00 0.  1.
<mgrwt>
<rscale>  0 0.77908991E+03</rscale>
<asrwt>0</asrwt>
<pdfrwt beam="1">  1        2 0.39573997E+00 0.77908991E+03</pdfrwt>
<pdfrwt beam="2">  1       -2 0.56939731E-01 0.77908991E+03</pdfrwt>
<totfact> 0.95532525E+00</totfact>
</mgrwt>
</event>
<event>
12    1  0.3147868E-008  0.1065542E+04  0.7818608E-02  0.9239443E-01
         -1   -1    0    0    0  501 -0.00000000000E+00  0.00000000000E+00  0.11252609664E+04  0.11252609664E+04  0.00000000000E+00 0.  1.
          1   -1    0    0  501    0  0.00000000000E+00 -0.00000000000E+00 -0.23024161884E+04  0.23024161884E+04  0.00000000000E+00 0. -1.
         23    2    1    2    0    0 -0.15137646910E+03 -0.97366285817E+03 -0.18447515857E+04  0.20947688480E+04  0.11838039028E+03 0.  0.
    5000000    2    1    2    0    0  0.15137646910E+03  0.97366285817E+03  0.66759636369E+03  0.13329083069E+04  0.60002121037E+03 0.  0.
         23    2    4    4    0    0  0.16602858780E+03  0.10228865636E+04  0.65528066460E+03  0.12294567200E+04  0.91151867192E+02 0.  0.
         23    2    4    4    0    0 -0.14652118703E+02 -0.49223705419E+02  0.12315699092E+02  0.10345158691E+03  0.88954463809E+02 0.  0.
          5    1    3    3  502    0 -0.97974994549E+02 -0.28237254247E+03 -0.57287692154E+03  0.64617598959E+03  0.47000000000E+01 0. -1.
         -5    1    3    3    0  502 -0.53401474548E+02 -0.69129031570E+03 -0.12718746642E+04  0.14485928584E+04  0.47000000000E+01 0.  1.
         13    1    5    5    0    0  0.12785376707E+03  0.81355716778E+03  0.47594594114E+03  0.95118157567E+03  0.00000000000E+00 0. -1.
        -13    1    5    5    0    0  0.38174820732E+02  0.20932939581E+03  0.17933472345E+03  0.27827514428E+03  0.00000000000E+00 0.  1.
          2    1    6    6  503    0  0.26614845640E+02 -0.54710680388E+02  0.38000425385E+01  0.60959403543E+02  0.00000000000E+00 0.  1.
         -2    1    6    6    0  503 -0.41266964343E+02  0.54869749692E+01  0.85156565534E+01  0.42492183363E+02  0.00000000000E+00 0. -1.
<mgrwt>
<rscale>  0 0.10655423E+04</rscale>
<asrwt>0</asrwt>
<pdfrwt beam="1">  1        1 0.35421787E+00 0.10655423E+04</pdfrwt>
<pdfrwt beam="2">  1       -1 0.17311707E+00 0.10655423E+04</pdfrwt>
<totfact> 0.43484890E-01</totfact>
</mgrwt>
</event>
<event>
12    1  0.3147868E-008  0.1650671E+04  0.7818608E-02  0.8790010E-01
         -2   -1    0    0    0  501 -0.00000000000E+00  0.00000000000E+00  0.15975743251E+04  0.15975743251E+04  0.00000000000E+00 0.  1.
          2   -1    0    0  501    0  0.00000000000E+00 -0.00000000000E+00 -0.19248842241E+04  0.19248842241E+04  0.00000000000E+00 0. -1.
         23    2    1    2    0    0 -0.11737940685E+04  0.11081957869E+04  0.37907012015E+03  0.16610351930E+04  0.97228283549E+02 0.  0.
    5000000    2    1    2    0    0  0.11737940685E+04 -0.11081957869E+04 -0.70638001920E+03  0.18614233562E+04  0.60002813452E+03 0.  0.
         23    2    4    4    0    0  0.11135004360E+04 -0.81919026695E+03 -0.70488781941E+03  0.15544323726E+04  0.91854497313E+02 0.  0.
         23    2    4    4    0    0  0.60293632470E+02 -0.28900551996E+03 -0.14921997916E+01  0.30699098359E+03  0.84152983647E+02 0.  0.
          5    1    3    3  502    0 -0.61158225804E+03  0.57597649732E+03  0.14760425460E+03  0.85298938434E+03  0.47000000000E+01 0. -1.
         -5    1    3    3    0  502 -0.56221181041E+03  0.53221928960E+03  0.23146586554E+03  0.80804580866E+03  0.47000000000E+01 0.  1.
         13    1    5    5    0    0  0.30775722637E+03 -0.27374738647E+03 -0.22945736491E+03  0.47149000444E+03  0.00000000000E+00 0.  1.
        -13    1    5    5    0    0  0.80574320962E+03 -0.54544288048E+03 -0.47543045450E+03  0.10829423682E+04  0.00000000000E+00 0. -1.
          2    1    6    6  503    0  0.24314381824E+02 -0.24064605179E+03  0.20710248618E+02  0.24275630951E+03  0.00000000000E+00 0. -1.
         -2    1    6    6    0  503  0.35979250646E+02 -0.48359468172E+02 -0.22202448410E+02  0.64234674081E+02  0.00000000000E+00 0.  1.
<mgrwt>
<rscale>  0 0.16506708E+04</rscale>
<asrwt>0</asrwt>
<pdfrwt beam="1">  1        2 0.29613603E+00 0.16506708E+04</pdfrwt>
<pdfrwt beam="2">  1       -2 0.24578067E+00 0.16506708E+04</pdfrwt>
<totfact> 0.46351620E-01</totfact>
</mgrwt>
</event>
<event>
12    1  0.3147868E-008  0.1117761E+04  0.7818608E-02  0.9188052E-01
          1   -1    0    0  501    0  0.00000000000E+00  0.00000000000E+00  0.19576631556E+04  0.19576631556E+04  0.00000000000E+00 0. -1.
         -1   -1    0    0    0  501 -0.00000000000E+00 -0.00000000000E+00 -0.87134739560E+03  0.87134739560E+03  0.00000000000E+00 0.  1.
         23    2    1    2    0    0  0.10694695168E+04  0.23346536266E+02 -0.15376061834E+03  0.10848342322E+04  0.94408026194E+02 0.  0.
    5000000    2    1    2    0    0 -0.10694695168E+04 -0.23346536266E+02  0.12400763783E+04  0.17441763190E+04  0.60004291487E+03 0.  0.
         23    2    4    4    0    0 -0.23195012486E+03 -0.20383857755E+03  0.56264967191E+03  0.64813225668E+03  0.90275925529E+02 0.  0.
         23    2    4    4    0    0 -0.83751939194E+03  0.18049204129E+03  0.67742670642E+03  0.10960440624E+04  0.91594405992E+02 0.  0.
          5    1    3    3  502    0  0.43105613698E+03 -0.47046532707E+00 -0.10751853165E+03  0.44428812635E+03  0.47000000000E+01 0. -1.
         -5    1    3    3    0  502  0.63841337981E+03  0.23817001593E+02 -0.46242086686E+02  0.64054610581E+03  0.47000000000E+01 0.  1.
         11    1    5    5    0    0 -0.20018439785E+03 -0.17399075283E+03  0.40152726032E+03  0.48121795061E+03  0.00000000000E+00 0. -1.
        -11    1    5    5    0    0 -0.31765727008E+02 -0.29847824720E+02  0.16112241160E+03  0.16691430607E+03  0.00000000000E+00 0.  1.
          4    1    6    6  503    0 -0.17055220496E+03  0.36927560573E+02  0.18731497424E+03  0.25600507597E+03  0.00000000000E+00 0.  1.
         -4    1    6    6    0  503 -0.66696718697E+03  0.14356448071E+03  0.49011173218E+03  0.84003898638E+03  0.00000000000E+00 0. -1.
<mgrwt>
<rscale>  0 0.11177610E+04</rscale>
<asrwt>0</asrwt>
<pdfrwt beam="1">  1        1 0.30117895E+00 0.11177610E+04</pdfrwt>
<pdfrwt beam="2">  1       -1 0.13405345E+00 0.11177610E+04</pdfrwt>
<totfact> 0.14841037E+00</totfact>
</mgrwt>
</event>
<event>
12    1  0.3147868E-008  0.6518741E+03  0.7818608E-02  0.9803269E-01
          1   -1    0    0  501    0  0.00000000000E+00  0.00000000000E+00  0.16467007937E+04  0.16467007937E+04  0.00000000000E+00 0. -1.
         -1   -1    0    0    0  501 -0.00000000000E+00 -0.00000000000E+00 -0.29164610807E+03  0.29164610807E+03  0.00000000000E+00 0.  1.
         23    2    1    2    0    0  0.26530905318E+03  0.44492521727E+03  0.84608778141E+03  0.99628573828E+03  0.91506260922E+02 0.  0.
    5000000    2    1    2    0    0 -0.26530905318E+03 -0.44492521727E+03  0.50896690425E+03  0.94206116352E+03  0.60007048214E+03 0.  0.
         23    2    4    4    0    0  0.38403210958E+02  0.11038267334E+03  0.56486565186E+02  0.15865954295E+03  0.91230353159E+02 0.  0.
         23    2    4    4    0    0 -0.30371226413E+03 -0.55530789061E+03  0.45248033906E+03  0.78340162057E+03  0.91496716422E+02 0.  0.
          5    1    3    3  502    0  0.15383773564E+03  0.19053465166E+03  0.34094648479E+03  0.41980483308E+03  0.47000000000E+01 0. -1.
         -5    1    3    3    0  502  0.11147131754E+03  0.25439056561E+03  0.50514129662E+03  0.57648090520E+03  0.47000000000E+01 0.  1.
         13    1    5    5    0    0 -0.10204694240E+02  0.97200068708E+02  0.40809194629E+02  0.10591213107E+03  0.00000000000E+00 0. -1.
        -13    1    5    5    0    0  0.48607905198E+02  0.13182604631E+02  0.15677370557E+02  0.52747411882E+02  0.00000000000E+00 0.  1.
          2    1    6    6  503    0 -0.19385978882E+03 -0.35555594088E+03  0.23436678513E+03  0.46789895788E+03  0.00000000000E+00 0. -1.
         -2    1    6    6    0  503 -0.10985247531E+03 -0.19975194973E+03  0.21811355393E+03  0.31550266269E+03  0.00000000000E+00 0.  1.
<mgrwt>
<rscale>  0 0.65187411E+03</rscale>
<asrwt>0</asrwt>
<pdfrwt beam="1">  1        1 0.25333858E+00 0.65187411E+03</pdfrwt>
<pdfrwt beam="2">  1       -1 0.44868633E-01 0.65187411E+03</pdfrwt>
<totfact> 0.26760736E+01</totfact>
</mgrwt>
</event>
<event>
12    1  0.3147868E-008  0.1756326E+04  0.7818608E-02  0.8729876E-01
         -2   -1    0    0    0  501 -0.00000000000E+00  0.00000000000E+00  0.10639028847E+04  0.10639028847E+04  0.00000000000E+00 0.  1.
          2   -1    0    0  501    0  0.00000000000E+00 -0.00000000000E+00 -0.32050018001E+04  0.32050018001E+04  0.00000000000E+00 0. -1.
         23    2    1    2    0    0 -0.10808909351E+04 -0.13216872197E+04 -0.39699401941E+03  0.17555378172E+04  0.95532484783E+02 0.  0.
    5000000    2    1    2    0    0  0.10808909351E+04  0.13216872197E+04 -0.17441048959E+04  0.25133668677E+04  0.59994066630E+03 0.  0.
         23    2    4    4    0    0  0.27901737505E+03  0.78128988114E+03 -0.88182924109E+03  0.12146242878E+04  0.97081286188E+02 0.  0.
         23    2    4    4    0    0  0.80187356004E+03  0.54039733861E+03 -0.86227565484E+03  0.12987425799E+04  0.90457138782E+02 0.  0.
          5    1    3    3  502    0 -0.28423373138E+03 -0.39373068060E+03 -0.80834612192E+02  0.49230984900E+03  0.47000000000E+01 0.  1.
         -5    1    3    3    0  502 -0.79665720371E+03 -0.92795653915E+03 -0.31615940722E+03  0.12632279682E+04  0.47000000000E+01 0. -1.
         11    1    5    5    0    0  0.42042289788E+02  0.24602491718E+03 -0.27888217776E+03  0.37426071538E+03  0.00000000000E+00 0. -1.
        -11    1    5    5    0    0  0.23697508526E+03  0.53526496396E+03 -0.60294706333E+03  0.84036357242E+03  0.00000000000E+00 0.  1.
          1    1    6    6  503    0  0.42716333752E+03  0.24978749745E+03 -0.39700533068E+03  0.63440960223E+03  0.00000000000E+00 0. -1.
         -1    1    6    6    0  503  0.37471022252E+03  0.29060984116E+03 -0.46527032415E+03  0.66433297764E+03  0.00000000000E+00 0.  1.
<mgrwt>
<rscale>  0 0.17563260E+04</rscale>
<asrwt>0</asrwt>
<pdfrwt beam="1">  1        2 0.49307719E+00 0.17563260E+04</pdfrwt>
<pdfrwt beam="2">  1       -2 0.16367737E+00 0.17563260E+04</pdfrwt>
<totfact> 0.28061936E-01</totfact>
</mgrwt>
</event>
<event>
12    1  0.3147868E-008  0.1547280E+04  0.7818608E-02  0.8853607E-01
          2   -1    0    0  501    0  0.00000000000E+00  0.00000000000E+00  0.34302665221E+04  0.34302665221E+04  0.00000000000E+00 0. -1.
         -2   -1    0    0    0  501 -0.00000000000E+00 -0.00000000000E+00 -0.70821558505E+03  0.70821558505E+03  0.00000000000E+00 0.  1.
         23    2    1    2    0    0  0.17080906675E+03  0.14861559637E+04  0.14495804848E+04  0.20849607890E+04  0.89121400681E+02 0.  0.
    5000000    2    1    2    0    0 -0.17080906675E+03 -0.14861559637E+04  0.12724704522E+04  0.20535213181E+04  0.59994455285E+03 0.  0.
         23    2    4    4    0    0 -0.22136884583E+03 -0.17501225930E+03  0.22498570395E+03  0.37212819270E+03  0.90704840082E+02 0.  0.
         23    2    4    4    0    0  0.50559779079E+02 -0.13111437044E+04  0.10474847482E+04  0.16813931254E+04  0.90578361116E+02 0.  0.
          5    1    3    3  502    0  0.66759172420E+02  0.75132472050E+03  0.67526357078E+03  0.10123974530E+04  0.47000000000E+01 0. -1.
         -5    1    3    3    0  502  0.10404989433E+03  0.73483124319E+03  0.77431691406E+03  0.10725633361E+04  0.47000000000E+01 0.  1.
         13    1    5    5    0    0 -0.12583120980E+03 -0.11972845655E+03  0.83612434238E+02  0.19276782881E+03  0.00000000000E+00 0. -1.
        -13    1    5    5    0    0 -0.95537636035E+02 -0.55283802747E+02  0.14137326971E+03  0.17936036389E+03  0.00000000000E+00 0.  1.
          3    1    6    6  503    0  0.67653466765E+02 -0.11440577448E+04  0.88860098747E+03  0.14501919976E+04  0.00000000000E+00 0. -1.
         -3    1    6    6    0  503 -0.17093687686E+02 -0.16708595956E+03  0.15888376076E+03  0.23120112775E+03  0.00000000000E+00 0.  1.
<mgrwt>
<rscale>  0 0.15472803E+04</rscale>
<asrwt>0</asrwt>
<pdfrwt beam="1">  1        2 0.52773330E+00 0.15472803E+04</pdfrwt>
<pdfrwt beam="2">  1       -2 0.10895625E+00 0.15472803E+04</pdfrwt>
<totfact> 0.58303004E-01</totfact>
</mgrwt>
</event>
<event>
12    1  0.3147868E-008  0.9425530E+03  0.7818608E-02  0.9373898E-01
          2   -1    0    0  501    0  0.00000000000E+00  0.00000000000E+00  0.10441909439E+04  0.10441909439E+04  0.00000000000E+00 0. -1.
         -2   -1    0    0    0  501 -0.00000000000E+00 -0.00000000000E+00 -0.14302100324E+04  0.14302100324E+04  0.00000000000E+00 0.  1.
         23    2    1    2    0    0  0.49704390764E+03  0.69850396664E+03 -0.95235023688E+03  0.12846135367E+04  0.91107230303E+02 0.  0.
    5000000    2    1    2    0    0 -0.49704390764E+03 -0.69850396664E+03  0.56633114833E+03  0.11897874396E+04  0.59991894806E+03 0.  0.
         23    2    4    4    0    0 -0.57162546440E+03 -0.37414338336E+03  0.45860435828E+03  0.82782348805E+03  0.90745947951E+02 0.  0.
         23    2    4    4    0    0  0.74581556762E+02 -0.32436058327E+03  0.10772679006E+03  0.36196395152E+03  0.92955066082E+02 0.  0.
          5    1    3    3  502    0  0.38194183860E+03  0.47966921418E+03 -0.64194341598E+03  0.88773620093E+03  0.47000000000E+01 0. -1.
         -5    1    3    3    0  502  0.11510206904E+03  0.21883475246E+03 -0.31040682089E+03  0.39687733576E+03  0.47000000000E+01 0.  1.
         11    1    5    5    0    0 -0.37111554583E+03 -0.29021033234E+03  0.33099064631E+03  0.57576348729E+03  0.00000000000E+00 0.  1.
        -11    1    5    5    0    0 -0.20050991857E+03 -0.83933051021E+02  0.12761371196E+03  0.25206000076E+03  0.00000000000E+00 0. -1.
          3    1    6    6  503    0  0.71650656752E+02 -0.21268587396E+03  0.11062353628E+03  0.25021323781E+03  0.00000000000E+00 0. -1.
         -3    1    6    6    0  503  0.29309000103E+01 -0.11167470932E+03 -0.28967462255E+01  0.11175071371E+03  0.00000000000E+00 0.  1.
<mgrwt>
<rscale>  0 0.94255296E+03</rscale>
<asrwt>0</asrwt>
<pdfrwt beam="1">  1        2 0.16064476E+00 0.94255296E+03</pdfrwt>
<pdfrwt beam="2">  1       -2 0.22003231E+00 0.94255296E+03</pdfrwt>
<totfact> 0.23335198E+00</totfact>
</mgrwt>
</event>
<event>
12    1  0.3147868E-008  0.4742444E+03  0.7818608E-02  0.1020729E+00
          2   -1    0    0  501    0  0.00000000000E+00  0.00000000000E+00  0.30427029111E+04  0.30427029111E+04  0.00000000000E+00 0. -1.
         -2   -1    0    0    0  501 -0.00000000000E+00 -0.00000000000E+00 -0.92167153358E+02  0.92167153358E+02  0.00000000000E+00 0.  1.
         23    2    1    2    0    0  0.56465142615E+02 -0.33043751083E+03  0.68905256371E+03  0.77125729469E+03  0.87562081793E+02 0.  0.
    5000000    2    1    2    0    0 -0.56465142615E+02  0.33043751083E+03  0.22614831940E+04  0.23636127698E+04  0.59998485616E+03 0.  0.
         23    2    4    4    0    0 -0.62659171949E+02  0.46524573753E+03  0.12399522589E+04  0.13290296397E+04  0.91969617733E+02 0.  0.
         23    2    4    4    0    0  0.61940293332E+01 -0.13480822670E+03  0.10215309351E+04  0.10345831301E+04  0.92871834873E+02 0.  0.
          5    1    3    3  502    0  0.45937262895E+02 -0.17407956541E+03  0.27716557203E+03  0.33054012091E+03  0.47000000000E+01 0. -1.
         -5    1    3    3    0  502  0.10527879720E+02 -0.15635794542E+03  0.41188699168E+03  0.44071717378E+03  0.47000000000E+01 0.  1.
         13    1    5    5    0    0 -0.18653261764E+02  0.14146340271E+03  0.50378189872E+03  0.52359912143E+03  0.00000000000E+00 0.  1.
        -13    1    5    5    0    0 -0.44005910185E+02  0.32378233482E+03  0.73617036021E+03  0.80543051824E+03  0.00000000000E+00 0. -1.
          4    1    6    6  503    0  0.20539541158E+02 -0.29901258467E+02  0.89728661056E+02  0.96784247808E+02  0.00000000000E+00 0. -1.
         -4    1    6    6    0  503 -0.14345511824E+02 -0.10490696824E+03  0.93180227405E+03  0.93779888229E+03  0.00000000000E+00 0.  1.
<mgrwt>
<rscale>  0 0.47424444E+03</rscale>
<asrwt>0</asrwt>
<pdfrwt beam="1">  1        2 0.46810806E+00 0.47424444E+03</pdfrwt>
<pdfrwt beam="2">  1       -2 0.14179564E-01 0.47424444E+03</pdfrwt>
<totfact> 0.69906260E+01</totfact>
</mgrwt>
</event>
<event>
12    1  0.3147868E-008  0.4289171E+03  0.7818608E-02  0.1034203E+00
         -2   -1    0    0    0  501 -0.00000000000E+00  0.00000000000E+00  0.13633617413E+03  0.13633617413E+03  0.00000000000E+00 0.  1.
          2   -1    0    0  501    0  0.00000000000E+00 -0.00000000000E+00 -0.24025592659E+04  0.24025592659E+04  0.00000000000E+00 0. -1.
         23    2    1    2    0    0  0.22240161146E+03 -0.32494086778E+03 -0.59401717541E+03  0.71914935674E+03  0.96282647884E+02 0.  0.
    5000000    2    1    2    0    0 -0.22240161146E+03  0.32494086778E+03 -0.16722059164E+04  0.18197460833E+04  0.60012843342E+03 0.  0.
         23    2    4    4    0    0 -0.17774653679E+03  0.85792496033E+02 -0.11921494438E+03  0.24523271231E+03  0.83502673671E+02 0.  0.
         23    2    4    4    0    0 -0.44655074673E+02  0.23914837175E+03 -0.15529909720E+04  0.15745133710E+04  0.90140872612E+02 0.  0.
          5    1    3    3  502    0  0.85691192610E+02 -0.10666830396E+03 -0.13201368551E+03  0.19018625271E+03  0.47000000000E+01 0. -1.
         -5    1    3    3    0  502  0.13671041885E+03 -0.21827256382E+03 -0.46200348990E+03  0.52896310402E+03  0.47000000000E+01 0.  1.
         11    1    5    5    0    0  0.11700462932E+01  0.24372499869E+02 -0.20445888243E+02  0.31834291326E+02  0.00000000000E+00 0. -1.
        -11    1    5    5    0    0 -0.17891658308E+03  0.61419996164E+02 -0.98769056134E+02  0.21339842099E+03  0.00000000000E+00 0.  1.
          3    1    6    6  503    0 -0.19108434183E+01  0.15833781031E+03 -0.76355461756E+03  0.77980136413E+03  0.00000000000E+00 0. -1.
         -3    1    6    6    0  503 -0.42744231255E+02  0.80810561441E+02 -0.78943635443E+03  0.79471200685E+03  0.00000000000E+00 0.  1.
<mgrwt>
<rscale>  0 0.42891709E+03</rscale>
<asrwt>0</asrwt>
<pdfrwt beam="1">  1        2 0.36962450E+00 0.42891709E+03</pdfrwt>
<pdfrwt beam="2">  1       -2 0.20974796E-01 0.42891709E+03</pdfrwt>
<totfact> 0.84759172E+01</totfact>
</mgrwt>
</event>
<event>
12    1  0.3147868E-008  0.7711991E+03  0.7818608E-02  0.9602667E-01
          2   -1    0    0  501    0  0.00000000000E+00  0.00000000000E+00  0.13846093747E+04  0.13846093747E+04  0.00000000000E+00 0. -1.
         -2   -1    0    0    0  501 -0.00000000000E+00 -0.00000000000E+00 -0.44650144657E+03  0.44650144657E+03  0.00000000000E+00 0.  1.
         23    2    1    2    0    0  0.54827660065E+03  0.38004954827E+03  0.44126845800E+03  0.80536959699E+03  0.94114004186E+02 0.  0.
    5000000    2    1    2    0    0 -0.54827660065E+03 -0.38004954827E+03  0.49683947015E+03  0.10257412243E+04  0.60020888877E+03 0.  0.
         23    2    4    4    0    0 -0.45766127472E+03 -0.52416143058E+03  0.42051490313E+03  0.81812959779E+03  0.91127423649E+02 0.  0.
         23    2    4    4    0    0 -0.90615325933E+02  0.14411188232E+03  0.76324567028E+02  0.20761162651E+03  0.91092129240E+02 0.  0.
          5    1    3    3  502    0  0.24193710816E+03  0.19837699382E+03  0.25358267842E+03  0.40275707415E+03  0.47000000000E+01 0. -1.
         -5    1    3    3    0  502  0.30633949249E+03  0.18167255444E+03  0.18768577958E+03  0.40261252285E+03  0.47000000000E+01 0.  1.
         11    1    5    5    0    0 -0.23423291450E+03 -0.32103542357E+03  0.27239572572E+03  0.48179687921E+03  0.00000000000E+00 0. -1.
        -11    1    5    5    0    0 -0.22342836021E+03 -0.20312600701E+03  0.14811917741E+03  0.33633271858E+03  0.00000000000E+00 0.  1.
          3    1    6    6  503    0 -0.84544434540E+02  0.10716895519E+03  0.94473016393E+02  0.16600631673E+03  0.00000000000E+00 0. -1.
         -3    1    6    6    0  503 -0.60708913934E+01  0.36942927130E+02 -0.18148449366E+02  0.41605309776E+02  0.00000000000E+00 0.  1.
<mgrwt>
<rscale>  0 0.77119908E+03</rscale>
<asrwt>0</asrwt>
<pdfrwt beam="1">  1        2 0.21301682E+00 0.77119908E+03</pdfrwt>
<pdfrwt beam="2">  1       -2 0.68692531E-01 0.77119908E+03</pdfrwt>
<totfact> 0.29151355E+01</totfact>
</mgrwt>
</event>
<event>
12    1  0.3147868E-008  0.1712526E+04  0.7818608E-02  0.8754252E-01
          2   -1    0    0  501    0  0.00000000000E+00  0.00000000000E+00  0.90897417600E+03  0.90897417600E+03  0.00000000000E+00 0. -1.
         -2   -1    0    0    0  501 -0.00000000000E+00 -0.00000000000E+00 -0.43253965551E+04  0.43253965551E+04  0.00000000000E+00 0.  1.
         23    2    1    2    0    0 -0.14091847188E+04 -0.88659541774E+03 -0.36586222524E+03  0.17076489805E+04  0.10176868949E+03 0.  0.
    5000000    2    1    2    0    0  0.14091847188E+04  0.88659541774E+03 -0.30505601539E+04  0.35267217506E+04  0.59999670610E+03 0.  0.
         23    2    4    4    0    0  0.66651478367E+03  0.74219014623E+03 -0.18741866430E+04  0.21250815309E+04  0.91146969827E+02 0.  0.
         23    2    4    4    0    0  0.74266993516E+03  0.14440527152E+03 -0.11763735109E+04  0.14016402197E+04  0.91264195863E+02 0.  0.
          5    1    3    3  502    0 -0.45075689578E+03 -0.31992603009E+03 -0.15882540135E+03  0.57513654200E+03  0.47000000000E+01 0. -1.
         -5    1    3    3    0  502 -0.95842782306E+03 -0.56666938765E+03 -0.20703682389E+03  0.11325124385E+04  0.47000000000E+01 0.  1.
         11    1    5    5    0    0  0.21370020912E+03  0.22992332110E+03 -0.50341884963E+03  0.59326473950E+03  0.00000000000E+00 0.  1.
        -11    1    5    5    0    0  0.45281457455E+03  0.51226682512E+03 -0.13707677934E+04  0.15318167914E+04  0.00000000000E+00 0. -1.
          1    1    6    6  503    0  0.14135075706E+03 -0.57305527904E+01 -0.24467687548E+03  0.28262988014E+03  0.00000000000E+00 0. -1.
         -1    1    6    6    0  503  0.60131917811E+03  0.15013582431E+03 -0.93169663539E+03  0.11190103396E+04  0.00000000000E+00 0.  1.
<mgrwt>
<rscale>  0 0.17125263E+04</rscale>
<asrwt>0</asrwt>
<pdfrwt beam="1">  1        2 0.13984218E+00 0.17125263E+04</pdfrwt>
<pdfrwt beam="2">  1       -2 0.66544562E+00 0.17125263E+04</pdfrwt>
<totfact> 0.78119728E-03</totfact>
</mgrwt>
</event>
<event>
12    1  0.3147868E-008  0.1259107E+04  0.7818608E-02  0.9062638E-01
          2   -1    0    0  501    0  0.00000000000E+00  0.00000000000E+00  0.14208679119E+04  0.14208679119E+04  0.00000000000E+00 0. -1.
         -2   -1    0    0    0  501 -0.00000000000E+00 -0.00000000000E+00 -0.13541381990E+04  0.13541381990E+04  0.00000000000E+00 0.  1.
         23    2    1    2    0    0 -0.44142401838E+03  0.11633646595E+04  0.47182119126E+03  0.13354490905E+04  0.11196669893E+03 0.  0.
    5000000    2    1    2    0    0  0.44142401838E+03 -0.11633646595E+04 -0.40509147843E+03  0.14395570204E+04  0.59996067713E+03 0.  0.
         23    2    4    4    0    0  0.35339194308E+03 -0.64028273919E+03 -0.50389138153E+03  0.89240977949E+03  0.87411890556E+02 0.  0.
         23    2    4    4    0    0  0.88032075304E+02 -0.52308192036E+03  0.98799903106E+02  0.54714724094E+03  0.90798352035E+02 0.  0.
          5    1    3    3  502    0 -0.23394525993E+03  0.76417464267E+03  0.31369796256E+03  0.85855796011E+03  0.47000000000E+01 0. -1.
         -5    1    3    3    0  502 -0.20747875844E+03  0.39919001688E+03  0.15812322870E+03  0.47689113038E+03  0.47000000000E+01 0.  1.
         13    1    5    5    0    0  0.91703636652E+02 -0.14206165887E+03 -0.75675542139E+02  0.18525080182E+03  0.00000000000E+00 0. -1.
        -13    1    5    5    0    0  0.26168830642E+03 -0.49822108032E+03 -0.42821583939E+03  0.70715897767E+03  0.00000000000E+00 0.  1.
          1    1    6    6  503    0  0.10023283631E+03 -0.50827066438E+03  0.10106204337E+03  0.52782499595E+03  0.00000000000E+00 0. -1.
         -1    1    6    6    0  503 -0.12200761011E+02 -0.14811255980E+02 -0.22621402639E+01  0.19322244992E+02  0.00000000000E+00 0.  1.
<mgrwt>
<rscale>  0 0.12591068E+04</rscale>
<asrwt>0</asrwt>
<pdfrwt beam="1">  1        2 0.21859506E+00 0.12591068E+04</pdfrwt>
<pdfrwt beam="2">  1       -2 0.20832895E+00 0.12591068E+04</pdfrwt>
<totfact> 0.15933271E+00</totfact>
</mgrwt>
</event>
<event>
12    1  0.3147868E-008  0.7819644E+03  0.7818608E-02  0.9586496E-01
         -1   -1    0    0    0  501 -0.00000000000E+00  0.00000000000E+00  0.77959544181E+03  0.77959544181E+03  0.00000000000E+00 0.  1.
          1   -1    0    0  501    0  0.00000000000E+00 -0.00000000000E+00 -0.96653020102E+03  0.96653020102E+03  0.00000000000E+00 0. -1.
         23    2    1    2    0    0 -0.66839271740E+03  0.29709835574E+02  0.28285147130E+03  0.73210554295E+03  0.91334945165E+02 0.  0.
    5000000    2    1    2    0    0  0.66839271740E+03 -0.29709835574E+02 -0.46978623051E+03  0.10140200999E+04  0.59992179622E+03 0.  0.
         23    2    4    4    0    0  0.48696528743E+03  0.24811223660E+03 -0.28059165079E+03  0.62132510095E+03  0.92834979712E+02 0.  0.
         23    2    4    4    0    0  0.18142742997E+03 -0.27782207218E+03 -0.18919457972E+03  0.39269499893E+03  0.91179806202E+02 0.  0.
          5    1    3    3  502    0 -0.16499840687E+03  0.46563424726E+02  0.75837706779E+02  0.18752619700E+03  0.47000000000E+01 0. -1.
         -5    1    3    3    0  502 -0.50339431053E+03 -0.16853589152E+02  0.20701376452E+03  0.54457934595E+03  0.47000000000E+01 0.  1.
         13    1    5    5    0    0  0.25643772000E+03  0.13200965231E+03 -0.19978708756E+03  0.35085856537E+03  0.00000000000E+00 0. -1.
        -13    1    5    5    0    0  0.23052756743E+03  0.11610258430E+03 -0.80804563234E+02  0.27046653557E+03  0.00000000000E+00 0.  1.
          3    1    6    6  503    0  0.68638064132E+02 -0.18087225497E+03 -0.12739428585E+03  0.23163605189E+03  0.00000000000E+00 0. -1.
         -3    1    6    6    0  503  0.11278936584E+03 -0.96949817212E+02 -0.61800293863E+02  0.16105894705E+03  0.00000000000E+00 0.  1.
<mgrwt>
<rscale>  0 0.78196444E+03</rscale>
<asrwt>0</asrwt>
<pdfrwt beam="1">  1        1 0.14869695E+00 0.78196444E+03</pdfrwt>
<pdfrwt beam="2">  1       -1 0.11993776E+00 0.78196444E+03</pdfrwt>
<totfact> 0.10243768E+01</totfact>
</mgrwt>
</event>
<event>
12    1  0.3147868E-008  0.2703378E+03  0.7818608E-02  0.1101086E+00
          1   -1    0    0  501    0  0.00000000000E+00  0.00000000000E+00  0.11792570051E+04  0.11792570051E+04  0.00000000000E+00 0. -1.
         -1   -1    0    0    0  501 -0.00000000000E+00 -0.00000000000E+00 -0.11378936951E+03  0.11378936951E+03  0.00000000000E+00 0.  1.
         23    2    1    2    0    0  0.84632052973E+02  0.57904232345E+01  0.22216897610E+03  0.25471346229E+03  0.91234755108E+02 0.  0.
    5000000    2    1    2    0    0 -0.84632052973E+02 -0.57904232345E+01  0.84329865949E+03  0.10383329123E+04  0.59982205221E+03 0.  0.
         23    2    4    4    0    0  0.12520259044E+03  0.11442721754E+03  0.73226043568E+03  0.75712841005E+03  0.90932980066E+02 0.  0.
         23    2    4    4    0    0 -0.20983464341E+03 -0.12021764077E+03  0.11103822380E+03  0.28120450227E+03  0.90904489572E+02 0.  0.
          5    1    3    3  502    0  0.14237652135E+01  0.23100175688E+02  0.11726878303E+03  0.11962316957E+03  0.47000000000E+01 0. -1.
         -5    1    3    3    0  502  0.83208287759E+02 -0.17309752454E+02  0.10490019307E+03  0.13509029272E+03  0.47000000000E+01 0.  1.
         13    1    5    5    0    0  0.11527960930E+03  0.54264093240E+02  0.41722201388E+03  0.43624326814E+03  0.00000000000E+00 0.  1.
        -13    1    5    5    0    0  0.99229811385E+01  0.60163124297E+02  0.31503842180E+03  0.32088514190E+03  0.00000000000E+00 0. -1.
          1    1    6    6  503    0 -0.19854356560E+03 -0.10498993944E+03  0.12557446808E+03  0.25731572407E+03  0.00000000000E+00 0. -1.
         -1    1    6    6    0  503 -0.11291077814E+02 -0.15227701333E+02 -0.14536244275E+02  0.23888778196E+02  0.00000000000E+00 0.  1.
<mgrwt>
<rscale>  0 0.27033779E+03</rscale>
<asrwt>0</asrwt>
<pdfrwt beam="1">  1        1 0.18142415E+00 0.27033779E+03</pdfrwt>
<pdfrwt beam="2">  1       -1 0.17506058E-01 0.27033779E+03</pdfrwt>
<totfact> 0.29868679E+02</totfact>
</mgrwt>
</event>
<event>
12    1  0.3147868E-008  0.3251540E+03  0.7818608E-02  0.1073301E+00
         -1   -1    0    0    0  501 -0.00000000000E+00  0.00000000000E+00  0.62304523062E+02  0.62304523062E+02  0.00000000000E+00 0.  1.
          1   -1    0    0  501    0  0.00000000000E+00 -0.00000000000E+00 -0.35255195436E+04  0.35255195436E+04  0.00000000000E+00 0. -1.
         23    2    1    2    0    0 -0.18170859940E+03  0.88444033516E+02 -0.17000280415E+04  0.17144296212E+04  0.91286483280E+02 0.  0.
    5000000    2    1    2    0    0  0.18170859940E+03 -0.88444033516E+02 -0.17631869790E+04  0.18733944455E+04  0.59994838366E+03 0.  0.
         23    2    4    4    0    0  0.18524351357E+03  0.12216957631E+03 -0.15287279081E+04  0.15473783616E+04  0.90167690166E+02 0.  0.
         23    2    4    4    0    0 -0.35349141667E+01 -0.21061360983E+03 -0.23445907093E+03  0.32601608382E+03  0.83335722840E+02 0.  0.
          5    1    3    3  502    0 -0.10450525872E+03  0.45282628667E+02 -0.59252269536E+03  0.60338801785E+03  0.47000000000E+01 0. -1.
         -5    1    3    3    0  502 -0.77203340678E+02  0.43161404850E+02 -0.11075053462E+04  0.11110416034E+04  0.47000000000E+01 0.  1.
         13    1    5    5    0    0  0.70508785529E+02  0.70536578713E+01 -0.64002339938E+03  0.64393415399E+03  0.00000000000E+00 0. -1.
        -13    1    5    5    0    0  0.11473472804E+03  0.11511591844E+03 -0.88870450873E+03  0.90344420765E+03  0.00000000000E+00 0.  1.
          4    1    6    6  503    0 -0.20439499059E+02 -0.76703570460E+02 -0.38895805149E+02  0.88397367049E+02  0.00000000000E+00 0. -1.
         -4    1    6    6    0  503  0.16904584893E+02 -0.13391003937E+03 -0.19556326578E+03  0.23761871677E+03  0.00000000000E+00 0.  1.
<mgrwt>
<rscale>  0 0.32515396E+03</rscale>
<asrwt>0</asrwt>
<pdfrwt beam="1">  1        1 0.54238764E+00 0.32515396E+03</pdfrwt>
<pdfrwt beam="2">  1       -1 0.95853109E-02 0.32515396E+03</pdfrwt>
<totfact> 0.19142877E+01</totfact>
</mgrwt>
</event>
<event>
12    1  0.3147868E-008  0.6905028E+03  0.7818608E-02  0.9733613E-01
         -1   -1    0    0    0  501 -0.00000000000E+00  0.00000000000E+00  0.11110506553E+04  0.11110506553E+04  0.00000000000E+00 0.  1.
          1   -1    0    0  501    0  0.00000000000E+00 -0.00000000000E+00 -0.54510207946E+03  0.54510207946E+03  0.00000000000E+00 0. -1.
         23    2    1    2    0    0 -0.42767870071E+03  0.44854688224E+03  0.52030548469E+01  0.62740188210E+03  0.97481656063E+02 0.  0.
    5000000    2    1    2    0    0  0.42767870071E+03 -0.44854688224E+03  0.56074552101E+03  0.10287508527E+04  0.59982447510E+03 0.  0.
         23    2    4    4    0    0 -0.33096146296E+02 -0.24949097194E+03  0.42365043901E+03  0.50083771116E+03  0.89541155188E+02 0.  0.
         23    2    4    4    0    0  0.46077484701E+03 -0.19905591031E+03  0.13709508200E+03  0.52791314151E+03  0.89221681248E+02 0.  0.
          5    1    3    3  502    0 -0.25828683068E+03  0.25908621243E+03 -0.43973025189E+02  0.36850165443E+03  0.47000000000E+01 0. -1.
         -5    1    3    3    0  502 -0.16939187004E+03  0.18946066981E+03  0.49176080036E+02  0.25890022767E+03  0.47000000000E+01 0.  1.
         11    1    5    5    0    0  0.25238793035E+01 -0.11072698684E+03  0.11039710266E+03  0.15637888559E+03  0.00000000000E+00 0. -1.
        -11    1    5    5    0    0 -0.35620025599E+02 -0.13876398510E+03  0.31325333635E+03  0.34445882558E+03  0.00000000000E+00 0.  1.
          2    1    6    6  503    0  0.83206061394E+02 -0.74817568836E+01  0.43955691105E+02  0.94399831140E+02  0.00000000000E+00 0.  1.
         -2    1    6    6    0  503  0.37756878562E+03 -0.19157415342E+03  0.93139390897E+02  0.43351331037E+03  0.00000000000E+00 0. -1.
<mgrwt>
<rscale>  0 0.69050282E+03</rscale>
<asrwt>0</asrwt>
<pdfrwt beam="1">  1        1 0.83861858E-01 0.69050282E+03</pdfrwt>
<pdfrwt beam="2">  1       -1 0.17093087E+00 0.69050282E+03</pdfrwt>
<totfact> 0.98851561E+00</totfact>
</mgrwt>
</event>
<event>
12    1  0.3147868E-008  0.5130087E+03  0.7818608E-02  0.1010438E+00
         -1   -1    0    0    0  501 -0.00000000000E+00  0.00000000000E+00  0.36178207106E+03  0.36178207106E+03  0.00000000000E+00 0.  1.
          1   -1    0    0  501    0  0.00000000000E+00 -0.00000000000E+00 -0.79257470606E+03  0.79257470606E+03  0.00000000000E+00 0. -1.
         23    2    1    2    0    0  0.31021316169E+03  0.17287645852E+03 -0.21889966520E+03  0.42576515807E+03  0.85090721027E+02 0.  0.
    5000000    2    1    2    0    0 -0.31021316169E+03 -0.17287645852E+03 -0.21189296980E+03  0.72859161904E+03  0.59985718392E+03 0.  0.
         23    2    4    4    0    0 -0.40885834244E+03 -0.29139433322E+03 -0.11189607619E+03  0.52340665080E+03  0.96736697404E+02 0.  0.
         23    2    4    4    0    0  0.98645180743E+02  0.11851787470E+03 -0.99996893603E+02  0.20518496824E+03  0.91236693031E+02 0.  0.
          5    1    3    3  502    0  0.13483139491E+03  0.94752717335E+02 -0.56566444440E+02  0.17429697396E+03  0.47000000000E+01 0. -1.
         -5    1    3    3    0  502  0.17538176679E+03  0.78123741184E+02 -0.16233322076E+03  0.25146818411E+03  0.47000000000E+01 0.  1.
         13    1    5    5    0    0 -0.10769562137E+03 -0.33030615232E+02 -0.43500253702E+02  0.12075446359E+03  0.00000000000E+00 0. -1.
        -13    1    5    5    0    0 -0.30116272107E+03 -0.25836371799E+03 -0.68395822492E+02  0.40265218721E+03  0.00000000000E+00 0.  1.
          1    1    6    6  503    0  0.10037273147E+03  0.10220357197E+03 -0.48656052153E+02  0.15128670384E+03  0.00000000000E+00 0. -1.
         -1    1    6    6    0  503 -0.17275507310E+01  0.16314302732E+02 -0.51340841450E+02  0.53898264406E+02  0.00000000000E+00 0.  1.
<mgrwt>
<rscale>  0 0.51300868E+03</rscale>
<asrwt>0</asrwt>
<pdfrwt beam="1">  1        1 0.12193457E+00 0.51300868E+03</pdfrwt>
<pdfrwt beam="2">  1       -1 0.55658780E-01 0.51300868E+03</pdfrwt>
<totfact> 0.76539247E+01</totfact>
</mgrwt>
</event>
<event>
12    1  0.3147868E-008  0.1340965E+04  0.7818608E-02  0.8997696E-01
         -2   -1    0    0    0  501 -0.00000000000E+00  0.00000000000E+00  0.87587391872E+03  0.87587391872E+03  0.00000000000E+00 0.  1.
          2   -1    0    0  501    0  0.00000000000E+00 -0.00000000000E+00 -0.22786782072E+04  0.22786782072E+04  0.00000000000E+00 0. -1.
         23    2    1    2    0    0  0.11889426233E+04  0.47484364345E+03 -0.20122185603E+03  0.12991753393E+04  0.91133306178E+02 0.  0.
    5000000    2    1    2    0    0 -0.11889426233E+04 -0.47484364345E+03 -0.12015824324E+04  0.18553767866E+04  0.59963458138E+03 0.  0.
         23    2    4    4    0    0  0.11866149653E+02  0.44804960185E+02 -0.82130952310E+02  0.13095529643E+03  0.90859817145E+02 0.  0.
         23    2    4    4    0    0 -0.12008087730E+04 -0.51964860363E+03 -0.11194514801E+04  0.17244214902E+04  0.92094945690E+02 0.  0.
          5    1    3    3  502    0  0.68129978740E+03  0.23817710357E+03 -0.80798101777E+02  0.72625626072E+03  0.47000000000E+01 0.  1.
         -5    1    3    3    0  502  0.50764283593E+03  0.23666653988E+03 -0.12042375426E+03  0.57291907855E+03  0.47000000000E+01 0. -1.
         11    1    5    5    0    0  0.33979417770E+02  0.55756042460E+02 -0.83785999701E+02  0.10622349481E+03  0.00000000000E+00 0.  1.
        -11    1    5    5    0    0 -0.22113268118E+02 -0.10951082276E+02  0.16550473910E+01  0.24731801627E+02  0.00000000000E+00 0. -1.
          1    1    6    6  503    0 -0.30295759208E+02 -0.24171456640E+01 -0.40101867401E+02  0.50317346793E+02  0.00000000000E+00 0. -1.
         -1    1    6    6    0  503 -0.11705130138E+04 -0.51723145797E+03 -0.10793496127E+04  0.16741041434E+04  0.00000000000E+00 0.  1.
<mgrwt>
<rscale>  0 0.13409646E+04</rscale>
<asrwt>0</asrwt>
<pdfrwt beam="1">  1        2 0.35056587E+00 0.13409646E+04</pdfrwt>
<pdfrwt beam="2">  1       -2 0.13474984E+00 0.13409646E+04</pdfrwt>
<totfact> 0.17770058E+00</totfact>
</mgrwt>
</event>
<event>
12    1  0.3147868E-008  0.6106106E+03  0.7818608E-02  0.9883634E-01
         -1   -1    0    0    0  501 -0.00000000000E+00  0.00000000000E+00  0.13470533156E+04  0.13470533156E+04  0.00000000000E+00 0.  1.
          1   -1    0    0  501    0  0.00000000000E+00 -0.00000000000E+00 -0.14981234112E+04  0.14981234112E+04  0.00000000000E+00 0. -1.
         23    2    1    2    0    0 -0.42944474582E+03 -0.16604764663E+03 -0.13490573483E+04  0.14284658814E+04  0.92544231035E+02 0.  0.
    5000000    2    1    2    0    0  0.42944474582E+03  0.16604764663E+03  0.11979872528E+04  0.14167108454E+04  0.59991795357E+03 0.  0.
         23    2    4    4    0    0 -0.12051090430E+03 -0.42543087331E+02  0.31169114244E+03  0.34917325653E+03  0.91857511763E+02 0.  0.
         23    2    4    4    0    0  0.54995565012E+03  0.20859073396E+03  0.88629611033E+03  0.10675375889E+04  0.90301700244E+02 0.  0.
          5    1    3    3  502    0 -0.21929495836E+03 -0.35635225432E+02 -0.64827992795E+03  0.68530949434E+03  0.47000000000E+01 0. -1.
         -5    1    3    3    0  502 -0.21014978746E+03 -0.13041242120E+03 -0.70077742034E+03  0.74315638706E+03  0.47000000000E+01 0.  1.
         13    1    5    5    0    0 -0.33544182790E+02 -0.59878093616E+02  0.13064841405E+03  0.14757915296E+03  0.00000000000E+00 0.  1.
        -13    1    5    5    0    0 -0.86966721510E+02  0.17335006285E+02  0.18104272839E+03  0.20159410357E+03  0.00000000000E+00 0. -1.
          1    1    6    6  503    0  0.33947611199E+03  0.17241977165E+03  0.59335088684E+03  0.70500913695E+03  0.00000000000E+00 0. -1.
         -1    1    6    6    0  503  0.21047953813E+03  0.36170962314E+02  0.29294522349E+03  0.36252845192E+03  0.00000000000E+00 0.  1.
<mgrwt>
<rscale>  0 0.61061058E+03</rscale>
<asrwt>0</asrwt>
<pdfrwt beam="1">  1        1 0.23048052E+00 0.61061058E+03</pdfrwt>
<pdfrwt beam="2">  1       -1 0.20723897E+00 0.61061058E+03</pdfrwt>
<totfact> 0.95894009E-01</totfact>
</mgrwt>
</event>
<event>
12    1  0.3147868E-008  0.8984698E+03  0.7818608E-02  0.9427496E-01
          1   -1    0    0  501    0  0.00000000000E+00  0.00000000000E+00  0.22677324976E+04  0.22677324976E+04  0.00000000000E+00 0. -1.
         -1   -1    0    0    0  501 -0.00000000000E+00 -0.00000000000E+00 -0.37388476174E+03  0.37388476174E+03  0.00000000000E+00 0.  1.
         23    2    1    2    0    0 -0.81106142736E+03 -0.91574335346E+02  0.96488514686E+03  0.12671624597E+04  0.92145834071E+02 0.  0.
    5000000    2    1    2    0    0  0.81106142736E+03  0.91574335346E+02  0.92896258905E+03  0.13744547997E+04  0.59995667070E+03 0.  0.
         23    2    4    4    0    0 -0.11788092947E+02 -0.94985931623E+02  0.25161568757E+02  0.13466155103E+03  0.91320000235E+02 0.  0.
         23    2    4    4    0    0  0.82284952031E+03  0.18656026697E+03  0.90380102029E+03  0.12397932487E+04  0.91350691699E+02 0.  0.
          5    1    3    3  502    0 -0.36374938336E+03  0.46572085905E+01  0.42301701657E+03  0.55794335716E+03  0.47000000000E+01 0. -1.
         -5    1    3    3    0  502 -0.44731204400E+03 -0.96231543937E+02  0.54186813029E+03  0.70921910252E+03  0.47000000000E+01 0.  1.
         13    1    5    5    0    0 -0.41559647440E+02 -0.13879614007E+02  0.19844085628E+02  0.48100267304E+02  0.00000000000E+00 0. -1.
        -13    1    5    5    0    0  0.29771554493E+02 -0.81106317616E+02  0.53174831293E+01  0.86561283730E+02  0.00000000000E+00 0.  1.
          2    1    6    6  503    0  0.79345534015E+03  0.18960335216E+03  0.88954068723E+03  0.12069811275E+04  0.00000000000E+00 0. -1.
         -2    1    6    6    0  503  0.29394180163E+02 -0.30430851906E+01  0.14260333060E+02  0.32812121143E+02  0.00000000000E+00 0.  1.
<mgrwt>
<rscale>  0 0.89846984E+03</rscale>
<asrwt>0</asrwt>
<pdfrwt beam="1">  1        1 0.34888191E+00 0.89846984E+03</pdfrwt>
<pdfrwt beam="2">  1       -1 0.57520734E-01 0.89846984E+03</pdfrwt>
<totfact> 0.61682052E+00</totfact>
</mgrwt>
</event>
<event>
12    1  0.3147868E-008  0.1338764E+04  0.7818608E-02  0.8999378E-01
         -2   -1    0    0    0  501 -0.00000000000E+00  0.00000000000E+00  0.24525426767E+04  0.24525426767E+04  0.00000000000E+00 0. -1.
          2   -1    0    0  501    0  0.00000000000E+00 -0.00000000000E+00 -0.91936524502E+03  0.91936524502E+03  0.00000000000E+00 0.  1.
         23    2    1    2    0    0 -0.10176128195E+04  0.76974275896E+03  0.14870756990E+04  0.19611554219E+04  0.81833299777E+02 0.  0.
    5000000    2    1    2    0    0  0.10176128195E+04 -0.76974275896E+03  0.46101732666E+02  0.14107524998E+04  0.60004789854E+03 0.  0.
         23    2    4    4    0    0  0.82084616627E+03 -0.27761362277E+03  0.47409776838E+02  0.87314535017E+03  0.96319070562E+02 0.  0.
         23    2    4    4    0    0  0.19676665322E+03 -0.49212913619E+03 -0.13080441721E+01  0.53760714962E+03  0.90064054074E+02 0.  0.
          5    1    3    3  502    0 -0.35030781718E+03  0.30290434543E+03  0.50152063085E+03  0.68265045406E+03  0.47000000000E+01 0. -1.
         -5    1    3    3    0  502 -0.66730500231E+03  0.46683841353E+03  0.98555506814E+03  0.12785049678E+04  0.47000000000E+01 0.  1.
         13    1    5    5    0    0  0.49975684984E+03 -0.19811918849E+03 -0.85448560056E+01  0.53766266038E+03  0.00000000000E+00 0.  1.
        -13    1    5    5    0    0  0.32108931644E+03 -0.79494434285E+02  0.55954632844E+02  0.33548268979E+03  0.00000000000E+00 0. -1.
          3    1    6    6  503    0  0.35223331177E+02 -0.13724572339E+03  0.35140916196E+02  0.14598614879E+03  0.00000000000E+00 0. -1.
         -3    1    6    6    0  503  0.16154332204E+03 -0.35488341280E+03 -0.36448960368E+02  0.39162100083E+03  0.00000000000E+00 0.  1.
<mgrwt>
<rscale>  0 0.13387638E+04</rscale>
<asrwt>0</asrwt>
<pdfrwt beam="1">  1        2 0.14144081E+00 0.13387638E+04</pdfrwt>
<pdfrwt beam="2">  1       -2 0.37731426E+00 0.13387638E+04</pdfrwt>
<totfact> 0.28718965E-01</totfact>
</mgrwt>
</event>
<event>
12    1  0.3147868E-008  0.1249355E+04  0.7818608E-02  0.9070720E-01
         -2   -1    0    0    0  501 -0.00000000000E+00  0.00000000000E+00  0.47803226067E+03  0.47803226067E+03  0.00000000000E+00 0.  1.
          2   -1    0    0  501    0  0.00000000000E+00 -0.00000000000E+00 -0.45898430140E+04  0.45898430140E+04  0.00000000000E+00 0. -1.
         23    2    1    2    0    0  0.11713564745E+04  0.40747336597E+03 -0.31525712897E+04  0.33890996396E+04  0.95812819472E+02 0.  0.
    5000000    2    1    2    0    0 -0.11713564745E+04 -0.40747336597E+03 -0.95923946365E+03  0.16787756351E+04  0.60003062421E+03 0.  0.
         23    2    4    4    0    0 -0.12058304133E+03 -0.36382214294E+02 -0.39884502199E+03  0.42828338957E+03  0.92116094337E+02 0.  0.
         23    2    4    4    0    0 -0.10507734331E+04 -0.37109115167E+03 -0.56039444165E+03  0.12504922455E+04  0.88631118411E+02 0.  0.
          5    1    3    3  502    0  0.81167783372E+03  0.24956356140E+03 -0.20673754377E+04  0.22349868383E+04  0.47000000000E+01 0. -1.
         -5    1    3    3    0  502  0.35967864074E+03  0.15790980457E+03 -0.10851958520E+04  0.11541128014E+04  0.47000000000E+01 0.  1.
         13    1    5    5    0    0 -0.10639300845E+03 -0.54119926527E+02 -0.38139842644E+03  0.39964133718E+03  0.00000000000E+00 0.  1.
        -13    1    5    5    0    0 -0.14190032880E+02  0.17737712233E+02 -0.17446595558E+02  0.28642052387E+02  0.00000000000E+00 0. -1.
          1    1    6    6  503    0 -0.80208295058E+03 -0.29316294794E+03 -0.38779259105E+03  0.93790440202E+03  0.00000000000E+00 0. -1.
         -1    1    6    6    0  503 -0.24869048256E+03 -0.77928203735E+02 -0.17260185061E+03  0.31258784347E+03  0.00000000000E+00 0.  1.
<mgrwt>
<rscale>  0 0.12493554E+04</rscale>
<asrwt>0</asrwt>
<pdfrwt beam="1">  1        2 0.70612975E+00 0.12493554E+04</pdfrwt>
<pdfrwt beam="2">  1       -2 0.73543419E-01 0.12493554E+04</pdfrwt>
<totfact> 0.17163839E-01</totfact>
</mgrwt>
</event>
<event>
12    1  0.3147868E-008  0.6814017E+03  0.7818608E-02  0.9749577E-01
         -1   -1    0    0    0  501 -0.00000000000E+00  0.00000000000E+00  0.44143996294E+03  0.44143996294E+03  0.00000000000E+00 0.  1.
          1   -1    0    0  501    0  0.00000000000E+00 -0.00000000000E+00 -0.18753490313E+04  0.18753490313E+04  0.00000000000E+00 0. -1.
         23    2    1    2    0    0  0.62302567986E+03  0.52825065238E+02  0.10530429296E+02  0.63205344171E+03  0.91810554682E+02 0.  0.
    5000000    2    1    2    0    0 -0.62302567986E+03 -0.52825065238E+02 -0.14444394976E+04  0.16847355525E+04  0.60081356031E+03 0.  0.
         23    2    4    4    0    0 -0.28531881064E+02  0.81497579723E+02 -0.73158623479E+03  0.74260262217E+03  0.93724659376E+02 0.  0.
         23    2    4    4    0    0 -0.59449379879E+03 -0.13432264496E+03 -0.71285326283E+03  0.94213293032E+03  0.89382516849E+02 0.  0.
          5    1    3    3  502    0  0.17987927299E+03  0.25187045102E+02  0.43399739888E+02  0.18680622986E+03  0.47000000000E+01 0. -1.
         -5    1    3    3    0  502  0.44314640687E+03  0.27638020136E+02 -0.32869310592E+02  0.44524721185E+03  0.47000000000E+01 0.  1.
         13    1    5    5    0    0  0.32860055819E+02  0.14304192134E+02 -0.24010631720E+03  0.24276621828E+03  0.00000000000E+00 0. -1.
        -13    1    5    5    0    0 -0.61391936883E+02  0.67193387589E+02 -0.49147991760E+03  0.49983640389E+03  0.00000000000E+00 0.  1.
          2    1    6    6  503    0 -0.46902872805E+03 -0.11846860985E+03 -0.61365575417E+03  0.78140651640E+03  0.00000000000E+00 0. -1.
         -2    1    6    6    0  503 -0.12546507075E+03 -0.15854035115E+02 -0.99197508658E+02  0.16072641392E+03  0.00000000000E+00 0.  1.
<mgrwt>
<rscale>  0 0.68140172E+03</rscale>
<asrwt>0</asrwt>
<pdfrwt beam="1">  1        1 0.28851523E+00 0.68140172E+03</pdfrwt>
<pdfrwt beam="2">  1       -1 0.67913841E-01 0.68140172E+03</pdfrwt>
<totfact> 0.84036675E+00</totfact>
</mgrwt>
</event>
<event>
12    1  0.3147868E-008  0.6433834E+03  0.7818608E-02  0.9819275E-01
          2   -1    0    0  501    0  0.00000000000E+00  0.00000000000E+00  0.67428515679E+03  0.67428515679E+03  0.00000000000E+00 0. -1.
         -2   -1    0    0    0  501 -0.00000000000E+00 -0.00000000000E+00 -0.15464189375E+04  0.15464189375E+04  0.00000000000E+00 0.  1.
         23    2    1    2    0    0  0.22413187405E+03 -0.58678116063E+03 -0.11457248099E+04  0.13099358756E+04  0.93270738180E+02 0.  0.
    5000000    2    1    2    0    0 -0.22413187405E+03  0.58678116063E+03  0.27359102924E+03  0.91076821869E+03  0.60008288548E+03 0.  0.
         23    2    4    4    0    0 -0.70880308484E+01  0.28514672782E+03  0.40716882123E+03  0.50538263574E+03  0.90918991167E+02 0.  0.
         23    2    4    4    0    0 -0.21704384320E+03  0.30163443282E+03 -0.13357779199E+03  0.40538558295E+03  0.91668333773E+02 0.  0.
          5    1    3    3  502    0  0.92960045323E+02 -0.26884301935E+03 -0.42634687405E+03  0.51255427624E+03  0.47000000000E+01 0. -1.
         -5    1    3    3    0  502  0.13117182872E+03 -0.31793814128E+03 -0.71937793586E+03  0.79738159932E+03  0.47000000000E+01 0.  1.
         13    1    5    5    0    0  0.53920287889E+01  0.18167380946E+03  0.18174994264E+03  0.25703596765E+03  0.00000000000E+00 0.  1.
        -13    1    5    5    0    0 -0.12480059637E+02  0.10347291836E+03  0.22541887860E+03  0.24834666809E+03  0.00000000000E+00 0. -1.
          3    1    6    6  503    0 -0.16463958945E+03  0.21103305344E+03 -0.13696229775E+03  0.30066562002E+03  0.00000000000E+00 0. -1.
         -3    1    6    6    0  503 -0.52404253744E+02  0.90601379375E+02  0.33845057559E+01  0.10471996292E+03  0.00000000000E+00 0.  1.
<mgrwt>
<rscale>  0 0.64338338E+03</rscale>
<asrwt>0</asrwt>
<pdfrwt beam="1">  1        2 0.10373618E+00 0.64338338E+03</pdfrwt>
<pdfrwt beam="2">  1       -2 0.23791060E+00 0.64338338E+03</pdfrwt>
<totfact> 0.34254032E+00</totfact>
</mgrwt>
</event>
<event>
12    1  0.3147868E-008  0.5628120E+03  0.7818608E-02  0.9985712E-01
          2   -1    0    0  501    0  0.00000000000E+00  0.00000000000E+00  0.15815382254E+04  0.15815382254E+04  0.00000000000E+00 0. -1.
         -2   -1    0    0    0  501 -0.00000000000E+00 -0.00000000000E+00 -0.35702002299E+03  0.35702002299E+03  0.00000000000E+00 0.  1.
         23    2    1    2    0    0 -0.42584641217E+03  0.20707329718E+03 -0.14677385665E+02  0.48259908425E+03  0.91988767294E+02 0.  0.
    5000000    2    1    2    0    0  0.42584641217E+03 -0.20707329718E+03  0.12391955881E+04  0.14559591641E+04  0.59998905402E+03 0.  0.
         23    2    4    4    0    0  0.83520872141E+02 -0.28373054034E+03  0.23637495115E+03  0.38965070959E+03  0.92064120864E+02 0.  0.
         23    2    4    4    0    0  0.34232554003E+03  0.76657243159E+02  0.10028206369E+04  0.10663084545E+04  0.91111920701E+02 0.  0.
          5    1    3    3  502    0 -0.31155259048E+03  0.16788410420E+03 -0.47990749457E+02  0.35717683451E+03  0.47000000000E+01 0. -1.
         -5    1    3    3    0  502 -0.11429382169E+03  0.39189192976E+02  0.33313363792E+02  0.12542224974E+03  0.47000000000E+01 0.  1.
         13    1    5    5    0    0  0.52921374035E+02 -0.22237336133E+03  0.22387971137E+03  0.31995735470E+03  0.00000000000E+00 0. -1.
        -13    1    5    5    0    0  0.30599498105E+02 -0.61357179003E+02  0.12495239782E+02  0.69693354896E+02  0.00000000000E+00 0.  1.
          3    1    6    6  503    0  0.97873911901E+02  0.42848137074E+02  0.20468373939E+03  0.23089109695E+03  0.00000000000E+00 0. -1.
         -3    1    6    6    0  503  0.24445162813E+03  0.33809106086E+02  0.79813689754E+03  0.83541735759E+03  0.00000000000E+00 0.  1.
<mgrwt>
<rscale>  0 0.56281200E+03</rscale>
<asrwt>0</asrwt>
<pdfrwt beam="1">  1        2 0.24331357E+00 0.56281200E+03</pdfrwt>
<pdfrwt beam="2">  1       -2 0.54926158E-01 0.56281200E+03</pdfrwt>
<totfact> 0.37369537E+01</totfact>
</mgrwt>
</event>
<event>
12    1  0.3147868E-008  0.1253376E+04  0.7818608E-02  0.9067378E-01
          1   -1    0    0  501    0  0.00000000000E+00  0.00000000000E+00  0.86235740561E+03  0.86235740561E+03  0.00000000000E+00 0. -1.
         -1   -1    0    0    0  501 -0.00000000000E+00 -0.00000000000E+00 -0.20303442397E+04  0.20303442397E+04  0.00000000000E+00 0.  1.
         23    2    1    2    0    0  0.12060717053E+04  0.26208129458E+03 -0.31559332192E+03  0.12772085070E+04  0.91470553408E+02 0.  0.
    5000000    2    1    2    0    0 -0.12060717053E+04 -0.26208129458E+03 -0.85239351220E+03  0.16154931384E+04  0.59995651279E+03 0.  0.
         23    2    4    4    0    0 -0.27137980415E+03  0.49314897431E+02 -0.47586364850E+03  0.55683756667E+03  0.86849907784E+02 0.  0.
         23    2    4    4    0    0 -0.93469190114E+03 -0.31139619201E+03 -0.37652986369E+03  0.10586555717E+04  0.91434910148E+02 0.  0.
          5    1    3    3  502    0  0.10229756733E+04  0.23477128137E+03 -0.29871047476E+03  0.10912592819E+04  0.47000000000E+01 0. -1.
         -5    1    3    3    0  502  0.18309603201E+03  0.27310013208E+02 -0.16882847166E+02  0.18594922503E+03  0.47000000000E+01 0.  1.
         13    1    5    5    0    0 -0.66554153852E+02  0.46022458332E+02 -0.98666654466E+02  0.12760341206E+03  0.00000000000E+00 0. -1.
        -13    1    5    5    0    0 -0.20482565030E+03  0.32924390984E+01 -0.37719699404E+03  0.42923415461E+03  0.00000000000E+00 0.  1.
          1    1    6    6  503    0 -0.14601774715E+03 -0.31685715339E+02 -0.27251400757E+02  0.15188089374E+03  0.00000000000E+00 0. -1.
         -1    1    6    6    0  503 -0.78867415399E+03 -0.27971047667E+03 -0.34927846293E+03  0.90677467796E+03  0.00000000000E+00 0.  1.
<mgrwt>
<rscale>  0 0.12533764E+04</rscale>
<asrwt>0</asrwt>
<pdfrwt beam="1">  1        1 0.13267037E+00 0.12533764E+04</pdfrwt>
<pdfrwt beam="2">  1       -1 0.31236065E+00 0.12533764E+04</pdfrwt>
<totfact> 0.52633124E-01</totfact>
</mgrwt>
</event>
<event>
12    1  0.3147868E-008  0.1083970E+04  0.7818608E-02  0.9220959E-01
         -2   -1    0    0    0  501 -0.00000000000E+00  0.00000000000E+00  0.49433334481E+03  0.49433334481E+03  0.00000000000E+00 0.  1.
          2   -1    0    0  501    0  0.00000000000E+00 -0.00000000000E+00 -0.48615687620E+04  0.48615687620E+04  0.00000000000E+00 0. -1.
         23    2    1    2    0    0  0.47947694893E+03 -0.90839797311E+03 -0.23639032722E+03  0.10571705499E+04  0.81511733724E+02 0.  0.
    5000000    2    1    2    0    0 -0.47947694893E+03  0.90839797311E+03 -0.41308450900E+04  0.42987315569E+04  0.60010567297E+03 0.  0.
         23    2    4    4    0    0 -0.56452543302E+03  0.66284172445E+03 -0.26041449474E+04  0.27473910775E+04  0.92405135536E+02 0.  0.
         23    2    4    4    0    0  0.85048484090E+02  0.24555624866E+03 -0.15267001426E+04  0.15513404794E+04  0.91174788040E+02 0.  0.
          5    1    3    3  502    0  0.32682009688E+03 -0.69449198102E+03 -0.17755235557E+03  0.78783082981E+03  0.47000000000E+01 0. -1.
         -5    1    3    3    0  502  0.15265685205E+03 -0.21390599210E+03 -0.58837971648E+02  0.26933972013E+03  0.47000000000E+01 0.  1.
         13    1    5    5    0    0 -0.41814343688E+03  0.53819444780E+03 -0.19563171102E+04  0.20716355454E+04  0.00000000000E+00 0. -1.
        -13    1    5    5    0    0 -0.14638199614E+03  0.12464727665E+03 -0.64782783722E+03  0.67575553202E+03  0.00000000000E+00 0.  1.
          3    1    6    6  503    0  0.90156826671E+02  0.22146717548E+03 -0.11926517350E+04  0.12163856807E+04  0.00000000000E+00 0. -1.
         -3    1    6    6    0  503 -0.51083425809E+01  0.24089073182E+02 -0.33404840758E+03  0.33495479876E+03  0.00000000000E+00 0.  1.
<mgrwt>
<rscale>  0 0.10839696E+04</rscale>
<asrwt>0</asrwt>
<pdfrwt beam="1">  1        2 0.74793369E+00 0.10839696E+04</pdfrwt>
<pdfrwt beam="2">  1       -2 0.76051280E-01 0.10839696E+04</pdfrwt>
<totfact> 0.84078204E-02</totfact>
</mgrwt>
</event>
<event>
12    1  0.3147868E-008  0.1523313E+04  0.7818608E-02  0.8869096E-01
          2   -1    0    0  501    0  0.00000000000E+00  0.00000000000E+00  0.21346443382E+04  0.21346443382E+04  0.00000000000E+00 0. -1.
         -2   -1    0    0    0  501 -0.00000000000E+00 -0.00000000000E+00 -0.11984389030E+04  0.11984389030E+04  0.00000000000E+00 0.  1.
         23    2    1    2    0    0  0.14376144558E+04 -0.37628500280E+03  0.88006640009E+03  0.17294955476E+04  0.91171563490E+02 0.  0.
    5000000    2    1    2    0    0 -0.14376144558E+04  0.37628500280E+03  0.56139035149E+02  0.16035876936E+04  0.60001347730E+03 0.  0.
         23    2    4    4    0    0 -0.98658771801E+03  0.47051924752E+03 -0.11700437031E+03  0.11030048862E+04  0.90476895750E+02 0.  0.
         23    2    4    4    0    0 -0.45102673775E+03 -0.94234244720E+02  0.17314340546E+03  0.50058280738E+03  0.91100478303E+02 0.  0.
          5    1    3    3  502    0  0.11328011869E+04 -0.26826871810E+03  0.71782409315E+03  0.13676622949E+04  0.47000000000E+01 0. -1.
         -5    1    3    3    0  502  0.30481326886E+03 -0.10801628470E+03  0.16224230693E+03  0.36183325275E+03  0.47000000000E+01 0.  1.
         13    1    5    5    0    0 -0.55414583861E+03  0.22694703494E+03 -0.33907944414E+02  0.59977688836E+03  0.00000000000E+00 0. -1.
        -13    1    5    5    0    0 -0.43244187941E+03  0.24357221258E+03 -0.83096425892E+02  0.50322799783E+03  0.00000000000E+00 0.  1.
          2    1    6    6  503    0 -0.21041254181E+03 -0.71548808429E+02  0.43989574287E+02  0.22655628966E+03  0.00000000000E+00 0. -1.
         -2    1    6    6    0  503 -0.24061419594E+03 -0.22685436291E+02  0.12915383117E+03  0.27402651772E+03  0.00000000000E+00 0.  1.
<mgrwt>
<rscale>  0 0.15233133E+04</rscale>
<asrwt>0</asrwt>
<pdfrwt beam="1">  1        2 0.32840682E+00 0.15233133E+04</pdfrwt>
<pdfrwt beam="2">  1       -2 0.18437522E+00 0.15233133E+04</pdfrwt>
<totfact> 0.89207398E-01</totfact>
</mgrwt>
</event>
<event>
12    1  0.3309297E-008  0.1435825E+04  0.7818608E-02  0.8928287E-01
          2   -1    0    0  501    0  0.00000000000E+00  0.00000000000E+00  0.14663719541E+04  0.14663719541E+04  0.00000000000E+00 0. -1.
         -2   -1    0    0    0  501 -0.00000000000E+00 -0.00000000000E+00 -0.14398263478E+04  0.14398263478E+04  0.00000000000E+00 0.  1.
         23    2    1    2    0    0  0.13644861865E+04  0.26292436388E+03  0.12340031675E+02  0.13927519093E+04  0.93025964927E+02 0.  0.
    5000000    2    1    2    0    0 -0.13644861865E+04 -0.26292436388E+03  0.14205574651E+02  0.15134463925E+04  0.59947177605E+03 0.  0.
         23    2    4    4    0    0 -0.11634125329E+04 -0.25576801717E+02 -0.96039295230E+02  0.11711699092E+04  0.90733210962E+02 0.  0.
         23    2    4    4    0    0 -0.20107365365E+03 -0.23734756216E+03  0.11024486988E+03  0.34227648329E+03  0.90745689838E+02 0.  0.
          5    1    3    3  502    0  0.88497173600E+03  0.21450379354E+03  0.16481142100E+02  0.91075823851E+03  0.47000000000E+01 0. -1.
         -5    1    3    3    0  502  0.47951445054E+03  0.48420570342E+02 -0.41411104258E+01  0.48199367081E+03  0.47000000000E+01 0.  1.
         13    1    5    5    0    0 -0.63264472142E+03 -0.34835191424E+02 -0.92427647352E+02  0.64030906920E+03  0.00000000000E+00 0. -1.
        -13    1    5    5    0    0 -0.53076781147E+03  0.92583897072E+01 -0.36116478780E+01  0.53086084002E+03  0.00000000000E+00 0.  1.
          1    1    6    6  503    0 -0.10203878932E+03 -0.84487652641E+02  0.64356140684E+01  0.13263293371E+03  0.00000000000E+00 0. -1.
         -1    1    6    6    0  503 -0.99034864332E+02 -0.15285990952E+03  0.10380925581E+03  0.20964354959E+03  0.00000000000E+00 0.  1.
<mgrwt>
<rscale>  0 0.14358254E+04</rscale>
<asrwt>0</asrwt>
<pdfrwt beam="1">  1        2 0.22559569E+00 0.14358254E+04</pdfrwt>
<pdfrwt beam="2">  1       -2 0.22151174E+00 0.14358254E+04</pdfrwt>
<totfact> 0.12144219E+00</totfact>
</mgrwt>
</event>
<event>
12    1  0.3147868E-008  0.1507288E+04  0.7818608E-02  0.8879621E-01
          2   -1    0    0  501    0  0.00000000000E+00  0.00000000000E+00  0.23953228920E+04  0.23953228920E+04  0.00000000000E+00 0. -1.
         -2   -1    0    0    0  501 -0.00000000000E+00 -0.00000000000E+00 -0.10138665298E+04  0.10138665298E+04  0.00000000000E+00 0.  1.
         23    2    1    2    0    0  0.12607010490E+03 -0.14822152697E+04  0.86965362542E+03  0.17254795348E+04  0.90146656607E+02 0.  0.
    5000000    2    1    2    0    0 -0.12607010490E+03  0.14822152697E+04  0.51180273682E+03  0.16837098870E+04  0.60006763373E+03 0.  0.
         23    2    4    4    0    0  0.51639275578E+01  0.71697600233E+02  0.19897948125E+03  0.23023322552E+03  0.90814603169E+02 0.  0.
         23    2    4    4    0    0 -0.13123403245E+03  0.14105176695E+04  0.31282325557E+03  0.14534766615E+04  0.89182672394E+02 0.  0.
          5    1    3    3  502    0  0.46036608543E+02 -0.31435251141E+03  0.15017978033E+03  0.35144405981E+03  0.47000000000E+01 0. -1.
         -5    1    3    3    0  502  0.80033496354E+02 -0.11678627583E+04  0.71947384509E+03  0.13740354750E+04  0.47000000000E+01 0.  1.
         11    1    5    5    0    0 -0.15796324936E+02  0.82050549507E+02  0.10943533059E+03  0.13768771963E+03  0.00000000000E+00 0. -1.
        -11    1    5    5    0    0  0.20960252494E+02 -0.10352949274E+02  0.89544150658E+02  0.92545505889E+02  0.00000000000E+00 0.  1.
          2    1    6    6  503    0 -0.11020647906E+03  0.71411845846E+03  0.16890858483E+03  0.74205171704E+03  0.00000000000E+00 0. -1.
         -2    1    6    6    0  503 -0.21027553390E+02  0.69639921102E+03  0.14391467074E+03  0.71142494444E+03  0.00000000000E+00 0.  1.
<mgrwt>
<rscale>  0 0.15072878E+04</rscale>
<asrwt>0</asrwt>
<pdfrwt beam="1">  1        2 0.36851121E+00 0.15072878E+04</pdfrwt>
<pdfrwt beam="2">  1       -2 0.15597947E+00 0.15072878E+04</pdfrwt>
<totfact> 0.10181674E+00</totfact>
</mgrwt>
</event>
<event>
12    1  0.3147868E-008  0.2069806E+04  0.7818608E-02  0.8574662E-01
          2   -1    0    0  501    0  0.00000000000E+00  0.00000000000E+00  0.31093070894E+04  0.31093070894E+04  0.00000000000E+00 0. -1.
         -2   -1    0    0    0  501 -0.00000000000E+00 -0.00000000000E+00 -0.14078194842E+04  0.14078194842E+04  0.00000000000E+00 0.  1.
         23    2    1    2    0    0  0.86739294043E+02  0.20349989185E+04  0.60190932143E+03  0.21259423152E+04  0.92690844095E+02 0.  0.
    5000000    2    1    2    0    0 -0.86739294043E+02 -0.20349989185E+04  0.10995782837E+04  0.23911842584E+04  0.59995454162E+03 0.  0.
         23    2    4    4    0    0 -0.20931605647E+03 -0.19066326146E+04  0.10137531598E+04  0.21715460155E+04  0.94103610872E+02 0.  0.
         23    2    4    4    0    0  0.12257676243E+03 -0.12836630393E+03  0.85825123905E+02  0.21963824295E+03  0.96809272289E+02 0.  0.
          5    1    3    3  502    0  0.29725362661E+02  0.52600413921E+03  0.11461934551E+03  0.53918794127E+03  0.47000000000E+01 0. -1.
         -5    1    3    3    0  502  0.57013931382E+02  0.15089947793E+04  0.48728997591E+03  0.15867543739E+04  0.47000000000E+01 0.  1.
         13    1    5    5    0    0 -0.14219991062E+03 -0.10337393205E+04  0.59322849032E+03  0.12003157247E+04  0.00000000000E+00 0. -1.
        -13    1    5    5    0    0 -0.67116145849E+02 -0.87289329411E+03  0.42052466951E+03  0.97123029071E+03  0.00000000000E+00 0.  1.
          4    1    6    6  503    0  0.31990762985E+02 -0.67186319808E+02 -0.89657462710E+01  0.74951951888E+02  0.00000000000E+00 0. -1.
         -4    1    6    6    0  503  0.90585999446E+02 -0.61179984118E+02  0.94790870176E+02  0.14468629106E+03  0.00000000000E+00 0.  1.
<mgrwt>
<rscale>  0 0.20698056E+04</rscale>
<asrwt>0</asrwt>
<pdfrwt beam="1">  1        2 0.47835494E+00 0.20698056E+04</pdfrwt>
<pdfrwt beam="2">  1       -2 0.21658761E+00 0.20698056E+04</pdfrwt>
<totfact> 0.13659418E-01</totfact>
</mgrwt>
</event>
<event>
12    1  0.3147868E-008  0.1351058E+04  0.7818608E-02  0.8990027E-01
         -2   -1    0    0    0  501 -0.00000000000E+00  0.00000000000E+00  0.94002425878E+03  0.94002425878E+03  0.00000000000E+00 0.  1.
          2   -1    0    0  501    0  0.00000000000E+00 -0.00000000000E+00 -0.23172006075E+04  0.23172006075E+04  0.00000000000E+00 0. -1.
         23    2    1    2    0    0  0.21124241174E+03  0.12852319304E+04 -0.12664208098E+04  0.18189315439E+04  0.90806511236E+02 0.  0.
    5000000    2    1    2    0    0 -0.21124241174E+03 -0.12852319304E+04 -0.11075553891E+03  0.14382933224E+04  0.59998034988E+03 0.  0.
         23    2    4    4    0    0 -0.33268187933E+03 -0.50354356531E+03  0.93109059596E+02  0.61629400892E+03  0.83160407978E+02 0.  0.
         23    2    4    4    0    0  0.12143946758E+03 -0.78168836511E+03 -0.20386459850E+03  0.82199931343E+03  0.91311841118E+02 0.  0.
          5    1    3    3  502    0  0.72829571706E+02  0.22870427822E+03 -0.23081830744E+03  0.33302999030E+03  0.47000000000E+01 0. -1.
         -5    1    3    3    0  502  0.13841284004E+03  0.10565276522E+04 -0.10356025024E+04  0.14859015536E+04  0.47000000000E+01 0.  1.
         13    1    5    5    0    0 -0.22648014487E+03 -0.31222167470E+03  0.95888911912E+02  0.39745479442E+03  0.00000000000E+00 0.  1.
        -13    1    5    5    0    0 -0.10620173446E+03 -0.19132189061E+03 -0.27798523166E+01  0.21883921450E+03  0.00000000000E+00 0. -1.
          3    1    6    6  503    0  0.47533142065E+02 -0.42728091299E+03 -0.15341490711E+03  0.45646961775E+03  0.00000000000E+00 0. -1.
         -3    1    6    6    0  503  0.73906325519E+02 -0.35440745212E+03 -0.50449691395E+02  0.36552969569E+03  0.00000000000E+00 0.  1.
<mgrwt>
<rscale>  0 0.13510583E+04</rscale>
<asrwt>0</asrwt>
<pdfrwt beam="1">  1        2 0.35649240E+00 0.13510583E+04</pdfrwt>
<pdfrwt beam="2">  1       -2 0.14461912E+00 0.13510583E+04</pdfrwt>
<totfact> 0.14035039E+00</totfact>
</mgrwt>
</event>
<event>
12    1  0.3921410E-008  0.1591971E+04  0.7818608E-02  0.8825496E-01
         -3   -1    0    0    0  501 -0.00000000000E+00  0.00000000000E+00  0.96765311299E+03  0.96765311299E+03  0.00000000000E+00 0.  1.
          3   -1    0    0  501    0  0.00000000000E+00 -0.00000000000E+00 -0.28869832267E+04  0.28869832267E+04  0.00000000000E+00 0. -1.
         23    2    1    2    0    0 -0.12697060741E+04 -0.87422201576E+03 -0.36995265508E+03  0.15881350047E+04  0.94287743266E+02 0.  0.
    5000000    2    1    2    0    0  0.12697060741E+04  0.87422201576E+03 -0.15493774586E+04  0.22665013350E+04  0.60003345296E+03 0.  0.
         23    2    4    4    0    0  0.38898465037E+03 -0.12064863936E+02 -0.32887895775E+03  0.51799038980E+03  0.93263368556E+02 0.  0.
         23    2    4    4    0    0  0.88072142378E+03  0.88628687970E+03 -0.12204985008E+04  0.17485109452E+04  0.80618083539E+02 0.  0.
          5    1    3    3  502    0 -0.61378058454E+03 -0.37854283100E+03 -0.14248551994E+03  0.73508196431E+03  0.47000000000E+01 0. -1.
         -5    1    3    3    0  502 -0.65592548960E+03 -0.49567918476E+03 -0.22746713515E+03  0.85305304037E+03  0.47000000000E+01 0.  1.
         13    1    5    5    0    0  0.30373099994E+03  0.37327986677E+01 -0.29915122754E+03  0.42633075311E+03  0.00000000000E+00 0. -1.
        -13    1    5    5    0    0  0.85253650427E+02 -0.15797662603E+02 -0.29727730210E+02  0.91659636691E+02  0.00000000000E+00 0.  1.
          3    1    6    6  503    0  0.60597696538E+03  0.58180933255E+03 -0.77437690189E+03  0.11425277976E+04  0.00000000000E+00 0. -1.
         -3    1    6    6    0  503  0.27474445840E+03  0.30447754714E+03 -0.44612159894E+03  0.60598314761E+03  0.00000000000E+00 0.  1.
<mgrwt>
<rscale>  0 0.15919713E+04</rscale>
<asrwt>0</asrwt>
<pdfrwt beam="1">  1        3 0.44415126E+00 0.15919713E+04</pdfrwt>
<pdfrwt beam="2">  1       -3 0.14886971E+00 0.15919713E+04</pdfrwt>
<totfact> 0.51519590E-03</totfact>
</mgrwt>
</event>
<event>
12    1  0.3147868E-008  0.1204591E+04  0.7818608E-02  0.9108848E-01
         -1   -1    0    0    0  501 -0.00000000000E+00  0.00000000000E+00  0.80939343165E+03  0.80939343165E+03  0.00000000000E+00 0.  1.
          1   -1    0    0  501    0  0.00000000000E+00 -0.00000000000E+00 -0.28166553669E+04  0.28166553669E+04  0.00000000000E+00 0. -1.
         23    2    1    2    0    0 -0.54498565457E+03 -0.99034243408E+03  0.12293331598E+03  0.11407656158E+04  0.91902609021E+02 0.  0.
    5000000    2    1    2    0    0  0.54498565457E+03  0.99034243408E+03 -0.21301952512E+04  0.24852831828E+04  0.60092694207E+03 0.  0.
         23    2    4    4    0    0  0.65317919752E+03  0.73208380018E+03 -0.16604274200E+04  0.19308802824E+04  0.93218523807E+02 0.  0.
         23    2    4    4    0    0 -0.10819354295E+03  0.25825863390E+03 -0.46976783122E+03  0.55440290038E+03  0.90980195551E+02 0.  0.
          5    1    3    3  502    0 -0.41915274336E+03 -0.79971875342E+03  0.66044248605E+02  0.90533034833E+03  0.47000000000E+01 0. -1.
         -5    1    3    3    0  502 -0.12583291121E+03 -0.19062368066E+03  0.56889067379E+02  0.23543526745E+03  0.47000000000E+01 0.  1.
         13    1    5    5    0    0  0.27982268504E+03  0.36503482688E+03 -0.71502693865E+03  0.85018508743E+03  0.00000000000E+00 0.  1.
        -13    1    5    5    0    0  0.37335651248E+03  0.36704897330E+03 -0.94540048138E+03  0.10806951950E+04  0.00000000000E+00 0. -1.
          2    1    6    6  503    0 -0.10177995210E+03  0.12642543572E+03 -0.26702722695E+03  0.31248374258E+03  0.00000000000E+00 0. -1.
         -2    1    6    6    0  503 -0.64135908499E+01  0.13183319818E+03 -0.20274060427E+03  0.24191915780E+03  0.00000000000E+00 0.  1.
<mgrwt>
<rscale>  0 0.12045908E+04</rscale>
<asrwt>0</asrwt>
<pdfrwt beam="1">  1        1 0.43333159E+00 0.12045908E+04</pdfrwt>
<pdfrwt beam="2">  1       -1 0.12452207E+00 0.12045908E+04</pdfrwt>
<totfact> 0.45410156E-01</totfact>
</mgrwt>
</event>
<event>
12    1  0.3147868E-008  0.8057790E+03  0.7818608E-02  0.9551690E-01
         -2   -1    0    0    0  501 -0.00000000000E+00  0.00000000000E+00  0.13436348988E+04  0.13436348988E+04  0.00000000000E+00 0.  1.
          2   -1    0    0  501    0  0.00000000000E+00 -0.00000000000E+00 -0.57871662469E+03  0.57871662469E+03  0.00000000000E+00 0. -1.
         23    2    1    2    0    0  0.18563960788E+03  0.68321572644E+03  0.68737676948E+03  0.99105459246E+03  0.91959714857E+02 0.  0.
    5000000    2    1    2    0    0 -0.18563960788E+03 -0.68321572644E+03  0.77541504648E+02  0.93129693103E+03  0.60004624484E+03 0.  0.
         23    2    4    4    0    0 -0.16883055416E+03  0.42434930669E+02  0.19627154811E+02  0.19802152720E+03  0.92319124061E+02 0.  0.
         23    2    4    4    0    0 -0.16809053715E+02 -0.72565065711E+03  0.57914349837E+02  0.73327540384E+03  0.86529333210E+02 0.  0.
          5    1    3    3  502    0  0.63477104867E+02  0.28336528491E+03  0.22290516245E+03  0.36610658145E+03  0.47000000000E+01 0. -1.
         -5    1    3    3    0  502  0.12216250301E+03  0.39985044153E+03  0.46447160703E+03  0.62494801101E+03  0.47000000000E+01 0.  1.
         13    1    5    5    0    0 -0.94612623386E+02  0.13351506743E+02 -0.34589627281E+02  0.10161817530E+03  0.00000000000E+00 0. -1.
        -13    1    5    5    0    0 -0.74217930778E+02  0.29083423926E+02  0.54216782092E+02  0.96403351895E+02  0.00000000000E+00 0.  1.
          4    1    6    6  503    0 -0.32710613199E+02 -0.62429884758E+03  0.25462670650E+02  0.62567354340E+03  0.00000000000E+00 0. -1.
         -4    1    6    6    0  503  0.15901559485E+02 -0.10135180953E+03  0.32451679187E+02  0.10760186044E+03  0.00000000000E+00 0.  1.
<mgrwt>
<rscale>  0 0.80577904E+03</rscale>
<asrwt>0</asrwt>
<pdfrwt beam="1">  1        2 0.89033328E-01 0.80577904E+03</pdfrwt>
<pdfrwt beam="2">  1       -2 0.20671306E+00 0.80577904E+03</pdfrwt>
<totfact> 0.63195370E+00</totfact>
</mgrwt>
</event>
<event>
12    1  0.3147868E-008  0.7109143E+03  0.7818608E-02  0.9698747E-01
         -1   -1    0    0    0  501 -0.00000000000E+00  0.00000000000E+00  0.85304730214E+03  0.85304730214E+03  0.00000000000E+00 0.  1.
          1   -1    0    0  501    0  0.00000000000E+00 -0.00000000000E+00 -0.94648632834E+03  0.94648632834E+03  0.00000000000E+00 0. -1.
         23    2    1    2    0    0 -0.53510436372E+03 -0.26987382536E+03 -0.56580433028E+03  0.82918732605E+03  0.90821362241E+02 0.  0.
    5000000    2    1    2    0    0  0.53510436372E+03  0.26987382536E+03  0.47236530408E+03  0.97034630443E+03  0.59939503529E+03 0.  0.
         23    2    4    4    0    0 -0.84572704474E+02 -0.29116482156E+02  0.17109315243E+03  0.21418144494E+03  0.92738949061E+02 0.  0.
         23    2    4    4    0    0  0.61967706819E+03  0.29899030752E+03  0.30127215165E+03  0.75616485949E+03  0.87324180657E+02 0.  0.
          5    1    3    3  502    0 -0.18858463162E+03 -0.52361545938E+02 -0.20808898259E+03  0.28570790933E+03  0.47000000000E+01 0. -1.
         -5    1    3    3    0  502 -0.34651973210E+03 -0.21751227943E+03 -0.35771534769E+03  0.54347941673E+03  0.47000000000E+01 0.  1.
         11    1    5    5    0    0 -0.93542690786E+02 -0.49965130192E+02  0.14401786647E+03  0.17885160077E+03  0.00000000000E+00 0. -1.
        -11    1    5    5    0    0  0.89699863128E+01  0.20848648036E+02  0.27075285961E+02  0.35329844172E+02  0.00000000000E+00 0.  1.
          4    1    6    6  503    0  0.54322454803E+03  0.25752432599E+03  0.22982592001E+03  0.64360829824E+03  0.00000000000E+00 0. -1.
         -4    1    6    6    0  503  0.76452520168E+02  0.41465981531E+02  0.71446231641E+02  0.11255656125E+03  0.00000000000E+00 0.  1.
<mgrwt>
<rscale>  0 0.71091427E+03</rscale>
<asrwt>0</asrwt>
<pdfrwt beam="1">  1        1 0.14561328E+00 0.71091427E+03</pdfrwt>
<pdfrwt beam="2">  1       -1 0.13123805E+00 0.71091427E+03</pdfrwt>
<totfact> 0.85804571E+00</totfact>
</mgrwt>
</event>
<event>
12    1  0.3147868E-008  0.4215872E+03  0.7818608E-02  0.1036551E+00
          1   -1    0    0  501    0  0.00000000000E+00  0.00000000000E+00  0.65877949104E+03  0.65877949104E+03  0.00000000000E+00 0. -1.
         -1   -1    0    0    0  501 -0.00000000000E+00 -0.00000000000E+00 -0.44384257987E+03  0.44384257987E+03  0.00000000000E+00 0.  1.
         23    2    1    2    0    0 -0.19250701792E+03 -0.30140044278E+03  0.15904672711E+03  0.40191856199E+03  0.91331759042E+02 0.  0.
    5000000    2    1    2    0    0  0.19250701792E+03  0.30140044278E+03  0.55890184054E+02  0.70070350892E+03  0.59996709567E+03 0.  0.
         23    2    4    4    0    0  0.18929074987E+03  0.14003543249E+02  0.26133826463E+03  0.33562480410E+03  0.91209831473E+02 0.  0.
         23    2    4    4    0    0  0.32162680513E+01  0.28739689953E+03 -0.20544808058E+03  0.36507870482E+03  0.92012089734E+02 0.  0.
          5    1    3    3  502    0 -0.68821166440E+02 -0.13404195102E+03  0.11385102284E+03  0.18891199799E+03  0.47000000000E+01 0. -1.
         -5    1    3    3    0  502 -0.12368585148E+03 -0.16735849176E+03  0.45195704268E+02  0.21300656400E+03  0.47000000000E+01 0.  1.
         11    1    5    5    0    0  0.11163959577E+03  0.33739861234E+02  0.21075736985E+03  0.24087433763E+03  0.00000000000E+00 0.  1.
        -11    1    5    5    0    0  0.77651154099E+02 -0.19736317984E+02  0.50580894779E+02  0.94750466474E+02  0.00000000000E+00 0. -1.
          2    1    6    6  503    0 -0.67120927147E+00  0.22597110532E+03 -0.10954579285E+03  0.25112481297E+03  0.00000000000E+00 0.  1.
         -2    1    6    6    0  503  0.38874773227E+01  0.61425794215E+02 -0.95902287728E+02  0.11395389184E+03  0.00000000000E+00 0. -1.
<mgrwt>
<rscale>  0 0.42158723E+03</rscale>
<asrwt>0</asrwt>
<pdfrwt beam="1">  1        1 0.10135069E+00 0.42158723E+03</pdfrwt>
<pdfrwt beam="2">  1       -1 0.68283474E-01 0.42158723E+03</pdfrwt>
<totfact> 0.68526391E+01</totfact>
</mgrwt>
</event>
<event>
12    1  0.3147868E-008  0.7622941E+03  0.7818608E-02  0.9616258E-01
          1   -1    0    0  501    0  0.00000000000E+00  0.00000000000E+00  0.76453820889E+03  0.76453820889E+03  0.00000000000E+00 0. -1.
         -1   -1    0    0    0  501 -0.00000000000E+00 -0.00000000000E+00 -0.10287318420E+04  0.10287318420E+04  0.00000000000E+00 0.  1.
         23    2    1    2    0    0 -0.45506631155E+03  0.51183206034E+03  0.26509239092E+03  0.73990692897E+03  0.90171402969E+02 0.  0.
    5000000    2    1    2    0    0  0.45506631155E+03 -0.51183206034E+03 -0.52928602402E+03  0.10533631219E+04  0.60031055754E+03 0.  0.
         23    2    4    4    0    0  0.10340619630E+03  0.68296364871E+02  0.48795511541E+02  0.15749687655E+03  0.84065624891E+02 0.  0.
         23    2    4    4    0    0  0.35166011525E+03 -0.58012842521E+03 -0.57808153556E+03  0.89586624537E+03  0.90466797476E+02 0.  0.
          5    1    3    3  502    0 -0.42556026889E+02  0.94006944000E+02  0.31662576823E+02  0.10804133337E+03  0.47000000000E+01 0. -1.
         -5    1    3    3    0  502 -0.41251028466E+03  0.41782511634E+03  0.23342981409E+03  0.63186559560E+03  0.47000000000E+01 0.  1.
         13    1    5    5    0    0 -0.14873786685E+02  0.57773654686E+01  0.48203073172E+01  0.16668618562E+02  0.00000000000E+00 0. -1.
        -13    1    5    5    0    0  0.11827998298E+03  0.62518999402E+02  0.43975204224E+02  0.14082825799E+03  0.00000000000E+00 0.  1.
          2    1    6    6  503    0  0.19583860197E+03 -0.40566380763E+03 -0.37768140150E+03  0.58784277140E+03  0.00000000000E+00 0. -1.
         -2    1    6    6    0  503  0.15582151328E+03 -0.17446461757E+03 -0.20040013405E+03  0.30802347397E+03  0.00000000000E+00 0.  1.
<mgrwt>
<rscale>  0 0.76229411E+03</rscale>
<asrwt>0</asrwt>
<pdfrwt beam="1">  1        1 0.11762126E+00 0.76229411E+03</pdfrwt>
<pdfrwt beam="2">  1       -1 0.15826644E+00 0.76229411E+03</pdfrwt>
<totfact> 0.73823198E+00</totfact>
</mgrwt>
</event>
<event>
12    1  0.3147868E-008  0.5718463E+03  0.7818608E-02  0.9965601E-01
         -1   -1    0    0    0  501 -0.00000000000E+00  0.00000000000E+00  0.22430539179E+03  0.22430539179E+03  0.00000000000E+00 0.  1.
          1   -1    0    0  501    0  0.00000000000E+00 -0.00000000000E+00 -0.30127042031E+04  0.30127042031E+04  0.00000000000E+00 0. -1.
         23    2    1    2    0    0 -0.47162517183E+03 -0.20458227459E+03 -0.21750319647E+04  0.22367874230E+04  0.90386495508E+02 0.  0.
    5000000    2    1    2    0    0  0.47162517183E+03  0.20458227459E+03 -0.61336684668E+03  0.10002221719E+04  0.59995107705E+03 0.  0.
         23    2    4    4    0    0  0.36756062389E+03 -0.13776969963E+02 -0.52149434277E+02  0.38246844456E+03  0.90950153702E+02 0.  0.
         23    2    4    4    0    0  0.10406454794E+03  0.21835924455E+03 -0.56121741240E+03  0.61775372737E+03  0.90246849716E+02 0.  0.
          5    1    3    3  502    0 -0.23507938555E+03 -0.13467898769E+03 -0.12807813911E+04  0.13091309366E+04  0.47000000000E+01 0. -1.
         -5    1    3    3    0  502 -0.23654578627E+03 -0.69903286896E+02 -0.89425057354E+03  0.92765648642E+03  0.47000000000E+01 0.  1.
         13    1    5    5    0    0  0.90265758327E+02  0.78241309865E+01  0.24702301266E+02  0.93911276425E+02  0.00000000000E+00 0.  1.
        -13    1    5    5    0    0  0.27729486556E+03 -0.21601100950E+02 -0.76851735543E+02  0.28855716814E+03  0.00000000000E+00 0. -1.
          4    1    6    6  503    0  0.10568165238E+03  0.12406083096E+03 -0.33024699476E+03  0.36826998110E+03  0.00000000000E+00 0.  1.
         -4    1    6    6    0  503 -0.16171044360E+01  0.94298413587E+02 -0.23097041764E+03  0.24948374628E+03  0.00000000000E+00 0. -1.
<mgrwt>
<rscale>  0 0.57184630E+03</rscale>
<asrwt>0</asrwt>
<pdfrwt beam="1">  1        1 0.46349291E+00 0.57184630E+03</pdfrwt>
<pdfrwt beam="2">  1       -1 0.34508525E-01 0.57184630E+03</pdfrwt>
<totfact> 0.51658731E+00</totfact>
</mgrwt>
</event>
<event>
12    1  0.3147868E-008  0.1075226E+04  0.7818608E-02  0.9229681E-01
         -1   -1    0    0    0  501 -0.00000000000E+00  0.00000000000E+00  0.25253380974E+04  0.25253380974E+04  0.00000000000E+00 0.  1.
          1   -1    0    0  501    0  0.00000000000E+00 -0.00000000000E+00 -0.49342067285E+03  0.49342067285E+03  0.00000000000E+00 0. -1.
         23    2    1    2    0    0 -0.98166402127E+03  0.30937344136E+03  0.81796922242E+03  0.13178762998E+04  0.91368024973E+02 0.  0.
    5000000    2    1    2    0    0  0.98166402127E+03 -0.30937344136E+03  0.12139482021E+04  0.17008824704E+04  0.59996230199E+03 0.  0.
         23    2    4    4    0    0  0.19268018398E+03  0.10283565613E+03  0.51139636843E+03  0.56351809226E+03  0.91244557052E+02 0.  0.
         23    2    4    4    0    0  0.78898383729E+03 -0.41220909748E+03  0.70255183366E+03  0.11373643781E+04  0.87217051537E+02 0.  0.
          5    1    3    3  502    0 -0.30541282025E+03  0.12070931966E+03  0.30653105049E+03  0.44925616917E+03  0.47000000000E+01 0. -1.
         -5    1    3    3    0  502 -0.67625120102E+03  0.18866412170E+03  0.51143817193E+03  0.86862013067E+03  0.47000000000E+01 0.  1.
         13    1    5    5    0    0  0.13543615110E+03  0.33204814267E+02  0.37440392971E+03  0.39952948990E+03  0.00000000000E+00 0.  1.
        -13    1    5    5    0    0  0.57244032871E+02  0.69630841859E+02  0.13699243871E+03  0.16398860235E+03  0.00000000000E+00 0. -1.
          4    1    6    6  503    0  0.70781210566E+03 -0.37554245052E+03  0.59679225722E+03  0.99909514429E+03  0.00000000000E+00 0. -1.
         -4    1    6    6    0  503  0.81171731629E+02 -0.36666646968E+02  0.10575957644E+03  0.13826923383E+03  0.00000000000E+00 0.  1.
<mgrwt>
<rscale>  0 0.10752256E+04</rscale>
<asrwt>0</asrwt>
<pdfrwt beam="1">  1        1 0.75910874E-01 0.10752256E+04</pdfrwt>
<pdfrwt beam="2">  1       -1 0.38851355E+00 0.10752256E+04</pdfrwt>
<totfact> 0.39206524E-01</totfact>
</mgrwt>
</event>
<event>
12    1  0.3147868E-008  0.7555625E+03  0.7818608E-02  0.9626664E-01
          1   -1    0    0  501    0  0.00000000000E+00  0.00000000000E+00  0.35234341723E+04  0.35234341723E+04  0.00000000000E+00 0. -1.
         -1   -1    0    0    0  501 -0.00000000000E+00 -0.00000000000E+00 -0.19434657390E+03  0.19434657390E+03  0.00000000000E+00 0.  1.
         23    2    1    2    0    0  0.60978415850E+01 -0.71538429208E+03  0.14113910910E+04  0.15848490955E+04  0.88938038581E+02 0.  0.
    5000000    2    1    2    0    0 -0.60978415850E+01  0.71538429208E+03  0.19176965074E+04  0.21329316507E+04  0.60002138551E+03 0.  0.
         23    2    4    4    0    0  0.14933608686E+03  0.44027586638E+03  0.54823611893E+03  0.72479651663E+03  0.92860341704E+02 0.  0.
         23    2    4    4    0    0 -0.15543392844E+03  0.27510842569E+03  0.13694603884E+04  0.14081351340E+04  0.87054283308E+02 0.  0.
          5    1    3    3  502    0  0.36418074071E+02 -0.21603136358E+03  0.47796996982E+03  0.52580719681E+03  0.47000000000E+01 0. -1.
         -5    1    3    3    0  502 -0.30320232486E+02 -0.49935292850E+03  0.93342112118E+03  0.10590418987E+04  0.47000000000E+01 0.  1.
         11    1    5    5    0    0  0.14697057916E+03  0.34210732505E+03  0.46759204650E+03  0.59772911502E+03  0.00000000000E+00 0.  1.
        -11    1    5    5    0    0  0.23655076974E+01  0.98168541333E+02  0.80644072437E+02  0.12706740162E+03  0.00000000000E+00 0. -1.
          3    1    6    6  503    0 -0.10807588503E+03  0.13302543670E+03  0.58881526183E+03  0.61325327255E+03  0.00000000000E+00 0. -1.
         -3    1    6    6    0  503 -0.47358043417E+02  0.14208298900E+03  0.78064512659E+03  0.79488186148E+03  0.00000000000E+00 0.  1.
<mgrwt>
<rscale>  0 0.75556250E+03</rscale>
<asrwt>0</asrwt>
<pdfrwt beam="1">  1        1 0.54206675E+00 0.75556250E+03</pdfrwt>
<pdfrwt beam="2">  1       -1 0.29899476E-01 0.75556250E+03</pdfrwt>
<totfact> 0.26613031E+00</totfact>
</mgrwt>
</event>
<event>
12    1  0.3147868E-008  0.4557903E+03  0.7818608E-02  0.1026009E+00
          2   -1    0    0  501    0  0.00000000000E+00  0.00000000000E+00  0.63042005867E+03  0.63042005867E+03  0.00000000000E+00 0. -1.
         -2   -1    0    0    0  501 -0.00000000000E+00 -0.00000000000E+00 -0.59231205207E+03  0.59231205207E+03  0.00000000000E+00 0.  1.
         23    2    1    2    0    0 -0.31325016302E+03 -0.10766124032E+03 -0.30147306660E+03  0.45794658229E+03  0.95459180032E+02 0.  0.
    5000000    2    1    2    0    0  0.31325016302E+03  0.10766124032E+03  0.33958107319E+03  0.76478552844E+03  0.59988748274E+03 0.  0.
         23    2    4    4    0    0  0.32544305957E+03 -0.10487770264E+03  0.39175098777E+03  0.52750972457E+03  0.88798398412E+02 0.  0.
         23    2    4    4    0    0 -0.12192896553E+02  0.21253894296E+03 -0.52169914581E+02  0.23727580387E+03  0.90866044880E+02 0.  0.
          5    1    3    3  502    0 -0.88573971532E+02  0.12098180757E+02 -0.90012774325E+02  0.12694921801E+03  0.47000000000E+01 0. -1.
         -5    1    3    3    0  502 -0.22467619149E+03 -0.11975942108E+03 -0.21146029227E+03  0.33099736429E+03  0.47000000000E+01 0.  1.
         13    1    5    5    0    0  0.28902609046E+03 -0.82967712438E+02  0.37762903768E+03  0.48272498627E+03  0.00000000000E+00 0. -1.
        -13    1    5    5    0    0  0.36416969109E+02 -0.21909990207E+02  0.14121950097E+02  0.44784738299E+02  0.00000000000E+00 0.  1.
          1    1    6    6  503    0  0.69386904391E+01  0.20248751240E+03 -0.27476538145E+02  0.20446099445E+03  0.00000000000E+00 0. -1.
         -1    1    6    6    0  503 -0.19131586992E+02  0.10051430559E+02 -0.24693376437E+02  0.32814809415E+02  0.00000000000E+00 0.  1.
<mgrwt>
<rscale>  0 0.45579032E+03</rscale>
<asrwt>0</asrwt>
<pdfrwt beam="1">  1        2 0.96987701E-01 0.45579032E+03</pdfrwt>
<pdfrwt beam="2">  1       -2 0.91124931E-01 0.45579032E+03</pdfrwt>
<totfact> 0.49874559E+01</totfact>
</mgrwt>
</event>
<event>
12    1  0.3147868E-008  0.7882349E+03  0.7818608E-02  0.9577205E-01
         -2   -1    0    0    0  501 -0.00000000000E+00  0.00000000000E+00  0.32517780766E+03  0.32517780766E+03  0.00000000000E+00 0.  1.
          2   -1    0    0  501    0  0.00000000000E+00 -0.00000000000E+00 -0.22349984583E+04  0.22349984583E+04  0.00000000000E+00 0. -1.
         23    2    1    2    0    0  0.93597962080E+02  0.70187407466E+03 -0.11814818573E+04  0.13803960579E+04  0.90587538587E+02 0.  0.
    5000000    2    1    2    0    0 -0.93597962080E+02 -0.70187407466E+03 -0.72833879334E+03  0.11797802081E+04  0.60001345522E+03 0.  0.
         23    2    4    4    0    0 -0.16250262769E+03 -0.15646017676E+02 -0.21432267692E+02  0.18794560025E+03  0.90621767142E+02 0.  0.
         23    2    4    4    0    0  0.68904665613E+02 -0.68622805699E+03 -0.70690652565E+03  0.99183460788E+03  0.91445362137E+02 0.  0.
          5    1    3    3  502    0  0.16765097263E+02  0.31288857607E+03 -0.45023109221E+03  0.54855305661E+03  0.47000000000E+01 0. -1.
         -5    1    3    3    0  502  0.76832864817E+02  0.38898549859E+03 -0.73125076514E+03  0.83184300126E+03  0.47000000000E+01 0.  1.
         13    1    5    5    0    0 -0.75633308650E+02 -0.41448350450E+02  0.19637054571E+02  0.88453247790E+02  0.00000000000E+00 0. -1.
        -13    1    5    5    0    0 -0.86869319043E+02  0.25802332774E+02 -0.41069322262E+02  0.99492352464E+02  0.00000000000E+00 0.  1.
          3    1    6    6  503    0  0.39668953534E+02 -0.42264545020E+03 -0.37035698377E+03  0.56335343957E+03  0.00000000000E+00 0. -1.
         -3    1    6    6    0  503  0.29235712079E+02 -0.26358260678E+03 -0.33654954188E+03  0.42848116831E+03  0.00000000000E+00 0.  1.
<mgrwt>
<rscale>  0 0.78823487E+03</rscale>
<asrwt>0</asrwt>
<pdfrwt beam="1">  1        2 0.34384593E+00 0.78823487E+03</pdfrwt>
<pdfrwt beam="2">  1       -2 0.50027353E-01 0.78823487E+03</pdfrwt>
<totfact> 0.19284088E+01</totfact>
</mgrwt>
</event>
<event>
12    1  0.3147868E-008  0.5571720E+03  0.7818608E-02  0.9998474E-01
          2   -1    0    0  501    0  0.00000000000E+00  0.00000000000E+00  0.10996695382E+04  0.10996695382E+04  0.00000000000E+00 0. -1.
         -2   -1    0    0    0  501 -0.00000000000E+00 -0.00000000000E+00 -0.48090045268E+03  0.48090045268E+03  0.00000000000E+00 0.  1.
         23    2    1    2    0    0  0.16417220169E+03  0.37380618677E+03  0.73531229253E+03  0.84570769914E+03  0.88621485923E+02 0.  0.
    5000000    2    1    2    0    0 -0.16417220169E+03 -0.37380618677E+03 -0.11654320704E+03  0.73486229170E+03  0.59979720871E+03 0.  0.
         23    2    4    4    0    0  0.75569492387E+02  0.10486654308E+03  0.52028227129E+02  0.16595437819E+03  0.90145322586E+02 0.  0.
         23    2    4    4    0    0 -0.23974169408E+03 -0.47867272986E+03 -0.16857143417E+03  0.56890791351E+03  0.92931283454E+02 0.  0.
          5    1    3    3  502    0  0.76759554436E+02  0.27584207167E+03  0.50930547350E+03  0.58429019592E+03  0.47000000000E+01 0. -1.
         -5    1    3    3    0  502  0.87412647257E+02  0.97964115099E+02  0.22600681903E+03  0.26141750323E+03  0.47000000000E+01 0.  1.
         13    1    5    5    0    0  0.77268177704E+02  0.30664794222E+02  0.32014856466E+02  0.89082276155E+02  0.00000000000E+00 0.  1.
        -13    1    5    5    0    0 -0.16986853172E+01  0.74201748862E+02  0.20013370663E+02  0.76872102035E+02  0.00000000000E+00 0. -1.
          4    1    6    6  503    0 -0.18541687200E+03 -0.30162135604E+03 -0.77102340041E+02  0.36235290765E+03  0.00000000000E+00 0. -1.
         -4    1    6    6    0  503 -0.54324822078E+02 -0.17705137381E+03 -0.91469094128E+02  0.20655500586E+03  0.00000000000E+00 0.  1.
<mgrwt>
<rscale>  0 0.55717197E+03</rscale>
<asrwt>0</asrwt>
<pdfrwt beam="1">  1        2 0.16917993E+00 0.55717197E+03</pdfrwt>
<pdfrwt beam="2">  1       -2 0.73984685E-01 0.55717197E+03</pdfrwt>
<totfact> 0.37280922E+01</totfact>
</mgrwt>
</event>
<event>
12    1  0.3147868E-008  0.5285058E+03  0.7818608E-02  0.1006595E+00
         -1   -1    0    0    0  501 -0.00000000000E+00  0.00000000000E+00  0.36221738613E+03  0.36221738613E+03  0.00000000000E+00 0.  1.
          1   -1    0    0  501    0  0.00000000000E+00 -0.00000000000E+00 -0.12209620128E+04  0.12209620128E+04  0.00000000000E+00 0. -1.
         23    2    1    2    0    0  0.26879847321E+03 -0.23960280302E+03  0.11089157702E+03  0.38742561916E+03  0.90219433116E+02 0.  0.
    5000000    2    1    2    0    0 -0.26879847321E+03  0.23960280302E+03 -0.96963620372E+03  0.11957537798E+04  0.59997550944E+03 0.  0.
         23    2    4    4    0    0 -0.38949611232E+03 -0.13548912728E+02 -0.48654437508E+03  0.63007094721E+03  0.91505054761E+02 0.  0.
         23    2    4    4    0    0  0.12069763911E+03  0.25315171575E+03 -0.48309182864E+03  0.56568283259E+03  0.89250439315E+02 0.  0.
          5    1    3    3  502    0  0.21033089469E+03 -0.22824325750E+03  0.82001940693E+02  0.32106148653E+03  0.47000000000E+01 0. -1.
         -5    1    3    3    0  502  0.58467578525E+02 -0.11359545520E+02  0.28889636326E+02  0.66364132632E+02  0.47000000000E+01 0.  1.
         11    1    5    5    0    0 -0.23518483750E+03  0.35610501372E+02 -0.27370850763E+03  0.36262427214E+03  0.00000000000E+00 0. -1.
        -11    1    5    5    0    0 -0.15431127482E+03 -0.49159414100E+02 -0.21283586745E+03  0.26744667507E+03  0.00000000000E+00 0.  1.
          2    1    6    6  503    0  0.56660587004E+02  0.55682065139E+02 -0.19524051697E+03  0.21078371371E+03  0.00000000000E+00 0.  1.
         -2    1    6    6    0  503  0.64037052105E+02  0.19746965061E+03 -0.28785131166E+03  0.35489911888E+03  0.00000000000E+00 0. -1.
<mgrwt>
<rscale>  0 0.52850580E+03</rscale>
<asrwt>0</asrwt>
<pdfrwt beam="1">  1        1 0.18784031E+00 0.52850580E+03</pdfrwt>
<pdfrwt beam="2">  1       -1 0.55725751E-01 0.52850580E+03</pdfrwt>
<totfact> 0.35584481E+01</totfact>
</mgrwt>
</event>
<event>
12    1  0.3147868E-008  0.2201612E+03  0.7818608E-02  0.1133763E+00
         -2   -1    0    0    0  501 -0.00000000000E+00  0.00000000000E+00  0.12018043697E+03  0.12018043697E+03  0.00000000000E+00 0.  1.
          2   -1    0    0  501    0  0.00000000000E+00 -0.00000000000E+00 -0.15628507832E+04  0.15628507832E+04  0.00000000000E+00 0. -1.
         23    2    1    2    0    0 -0.12673106649E+03  0.44587846701E+02 -0.70329476228E+03  0.72136139365E+03  0.87692065235E+02 0.  0.
    5000000    2    1    2    0    0  0.12673106649E+03 -0.44587846701E+02 -0.73937558390E+03  0.96166982647E+03  0.60006979744E+03 0.  0.
         23    2    4    4    0    0  0.10861685961E+03 -0.11137383384E+03  0.30359188898E+02  0.18376888685E+03  0.92992313487E+02 0.  0.
         23    2    4    4    0    0  0.18114206881E+02  0.66785987137E+02 -0.76973477280E+03  0.77790093963E+03  0.88598864813E+02 0.  0.
          5    1    3    3  502    0 -0.10090803174E+03 -0.37465011254E+01 -0.52978372314E+03  0.53934158975E+03  0.47000000000E+01 0. -1.
         -5    1    3    3    0  502 -0.25823034751E+02  0.48334347826E+02 -0.17351103915E+03  0.18201980389E+03  0.47000000000E+01 0.  1.
         11    1    5    5    0    0  0.98784490144E+02 -0.50781043181E+02 -0.80393591564E+01  0.11136301511E+03  0.00000000000E+00 0.  1.
        -11    1    5    5    0    0  0.98323694654E+01 -0.60592790657E+02  0.38398548055E+02  0.72405871735E+02  0.00000000000E+00 0. -1.
          3    1    6    6  503    0 -0.17734762884E+02 -0.14518475702E+02 -0.12676898869E+03  0.12882423858E+03  0.00000000000E+00 0.  1.
         -3    1    6    6    0  503  0.35848969765E+02  0.81304462839E+02 -0.64296578411E+03  0.64907670105E+03  0.00000000000E+00 0. -1.
<mgrwt>
<rscale>  0 0.22016122E+03</rscale>
<asrwt>0</asrwt>
<pdfrwt beam="1">  1        2 0.24043855E+00 0.22016122E+03</pdfrwt>
<pdfrwt beam="2">  1       -2 0.18489300E-01 0.22016122E+03</pdfrwt>
<totfact> 0.30875426E+02</totfact>
</mgrwt>
</event>
<event>
12    1  0.3147868E-008  0.5175019E+03  0.7818608E-02  0.1009309E+00
         -1   -1    0    0    0  501 -0.00000000000E+00  0.00000000000E+00  0.19405514189E+03  0.19405514189E+03  0.00000000000E+00 0.  1.
          1   -1    0    0  501    0  0.00000000000E+00 -0.00000000000E+00 -0.18386040550E+04  0.18386040550E+04  0.00000000000E+00 0. -1.
         23    2    1    2    0    0 -0.35071518998E+03 -0.19741520132E+03 -0.30625838716E+03  0.51183266431E+03  0.78769095176E+02 0.  0.
    5000000    2    1    2    0    0  0.35071518998E+03  0.19741520132E+03 -0.13382905259E+04  0.15208265326E+04  0.59993158289E+03 0.  0.
         23    2    4    4    0    0 -0.61487365096E+02  0.19682312330E+03 -0.18783632190E+03  0.29553061588E+03  0.97651539503E+02 0.  0.
         23    2    4    4    0    0  0.41220255507E+03  0.59207802004E+00 -0.11504542040E+04  0.12252959167E+04  0.88847683579E+02 0.  0.
          5    1    3    3  502    0 -0.29805121862E+03 -0.13796074110E+03 -0.22521069349E+03  0.39825825976E+03  0.47000000000E+01 0. -1.
         -5    1    3    3    0  502 -0.52663971358E+02 -0.59454460222E+02 -0.81047693671E+02  0.11357440455E+03  0.47000000000E+01 0.  1.
         13    1    5    5    0    0 -0.52064192133E+02  0.68288933679E+02 -0.28244608413E+02  0.90398099925E+02  0.00000000000E+00 0.  1.
        -13    1    5    5    0    0 -0.94231729627E+01  0.12853418962E+03 -0.15959171348E+03  0.20513251596E+03  0.00000000000E+00 0. -1.
          4    1    6    6  503    0  0.78704010021E+02  0.16949395989E+01 -0.33820862318E+03  0.34724957423E+03  0.00000000000E+00 0. -1.
         -4    1    6    6    0  503  0.33349854505E+03 -0.11028615788E+01 -0.81224558086E+03  0.87804634245E+03  0.00000000000E+00 0.  1.
<mgrwt>
<rscale>  0 0.51750192E+03</rscale>
<asrwt>0</asrwt>
<pdfrwt beam="1">  1        1 0.28286216E+00 0.51750192E+03</pdfrwt>
<pdfrwt beam="2">  1       -1 0.29854638E-01 0.51750192E+03</pdfrwt>
<totfact> 0.42165409E+01</totfact>
</mgrwt>
</event>
<event>
12    1  0.3147868E-008  0.5685901E+03  0.7818608E-02  0.9972803E-01
          2   -1    0    0  501    0  0.00000000000E+00  0.00000000000E+00  0.77047443761E+03  0.77047443761E+03  0.00000000000E+00 0. -1.
         -2   -1    0    0    0  501 -0.00000000000E+00 -0.00000000000E+00 -0.59122115935E+03  0.59122115935E+03  0.00000000000E+00 0.  1.
         23    2    1    2    0    0 -0.27676706293E+03  0.37317856209E+03 -0.20040380951E+03  0.51405997941E+03  0.90739898808E+02 0.  0.
    5000000    2    1    2    0    0  0.27676706293E+03 -0.37317856209E+03  0.37965708777E+03  0.84763561756E+03  0.59873565915E+03 0.  0.
         23    2    4    4    0    0 -0.11623533768E+03 -0.17322047983E+03 -0.39043513363E+02  0.23234070519E+03  0.94561191796E+02 0.  0.
         23    2    4    4    0    0  0.39300240061E+03 -0.19995808226E+03  0.41870060114E+03  0.61529491238E+03  0.94039960951E+02 0.  0.
          5    1    3    3  502    0 -0.24875952498E+03  0.36845808196E+03 -0.18871496771E+03  0.48298870429E+03  0.47000000000E+01 0. -1.
         -5    1    3    3    0  502 -0.28007537953E+02  0.47204801215E+01 -0.11688841798E+02  0.31071275116E+02  0.47000000000E+01 0.  1.
         13    1    5    5    0    0 -0.47208974512E+02 -0.11391962757E+03 -0.62665843053E+02  0.13832344958E+03  0.00000000000E+00 0. -1.
        -13    1    5    5    0    0 -0.69026363167E+02 -0.59300852259E+02  0.23622329690E+02  0.94017255601E+02  0.00000000000E+00 0.  1.
          4    1    6    6  503    0  0.38243659238E+03 -0.17151007132E+03  0.37713407643E+03  0.56382937433E+03  0.00000000000E+00 0. -1.
         -4    1    6    6    0  503  0.10565808234E+02 -0.28448010938E+02  0.41566524709E+02  0.51465538046E+02  0.00000000000E+00 0.  1.
<mgrwt>
<rscale>  0 0.56859007E+03</rscale>
<asrwt>0</asrwt>
<pdfrwt beam="1">  1        2 0.11853453E+00 0.56859007E+03</pdfrwt>
<pdfrwt beam="2">  1       -2 0.90957101E-01 0.56859007E+03</pdfrwt>
<totfact> 0.38507493E+01</totfact>
</mgrwt>
</event>
<event>
12    1  0.3147868E-008  0.1042114E+04  0.7818608E-02  0.9263524E-01
         -2   -1    0    0    0  501 -0.00000000000E+00  0.00000000000E+00  0.11533245393E+04  0.11533245393E+04  0.00000000000E+00 0.  1.
          2   -1    0    0  501    0  0.00000000000E+00 -0.00000000000E+00 -0.12644275000E+04  0.12644275000E+04  0.00000000000E+00 0. -1.
         23    2    1    2    0    0  0.73350431231E+03  0.71405564313E+03 -0.53387157578E+03  0.11579712471E+04  0.89300122720E+02 0.  0.
    5000000    2    1    2    0    0 -0.73350431231E+03 -0.71405564313E+03  0.42276861508E+03  0.12597807923E+04  0.60034182354E+03 0.  0.
         23    2    4    4    0    0 -0.59124010793E+03 -0.42270254825E+03  0.53222707329E+03  0.90555128148E+03  0.92277604710E+02 0.  0.
         23    2    4    4    0    0 -0.14226420438E+03 -0.29135309489E+03 -0.10945845821E+03  0.35422951083E+03  0.91496789657E+02 0.  0.
          5    1    3    3  502    0  0.15382647746E+03  0.13178543252E+03 -0.14370670498E+03  0.24840227947E+03  0.47000000000E+01 0. -1.
         -5    1    3    3    0  502  0.57967783486E+03  0.58227021061E+03 -0.39016487081E+03  0.90956896759E+03  0.47000000000E+01 0.  1.
         13    1    5    5    0    0 -0.13394532435E+03 -0.12150358228E+03  0.17567177997E+03  0.25212109134E+03  0.00000000000E+00 0. -1.
        -13    1    5    5    0    0 -0.45729478358E+03 -0.30119896597E+03  0.35655529331E+03  0.65343019014E+03  0.00000000000E+00 0.  1.
          3    1    6    6  503    0  0.52013404244E+01 -0.38462560713E+02 -0.34764359072E+02  0.52105500482E+02  0.00000000000E+00 0. -1.
         -3    1    6    6    0  503 -0.14746554481E+03 -0.25289053418E+03 -0.74694099137E+02  0.30212401035E+03  0.00000000000E+00 0.  1.
<mgrwt>
<rscale>  0 0.10421137E+04</rscale>
<asrwt>0</asrwt>
<pdfrwt beam="1">  1        2 0.19452731E+00 0.10421137E+04</pdfrwt>
<pdfrwt beam="2">  1       -2 0.17743454E+00 0.10421137E+04</pdfrwt>
<totfact> 0.32336336E+00</totfact>
</mgrwt>
</event>
<event>
12    1  0.3147868E-008  0.1034280E+04  0.7818608E-02  0.9271726E-01
          2   -1    0    0  501    0  0.00000000000E+00  0.00000000000E+00  0.10550913313E+04  0.10550913313E+04  0.00000000000E+00 0.  1.
         -2   -1    0    0    0  501 -0.00000000000E+00 -0.00000000000E+00 -0.11003753955E+04  0.11003753955E+04  0.00000000000E+00 0. -1.
         23    2    1    2    0    0  0.38177814476E+03  0.89766341909E+03 -0.20062145990E+03  0.99959562969E+03  0.85955144961E+02 0.  0.
    5000000    2    1    2    0    0 -0.38177814476E+03 -0.89766341909E+03  0.15533739566E+03  0.11558710970E+04  0.60029502806E+03 0.  0.
         23    2    4    4    0    0 -0.47434046415E+03 -0.56873474322E+03  0.25424218009E+03  0.78832338223E+03  0.91414357511E+02 0.  0.
         23    2    4    4    0    0  0.92562319394E+02 -0.32892867587E+03 -0.98904784436E+02  0.36754771482E+03  0.92451660348E+02 0.  0.
          5    1    3    3  502    0  0.21395531049E+03  0.53489290291E+03 -0.15927191973E+03  0.59772646494E+03  0.47000000000E+01 0. -1.
         -5    1    3    3    0  502  0.16782283427E+03  0.36277051618E+03 -0.41349540167E+02  0.40186916475E+03  0.47000000000E+01 0.  1.
         11    1    5    5    0    0 -0.36943353496E+03 -0.38163734386E+03  0.19461796016E+03  0.56568926929E+03  0.00000000000E+00 0. -1.
        -11    1    5    5    0    0 -0.10490692919E+03 -0.18709739936E+03  0.59624219938E+02  0.22263411294E+03  0.00000000000E+00 0.  1.
          2    1    6    6  503    0  0.41365769407E+02 -0.24699902816E+03 -0.10313693488E+03  0.27084474174E+03  0.00000000000E+00 0. -1.
         -2    1    6    6    0  503  0.51196549988E+02 -0.81929647706E+02  0.42321504471E+01  0.96702973073E+02  0.00000000000E+00 0.  1.
<mgrwt>
<rscale>  0 0.10342801E+04</rscale>
<asrwt>0</asrwt>
<pdfrwt beam="1">  1        2 0.16232174E+00 0.10342801E+04</pdfrwt>
<pdfrwt beam="2">  1       -2 0.16928852E+00 0.10342801E+04</pdfrwt>
<totfact> 0.49489593E+00</totfact>
</mgrwt>
</event>
<event>
12    1  0.3147868E-008  0.1285420E+04  0.7818608E-02  0.9041208E-01
         -2   -1    0    0    0  501 -0.00000000000E+00  0.00000000000E+00  0.73826293365E+03  0.73826293365E+03  0.00000000000E+00 0.  1.
          2   -1    0    0  501    0  0.00000000000E+00 -0.00000000000E+00 -0.23167756243E+04  0.23167756243E+04  0.00000000000E+00 0. -1.
         23    2    1    2    0    0  0.12313702511E+04 -0.60730723084E+02 -0.87012646909E+03  0.15117395483E+04  0.90969629898E+02 0.  0.
    5000000    2    1    2    0    0 -0.12313702511E+04  0.60730723084E+02 -0.70838622158E+03  0.15432990097E+04  0.59999989850E+03 0.  0.
         23    2    4    4    0    0 -0.52178935284E+03  0.28025617616E+03 -0.45868283710E+03  0.75478729335E+03  0.92229388632E+02 0.  0.
         23    2    4    4    0    0 -0.70958089830E+03 -0.21952545308E+03 -0.24970338448E+03  0.78851171633E+03  0.87763721316E+02 0.  0.
          5    1    3    3  502    0  0.64302331331E+03 -0.31019794592E+02 -0.50951592457E+03  0.82101752509E+03  0.47000000000E+01 0. -1.
         -5    1    3    3    0  502  0.58834693784E+03 -0.29710928492E+02 -0.36061054452E+03  0.69072202322E+03  0.47000000000E+01 0.  1.
         11    1    5    5    0    0 -0.47098107864E+03  0.23991849567E+03 -0.37126371393E+03  0.64592631645E+03  0.00000000000E+00 0. -1.
        -11    1    5    5    0    0 -0.50808274208E+02  0.40337680494E+02 -0.87419123170E+02  0.10886097690E+03  0.00000000000E+00 0.  1.
          3    1    6    6  503    0 -0.36441982830E+03 -0.13927238409E+03 -0.16849415443E+03  0.42495751353E+03  0.00000000000E+00 0. -1.
         -3    1    6    6    0  503 -0.34516107001E+03 -0.80253068994E+02 -0.81209230058E+02  0.36355420280E+03  0.00000000000E+00 0.  1.
<mgrwt>
<rscale>  0 0.12854199E+04</rscale>
<asrwt>0</asrwt>
<pdfrwt beam="1">  1        2 0.35642701E+00 0.12854199E+04</pdfrwt>
<pdfrwt beam="2">  1       -2 0.11357892E+00 0.12854199E+04</pdfrwt>
<totfact> 0.26161810E+00</totfact>
</mgrwt>
</event>
<event>
12    1  0.3147868E-008  0.1154501E+04  0.7818608E-02  0.9153641E-01
          2   -1    0    0  501    0  0.00000000000E+00  0.00000000000E+00  0.35436493097E+04  0.35436493097E+04  0.00000000000E+00 0. -1.
         -2   -1    0    0    0  501 -0.00000000000E+00 -0.00000000000E+00 -0.41127665245E+03  0.41127665245E+03  0.00000000000E+00 0.  1.
         23    2    1    2    0    0 -0.90797904879E+03 -0.62492941450E+03  0.10594123001E+04  0.15316807236E+04  0.93427466499E+02 0.  0.
    5000000    2    1    2    0    0  0.90797904879E+03  0.62492941450E+03  0.20729603572E+04  0.24232452386E+04  0.59999176441E+03 0.  0.
         23    2    4    4    0    0  0.19704137930E+03 -0.61421506372E+02  0.65331001469E+03  0.69112487845E+03  0.90783895662E+02 0.  0.
         23    2    4    4    0    0  0.71093766949E+03  0.68635092088E+03  0.14196503426E+04  0.17321203601E+04  0.91235356795E+02 0.  0.
          5    1    3    3  502    0 -0.62602370687E+03 -0.46981111698E+03  0.71213140967E+03  0.10581972415E+04  0.47000000000E+01 0. -1.
         -5    1    3    3    0  502 -0.28195534192E+03 -0.15511829752E+03  0.34728089038E+03  0.47348348216E+03  0.47000000000E+01 0.  1.
         13    1    5    5    0    0  0.19554631086E+03 -0.51486938339E+02  0.64971453230E+03  0.68045443491E+03  0.00000000000E+00 0. -1.
        -13    1    5    5    0    0  0.14950684379E+01 -0.99345680325E+01  0.35954823940E+01  0.10670443537E+02  0.00000000000E+00 0.  1.
          1    1    6    6  503    0  0.28230389579E+03  0.21332949387E+03  0.48946304100E+03  0.60396939578E+03  0.00000000000E+00 0. -1.
         -1    1    6    6    0  503  0.42863377370E+03  0.47302142701E+03  0.93018730155E+03  0.11281509643E+04  0.00000000000E+00 0.  1.
<mgrwt>
<rscale>  0 0.11545007E+04</rscale>
<asrwt>0</asrwt>
<pdfrwt beam="1">  1        2 0.54517680E+00 0.11545007E+04</pdfrwt>
<pdfrwt beam="2">  1       -2 0.63273334E-01 0.11545007E+04</pdfrwt>
<totfact> 0.17755887E+00</totfact>
</mgrwt>
</event>
<event>
12    1  0.3147868E-008  0.4643468E+03  0.7818608E-02  0.1023528E+00
         -1   -1    0    0    0  501 -0.00000000000E+00  0.00000000000E+00  0.11153853504E+04  0.11153853504E+04  0.00000000000E+00 0.  1.
          1   -1    0    0  501    0  0.00000000000E+00 -0.00000000000E+00 -0.25179045337E+03  0.25179045337E+03  0.00000000000E+00 0. -1.
         23    2    1    2    0    0 -0.33376171715E+02  0.30950899486E+03  0.50908092972E+03  0.60380109626E+03  0.92209457734E+02 0.  0.
    5000000    2    1    2    0    0  0.33376171715E+02 -0.30950899486E+03  0.35451396732E+03  0.76337470753E+03  0.60012582375E+03 0.  0.
         23    2    4    4    0    0  0.16573356980E+03  0.66868388041E+02  0.28423314622E+03  0.34777957978E+03  0.90681625594E+02 0.  0.
         23    2    4    4    0    0 -0.13235739809E+03 -0.37637738290E+03  0.70280821098E+02  0.41559512775E+03  0.92744278588E+02 0.  0.
          5    1    3    3  502    0  0.39928666642E+01  0.26048973009E+03  0.38093648439E+03  0.46152522965E+03  0.47000000000E+01 0. -1.
         -5    1    3    3    0  502 -0.37369038380E+02  0.49019264766E+02  0.12814444533E+03  0.14227586660E+03  0.47000000000E+01 0.  1.
         13    1    5    5    0    0  0.79339801257E+02  0.76236566834E+02  0.19025627692E+03  0.21978232207E+03  0.00000000000E+00 0. -1.
        -13    1    5    5    0    0  0.86393768545E+02 -0.93681787934E+01  0.93976869303E+02  0.12799725771E+03  0.00000000000E+00 0.  1.
          1    1    6    6  503    0 -0.89111651131E+02 -0.12047013672E+03  0.32407293509E+02  0.15331070700E+03  0.00000000000E+00 0. -1.
         -1    1    6    6    0  503 -0.43245746956E+02 -0.25590724618E+03  0.37873527589E+02  0.26228442075E+03  0.00000000000E+00 0.  1.
<mgrwt>
<rscale>  0 0.46434677E+03</rscale>
<asrwt>0</asrwt>
<pdfrwt beam="1">  1        1 0.38736993E-01 0.46434677E+03</pdfrwt>
<pdfrwt beam="2">  1       -1 0.17159774E+00 0.46434677E+03</pdfrwt>
<totfact> 0.27926513E+01</totfact>
</mgrwt>
</event>
<event>
12    1  0.3147868E-008  0.9053785E+03  0.7818608E-02  0.9418883E-01
         -2   -1    0    0    0  501 -0.00000000000E+00  0.00000000000E+00  0.76180048316E+03  0.76180048316E+03  0.00000000000E+00 0.  1.
          2   -1    0    0  501    0  0.00000000000E+00 -0.00000000000E+00 -0.12657596220E+04  0.12657596220E+04  0.00000000000E+00 0. -1.
         23    2    1    2    0    0  0.74822275640E+03 -0.46923934083E+03 -0.32635348177E+03  0.94513899692E+03  0.82208735897E+02 0.  0.
    5000000    2    1    2    0    0 -0.74822275640E+03  0.46923934083E+03 -0.17760565709E+03  0.10824211083E+04  0.60005735891E+03 0.  0.
         23    2    4    4    0    0 -0.48396551136E+03  0.43060320405E+03 -0.36010102298E+03  0.74679098345E+03  0.91554850703E+02 0.  0.
         23    2    4    4    0    0 -0.26425724505E+03  0.38636136781E+02  0.18249536590E+03  0.33563012481E+03  0.89545404570E+02 0.  0.
          5    1    3    3  502    0  0.30214518784E+03 -0.23060595642E+03 -0.11822897732E+03  0.39808416540E+03  0.47000000000E+01 0. -1.
         -5    1    3    3    0  502  0.44607756857E+03 -0.23863338442E+03 -0.20812450445E+03  0.54705483152E+03  0.47000000000E+01 0.  1.
         11    1    5    5    0    0 -0.44924242985E+03  0.36330228125E+03 -0.30663759609E+03  0.65409014950E+03  0.00000000000E+00 0.  1.
        -11    1    5    5    0    0 -0.34723081502E+02  0.67300922806E+02 -0.53463426896E+02  0.92700833949E+02  0.00000000000E+00 0. -1.
          3    1    6    6  503    0 -0.11011540997E+03  0.39776647842E+02  0.34786607273E+02  0.12213800912E+03  0.00000000000E+00 0. -1.
         -3    1    6    6    0  503 -0.15414183507E+03 -0.11405110618E+01  0.14770875862E+03  0.21349211568E+03  0.00000000000E+00 0.  1.
<mgrwt>
<rscale>  0 0.90537846E+03</rscale>
<asrwt>0</asrwt>
<pdfrwt beam="1">  1        2 0.19473225E+00 0.90537846E+03</pdfrwt>
<pdfrwt beam="2">  1       -2 0.11720007E+00 0.90537846E+03</pdfrwt>
<totfact> 0.97703095E+00</totfact>
</mgrwt>
</event>
<event>
12    1  0.3147868E-008  0.5759732E+03  0.7818608E-02  0.9956547E-01
          2   -1    0    0  501    0  0.00000000000E+00  0.00000000000E+00  0.10151582421E+04  0.10151582421E+04  0.00000000000E+00 0. -1.
         -2   -1    0    0    0  501 -0.00000000000E+00 -0.00000000000E+00 -0.53145313422E+03  0.53145313422E+03  0.00000000000E+00 0.  1.
         23    2    1    2    0    0  0.78737795385E+02 -0.52368314714E+03  0.51649359067E+03  0.74566296583E+03  0.93829368500E+02 0.  0.
    5000000    2    1    2    0    0 -0.78737795385E+02  0.52368314714E+03 -0.32788482813E+02  0.80094841046E+03  0.59999966049E+03 0.  0.
         23    2    4    4    0    0  0.10714575748E+03  0.18316045179E+03 -0.25447069482E+03  0.34491360822E+03  0.95823265273E+02 0.  0.
         23    2    4    4    0    0 -0.18588355287E+03  0.34052269535E+03  0.22168221200E+03  0.45603480224E+03  0.91193949681E+02 0.  0.
          5    1    3    3  502    0  0.23254109477E+02 -0.20235467966E+03  0.13812487926E+03  0.24614780572E+03  0.47000000000E+01 0. -1.
         -5    1    3    3    0  502  0.55483685908E+02 -0.32132846748E+03  0.37836871141E+03  0.49951516012E+03  0.47000000000E+01 0.  1.
         11    1    5    5    0    0  0.92925974036E+02  0.85272558580E+02 -0.18554873687E+03  0.22435458464E+03  0.00000000000E+00 0.  1.
        -11    1    5    5    0    0  0.14219783447E+02  0.97887893206E+02 -0.68921957951E+02  0.12055902358E+03  0.00000000000E+00 0. -1.
          1    1    6    6  503    0 -0.44688393459E+02  0.16941264319E+03  0.11739463985E+03  0.21090091903E+03  0.00000000000E+00 0. -1.
         -1    1    6    6    0  503 -0.14119515941E+03  0.17111005216E+03  0.10428757216E+03  0.24513388321E+03  0.00000000000E+00 0.  1.
<mgrwt>
<rscale>  0 0.57597319E+03</rscale>
<asrwt>0</asrwt>
<pdfrwt beam="1">  1        2 0.15617819E+00 0.57597319E+03</pdfrwt>
<pdfrwt beam="2">  1       -2 0.81762021E-01 0.57597319E+03</pdfrwt>
<totfact> 0.33568226E+01</totfact>
</mgrwt>
</event>
<event>
12    1  0.3147868E-008  0.7975570E+03  0.7818608E-02  0.9563560E-01
         -2   -1    0    0    0  501 -0.00000000000E+00  0.00000000000E+00  0.61520625376E+03  0.61520625376E+03  0.00000000000E+00 0.  1.
          2   -1    0    0  501    0  0.00000000000E+00 -0.00000000000E+00 -0.10679676624E+04  0.10679676624E+04  0.00000000000E+00 0. -1.
         23    2    1    2    0    0 -0.61317934610E+03  0.32788191513E+03 -0.15939119487E+03  0.71898959169E+03  0.89694031060E+02 0.  0.
    5000000    2    1    2    0    0  0.61317934610E+03 -0.32788191513E+03 -0.29337021379E+03  0.96418432448E+03  0.60007488573E+03 0.  0.
         23    2    4    4    0    0  0.52574915875E+03 -0.47818227853E+03 -0.26459499399E+03  0.76345489433E+03  0.88217885994E+02 0.  0.
         23    2    4    4    0    0  0.87430187350E+02  0.15030036340E+03 -0.28775219806E+02  0.20072943015E+03  0.96073169813E+02 0.  0.
          5    1    3    3  502    0 -0.38974727657E+03  0.15898990219E+03 -0.98528209655E+02  0.43233161657E+03  0.47000000000E+01 0. -1.
         -5    1    3    3    0  502 -0.22343206953E+03  0.16889201294E+03 -0.60862985215E+02  0.28665797512E+03  0.47000000000E+01 0.  1.
         13    1    5    5    0    0  0.15683428906E+03 -0.16513114025E+03 -0.45122993003E+02  0.23216669056E+03  0.00000000000E+00 0.  1.
        -13    1    5    5    0    0  0.36891486968E+03 -0.31305113827E+03 -0.21947200098E+03  0.53128820377E+03  0.00000000000E+00 0. -1.
          3    1    6    6  503    0  0.63838316901E+02  0.54940341552E+02 -0.53050417140E+02  0.99539532817E+02  0.00000000000E+00 0. -1.
         -3    1    6    6    0  503  0.23591870449E+02  0.95360021845E+02  0.24275197335E+02  0.10118989734E+03  0.00000000000E+00 0.  1.
<mgrwt>
<rscale>  0 0.79755697E+03</rscale>
<asrwt>0</asrwt>
<pdfrwt beam="1">  1        2 0.16430272E+00 0.79755697E+03</pdfrwt>
<pdfrwt beam="2">  1       -2 0.94647117E-01 0.79755697E+03</pdfrwt>
<totfact> 0.21707728E+01</totfact>
</mgrwt>
</event>
<event>
12    1  0.3147868E-008  0.1802992E+04  0.7818608E-02  0.8704710E-01
          2   -1    0    0  501    0  0.00000000000E+00  0.00000000000E+00  0.24591809454E+04  0.24591809454E+04  0.00000000000E+00 0. -1.
         -2   -1    0    0    0  501 -0.00000000000E+00 -0.00000000000E+00 -0.17791124783E+04  0.17791124783E+04  0.00000000000E+00 0.  1.
         23    2    1    2    0    0  0.10525939446E+04 -0.14402673323E+04 -0.68516004914E+03  0.19131900912E+04  0.92347339822E+02 0.  0.
    5000000    2    1    2    0    0 -0.10525939446E+04  0.14402673323E+04  0.13652285162E+04  0.23251033326E+04  0.59994383493E+03 0.  0.
         23    2    4    4    0    0 -0.60297862959E+02  0.49750577419E+02 -0.23246307265E+02  0.12180236799E+03  0.90468081750E+02 0.  0.
         23    2    4    4    0    0 -0.99229608165E+03  0.13905167549E+04  0.13884748235E+04  0.22033009646E+04  0.92111052333E+02 0.  0.
          5    1    3    3  502    0  0.79819555694E+03 -0.10880721473E+04 -0.47573008405E+03  0.14308593039E+04  0.47000000000E+01 0. -1.
         -5    1    3    3    0  502  0.25439838767E+03 -0.35219518503E+03 -0.20942996509E+03  0.48233078720E+03  0.47000000000E+01 0.  1.
         11    1    5    5    0    0 -0.72626394394E+02  0.12037495612E+02  0.39114446552E+01  0.73721054405E+02  0.00000000000E+00 0. -1.
        -11    1    5    5    0    0  0.12328531435E+02  0.37713081806E+02 -0.27157751920E+02  0.48081313585E+02  0.00000000000E+00 0.  1.
          4    1    6    6  503    0 -0.60111958315E+03  0.87582687534E+03  0.91457503921E+03  0.14017364129E+04  0.00000000000E+00 0.  1.
         -4    1    6    6    0  503 -0.39117649850E+03  0.51468987956E+03  0.47389978426E+03  0.80156455175E+03  0.00000000000E+00 0. -1.
<mgrwt>
<rscale>  0 0.18029923E+04</rscale>
<asrwt>0</asrwt>
<pdfrwt beam="1">  1        2 0.37833553E+00 0.18029923E+04</pdfrwt>
<pdfrwt beam="2">  1       -2 0.27370961E+00 0.18029923E+04</pdfrwt>
<totfact> 0.15316148E-01</totfact>
</mgrwt>
</event>
<event>
12    1  0.3147868E-008  0.8097219E+03  0.7818608E-02  0.9546051E-01
          1   -1    0    0  501    0  0.00000000000E+00  0.00000000000E+00  0.12540249134E+04  0.12540249134E+04  0.00000000000E+00 0. -1.
         -1   -1    0    0    0  501 -0.00000000000E+00 -0.00000000000E+00 -0.64686218578E+03  0.64686218578E+03  0.00000000000E+00 0.  1.
         23    2    1    2    0    0  0.59011192027E+03  0.53521824912E+03  0.22119544665E+03  0.83149872637E+03  0.88159251967E+02 0.  0.
    5000000    2    1    2    0    0 -0.59011192027E+03 -0.53521824912E+03  0.38596728095E+03  0.10693883728E+04  0.59994174489E+03 0.  0.
         23    2    4    4    0    0 -0.16803227202E+03 -0.51445304963E+02 -0.13442402551E+03  0.23806917364E+03  0.87895670891E+02 0.  0.
         23    2    4    4    0    0 -0.42207964825E+03 -0.48377294416E+03  0.52039130646E+03  0.83131919915E+03  0.89983376626E+02 0.  0.
          5    1    3    3  502    0  0.17820085423E+03  0.14404686047E+03  0.10295170439E+03  0.25124925054E+03  0.47000000000E+01 0. -1.
         -5    1    3    3    0  502  0.41191106603E+03  0.39117138865E+03  0.11824374227E+03  0.58024947583E+03  0.47000000000E+01 0.  1.
         13    1    5    5    0    0 -0.11642764908E+03 -0.36085479219E+02 -0.13798134904E+03  0.18410978237E+03  0.00000000000E+00 0. -1.
        -13    1    5    5    0    0 -0.51604622947E+02 -0.15359825744E+02  0.35573235307E+01  0.53959391278E+02  0.00000000000E+00 0.  1.
          2    1    6    6  503    0 -0.13409419454E+03 -0.10327460209E+03  0.16453050357E+03  0.23604487508E+03  0.00000000000E+00 0. -1.
         -2    1    6    6    0  503 -0.28798545371E+03 -0.38049834206E+03  0.35586080289E+03  0.59527432407E+03  0.00000000000E+00 0.  1.
<mgrwt>
<rscale>  0 0.80972193E+03</rscale>
<asrwt>0</asrwt>
<pdfrwt beam="1">  1        1 0.19292691E+00 0.80972193E+03</pdfrwt>
<pdfrwt beam="2">  1       -1 0.99517260E-01 0.80972193E+03</pdfrwt>
<totfact> 0.96597613E+00</totfact>
</mgrwt>
</event>
<event>
12    1  0.3147868E-008  0.1147603E+04  0.7818608E-02  0.9159998E-01
          2   -1    0    0  501    0  0.00000000000E+00  0.00000000000E+00  0.17608768682E+04  0.17608768682E+04  0.00000000000E+00 0. -1.
         -2   -1    0    0    0  501 -0.00000000000E+00 -0.00000000000E+00 -0.12673359859E+04  0.12673359859E+04  0.00000000000E+00 0.  1.
         23    2    1    2    0    0 -0.10422687671E+04 -0.46974140954E+03 -0.63709381306E+03  0.13119504598E+04  0.91347180988E+02 0.  0.
    5000000    2    1    2    0    0  0.10422687671E+04  0.46974140954E+03  0.11306346953E+04  0.17162623943E+04  0.60020048077E+03 0.  0.
         23    2    4    4    0    0  0.89715699644E+03  0.42450008649E+03  0.61503653006E+03  0.11711048253E+04  0.90141993043E+02 0.  0.
         23    2    4    4    0    0  0.14511177070E+03  0.45241323052E+02  0.51559816525E+03  0.54515756899E+03  0.90835586146E+02 0.  0.
          5    1    3    3  502    0 -0.43580384569E+03 -0.19846197590E+03 -0.21595122954E+03  0.52532767997E+03  0.47000000000E+01 0. -1.
         -5    1    3    3    0  502 -0.60646492145E+03 -0.27127943364E+03 -0.42114258352E+03  0.78662277981E+03  0.47000000000E+01 0.  1.
         11    1    5    5    0    0  0.57736547737E+02  0.45106895740E+01  0.38896659609E+02  0.69762492744E+02  0.00000000000E+00 0. -1.
        -11    1    5    5    0    0  0.83942044871E+03  0.41998939691E+03  0.57613987046E+03  0.11013423326E+04  0.00000000000E+00 0.  1.
          2    1    6    6  503    0  0.11031682040E+03  0.48366547884E+02  0.25260537520E+03  0.27985460403E+03  0.00000000000E+00 0. -1.
         -2    1    6    6    0  503  0.34794950291E+02 -0.31252248322E+01  0.26299279005E+03  0.26530296496E+03  0.00000000000E+00 0.  1.
<mgrwt>
<rscale>  0 0.11476028E+04</rscale>
<asrwt>0</asrwt>
<pdfrwt beam="1">  1        2 0.27090413E+00 0.11476028E+04</pdfrwt>
<pdfrwt beam="2">  1       -2 0.19497477E+00 0.11476028E+04</pdfrwt>
<totfact> 0.12717757E+00</totfact>
</mgrwt>
</event>
<event>
12    1  0.3147868E-008  0.4673126E+03  0.7818608E-02  0.1022681E+00
         -2   -1    0    0    0  501 -0.00000000000E+00  0.00000000000E+00  0.39552689007E+03  0.39552689007E+03  0.00000000000E+00 0.  1.
          2   -1    0    0  501    0  0.00000000000E+00 -0.00000000000E+00 -0.13598243260E+04  0.13598243260E+04  0.00000000000E+00 0. -1.
         23    2    1    2    0    0  0.29384875023E+03  0.56235469746E+01 -0.10388327713E+04  0.10830990954E+04  0.86898857539E+02 0.  0.
    5000000    2    1    2    0    0 -0.29384875023E+03 -0.56235469746E+01  0.74535335344E+02  0.67225212070E+03  0.59999057099E+03 0.  0.
         23    2    4    4    0    0 -0.32863206598E+03  0.23068590232E+03  0.42917902622E+02  0.41407942590E+03  0.91677719580E+02 0.  0.
         23    2    4    4    0    0  0.34783315744E+02 -0.23630944930E+03  0.31617432722E+02  0.25817269480E+03  0.92743966964E+02 0.  0.
          5    1    3    3  502    0  0.12962800866E+03 -0.14480422796E+00 -0.31164994408E+03  0.33756661452E+03  0.47000000000E+01 0. -1.
         -5    1    3    3    0  502  0.16422074157E+03  0.57683512025E+01 -0.72718282723E+03  0.74553248089E+03  0.47000000000E+01 0.  1.
         13    1    5    5    0    0 -0.21605453145E+03  0.15406163761E+03 -0.15695489272E+02  0.26582117509E+03  0.00000000000E+00 0.  1.
        -13    1    5    5    0    0 -0.11257753453E+03  0.76624264711E+02  0.58613391894E+02  0.14825825081E+03  0.00000000000E+00 0. -1.
          1    1    6    6  503    0  0.13284500054E+02 -0.65939147282E+02  0.52308380921E+02  0.85209247154E+02  0.00000000000E+00 0. -1.
         -1    1    6    6    0  503  0.21498815690E+02 -0.17037030202E+03 -0.20690948200E+02  0.17296344765E+03  0.00000000000E+00 0.  1.
<mgrwt>
<rscale>  0 0.46731263E+03</rscale>
<asrwt>0</asrwt>
<pdfrwt beam="1">  1        2 0.20920374E+00 0.46731263E+03</pdfrwt>
<pdfrwt beam="2">  1       -2 0.60850291E-01 0.46731263E+03</pdfrwt>
<totfact> 0.40634713E+01</totfact>
</mgrwt>
</event>
<event>
12    1  0.3147868E-008  0.1115222E+04  0.7818608E-02  0.9190481E-01
          2   -1    0    0  501    0  0.00000000000E+00  0.00000000000E+00  0.18495607923E+04  0.18495607923E+04  0.00000000000E+00 0. -1.
         -2   -1    0    0    0  501 -0.00000000000E+00 -0.00000000000E+00 -0.72771418870E+03  0.72771418870E+03  0.00000000000E+00 0.  1.
         23    2    1    2    0    0  0.10364131322E+04  0.33563896732E+02  0.86132694915E+03  0.13511427902E+04  0.91782408173E+02 0.  0.
    5000000    2    1    2    0    0 -0.10364131322E+04 -0.33563896732E+02  0.26051965449E+03  0.12261321908E+04  0.60020908281E+03 0.  0.
         23    2    4    4    0    0 -0.45287529175E+03 -0.29940007148E+03  0.11167230387E+03  0.56167676823E+03  0.90959638563E+02 0.  0.
         23    2    4    4    0    0 -0.58353784050E+03  0.26583617475E+03  0.14884735062E+03  0.66445542256E+03  0.90333779369E+02 0.  0.
          5    1    3    3  502    0  0.61000600242E+03  0.49399604877E+02  0.46334784536E+03  0.76763334982E+03  0.47000000000E+01 0.  1.
         -5    1    3    3    0  502  0.42640712982E+03 -0.15835708145E+02  0.39797910378E+03  0.58350944042E+03  0.47000000000E+01 0.  1.
         11    1    5    5    0    0 -0.45673663751E+03 -0.30013888052E+03  0.11107904162E+03  0.55770086707E+03  0.00000000000E+00 0.  1.
        -11    1    5    5    0    0  0.38613457665E+01  0.73880904594E+00  0.59326224560E+00  0.39759011591E+01  0.00000000000E+00 0. -1.
          1    1    6    6  503    0 -0.12168893383E+03  0.55657260468E+02 -0.59478576322E+01  0.13394515396E+03  0.00000000000E+00 0. -1.
         -1    1    6    6    0  503 -0.46184890667E+03  0.21017891428E+03  0.15479520825E+03  0.53051026860E+03  0.00000000000E+00 0.  1.
<mgrwt>
<rscale>  0 0.11152219E+04</rscale>
<asrwt>0</asrwt>
<pdfrwt beam="1">  1        2 0.28454781E+00 0.11152219E+04</pdfrwt>
<pdfrwt beam="2">  1       -2 0.11195603E+00 0.11152219E+04</pdfrwt>
<totfact> 0.50220148E+00</totfact>
</mgrwt>
</event>
<event>
12    1  0.3147868E-008  0.1086891E+04  0.7818608E-02  0.9218064E-01
         -1   -1    0    0    0  501 -0.00000000000E+00  0.00000000000E+00  0.87341594276E+03  0.87341594276E+03  0.00000000000E+00 0.  1.
          1   -1    0    0  501    0  0.00000000000E+00 -0.00000000000E+00 -0.15001836792E+04  0.15001836792E+04  0.00000000000E+00 0. -1.
         23    2    1    2    0    0 -0.51701936792E+03 -0.92631983176E+03 -0.37605836921E+03  0.11292824200E+04  0.92094677339E+02 0.  0.
    5000000    2    1    2    0    0  0.51701936792E+03  0.92631983176E+03 -0.25070936724E+03  0.12443172020E+04  0.60007720732E+03 0.  0.
         23    2    4    4    0    0  0.22074992414E+02 -0.89653049387E+01 -0.15109968877E+03  0.17746718394E+03  0.89976682786E+02 0.  0.
         23    2    4    4    0    0  0.49494437551E+03  0.93528513670E+03 -0.99609678473E+02  0.10668500180E+04  0.92296539083E+02 0.  0.
          5    1    3    3  502    0 -0.13049616462E+03 -0.16468590770E+03 -0.88727573924E+02  0.22813454265E+03  0.47000000000E+01 0. -1.
         -5    1    3    3    0  502 -0.38652320330E+03 -0.76163392405E+03 -0.28733079528E+03  0.90114787736E+03  0.47000000000E+01 0.  1.
         11    1    5    5    0    0  0.30920141841E+02  0.71379047260E+01 -0.15539266180E+03  0.15859976102E+03  0.00000000000E+00 0. -1.
        -11    1    5    5    0    0 -0.88451494266E+01 -0.16103209665E+02  0.42929730317E+01  0.18867422912E+02  0.00000000000E+00 0.  1.
          1    1    6    6  503    0  0.17629238226E+03  0.28274305411E+03 -0.67387494741E+02  0.33994663278E+03  0.00000000000E+00 0. -1.
         -1    1    6    6    0  503  0.31865199325E+03  0.65254208258E+03 -0.32222183733E+02  0.72690338523E+03  0.00000000000E+00 0.  1.
<mgrwt>
<rscale>  0 0.10868906E+04</rscale>
<asrwt>0</asrwt>
<pdfrwt beam="1">  1        1 0.23079749E+00 0.10868906E+04</pdfrwt>
<pdfrwt beam="2">  1       -1 0.13437168E+00 0.10868906E+04</pdfrwt>
<totfact> 0.30321002E+00</totfact>
</mgrwt>
</event>
<event>
12    1  0.3147868E-008  0.1730086E+04  0.7818608E-02  0.8744389E-01
          2   -1    0    0  501    0  0.00000000000E+00  0.00000000000E+00  0.15300016250E+04  0.15300016250E+04  0.00000000000E+00 0. -1.
         -2   -1    0    0    0  501 -0.00000000000E+00 -0.00000000000E+00 -0.20473913965E+04  0.20473913965E+04  0.00000000000E+00 0.  1.
         23    2    1    2    0    0 -0.16201046368E+04 -0.47657549194E+03 -0.56950701258E+03  0.17844614915E+04  0.90007464910E+02 0.  0.
    5000000    2    1    2    0    0  0.16201046368E+04  0.47657549194E+03  0.52117241059E+02  0.17929315299E+04  0.60002002497E+03 0.  0.
         23    2    4    4    0    0  0.15103584957E+04  0.29279414175E+03  0.13329759856E+03  0.15465973431E+04  0.85345748983E+02 0.  0.
         23    2    4    4    0    0  0.10974614106E+03  0.18378135019E+03 -0.81180357502E+02  0.24633418677E+03  0.90942184783E+02 0.  0.
          5    1    3    3  502    0 -0.82783303156E+03 -0.27912296270E+03 -0.32484121781E+03  0.93207352888E+03  0.47000000000E+01 0. -1.
         -5    1    3    3    0  502 -0.79227160524E+03 -0.19745252924E+03 -0.24466579477E+03  0.85238796267E+03  0.47000000000E+01 0.  1.
         11    1    5    5    0    0  0.11822819468E+04  0.20266245090E+03  0.12786553074E+03  0.12063217915E+04  0.00000000000E+00 0. -1.
        -11    1    5    5    0    0  0.32807654899E+03  0.90131690855E+02  0.54320678223E+01  0.34027555166E+03  0.00000000000E+00 0.  1.
          1    1    6    6  503    0 -0.17447958547E+01  0.73224892444E+02 -0.42287244590E+02  0.84576239223E+02  0.00000000000E+00 0. -1.
         -1    1    6    6    0  503  0.11149093691E+03  0.11055645774E+03 -0.38893112912E+02  0.16175794754E+03  0.00000000000E+00 0.  1.
<mgrwt>
<rscale>  0 0.17300858E+04</rscale>
<asrwt>0</asrwt>
<pdfrwt beam="1">  1        2 0.23538487E+00 0.17300858E+04</pdfrwt>
<pdfrwt beam="2">  1       -2 0.31498329E+00 0.17300858E+04</pdfrwt>
<totfact> 0.28850160E-01</totfact>
</mgrwt>
</event>
<event>
12    1  0.3147868E-008  0.1595980E+04  0.7818608E-02  0.8823022E-01
         -2   -1    0    0    0  501 -0.00000000000E+00  0.00000000000E+00  0.17092853801E+04  0.17092853801E+04  0.00000000000E+00 0.  1.
          2   -1    0    0  501    0  0.00000000000E+00 -0.00000000000E+00 -0.16150270774E+04  0.16150270774E+04  0.00000000000E+00 0. -1.
         23    2    1    2    0    0  0.10660114256E+03 -0.15700678732E+04 -0.27537040317E+03  0.16000283630E+04  0.88232497141E+02 0.  0.
    5000000    2    1    2    0    0 -0.10660114256E+03  0.15700678732E+04  0.36962870581E+03  0.17242840945E+04  0.60004443864E+03 0.  0.
         23    2    4    4    0    0 -0.23519373520E+03  0.87850560291E+03  0.43489466716E+03  0.10122119646E+04  0.91386554775E+02 0.  0.
         23    2    4    4    0    0  0.12859259264E+03  0.69156227027E+03 -0.65265961350E+02  0.71207212985E+03  0.89401587593E+02 0.  0.
          5    1    3    3  502    0  0.40666447926E+02 -0.10654305146E+04 -0.21284360741E+03  0.10872536193E+04  0.47000000000E+01 0. -1.
         -5    1    3    3    0  502  0.65934694632E+02 -0.50463735856E+03 -0.62526795758E+02  0.51277474373E+03  0.47000000000E+01 0.  1.
         11    1    5    5    0    0 -0.12371118826E+03  0.36788106985E+03  0.14340307937E+03  0.41376972198E+03  0.00000000000E+00 0. -1.
        -11    1    5    5    0    0 -0.11148254693E+03  0.51062453306E+03  0.29149158779E+03  0.59844224265E+03  0.00000000000E+00 0.  1.
          2    1    6    6  503    0  0.25632106804E+02  0.30174643960E+03  0.46620575659E+01  0.30286903686E+03  0.00000000000E+00 0. -1.
         -2    1    6    6    0  503  0.10296048583E+03  0.38981583067E+03 -0.69928018915E+02  0.40920309299E+03  0.00000000000E+00 0.  1.
<mgrwt>
<rscale>  0 0.15959798E+04</rscale>
<asrwt>0</asrwt>
<pdfrwt beam="1">  1        2 0.24846570E+00 0.15959798E+04</pdfrwt>
<pdfrwt beam="2">  1       -2 0.26296698E+00 0.15959798E+04</pdfrwt>
<totfact> 0.54463451E-01</totfact>
</mgrwt>
</event>
<event>
12    1  0.3147868E-008  0.6942316E+03  0.7818608E-02  0.9727148E-01
          2   -1    0    0  501    0  0.00000000000E+00  0.00000000000E+00  0.51203269644E+03  0.51203269644E+03  0.00000000000E+00 0. -1.
         -2   -1    0    0    0  501 -0.00000000000E+00 -0.00000000000E+00 -0.20586105515E+04  0.20586105515E+04  0.00000000000E+00 0.  1.
         23    2    1    2    0    0 -0.55349436036E+03  0.39823353084E+03 -0.15126606326E+04  0.16617803032E+04  0.91791255082E+02 0.  0.
    5000000    2    1    2    0    0  0.55349436036E+03 -0.39823353084E+03 -0.33917222495E+02  0.90886294482E+03  0.59994626630E+03 0.  0.
         23    2    4    4    0    0  0.34696565337E+03 -0.30332369799E+03 -0.29131751032E+03  0.55336772299E+03  0.94654712741E+02 0.  0.
         23    2    4    4    0    0  0.20652870700E+03 -0.94909832842E+02  0.25740028783E+03  0.35549522183E+03  0.91978048410E+02 0.  0.
          5    1    3    3  502    0 -0.41129527996E+03  0.27070179478E+03 -0.99969232953E+03  0.11143832881E+04  0.47000000000E+01 0. -1.
         -5    1    3    3    0  502 -0.14219908040E+03  0.12753173605E+03 -0.51296830308E+03  0.54739701509E+03  0.47000000000E+01 0.  1.
         13    1    5    5    0    0  0.14872329001E+03 -0.16382422481E+03 -0.18607034269E+03  0.28910061581E+03  0.00000000000E+00 0. -1.
        -13    1    5    5    0    0  0.19824236335E+03 -0.13949947318E+03 -0.10524716763E+03  0.26426710718E+03  0.00000000000E+00 0.  1.
          4    1    6    6  503    0  0.20347362071E+02 -0.43730744773E+02  0.79274750924E+02  0.92794823755E+02  0.00000000000E+00 0. -1.
         -4    1    6    6    0  503  0.18618134492E+03 -0.51179088069E+02  0.17812553690E+03  0.26270039808E+03  0.00000000000E+00 0.  1.
<mgrwt>
<rscale>  0 0.69423160E+03</rscale>
<asrwt>0</asrwt>
<pdfrwt beam="1">  1        2 0.78774262E-01 0.69423160E+03</pdfrwt>
<pdfrwt beam="2">  1       -2 0.31670931E+00 0.69423160E+03</pdfrwt>
<totfact> 0.15868993E+00</totfact>
</mgrwt>
</event>
<event>
12    1  0.3147868E-008  0.7939401E+03  0.7818608E-02  0.9568830E-01
         -1   -1    0    0    0  501 -0.00000000000E+00  0.00000000000E+00  0.47118681021E+03  0.47118681021E+03  0.00000000000E+00 0.  1.
          1   -1    0    0  501    0  0.00000000000E+00 -0.00000000000E+00 -0.14355499310E+04  0.14355499310E+04  0.00000000000E+00 0. -1.
         23    2    1    2    0    0  0.28916415116E+03 -0.62501512500E+03 -0.61778192466E+03  0.92983692954E+03  0.93179377012E+02 0.  0.
    5000000    2    1    2    0    0 -0.28916415116E+03  0.62501512500E+03 -0.34658119609E+03  0.97689981162E+03  0.59996241855E+03 0.  0.
         23    2    4    4    0    0 -0.44132746482E+03  0.30462176980E+03 -0.17149319287E+03  0.57046671262E+03  0.91967391892E+02 0.  0.
         23    2    4    4    0    0  0.15216331366E+03  0.32039335520E+03 -0.17508800322E+03  0.40643309900E+03  0.93415625097E+02 0.  0.
          5    1    3    3  502    0  0.12505856884E+03 -0.30701279389E+03 -0.23883304408E+03  0.40860716366E+03  0.47000000000E+01 0. -1.
         -5    1    3    3    0  502  0.16410558233E+03 -0.31800233111E+03 -0.37894888058E+03  0.52122976588E+03  0.47000000000E+01 0.  1.
         13    1    5    5    0    0 -0.27480401740E+03  0.24026329527E+03 -0.10332787693E+03  0.37936835554E+03  0.00000000000E+00 0.  1.
        -13    1    5    5    0    0 -0.16652344742E+03  0.64358474535E+02 -0.68165315935E+02  0.19109835709E+03  0.00000000000E+00 0. -1.
          3    1    6    6  503    0  0.82962541427E+02  0.18893365450E+03 -0.15154800490E+03  0.25601856744E+03  0.00000000000E+00 0. -1.
         -3    1    6    6    0  503  0.69200772229E+02  0.13145970070E+03 -0.23539998323E+02  0.15041453156E+03  0.00000000000E+00 0.  1.
<mgrwt>
<rscale>  0 0.79394010E+03</rscale>
<asrwt>0</asrwt>
<pdfrwt beam="1">  1        1 0.22085383E+00 0.79394010E+03</pdfrwt>
<pdfrwt beam="2">  1       -1 0.72490279E-01 0.79394010E+03</pdfrwt>
<totfact> 0.14335643E+01</totfact>
</mgrwt>
</event>
<event>
12    1  0.3147868E-008  0.7156163E+03  0.7818608E-02  0.9690893E-01
         -1   -1    0    0    0  501 -0.00000000000E+00  0.00000000000E+00  0.62159881745E+03  0.62159881745E+03  0.00000000000E+00 0.  1.
          1   -1    0    0  501    0  0.00000000000E+00 -0.00000000000E+00 -0.10720410287E+04  0.10720410287E+04  0.00000000000E+00 0. -1.
         23    2    1    2    0    0 -0.51182339803E+03 -0.31022166720E+03 -0.57733042287E+03  0.83666717158E+03  0.92200136952E+02 0.  0.
    5000000    2    1    2    0    0  0.51182339803E+03  0.31022166720E+03  0.12688821161E+03  0.85697267459E+03  0.60008405509E+03 0.  0.
         23    2    4    4    0    0  0.51390810725E+03  0.18769253035E+02  0.16933498315E+03  0.54841144382E+03  0.87332397417E+02 0.  0.
         23    2    4    4    0    0 -0.20847092235E+01  0.29145241417E+03 -0.42446771536E+02  0.30856123077E+03  0.91975262882E+02 0.  0.
          5    1    3    3  502    0 -0.44971330437E+03 -0.30248149402E+03 -0.52992208969E+03  0.75800832548E+03  0.47000000000E+01 0. -1.
         -5    1    3    3    0  502 -0.62110093658E+02 -0.77401731854E+01 -0.47408333185E+02  0.78658846105E+02  0.47000000000E+01 0.  1.
         13    1    5    5    0    0  0.26616641590E+03 -0.31718681985E+02  0.10163006491E+03  0.28666933187E+03  0.00000000000E+00 0. -1.
        -13    1    5    5    0    0  0.24774169135E+03  0.50487935020E+02  0.67704918233E+02  0.26174211195E+03  0.00000000000E+00 0.  1.
          4    1    6    6  503    0  0.38968844103E+02  0.21786003298E+03 -0.28477094980E+02  0.22314235303E+03  0.00000000000E+00 0. -1.
         -4    1    6    6    0  503 -0.41053553327E+02  0.73592381194E+02 -0.13969676556E+02  0.85418877736E+02  0.00000000000E+00 0.  1.
<mgrwt>
<rscale>  0 0.71561625E+03</rscale>
<asrwt>0</asrwt>
<pdfrwt beam="1">  1        1 0.16492939E+00 0.71561625E+03</pdfrwt>
<pdfrwt beam="2">  1       -1 0.95630588E-01 0.71561625E+03</pdfrwt>
<totfact> 0.14551566E+01</totfact>
</mgrwt>
</event>
<event>
12    1  0.3147868E-008  0.7961459E+03  0.7818608E-02  0.9565613E-01
          2   -1    0    0  501    0  0.00000000000E+00  0.00000000000E+00  0.19030968625E+04  0.19030968625E+04  0.00000000000E+00 0. -1.
         -2   -1    0    0    0  501 -0.00000000000E+00 -0.00000000000E+00 -0.34670648462E+03  0.34670648462E+03  0.00000000000E+00 0.  1.
         23    2    1    2    0    0 -0.67663132073E+03 -0.16493737321E+03  0.73682942453E+03  0.10182764417E+04  0.94525285205E+02 0.  0.
    5000000    2    1    2    0    0  0.67663132073E+03  0.16493737321E+03  0.81956095331E+03  0.12315269054E+04  0.59995339926E+03 0.  0.
         23    2    4    4    0    0  0.24424504207E+03 -0.19923138174E+03  0.18505929444E+03  0.37637698131E+03  0.89799251400E+02 0.  0.
         23    2    4    4    0    0  0.43238627866E+03  0.36416875496E+03  0.63450165887E+03  0.85514992410E+03  0.95458166351E+02 0.  0.
          5    1    3    3  502    0 -0.48978120008E+03 -0.15444709817E+03  0.57340224111E+03  0.76977383055E+03  0.47000000000E+01 0. -1.
         -5    1    3    3    0  502 -0.18685012064E+03 -0.10490275041E+02  0.16342718342E+03  0.24850261112E+03  0.47000000000E+01 0.  1.
         11    1    5    5    0    0  0.10448230072E+03 -0.34630589413E+02  0.81096023844E+02  0.13672013008E+03  0.00000000000E+00 0. -1.
        -11    1    5    5    0    0  0.13976274135E+03 -0.16460079233E+03  0.10396327060E+03  0.23965685123E+03  0.00000000000E+00 0.  1.
          2    1    6    6  503    0  0.15087475997E+03  0.13638788162E+03  0.29818288922E+03  0.36094027605E+03  0.00000000000E+00 0. -1.
         -2    1    6    6    0  503  0.28151151868E+03  0.22778087334E+03  0.33631876965E+03  0.49420964805E+03  0.00000000000E+00 0.  1.
<mgrwt>
<rscale>  0 0.79614588E+03</rscale>
<asrwt>0</asrwt>
<pdfrwt beam="1">  1        2 0.29278413E+00 0.79614588E+03</pdfrwt>
<pdfrwt beam="2">  1       -2 0.53339460E-01 0.79614588E+03</pdfrwt>
<totfact> 0.25690235E+01</totfact>
</mgrwt>
</event>
<event>
12    1  0.3147868E-008  0.4615979E+03  0.7818608E-02  0.1024319E+00
          1   -1    0    0  501    0  0.00000000000E+00  0.00000000000E+00  0.58962708273E+03  0.58962708273E+03  0.00000000000E+00 0. -1.
         -1   -1    0    0    0  501 -0.00000000000E+00 -0.00000000000E+00 -0.42315276667E+03  0.42315276667E+03  0.00000000000E+00 0.  1.
         23    2    1    2    0    0 -0.22624571134E+03 -0.19671798585E+03 -0.25153783636E+02  0.31519816219E+03  0.93979150669E+02 0.  0.
    5000000    2    1    2    0    0  0.22624571134E+03  0.19671798585E+03  0.19162809969E+03  0.69758168721E+03  0.60001149479E+03 0.  0.
         23    2    4    4    0    0  0.32120597163E+03 -0.67116734313E+02  0.21319805006E+03  0.40196556699E+03  0.91896551932E+02 0.  0.
         23    2    4    4    0    0 -0.94960260291E+02  0.26383472017E+03 -0.21569950370E+02  0.29561612022E+03  0.91090159603E+02 0.  0.
          5    1    3    3  502    0 -0.51650708649E+02 -0.10358866392E+03 -0.15240118104E+01  0.11585689279E+03  0.47000000000E+01 0. -1.
         -5    1    3    3    0  502 -0.17459500269E+03 -0.93129321938E+02 -0.23629771826E+02  0.19934126940E+03  0.47000000000E+01 0.  1.
         11    1    5    5    0    0  0.16510025176E+03 -0.39329192909E+02  0.16384518185E+03  0.23590278117E+03  0.00000000000E+00 0. -1.
        -11    1    5    5    0    0  0.15610571987E+03 -0.27787541404E+02  0.49352868209E+02  0.16606278582E+03  0.00000000000E+00 0.  1.
          3    1    6    6  503    0 -0.21762879415E+02  0.38712470108E+02  0.29671544105E+02  0.53410474552E+02  0.00000000000E+00 0. -1.
         -3    1    6    6    0  503 -0.73197380876E+02  0.22512225006E+03 -0.51241494475E+02  0.24220564567E+03  0.00000000000E+00 0.  1.
<mgrwt>
<rscale>  0 0.46159790E+03</rscale>
<asrwt>0</asrwt>
<pdfrwt beam="1">  1        1 0.90711858E-01 0.46159790E+03</pdfrwt>
<pdfrwt beam="2">  1       -1 0.65100426E-01 0.46159790E+03</pdfrwt>
<totfact> 0.87914485E+01</totfact>
</mgrwt>
</event>
<event>
12    1  0.3147868E-008  0.9841708E+03  0.7818608E-02  0.9326078E-01
          2   -1    0    0  501    0  0.00000000000E+00  0.00000000000E+00  0.15109142208E+04  0.15109142208E+04  0.00000000000E+00 0.  1.
         -2   -1    0    0    0  501 -0.00000000000E+00 -0.00000000000E+00 -0.81993934027E+03  0.81993934027E+03  0.00000000000E+00 0. -1.
         23    2    1    2    0    0 -0.26458436825E+03  0.93594410668E+03 -0.34154089250E+02  0.97747237876E+03  0.91046640087E+02 0.  0.
    5000000    2    1    2    0    0  0.26458436825E+03 -0.93594410668E+03  0.72512896975E+03  0.13533811823E+04  0.59986026956E+03 0.  0.
         23    2    4    4    0    0  0.12903448675E+03 -0.65892229130E+03  0.14961365629E+03  0.69398331884E+03  0.91652146319E+02 0.  0.
         23    2    4    4    0    0  0.13554988150E+03 -0.27702181538E+03  0.57551531346E+03  0.65939786344E+03  0.92047866416E+02 0.  0.
          5    1    3    3  502    0 -0.20932159394E+03  0.70483009282E+03 -0.63423946895E+02  0.73800113582E+03  0.47000000000E+01 0. -1.
         -5    1    3    3    0  502 -0.55262774307E+02  0.23111401387E+03  0.29269857645E+02  0.23947124294E+03  0.47000000000E+01 0.  1.
         11    1    5    5    0    0  0.21301758857E+02 -0.27597863994E+03  0.93892758956E+02  0.29229065126E+03  0.00000000000E+00 0.  1.
        -11    1    5    5    0    0  0.10773272789E+03 -0.38294365137E+03  0.55720897339E+02  0.40169266757E+03  0.00000000000E+00 0. -1.
          3    1    6    6  503    0  0.94122584686E+02 -0.93585314063E+02  0.21206756084E+03  0.25017977999E+03  0.00000000000E+00 0. -1.
         -3    1    6    6    0  503  0.41427296816E+02 -0.18343650132E+03  0.36344775262E+03  0.40921808345E+03  0.00000000000E+00 0.  1.
<mgrwt>
<rscale>  0 0.98417080E+03</rscale>
<asrwt>0</asrwt>
<pdfrwt beam="1">  1        2 0.23244834E+00 0.98417080E+03</pdfrwt>
<pdfrwt beam="2">  1       -2 0.12614451E+00 0.98417080E+03</pdfrwt>
<totfact> 0.58381011E+00</totfact>
</mgrwt>
</event>
<event>
12    1  0.3147868E-008  0.6720803E+03  0.7818608E-02  0.9766207E-01
         -2   -1    0    0    0  501 -0.00000000000E+00  0.00000000000E+00  0.17111264907E+03  0.17111264907E+03  0.00000000000E+00 0.  1.
          2   -1    0    0  501    0  0.00000000000E+00 -0.00000000000E+00 -0.30728248844E+04  0.30728248844E+04  0.00000000000E+00 0. -1.
         23    2    1    2    0    0 -0.59615708463E+03 -0.32148808314E+02 -0.11852693009E+04  0.13301413111E+04  0.89307202405E+02 0.  0.
    5000000    2    1    2    0    0  0.59615708463E+03  0.32148808314E+02 -0.17164429344E+04  0.19137962223E+04  0.60000234846E+03 0.  0.
         23    2    4    4    0    0  0.62573912557E+03  0.75178054979E+02 -0.97273157408E+03  0.11625873190E+04  0.90561392928E+02 0.  0.
         23    2    4    4    0    0 -0.29582040938E+02 -0.43029246665E+02 -0.74371136030E+03  0.75120890331E+03  0.92095688083E+02 0.  0.
          5    1    3    3  502    0 -0.21316553875E+03  0.30177694515E+02 -0.40425639379E+03  0.45803445512E+03  0.47000000000E+01 0. -1.
         -5    1    3    3    0  502 -0.38299154588E+03 -0.62326502829E+02 -0.78101290714E+03  0.87210685600E+03  0.47000000000E+01 0.  1.
         11    1    5    5    0    0  0.39511604218E+03  0.94570847767E+01 -0.56387258952E+03  0.68859162096E+03  0.00000000000E+00 0. -1.
        -11    1    5    5    0    0  0.23062308339E+03  0.65720970202E+02 -0.40885898456E+03  0.47399569805E+03  0.00000000000E+00 0.  1.
          1    1    6    6  503    0 -0.34092247473E+02 -0.70275848036E+02 -0.53182163947E+03  0.53752695966E+03  0.00000000000E+00 0. -1.
         -1    1    6    6    0  503  0.45102065344E+01  0.27246601371E+02 -0.21188972083E+03  0.21368194365E+03  0.00000000000E+00 0.  1.
<mgrwt>
<rscale>  0 0.67208027E+03</rscale>
<asrwt>0</asrwt>
<pdfrwt beam="1">  1        2 0.47274230E+00 0.67208027E+03</pdfrwt>
<pdfrwt beam="2">  1       -2 0.26325022E-01 0.67208027E+03</pdfrwt>
<totfact> 0.21982689E+01</totfact>
</mgrwt>
</event>
<event>
12    1  0.3147868E-008  0.4569204E+03  0.7818608E-02  0.1025678E+00
         -2   -1    0    0    0  501 -0.00000000000E+00  0.00000000000E+00  0.26864861927E+04  0.26864861927E+04  0.00000000000E+00 0.  1.
          2   -1    0    0  501    0  0.00000000000E+00 -0.00000000000E+00 -0.10030050726E+03  0.10030050726E+03  0.00000000000E+00 0. -1.
         23    2    1    2    0    0  0.23023863378E+03 -0.24587437398E+03  0.92020403137E+03  0.98430370092E+03  0.92813145751E+02 0.  0.
    5000000    2    1    2    0    0 -0.23023863378E+03  0.24587437398E+03  0.16659816540E+04  0.18024829990E+04  0.59998837812E+03 0.  0.
         23    2    4    4    0    0 -0.34279787902E+03  0.25560939731E+03  0.69810173737E+03  0.82375097942E+03  0.91504592906E+02 0.  0.
         23    2    4    4    0    0  0.11255924523E+03 -0.97350233267E+01  0.96787991667E+03  0.97873201960E+03  0.91435653492E+02 0.  0.
          5    1    3    3  502    0  0.11446294659E+03 -0.66250594364E+02  0.28821624019E+03  0.31714602080E+03  0.47000000000E+01 0. -1.
         -5    1    3    3    0  502  0.11577568719E+03 -0.17962377962E+03  0.63198779118E+03  0.66715768012E+03  0.47000000000E+01 0.  1.
         13    1    5    5    0    0 -0.15804530920E+03  0.12758523078E+03  0.41695008325E+03  0.46379271534E+03  0.00000000000E+00 0. -1.
        -13    1    5    5    0    0 -0.18475256982E+03  0.12802416653E+03  0.28115165411E+03  0.35995826408E+03  0.00000000000E+00 0.  1.
          1    1    6    6  503    0  0.87895990636E+02 -0.43479440388E+02  0.54142548231E+03  0.55023424085E+03  0.00000000000E+00 0. -1.
         -1    1    6    6    0  503  0.24663254598E+02  0.33744417062E+02  0.42645443436E+03  0.42849777875E+03  0.00000000000E+00 0.  1.
<mgrwt>
<rscale>  0 0.45692037E+03</rscale>
<asrwt>0</asrwt>
<pdfrwt beam="1">  1        2 0.15430849E-01 0.45692037E+03</pdfrwt>
<pdfrwt beam="2">  1       -2 0.41330551E+00 0.45692037E+03</pdfrwt>
<totfact> 0.26383478E+00</totfact>
</mgrwt>
</event>
<event>
12    1  0.3147868E-008  0.4691966E+03  0.7818608E-02  0.1022147E+00
         -2   -1    0    0    0  501 -0.00000000000E+00  0.00000000000E+00  0.11753712753E+03  0.11753712753E+03  0.00000000000E+00 0.  1.
          2   -1    0    0  501    0  0.00000000000E+00 -0.00000000000E+00 -0.31525831753E+04  0.31525831753E+04  0.00000000000E+00 0. -1.
         23    2    1    2    0    0  0.14239814466E+03 -0.43172844943E+03 -0.12213774390E+04  0.13064590021E+04  0.91682005654E+02 0.  0.
    5000000    2    1    2    0    0 -0.14239814466E+03  0.43172844943E+03 -0.18136686088E+04  0.19636613007E+04  0.59992099118E+03 0.  0.
         23    2    4    4    0    0 -0.11566184429E+03  0.31094174580E+03 -0.17711875072E+04  0.18041522146E+04  0.88303999587E+02 0.  0.
         23    2    4    4    0    0 -0.26736300372E+02  0.12078670362E+03 -0.42481101612E+02  0.15950908609E+03  0.91292097258E+02 0.  0.
          5    1    3    3  502    0  0.25242694225E+02 -0.17906427570E+03 -0.57025213987E+03  0.59825646797E+03  0.47000000000E+01 0. -1.
         -5    1    3    3    0  502  0.11715545044E+03 -0.25266417373E+03 -0.65112529909E+03  0.70820253415E+03  0.47000000000E+01 0. -1.
         11    1    5    5    0    0 -0.16643159081E+02  0.52023780290E+00 -0.11711048091E+03  0.11828833472E+03  0.00000000000E+00 0.  1.
        -11    1    5    5    0    0 -0.99018685212E+02  0.31042150800E+03 -0.16540770263E+04  0.16858638799E+04  0.00000000000E+00 0. -1.
          4    1    6    6  503    0  0.37862688153E+01  0.98754392599E+02  0.49553703077E+01  0.98951107038E+02  0.00000000000E+00 0. -1.
         -4    1    6    6    0  503 -0.30522569187E+02  0.22032311024E+02 -0.47436471919E+02  0.60557979053E+02  0.00000000000E+00 0.  1.
<mgrwt>
<rscale>  0 0.46919660E+03</rscale>
<asrwt>0</asrwt>
<pdfrwt beam="1">  1        2 0.48501270E+00 0.46919660E+03</pdfrwt>
<pdfrwt beam="2">  1       -2 0.18082638E-01 0.46919660E+03</pdfrwt>
<totfact> 0.39721494E+01</totfact>
</mgrwt>
</event>
<event>
12    1  0.3147868E-008  0.5826679E+03  0.7818608E-02  0.9942032E-01
          2   -1    0    0  501    0  0.00000000000E+00  0.00000000000E+00  0.11803461403E+04  0.11803461403E+04  0.00000000000E+00 0. -1.
         -2   -1    0    0    0  501 -0.00000000000E+00 -0.00000000000E+00 -0.55155911025E+03  0.55155911025E+03  0.00000000000E+00 0.  1.
         23    2    1    2    0    0  0.48920883078E+03 -0.28345401168E+03 -0.15622167548E+03  0.59354041248E+03  0.90628651710E+02 0.  0.
    5000000    2    1    2    0    0 -0.48920883078E+03  0.28345401168E+03  0.78500870557E+03  0.11383648381E+04  0.59997031590E+03 0.  0.
         23    2    4    4    0    0 -0.64449932619E+02  0.21663255081E+02 -0.79424294671E+02  0.13605035664E+03  0.87053951799E+02 0.  0.
         23    2    4    4    0    0 -0.42475889816E+03  0.26179075660E+03  0.86443300024E+03  0.10023144815E+04  0.91844357671E+02 0.  0.
          5    1    3    3  502    0  0.20863571904E+03 -0.11371308138E+03 -0.11161863602E+03  0.26256492158E+03  0.47000000000E+01 0. -1.
         -5    1    3    3    0  502  0.28057311174E+03 -0.16974093031E+03 -0.44603039458E+02  0.33097549090E+03  0.47000000000E+01 0.  1.
         13    1    5    5    0    0 -0.40758749401E+02  0.47338489992E+02 -0.17369773193E+02  0.64837622630E+02  0.00000000000E+00 0. -1.
        -13    1    5    5    0    0 -0.23691183218E+02 -0.25675234912E+02 -0.62054521477E+02  0.71212734014E+02  0.00000000000E+00 0.  1.
          3    1    6    6  503    0 -0.22528692954E+03  0.17264538141E+03  0.55706598713E+03  0.62520647978E+03  0.00000000000E+00 0. -1.
         -3    1    6    6    0  503 -0.19947196862E+03  0.89145375187E+02  0.30736701311E+03  0.37710800168E+03  0.00000000000E+00 0.  1.
<mgrwt>
<rscale>  0 0.58266788E+03</rscale>
<asrwt>0</asrwt>
<pdfrwt beam="1">  1        2 0.18159171E+00 0.58266788E+03</pdfrwt>
<pdfrwt beam="2">  1       -2 0.84855248E-01 0.58266788E+03</pdfrwt>
<totfact> 0.24475603E+01</totfact>
</mgrwt>
</event>
<event>
12    1  0.3147868E-008  0.9004603E+03  0.7818608E-02  0.9425006E-01
         -1   -1    0    0    0  501 -0.00000000000E+00  0.00000000000E+00  0.35266764117E+03  0.35266764117E+03  0.00000000000E+00 0.  1.
          1   -1    0    0  501    0  0.00000000000E+00 -0.00000000000E+00 -0.25240564351E+04  0.25240564351E+04  0.00000000000E+00 0. -1.
         23    2    1    2    0    0 -0.10151722920E+02  0.82026790247E+03 -0.66731653542E+03  0.10614921580E+04  0.92259166715E+02 0.  0.
    5000000    2    1    2    0    0  0.10151722920E+02 -0.82026790247E+03 -0.15040722585E+04  0.18152319182E+04  0.59990921716E+03 0.  0.
         23    2    4    4    0    0 -0.68838727252E+02  0.33896577723E+02 -0.37527805477E+03  0.39464075118E+03  0.94973447601E+02 0.  0.
         23    2    4    4    0    0  0.78990450172E+02 -0.85416448020E+03 -0.11287942038E+04  0.14205911671E+04  0.89813468090E+02 0.  0.
          5    1    3    3  502    0  0.26162903204E+02  0.68044005876E+03 -0.55008314292E+03  0.87538375882E+03  0.47000000000E+01 0. -1.
         -5    1    3    3    0  502 -0.36314626124E+02  0.13982784371E+03 -0.11723339249E+03  0.18610839923E+03  0.47000000000E+01 0.  1.
         13    1    5    5    0    0 -0.16389222585E+02  0.55212866596E+02 -0.25881380064E+03  0.26514458444E+03  0.00000000000E+00 0. -1.
        -13    1    5    5    0    0 -0.52449504666E+02 -0.21316288874E+02 -0.11646425413E+03  0.12949616675E+03  0.00000000000E+00 0.  1.
          3    1    6    6  503    0  0.20689826123E+02 -0.60347040369E+03 -0.82631232049E+03  0.10234239825E+04  0.00000000000E+00 0. -1.
         -3    1    6    6    0  503  0.58300624049E+02 -0.25069407651E+03 -0.30248188327E+03  0.39716718453E+03  0.00000000000E+00 0.  1.
<mgrwt>
<rscale>  0 0.90046030E+03</rscale>
<asrwt>0</asrwt>
<pdfrwt beam="1">  1        1 0.38831639E+00 0.90046030E+03</pdfrwt>
<pdfrwt beam="2">  1       -1 0.54256558E-01 0.90046030E+03</pdfrwt>
<totfact> 0.46217591E+00</totfact>
</mgrwt>
</event>
<event>
12    1  0.3147868E-008  0.1596351E+04  0.7818608E-02  0.8822793E-01
          2   -1    0    0  501    0  0.00000000000E+00  0.00000000000E+00  0.19695595365E+04  0.19695595365E+04  0.00000000000E+00 0. -1.
         -2   -1    0    0    0  501 -0.00000000000E+00 -0.00000000000E+00 -0.13913971961E+04  0.13913971961E+04  0.00000000000E+00 0.  1.
         23    2    1    2    0    0  0.15611813388E+04  0.13570776045E+03 -0.47336006594E+02  0.15701780397E+04  0.86686850583E+02 0.  0.
    5000000    2    1    2    0    0 -0.15611813388E+04 -0.13570776045E+03  0.62549834696E+03  0.17907786929E+04  0.59994697763E+03 0.  0.
         23    2    4    4    0    0 -0.60799431271E+02  0.53136730061E+02  0.17054550533E+03  0.20892222003E+03  0.89680776699E+02 0.  0.
         23    2    4    4    0    0 -0.15003819075E+04 -0.18884449051E+03  0.45495284163E+03  0.15818564729E+04  0.92085300441E+02 0.  0.
          5    1    3    3  502    0  0.19030357020E+03  0.13933404876E+02 -0.33722635443E+02  0.19382697115E+03  0.47000000000E+01 0. -1.
         -5    1    3    3    0  502  0.13708777686E+04  0.12177435558E+03 -0.13613371151E+02  0.13763510686E+04  0.47000000000E+01 0.  1.
         13    1    5    5    0    0 -0.68096862929E+02  0.92074023272E+01  0.13666255872E+03  0.15296605491E+03  0.00000000000E+00 0. -1.
        -13    1    5    5    0    0  0.72974316581E+01  0.43929327734E+02  0.33882946608E+02  0.55956165119E+02  0.00000000000E+00 0.  1.
          1    1    6    6  503    0 -0.62840414321E+03 -0.86865318856E+02  0.23773552532E+03  0.67746256784E+03  0.00000000000E+00 0. -1.
         -1    1    6    6    0  503 -0.87197776433E+03 -0.10197917166E+03  0.21721731631E+03  0.90439390502E+03  0.00000000000E+00 0.  1.
<mgrwt>
<rscale>  0 0.15963514E+04</rscale>
<asrwt>0</asrwt>
<pdfrwt beam="1">  1        2 0.30300916E+00 0.15963514E+04</pdfrwt>
<pdfrwt beam="2">  1       -2 0.21406111E+00 0.15963514E+04</pdfrwt>
<totfact> 0.69655287E-01</totfact>
</mgrwt>
</event>
<event>
12    1  0.3147868E-008  0.6360174E+03  0.7818608E-02  0.9833376E-01
          2   -1    0    0  501    0  0.00000000000E+00  0.00000000000E+00  0.18543388371E+04  0.18543388371E+04  0.00000000000E+00 0. -1.
         -2   -1    0    0    0  501 -0.00000000000E+00 -0.00000000000E+00 -0.28544673325E+03  0.28544673325E+03  0.00000000000E+00 0.  1.
         23    2    1    2    0    0  0.49932423407E+03  0.32991607280E+03  0.59429626673E+03  0.84829287093E+03  0.90793371965E+02 0.  0.
    5000000    2    1    2    0    0 -0.49932423407E+03 -0.32991607280E+03  0.97459583715E+03  0.12914926995E+04  0.59995586598E+03 0.  0.
         23    2    4    4    0    0 -0.26513913637E+02 -0.97545477546E+02 -0.37432889442E+02  0.14695330350E+03  0.99879649532E+02 0.  0.
         23    2    4    4    0    0 -0.47281032043E+03 -0.23237059526E+03  0.10120287266E+04  0.11445393960E+04  0.90678513398E+02 0.  0.
          5    1    3    3  502    0  0.10533376959E+03  0.10722602473E+03  0.18168126012E+03  0.23584485086E+03  0.47000000000E+01 0. -1.
         -5    1    3    3    0  502  0.39399046448E+03  0.22269004807E+03  0.41261500661E+03  0.61244802007E+03  0.47000000000E+01 0.  1.
         11    1    5    5    0    0  0.37017437787E+02 -0.49692177525E+02 -0.96963764996E+01  0.62718601106E+02  0.00000000000E+00 0.  1.
        -11    1    5    5    0    0 -0.63531351424E+02 -0.47853300021E+02 -0.27736512943E+02  0.84234702391E+02  0.00000000000E+00 0. -1.
          1    1    6    6  503    0 -0.35538248521E+03 -0.18782722372E+03  0.68508632958E+03  0.79430413302E+03  0.00000000000E+00 0. -1.
         -1    1    6    6    0  503 -0.11742783522E+03 -0.44543371535E+02  0.32694239702E+03  0.35023526293E+03  0.00000000000E+00 0.  1.
<mgrwt>
<rscale>  0 0.63601745E+03</rscale>
<asrwt>0</asrwt>
<pdfrwt beam="1">  1        2 0.28528289E+00 0.63601745E+03</pdfrwt>
<pdfrwt beam="2">  1       -2 0.43914883E-01 0.63601745E+03</pdfrwt>
<totfact> 0.41315416E+01</totfact>
</mgrwt>
</event>
<event>
12    1  0.3147868E-008  0.4325046E+03  0.7818608E-02  0.1033072E+00
         -2   -1    0    0    0  501 -0.00000000000E+00  0.00000000000E+00  0.37246634897E+03  0.37246634897E+03  0.00000000000E+00 0.  1.
          2   -1    0    0  501    0  0.00000000000E+00 -0.00000000000E+00 -0.98161036218E+03  0.98161036218E+03  0.00000000000E+00 0. -1.
         23    2    1    2    0    0 -0.30099496986E+03  0.12421155066E+03 -0.58090073119E+03  0.67181014631E+03  0.88638208420E+02 0.  0.
    5000000    2    1    2    0    0  0.30099496986E+03 -0.12421155066E+03 -0.28243282013E+02  0.68226656484E+03  0.59888521548E+03 0.  0.
         23    2    4    4    0    0  0.14208395019E+03  0.14609167629E+03 -0.21145587721E+03  0.30761553278E+03  0.91559277083E+02 0.  0.
         23    2    4    4    0    0  0.15891101967E+03 -0.27030322695E+03  0.18321259520E+03  0.37465103206E+03  0.92086883474E+02 0.  0.
          5    1    3    3  502    0 -0.15822288965E+03  0.10702302431E+03 -0.37125159012E+03  0.41753831406E+03  0.47000000000E+01 0. -1.
         -5    1    3    3    0  502 -0.14277208021E+03  0.17188526356E+02 -0.20964914107E+03  0.25427183226E+03  0.47000000000E+01 0.  1.
         11    1    5    5    0    0  0.11042703248E+03  0.10101027901E+03 -0.20250870052E+03  0.25180742593E+03  0.00000000000E+00 0.  1.
        -11    1    5    5    0    0  0.31656917709E+02  0.45081397282E+02 -0.89471766912E+01  0.55808106853E+02  0.00000000000E+00 0. -1.
          1    1    6    6  503    0  0.12691096744E+02 -0.10018965954E+03  0.73730680386E+02  0.12504097347E+03  0.00000000000E+00 0. -1.
         -1    1    6    6    0  503  0.14621992293E+03 -0.17011356742E+03  0.10948191481E+03  0.24961005859E+03  0.00000000000E+00 0.  1.
<mgrwt>
<rscale>  0 0.43250460E+03</rscale>
<asrwt>0</asrwt>
<pdfrwt beam="1">  1        2 0.15101698E+00 0.43250460E+03</pdfrwt>
<pdfrwt beam="2">  1       -2 0.57302515E-01 0.43250460E+03</pdfrwt>
<totfact> 0.77385559E+01</totfact>
</mgrwt>
</event>
<event>
12    1  0.3147868E-008  0.5962407E+03  0.7818608E-02  0.9913236E-01
          2   -1    0    0  501    0  0.00000000000E+00  0.00000000000E+00  0.23090648919E+03  0.23090648919E+03  0.00000000000E+00 0. -1.
         -2   -1    0    0    0  501 -0.00000000000E+00 -0.00000000000E+00 -0.16739314404E+04  0.16739314404E+04  0.00000000000E+00 0.  1.
         23    2    1    2    0    0 -0.88476210821E+02  0.46005825463E+03 -0.48268154193E+03  0.67939842590E+03  0.95494045161E+02 0.  0.
    5000000    2    1    2    0    0  0.88476210821E+02 -0.46005825463E+03 -0.96034340926E+03  0.12254395037E+04  0.59996739569E+03 0.  0.
         23    2    4    4    0    0  0.31809395863E+03 -0.31407036643E+03 -0.45504358150E+03  0.64421752878E+03  0.90153212568E+02 0.  0.
         23    2    4    4    0    0 -0.22961774780E+03 -0.14598788820E+03 -0.50529982776E+03  0.58122197488E+03  0.91947237836E+02 0.  0.
          5    1    3    3  502    0 -0.53209759520E+02  0.29971307190E+03 -0.37492857088E+03  0.48296244909E+03  0.47000000000E+01 0. -1.
         -5    1    3    3    0  502 -0.35266451301E+02  0.16034518274E+03 -0.10775297105E+03  0.19643597681E+03  0.47000000000E+01 0.  1.
         11    1    5    5    0    0  0.12749544975E+03 -0.95893161499E+02 -0.11050662634E+03  0.19406777835E+03  0.00000000000E+00 0. -1.
        -11    1    5    5    0    0  0.19059850888E+03 -0.21817720493E+03 -0.34453695517E+03  0.45014975043E+03  0.00000000000E+00 0.  1.
          2    1    6    6  503    0 -0.75725359670E+02 -0.28350442986E+02 -0.23619228963E+03  0.24964950509E+03  0.00000000000E+00 0. -1.
         -2    1    6    6    0  503 -0.15389238813E+03 -0.11763744522E+03 -0.26910753813E+03  0.33157246979E+03  0.00000000000E+00 0.  1.
<mgrwt>
<rscale>  0 0.59624070E+03</rscale>
<asrwt>0</asrwt>
<pdfrwt beam="1">  1        2 0.35524075E-01 0.59624070E+03</pdfrwt>
<pdfrwt beam="2">  1       -2 0.25752792E+00 0.59624070E+03</pdfrwt>
<totfact> 0.89015158E+00</totfact>
</mgrwt>
</event>
<event>
12    1  0.3147868E-008  0.7437664E+03  0.7818608E-02  0.9645181E-01
         -2   -1    0    0    0  501 -0.00000000000E+00  0.00000000000E+00  0.26038766105E+03  0.26038766105E+03  0.00000000000E+00 0. -1.
          2   -1    0    0  501    0  0.00000000000E+00 -0.00000000000E+00 -0.28874132183E+04  0.28874132183E+04  0.00000000000E+00 0.  1.
         23    2    1    2    0    0 -0.30893296187E+03  0.61752900437E+03 -0.58772974978E+03  0.91280409293E+03  0.10489712642E+03 0.  0.
    5000000    2    1    2    0    0  0.30893296187E+03 -0.61752900437E+03 -0.20392958075E+04  0.22349967865E+04  0.59975128076E+03 0.  0.
         23    2    4    4    0    0  0.43050548594E+02 -0.49283589975E+03 -0.70730937382E+03  0.86796088714E+03  0.91263231893E+02 0.  0.
         23    2    4    4    0    0  0.26588241327E+03 -0.12469310462E+03 -0.13319864337E+04  0.13670358993E+04  0.91419158050E+02 0.  0.
          5    1    3    3  502    0 -0.76467392458E+02  0.25814448681E+03 -0.25211998925E+03  0.36887994952E+03  0.47000000000E+01 0. -1.
         -5    1    3    3    0  502 -0.23246556941E+03  0.35938451756E+03 -0.33560976053E+03  0.54392414341E+03  0.47000000000E+01 0.  1.
         11    1    5    5    0    0 -0.38068637830E+01 -0.15819137703E+03 -0.29605409900E+03  0.33568889394E+03  0.00000000000E+00 0.  1.
        -11    1    5    5    0    0  0.46857412377E+02 -0.33464452271E+03 -0.41125527481E+03  0.53227199319E+03  0.00000000000E+00 0. -1.
          3    1    6    6  503    0  0.24149630020E+03 -0.10816927270E+03 -0.10237621151E+04  0.10574071699E+04  0.00000000000E+00 0. -1.
         -3    1    6    6    0  503  0.24386113071E+02 -0.16523831919E+02 -0.30822431857E+03  0.30962872943E+03  0.00000000000E+00 0.  1.
<mgrwt>
<rscale>  0 0.74376640E+03</rscale>
<asrwt>0</asrwt>
<pdfrwt beam="1">  1        2 0.44421739E+00 0.74376640E+03</pdfrwt>
<pdfrwt beam="2">  1       -2 0.40059643E-01 0.74376640E+03</pdfrwt>
<totfact> 0.12780354E+01</totfact>
</mgrwt>
</event>
<event>
12    1  0.3147868E-008  0.7147937E+03  0.7818608E-02  0.9692262E-01
          2   -1    0    0  501    0  0.00000000000E+00  0.00000000000E+00  0.44947923828E+03  0.44947923828E+03  0.00000000000E+00 0. -1.
         -2   -1    0    0    0  501 -0.00000000000E+00 -0.00000000000E+00 -0.11812349152E+04  0.11812349152E+04  0.00000000000E+00 0.  1.
         23    2    1    2    0    0 -0.57278887404E+03  0.15823670993E+03 -0.20510689895E+03  0.63547331752E+03  0.92906117612E+02 0.  0.
    5000000    2    1    2    0    0  0.57278887404E+03 -0.15823670993E+03 -0.52664877792E+03  0.99524083592E+03  0.60001619611E+03 0.  0.
         23    2    4    4    0    0  0.47002467238E+03  0.15197596516E+03 -0.36596116209E+03  0.62141538475E+03  0.90606962274E+02 0.  0.
         23    2    4    4    0    0  0.10276420166E+03 -0.31021267509E+03 -0.16068761583E+03  0.37382545116E+03  0.84454562501E+02 0.  0.
          5    1    3    3  502    0 -0.36467788130E+03  0.14347578420E+03 -0.11756239107E+03  0.40916776945E+03  0.47000000000E+01 0. -1.
         -5    1    3    3    0  502 -0.20811099275E+03  0.14760925725E+02 -0.87544507878E+02  0.22630554807E+03  0.47000000000E+01 0.  1.
         11    1    5    5    0    0  0.46866653681E+03  0.13875223051E+03 -0.35866278910E+03  0.60625036122E+03  0.00000000000E+00 0.  1.
        -11    1    5    5    0    0  0.13581355723E+01  0.13223734650E+02 -0.72983729910E+01  0.15165023530E+02  0.00000000000E+00 0. -1.
          3    1    6    6  503    0  0.31287499078E+02 -0.81632707652E+02 -0.37738475354E+01  0.87504562638E+02  0.00000000000E+00 0. -1.
         -3    1    6    6    0  503  0.71476702583E+02 -0.22857996744E+03 -0.15691376829E+03  0.28632088853E+03  0.00000000000E+00 0.  1.
<mgrwt>
<rscale>  0 0.71479369E+03</rscale>
<asrwt>0</asrwt>
<pdfrwt beam="1">  1        2 0.69150652E-01 0.71479369E+03</pdfrwt>
<pdfrwt beam="2">  1       -2 0.18172845E+00 0.71479369E+03</pdfrwt>
<totfact> 0.12531428E+01</totfact>
</mgrwt>
</event>
<event>
12    1  0.3147868E-008  0.1038015E+04  0.7818608E-02  0.9267806E-01
         -1   -1    0    0    0  501 -0.00000000000E+00  0.00000000000E+00  0.21775637392E+04  0.21775637392E+04  0.00000000000E+00 0.  1.
          1   -1    0    0  501    0  0.00000000000E+00 -0.00000000000E+00 -0.64959399270E+03  0.64959399270E+03  0.00000000000E+00 0. -1.
         23    2    1    2    0    0  0.84525051940E+02 -0.10034071822E+04  0.12763963597E+04  0.16282876704E+04  0.90347178316E+02 0.  0.
    5000000    2    1    2    0    0 -0.84525051940E+02  0.10034071822E+04  0.25157338680E+03  0.11988700616E+04  0.60002483103E+03 0.  0.
         23    2    4    4    0    0 -0.13372775769E+03  0.12336898795E+03  0.23957028528E+03  0.31305076678E+03  0.86624711412E+02 0.  0.
         23    2    4    4    0    0  0.49202705752E+02  0.88003819426E+03  0.12003101529E+02  0.88581929478E+03  0.87427792850E+02 0.  0.
          5    1    3    3  502    0  0.56393657076E+02 -0.41991226199E+03  0.60016618169E+03  0.73466188684E+03  0.47000000000E+01 0. -1.
         -5    1    3    3    0  502  0.28131394864E+02 -0.58349492022E+03  0.67623017802E+03  0.89362578351E+03  0.47000000000E+01 0.  1.
         13    1    5    5    0    0 -0.52715140821E+02  0.69471234314E+02  0.17713533890E+03  0.19743876710E+03  0.00000000000E+00 0.  1.
        -13    1    5    5    0    0 -0.81012616871E+02  0.53897753637E+02  0.62434946379E+02  0.11561199967E+03  0.00000000000E+00 0. -1.
          2    1    6    6  503    0  0.59427865584E+02  0.51188253623E+03  0.37193758890E+02  0.51666118279E+03  0.00000000000E+00 0. -1.
         -2    1    6    6    0  503 -0.10225159832E+02  0.36815565803E+03 -0.25190657361E+02  0.36915811199E+03  0.00000000000E+00 0.  1.
<mgrwt>
<rscale>  0 0.10380146E+04</rscale>
<asrwt>0</asrwt>
<pdfrwt beam="1">  1        1 0.99937539E-01 0.10380146E+04</pdfrwt>
<pdfrwt beam="2">  1       -1 0.33500980E+00 0.10380146E+04</pdfrwt>
<totfact> 0.60260266E-01</totfact>
</mgrwt>
</event>
<event>
12    1  0.3147868E-008  0.4876571E+03  0.7818608E-02  0.1017052E+00
          2   -1    0    0  501    0  0.00000000000E+00  0.00000000000E+00  0.18780947413E+04  0.18780947413E+04  0.00000000000E+00 0. -1.
         -2   -1    0    0    0  501 -0.00000000000E+00 -0.00000000000E+00 -0.20935544370E+03  0.20935544370E+03  0.00000000000E+00 0.  1.
         23    2    1    2    0    0  0.23708061272E+03 -0.37807168720E+03  0.93299137243E+03  0.10383694079E+04  0.92696864647E+02 0.  0.
    5000000    2    1    2    0    0 -0.23708061272E+03  0.37807168720E+03  0.73574792521E+03  0.10490807771E+04  0.60008336908E+03 0.  0.
         23    2    4    4    0    0 -0.72743739770E+02  0.12576074011E+02  0.60422000160E+03  0.61597767809E+03  0.94323275269E+02 0.  0.
         23    2    4    4    0    0 -0.16433687295E+03  0.36549561319E+03  0.13152792361E+03  0.43310309901E+03  0.98412644580E+02 0.  0.
          5    1    3    3  502    0  0.55003032812E+02 -0.14006041241E+03  0.23949149116E+03  0.28287897957E+03  0.47000000000E+01 0. -1.
         -5    1    3    3    0  502  0.18207757990E+03 -0.23801127479E+03  0.69349988127E+03  0.75549042836E+03  0.47000000000E+01 0.  1.
         11    1    5    5    0    0 -0.88445019286E+02  0.25809973641E+02  0.38818764467E+03  0.39897158251E+03  0.00000000000E+00 0.  1.
        -11    1    5    5    0    0  0.15701279516E+02 -0.13233899630E+02  0.21603235694E+03  0.21700609559E+03  0.00000000000E+00 0. -1.
          2    1    6    6  503    0 -0.61902231102E+02  0.25206708080E+03  0.90121804021E+02  0.27475741846E+03  0.00000000000E+00 0.  1.
         -2    1    6    6    0  503 -0.10243464184E+03  0.11342853239E+03  0.41406119586E+02  0.15834568055E+03  0.00000000000E+00 0. -1.
<mgrwt>
<rscale>  0 0.48765712E+03</rscale>
<asrwt>0</asrwt>
<pdfrwt beam="1">  1        2 0.28893764E+00 0.48765712E+03</pdfrwt>
<pdfrwt beam="2">  1       -2 0.32208531E-01 0.48765712E+03</pdfrwt>
<totfact> 0.74437466E+01</totfact>
</mgrwt>
</event>
<event>
12    1  0.3147868E-008  0.9528166E+03  0.7818608E-02  0.9361864E-01
         -2   -1    0    0    0  501 -0.00000000000E+00  0.00000000000E+00  0.10391920899E+04  0.10391920899E+04  0.00000000000E+00 0.  1.
          2   -1    0    0  501    0  0.00000000000E+00 -0.00000000000E+00 -0.95295791590E+03  0.95295791590E+03  0.00000000000E+00 0. -1.
         23    2    1    2    0    0 -0.54044468048E+03  0.70515681323E+03 -0.11841400765E+03  0.90074793849E+03  0.89433704985E+02 0.  0.
    5000000    2    1    2    0    0  0.54044468048E+03 -0.70515681323E+03  0.20464818165E+03  0.10914020673E+04  0.59995917390E+03 0.  0.
         23    2    4    4    0    0  0.28130514406E+03 -0.68473790140E+03  0.29622247124E+03  0.80257721830E+03  0.91563427115E+02 0.  0.
         23    2    4    4    0    0  0.25913953642E+03 -0.20418911836E+02 -0.91574289588E+02  0.28882484900E+03  0.86392775092E+02 0.  0.
          5    1    3    3  502    0 -0.63895342704E+02  0.12400692792E+03 -0.39416623607E+02  0.14503824740E+03  0.47000000000E+01 0. -1.
         -5    1    3    3    0  502 -0.47654933777E+03  0.58114988531E+03 -0.78997384043E+02  0.75570969110E+03  0.47000000000E+01 0.  1.
         11    1    5    5    0    0  0.11335450904E+03 -0.30611787661E+03  0.83473653191E+02  0.33693508259E+03  0.00000000000E+00 0. -1.
        -11    1    5    5    0    0  0.16795063502E+03 -0.37862002479E+03  0.21274881805E+03  0.46564213571E+03  0.00000000000E+00 0.  1.
          1    1    6    6  503    0 -0.66537697882E+01  0.24233364685E+01 -0.34200227085E+01  0.78639536723E+01  0.00000000000E+00 0. -1.
         -1    1    6    6    0  503  0.26579330621E+03 -0.22842248304E+02 -0.88154266879E+02  0.28096089532E+03  0.00000000000E+00 0.  1.
<mgrwt>
<rscale>  0 0.95281659E+03</rscale>
<asrwt>0</asrwt>
<pdfrwt beam="1">  1        2 0.14660891E+00 0.95281659E+03</pdfrwt>
<pdfrwt beam="2">  1       -2 0.15987571E+00 0.95281659E+03</pdfrwt>
<totfact> 0.67939257E+00</totfact>
</mgrwt>
</event>
<event>
12    1  0.3147868E-008  0.5705412E+03  0.7818608E-02  0.9968482E-01
          2   -1    0    0  501    0  0.00000000000E+00  0.00000000000E+00  0.15058739969E+04  0.15058739969E+04  0.00000000000E+00 0.  1.
         -2   -1    0    0    0  501 -0.00000000000E+00 -0.00000000000E+00 -0.23390674359E+03  0.23390674359E+03  0.00000000000E+00 0. -1.
         23    2    1    2    0    0 -0.12978396815E+03  0.41108091229E+03  0.57451466439E+03  0.72351152886E+03  0.87008263729E+02 0.  0.
    5000000    2    1    2    0    0  0.12978396815E+03 -0.41108091229E+03  0.69745258889E+03  0.10162692116E+04  0.60044283812E+03 0.  0.
         23    2    4    4    0    0 -0.21251373794E+03 -0.14679074679E+03  0.15024886543E+03  0.31218132630E+03  0.90403798428E+02 0.  0.
         23    2    4    4    0    0  0.34229770609E+03 -0.26429016550E+03  0.54720372346E+03  0.70408788530E+03  0.96388920909E+02 0.  0.
          5    1    3    3  502    0 -0.18004527997E+01  0.10457880829E+03  0.10419659623E+03  0.14771252296E+03  0.47000000000E+01 0. -1.
         -5    1    3    3    0  502 -0.12798351535E+03  0.30650210400E+03  0.47031806815E+03  0.57579900590E+03  0.47000000000E+01 0.  1.
         11    1    5    5    0    0 -0.29249621139E+02 -0.63972820205E+02  0.22177870361E+02  0.73755813300E+02  0.00000000000E+00 0. -1.
        -11    1    5    5    0    0 -0.18326411680E+03 -0.82817926583E+02  0.12807099507E+03  0.23842551300E+03  0.00000000000E+00 0.  1.
          3    1    6    6  503    0  0.41205694081E+02 -0.25464430889E+02  0.21765568093E+02  0.53104485871E+02  0.00000000000E+00 0. -1.
         -3    1    6    6    0  503  0.30109201201E+03 -0.23882573461E+03  0.52543815537E+03  0.65098339942E+03  0.00000000000E+00 0.  1.
<mgrwt>
<rscale>  0 0.57054122E+03</rscale>
<asrwt>0</asrwt>
<pdfrwt beam="1">  1        2 0.23167292E+00 0.57054122E+03</pdfrwt>
<pdfrwt beam="2">  1       -2 0.35985654E-01 0.57054122E+03</pdfrwt>
<totfact> 0.94979257E+01</totfact>
</mgrwt>
</event>
<event>
12    1  0.3147868E-008  0.4735961E+03  0.7818608E-02  0.1020910E+00
         -1   -1    0    0    0  501 -0.00000000000E+00  0.00000000000E+00  0.52344539422E+03  0.52344539422E+03  0.00000000000E+00 0.  1.
          1   -1    0    0  501    0  0.00000000000E+00 -0.00000000000E+00 -0.10940008367E+04  0.10940008367E+04  0.00000000000E+00 0. -1.
         23    2    1    2    0    0 -0.38620195016E+03  0.20083031170E+03  0.25105320360E+03  0.51092270217E+03  0.92355487896E+02 0.  0.
    5000000    2    1    2    0    0  0.38620195016E+03 -0.20083031170E+03 -0.82160864613E+03  0.11065235288E+04  0.59989065002E+03 0.  0.
         23    2    4    4    0    0  0.28560325006E+02 -0.26477482297E+02 -0.66008410058E+03  0.66767624804E+03  0.92540818739E+02 0.  0.
         23    2    4    4    0    0  0.35764162515E+03 -0.17435282941E+03 -0.16152454555E+03  0.43884728076E+03  0.90500363797E+02 0.  0.
          5    1    3    3  502    0 -0.70005364785E+02  0.79659167977E+02  0.53710485727E+02  0.11896739225E+03  0.47000000000E+01 0. -1.
         -5    1    3    3    0  502 -0.31619658537E+03  0.12117114373E+03  0.19734271787E+03  0.39195530992E+03  0.47000000000E+01 0.  1.
         11    1    5    5    0    0  0.35118908336E+02 -0.54955302271E+02 -0.54711996008E+03  0.55099335176E+03  0.00000000000E+00 0.  1.
        -11    1    5    5    0    0 -0.65585833292E+01  0.28477819974E+02 -0.11296414050E+03  0.11668289628E+03  0.00000000000E+00 0. -1.
          3    1    6    6  503    0  0.29493320143E+02  0.10508985932E+02 -0.14934293696E+02  0.34689016224E+02  0.00000000000E+00 0. -1.
         -3    1    6    6    0  503  0.32814830501E+03 -0.18486181534E+03 -0.14659025186E+03  0.40415826453E+03  0.00000000000E+00 0.  1.
<mgrwt>
<rscale>  0 0.47359611E+03</rscale>
<asrwt>0</asrwt>
<pdfrwt beam="1">  1        1 0.16830782E+00 0.47359611E+03</pdfrwt>
<pdfrwt beam="2">  1       -1 0.80530062E-01 0.47359611E+03</pdfrwt>
<totfact> 0.21181318E+01</totfact>
</mgrwt>
</event>
<event>
12    1  0.3147868E-008  0.5257747E+03  0.7818608E-02  0.1007262E+00
          1   -1    0    0  501    0  0.00000000000E+00  0.00000000000E+00  0.13740165236E+04  0.13740165236E+04  0.00000000000E+00 0. -1.
         -1   -1    0    0    0  501 -0.00000000000E+00 -0.00000000000E+00 -0.22990726836E+03  0.22990726836E+03  0.00000000000E+00 0.  1.
         23    2    1    2    0    0  0.22442471025E+03 -0.27055219507E+03  0.15563334505E+03  0.39535961027E+03  0.92317617599E+02 0.  0.
    5000000    2    1    2    0    0 -0.22442471025E+03  0.27055219507E+03  0.98847591019E+03  0.12085641817E+04  0.59998151257E+03 0.  0.
         23    2    4    4    0    0 -0.24634007861E+03 -0.12376417602E+03  0.42479482047E+03  0.51464196744E+03  0.91677203035E+02 0.  0.
         23    2    4    4    0    0  0.21915368364E+02  0.39431637109E+03  0.56368108972E+03  0.69392221425E+03  0.88464595445E+02 0.  0.
          5    1    3    3  502    0  0.19281517260E+03 -0.16719278733E+03  0.10912337680E+03  0.27759884777E+03  0.47000000000E+01 0. -1.
         -5    1    3    3    0  502  0.31609537644E+02 -0.10335940774E+03  0.46509968250E+02  0.11776076250E+03  0.47000000000E+01 0.  1.
         11    1    5    5    0    0 -0.99549606405E+02 -0.91561775250E+02  0.24902967187E+03  0.28338923814E+03  0.00000000000E+00 0. -1.
        -11    1    5    5    0    0 -0.14679047221E+03 -0.32202400772E+02  0.17576514859E+03  0.23125272929E+03  0.00000000000E+00 0.  1.
          2    1    6    6  503    0 -0.28797982558E+02  0.18347365071E+03  0.29576588547E+03  0.34924112489E+03  0.00000000000E+00 0. -1.
         -2    1    6    6    0  503  0.50713350921E+02  0.21084272038E+03  0.26791520425E+03  0.34468108937E+03  0.00000000000E+00 0.  1.
<mgrwt>
<rscale>  0 0.52577473E+03</rscale>
<asrwt>0</asrwt>
<pdfrwt beam="1">  1        1 0.21138715E+00 0.52577473E+03</pdfrwt>
<pdfrwt beam="2">  1       -1 0.35370350E-01 0.52577473E+03</pdfrwt>
<totfact> 0.64259593E+01</totfact>
</mgrwt>
</event>
<event>
12    1  0.3147868E-008  0.7330356E+03  0.7818608E-02  0.9662347E-01
         -2   -1    0    0    0  501 -0.00000000000E+00  0.00000000000E+00  0.13384618505E+04  0.13384618505E+04  0.00000000000E+00 0.  1.
          2   -1    0    0  501    0  0.00000000000E+00 -0.00000000000E+00 -0.52288959218E+03  0.52288959218E+03  0.00000000000E+00 0. -1.
         23    2    1    2    0    0  0.35187743848E+02  0.61543927883E+03  0.77760795307E+03  0.99968403789E+03  0.12120381052E+03 0.  0.
    5000000    2    1    2    0    0 -0.35187743848E+02 -0.61543927883E+03  0.37964305207E+02  0.86166740475E+03  0.60085417924E+03 0.  0.
         23    2    4    4    0    0 -0.29950260999E+03 -0.27428465301E+03  0.55296722274E+02  0.42009910018E+03  0.92150106964E+02 0.  0.
         23    2    4    4    0    0  0.26431486615E+03 -0.34115462582E+03 -0.17332417067E+02  0.44156830457E+03  0.91833151610E+02 0.  0.
          5    1    3    3  502    0  0.53010837961E+02  0.31891090199E+03  0.48340573341E+03  0.58156470443E+03  0.47000000000E+01 0. -1.
         -5    1    3    3    0  502 -0.17823094113E+02  0.29652837684E+03  0.29420221966E+03  0.41811933345E+03  0.47000000000E+01 0.  1.
         11    1    5    5    0    0 -0.20183298932E+03 -0.15763264452E+03 -0.57689798657E+01  0.25615988625E+03  0.00000000000E+00 0.  1.
        -11    1    5    5    0    0 -0.97669620671E+02 -0.11665200849E+03  0.61065702140E+02  0.16393921393E+03  0.00000000000E+00 0. -1.
          4    1    6    6  503    0  0.25320784815E+03 -0.34280938725E+03 -0.68983684388E+01  0.42623946068E+03  0.00000000000E+00 0. -1.
         -4    1    6    6    0  503  0.11107017996E+02  0.16547614346E+01 -0.10434048628E+02  0.15328843888E+02  0.00000000000E+00 0.  1.
<mgrwt>
<rscale>  0 0.73303565E+03</rscale>
<asrwt>0</asrwt>
<pdfrwt beam="1">  1        2 0.80444553E-01 0.73303565E+03</pdfrwt>
<pdfrwt beam="2">  1       -2 0.20591721E+00 0.73303565E+03</pdfrwt>
<totfact> 0.72708807E+00</totfact>
</mgrwt>
</event>
<event>
12    1  0.3147868E-008  0.4681217E+03  0.7818608E-02  0.1022452E+00
         -1   -1    0    0    0  501 -0.00000000000E+00  0.00000000000E+00  0.61979319873E+03  0.61979319873E+03  0.00000000000E+00 0.  1.
          1   -1    0    0  501    0  0.00000000000E+00 -0.00000000000E+00 -0.52755853010E+03  0.52755853010E+03  0.00000000000E+00 0. -1.
         23    2    1    2    0    0 -0.28395108316E+03  0.17930268502E+03 -0.19844933469E+03  0.40084364831E+03  0.92281208651E+02 0.  0.
    5000000    2    1    2    0    0  0.28395108316E+03 -0.17930268502E+03  0.29068400331E+03  0.74650808052E+03  0.59999954501E+03 0.  0.
         23    2    4    4    0    0  0.38400998307E+03 -0.23734265156E+03  0.36022156075E+03  0.58477723253E+03  0.91704075786E+02 0.  0.
         23    2    4    4    0    0 -0.10005889991E+03  0.58039966541E+02 -0.69537557431E+02  0.16173084799E+03  0.89112143566E+02 0.  0.
          5    1    3    3  502    0 -0.13528639075E+03  0.99932069104E+02 -0.15004157682E+03  0.22544043722E+03  0.47000000000E+01 0. -1.
         -5    1    3    3    0  502 -0.14866469241E+03  0.79370615920E+02 -0.48407757863E+02  0.17540321109E+03  0.47000000000E+01 0.  1.
         11    1    5    5    0    0  0.28725850286E+02 -0.23305666302E+01  0.32518451455E+01  0.29003112114E+02  0.00000000000E+00 0. -1.
        -11    1    5    5    0    0  0.35528413278E+03 -0.23501208493E+03  0.35696971560E+03  0.55577412042E+03  0.00000000000E+00 0.  1.
          3    1    6    6  503    0  0.14331486520E+02  0.18846804919E+02 -0.34380971189E+01  0.23925176558E+02  0.00000000000E+00 0. -1.
         -3    1    6    6    0  503 -0.11439038643E+03  0.39193161622E+02 -0.66099460312E+02  0.13780567143E+03  0.00000000000E+00 0.  1.
<mgrwt>
<rscale>  0 0.46812171E+03</rscale>
<asrwt>0</asrwt>
<pdfrwt beam="1">  1        1 0.81162851E-01 0.46812171E+03</pdfrwt>
<pdfrwt beam="2">  1       -1 0.95352800E-01 0.46812171E+03</pdfrwt>
<totfact> 0.46046363E+01</totfact>
</mgrwt>
</event>
<event>
12    1  0.3147868E-008  0.6529524E+03  0.7818608E-02  0.9801255E-01
          2   -1    0    0  501    0  0.00000000000E+00  0.00000000000E+00  0.10961468986E+04  0.10961468986E+04  0.00000000000E+00 0.  1.
         -2   -1    0    0    0  501 -0.00000000000E+00 -0.00000000000E+00 -0.52167934207E+03  0.52167934207E+03  0.00000000000E+00 0. -1.
         23    2    1    2    0    0 -0.55208291663E+03 -0.13636544277E+03  0.54187684413E+03  0.79051709092E+03  0.88857616582E+02 0.  0.
    5000000    2    1    2    0    0  0.55208291663E+03  0.13636544277E+03  0.32590712424E+02  0.82730914976E+03  0.59998932818E+03 0.  0.
         23    2    4    4    0    0  0.12460565408E+03 -0.15826886028E+03  0.17645619885E+03  0.28116038927E+03  0.85666640049E+02 0.  0.
         23    2    4    4    0    0  0.42747726255E+03  0.29463430305E+03 -0.14386548642E+03  0.54614876050E+03  0.89638205425E+02 0.  0.
          5    1    3    3  502    0 -0.13997628342E+03 -0.46231864515E+02  0.19408300029E+03  0.24376432515E+03  0.47000000000E+01 0. -1.
         -5    1    3    3    0  502 -0.41210663321E+03 -0.90133578255E+02  0.34779384384E+03  0.54675276577E+03  0.47000000000E+01 0.  1.
         11    1    5    5    0    0  0.86333237509E+02 -0.44144846522E+02  0.62214001129E+02  0.11520754016E+03  0.00000000000E+00 0. -1.
        -11    1    5    5    0    0  0.38272416569E+02 -0.11412401376E+03  0.11424219772E+03  0.16595284911E+03  0.00000000000E+00 0.  1.
          2    1    6    6  503    0  0.20793904080E+03  0.14004311623E+03 -0.23187904364E+02  0.25177052647E+03  0.00000000000E+00 0. -1.
         -2    1    6    6    0  503  0.21953822175E+03  0.15459118683E+03 -0.12067758206E+03  0.29437823402E+03  0.00000000000E+00 0.  1.
<mgrwt>
<rscale>  0 0.65295238E+03</rscale>
<asrwt>0</asrwt>
<pdfrwt beam="1">  1        2 0.16863798E+00 0.65295238E+03</pdfrwt>
<pdfrwt beam="2">  1       -2 0.80258361E-01 0.65295238E+03</pdfrwt>
<totfact> 0.30900323E+01</totfact>
</mgrwt>
</event>
<event>
12    1  0.3147868E-008  0.8652509E+03  0.7818608E-02  0.9470093E-01
          1   -1    0    0  501    0  0.00000000000E+00  0.00000000000E+00  0.28571978589E+04  0.28571978589E+04  0.00000000000E+00 0. -1.
         -1   -1    0    0    0  501 -0.00000000000E+00 -0.00000000000E+00 -0.38149168553E+03  0.38149168553E+03  0.00000000000E+00 0.  1.
         23    2    1    2    0    0  0.35847896156E+03  0.77554035275E+03  0.18013652305E+04  0.19957298684E+04  0.89727415687E+02 0.  0.
    5000000    2    1    2    0    0 -0.35847896156E+03 -0.77554035275E+03  0.67434094277E+03  0.12429596760E+04  0.60020250286E+03 0.  0.
         23    2    4    4    0    0 -0.26871463787E+03 -0.42748214344E+03  0.47048884868E+02  0.51447278178E+03  0.86718545061E+02 0.  0.
         23    2    4    4    0    0 -0.89764323689E+02 -0.34805820930E+03  0.62729205791E+03  0.72848689422E+03  0.89418556607E+02 0.  0.
          5    1    3    3  502    0  0.31358021156E+03  0.59148517885E+03  0.13921095561E+04  0.15447259861E+04  0.47000000000E+01 0. -1.
         -5    1    3    3    0  502  0.44898750003E+02  0.18405517390E+03  0.40925567446E+03  0.45100388232E+03  0.47000000000E+01 0.  1.
         11    1    5    5    0    0 -0.15696786138E+03 -0.32279003492E+03  0.40445944626E+02  0.36120380754E+03  0.00000000000E+00 0. -1.
        -11    1    5    5    0    0 -0.11174677649E+03 -0.10469210853E+03  0.66029402414E+01  0.15326897424E+03  0.00000000000E+00 0.  1.
          1    1    6    6  503    0 -0.36050662070E+02 -0.13823854240E+03  0.33923402557E+03  0.36808866995E+03  0.00000000000E+00 0. -1.
         -1    1    6    6    0  503 -0.53713661620E+02 -0.20981966690E+03  0.28805803234E+03  0.36039822427E+03  0.00000000000E+00 0.  1.
<mgrwt>
<rscale>  0 0.86525090E+03</rscale>
<asrwt>0</asrwt>
<pdfrwt beam="1">  1        1 0.43956889E+00 0.86525090E+03</pdfrwt>
<pdfrwt beam="2">  1       -1 0.58691030E-01 0.86525090E+03</pdfrwt>
<totfact> 0.23374651E+00</totfact>
</mgrwt>
</event>
<event>
12    1  0.3147868E-008  0.9911051E+03  0.7818608E-02  0.9318355E-01
         -2   -1    0    0    0  501 -0.00000000000E+00  0.00000000000E+00  0.49859133460E+03  0.49859133460E+03  0.00000000000E+00 0.  1.
          2   -1    0    0  501    0  0.00000000000E+00 -0.00000000000E+00 -0.25184781899E+04  0.25184781899E+04  0.00000000000E+00 0. -1.
         23    2    1    2    0    0  0.80916941842E+03 -0.40683992563E+03 -0.25587881840E+03  0.94555058877E+03  0.91203472629E+02 0.  0.
    5000000    2    1    2    0    0 -0.80916941842E+03  0.40683992563E+03 -0.17640080369E+04  0.20715189358E+04  0.59932668391E+03 0.  0.
         23    2    4    4    0    0 -0.45863551253E+03  0.52552093371E+03 -0.10973443176E+04  0.13036720946E+04  0.94220983282E+02 0.  0.
         23    2    4    4    0    0 -0.35053390589E+03 -0.11868100808E+03 -0.66666371933E+03  0.76784684118E+03  0.90493402961E+02 0.  0.
          5    1    3    3  502    0  0.14352843128E+02 -0.79089334285E+01  0.66266115301E+01  0.18290907966E+02  0.47000000000E+01 0. -1.
         -5    1    3    3    0  502  0.79481657529E+03 -0.39893099220E+03 -0.26250542993E+03  0.92725968080E+03  0.47000000000E+01 0.  1.
         13    1    5    5    0    0 -0.20708652357E+03  0.28481595596E+03 -0.48646827402E+03  0.60054669980E+03  0.00000000000E+00 0.  1.
        -13    1    5    5    0    0 -0.25154898896E+03  0.24070497775E+03 -0.61087604359E+03  0.70312539479E+03  0.00000000000E+00 0. -1.
          4    1    6    6  503    0 -0.25880910390E+03 -0.11639551426E+03 -0.55483041394E+03  0.62319086661E+03  0.00000000000E+00 0.  1.
         -4    1    6    6    0  503 -0.91724801991E+02 -0.22854938180E+01 -0.11183330540E+03  0.14465597457E+03  0.00000000000E+00 0. -1.
<mgrwt>
<rscale>  0 0.99110506E+03</rscale>
<asrwt>0</asrwt>
<pdfrwt beam="1">  1        2 0.38745819E+00 0.99110506E+03</pdfrwt>
<pdfrwt beam="2">  1       -2 0.76706359E-01 0.99110506E+03</pdfrwt>
<totfact> 0.52206685E+00</totfact>
</mgrwt>
</event>
<event>
12    1  0.3147868E-008  0.1470232E+04  0.7818608E-02  0.8904493E-01
          2   -1    0    0  501    0  0.00000000000E+00  0.00000000000E+00  0.32465032498E+04  0.32465032498E+04  0.00000000000E+00 0.  1.
         -2   -1    0    0    0  501 -0.00000000000E+00 -0.00000000000E+00 -0.68003404511E+03  0.68003404511E+03  0.00000000000E+00 0. -1.
         23    2    1    2    0    0 -0.11922344525E+04  0.75570190973E+03  0.14778845588E+04  0.20456866252E+04  0.90457907565E+02 0.  0.
    5000000    2    1    2    0    0  0.11922344525E+04 -0.75570190973E+03  0.10885846459E+04  0.18808506698E+04  0.60006195076E+03 0.  0.
         23    2    4    4    0    0  0.80033027103E+03 -0.78943934261E+03  0.76485787420E+03  0.13635376632E+04  0.10239322665E+03 0.  0.
         23    2    4    4    0    0  0.39190418144E+03  0.33737432887E+02  0.32372677168E+03  0.51731300658E+03  0.89925648507E+02 0.  0.
          5    1    3    3  502    0 -0.16097086896E+03  0.68797282653E+02  0.17077146072E+03  0.24460103955E+03  0.47000000000E+01 0. -1.
         -5    1    3    3    0  502 -0.10312635835E+04  0.68690462707E+03  0.13071130981E+04  0.18010855856E+04  0.47000000000E+01 0.  1.
         11    1    5    5    0    0  0.36729195510E+03 -0.36237132574E+03  0.41294333215E+03  0.66086197769E+03  0.00000000000E+00 0. -1.
        -11    1    5    5    0    0  0.43303831593E+03 -0.42706801687E+03  0.35191454206E+03  0.70267568552E+03  0.00000000000E+00 0.  1.
          1    1    6    6  503    0  0.18980619404E+03 -0.25429008409E+02  0.17588613751E+03  0.26001722853E+03  0.00000000000E+00 0. -1.
         -1    1    6    6    0  503  0.20209798740E+03  0.59166441297E+02  0.14784063418E+03  0.25729577805E+03  0.00000000000E+00 0.  1.
<mgrwt>
<rscale>  0 0.14702318E+04</rscale>
<asrwt>0</asrwt>
<pdfrwt beam="1">  1        2 0.49946203E+00 0.14702318E+04</pdfrwt>
<pdfrwt beam="2">  1       -2 0.10462062E+00 0.14702318E+04</pdfrwt>
<totfact> 0.86151431E-01</totfact>
</mgrwt>
</event>
<event>
12    1  0.3147868E-008  0.1224126E+04  0.7818608E-02  0.9091997E-01
          1   -1    0    0  501    0  0.00000000000E+00  0.00000000000E+00  0.33886032411E+04  0.33886032411E+04  0.00000000000E+00 0. -1.
         -1   -1    0    0    0  501 -0.00000000000E+00 -0.00000000000E+00 -0.46599171340E+03  0.46599171340E+03  0.00000000000E+00 0.  1.
         23    2    1    2    0    0  0.66366852994E+03 -0.96602938309E+03  0.11317550087E+04  0.16319533372E+04  0.93453776875E+02 0.  0.
    5000000    2    1    2    0    0 -0.66366852994E+03  0.96602938309E+03  0.17908565191E+04  0.22226416174E+04  0.59941638348E+03 0.  0.
         23    2    4    4    0    0  0.78937771486E+02  0.91910115426E+02  0.12167549143E+03  0.19526292895E+03  0.92973357045E+02 0.  0.
         23    2    4    4    0    0 -0.74260630143E+03  0.87411926766E+03  0.16691810276E+04  0.20273786884E+04  0.92468536667E+02 0.  0.
          5    1    3    3  502    0  0.23615668023E+03 -0.33782547605E+03  0.46050156288E+03  0.61804515151E+03  0.47000000000E+01 0. -1.
         -5    1    3    3    0  502  0.42751184971E+03 -0.62820390704E+03  0.67125344578E+03  0.10139081857E+04  0.47000000000E+01 0.  1.
         11    1    5    5    0    0  0.73654085767E+02  0.55205378620E+02  0.12798444827E+03  0.15764700180E+03  0.00000000000E+00 0. -1.
        -11    1    5    5    0    0  0.52836857183E+01  0.36704736806E+02 -0.63089568310E+01  0.37615927146E+02  0.00000000000E+00 0.  1.
          1    1    6    6  503    0 -0.63579040702E+03  0.74247239922E+03  0.13611266180E+04  0.16757566576E+04  0.00000000000E+00 0. -1.
         -1    1    6    6    0  503 -0.10681589441E+03  0.13164686844E+03  0.30805440969E+03  0.35162203087E+03  0.00000000000E+00 0.  1.
<mgrwt>
<rscale>  0 0.12241263E+04</rscale>
<asrwt>0</asrwt>
<pdfrwt beam="1">  1        1 0.52132356E+00 0.12241263E+04</pdfrwt>
<pdfrwt beam="2">  1       -1 0.71691035E-01 0.12241263E+04</pdfrwt>
<totfact> 0.60053168E-01</totfact>
</mgrwt>
</event>
<event>
12    1  0.3147868E-008  0.1093775E+04  0.7818608E-02  0.9211281E-01
          1   -1    0    0  501    0  0.00000000000E+00  0.00000000000E+00  0.69682632887E+03  0.69682632887E+03  0.00000000000E+00 0. -1.
         -1   -1    0    0    0  501 -0.00000000000E+00 -0.00000000000E+00 -0.18804774507E+04  0.18804774507E+04  0.00000000000E+00 0.  1.
         23    2    1    2    0    0  0.90872749957E+03 -0.53255480499E+03 -0.38643499348E+03  0.11256815253E+04  0.91796532987E+02 0.  0.
    5000000    2    1    2    0    0 -0.90872749957E+03  0.53255480499E+03 -0.79721612840E+03  0.14516222543E+04  0.60187484163E+03 0.  0.
         23    2    4    4    0    0 -0.43174032851E+03  0.47785393834E+03 -0.20212014034E+03  0.68166981410E+03  0.95273745973E+02 0.  0.
         23    2    4    4    0    0 -0.47698717106E+03  0.54700866641E+02 -0.59509598806E+03  0.76995244019E+03  0.90435496278E+02 0.  0.
          5    1    3    3  502    0  0.25119986839E+03 -0.11506140400E+03 -0.70745440213E+02  0.28524990426E+03  0.47000000000E+01 0. -1.
         -5    1    3    3    0  502  0.65752763118E+03 -0.41749340098E+03 -0.31568955327E+03  0.84043162106E+03  0.47000000000E+01 0.  1.
         11    1    5    5    0    0 -0.29258221264E+03  0.37650589094E+03 -0.17202986605E+03  0.50690759698E+03  0.00000000000E+00 0. -1.
        -11    1    5    5    0    0 -0.13915811587E+03  0.10134804741E+03 -0.30090274283E+02  0.17476221712E+03  0.00000000000E+00 0.  1.
          3    1    6    6  503    0 -0.31892144085E+03  0.99795754099E+01 -0.44400177546E+03  0.54676142326E+03  0.00000000000E+00 0. -1.
         -3    1    6    6    0  503 -0.15806573021E+03  0.44721291231E+02 -0.15109421260E+03  0.22319101693E+03  0.00000000000E+00 0.  1.
<mgrwt>
<rscale>  0 0.10937746E+04</rscale>
<asrwt>0</asrwt>
<pdfrwt beam="1">  1        1 0.10720405E+00 0.10937746E+04</pdfrwt>
<pdfrwt beam="2">  1       -1 0.28930422E+00 0.10937746E+04</pdfrwt>
<totfact> 0.10628032E+00</totfact>
</mgrwt>
</event>
<event>
12    1  0.3147868E-008  0.7781203E+03  0.7818608E-02  0.9592238E-01
          1   -1    0    0  501    0  0.00000000000E+00  0.00000000000E+00  0.14414795918E+04  0.14414795918E+04  0.00000000000E+00 0. -1.
         -1   -1    0    0    0  501 -0.00000000000E+00 -0.00000000000E+00 -0.54945496874E+03  0.54945496874E+03  0.00000000000E+00 0.  1.
         23    2    1    2    0    0 -0.28492278013E+03 -0.71725515930E+03  0.22840909478E+03  0.80938276005E+03  0.85403650492E+02 0.  0.
    5000000    2    1    2    0    0  0.28492278013E+03  0.71725515930E+03  0.66361552833E+03  0.11815518005E+04  0.60003594371E+03 0.  0.
         23    2    4    4    0    0  0.22365724771E+03  0.50955935470E+03  0.98826603961E+02  0.57112035817E+03  0.82088156618E+02 0.  0.
         23    2    4    4    0    0  0.61265532418E+02  0.20769580460E+03  0.56478892437E+03  0.61043144236E+03  0.82152322098E+02 0.  0.
          5    1    3    3  502    0 -0.72946740545E+02 -0.29417400488E+03  0.96364822105E+02  0.31806892498E+03  0.47000000000E+01 0.  1.
         -5    1    3    3    0  502 -0.21197603958E+03 -0.42308115442E+03  0.13204427268E+03  0.49131383507E+03  0.47000000000E+01 0. -1.
         11    1    5    5    0    0 -0.20077198377E+01  0.29900022598E+02  0.17844788802E+02  0.34878055818E+02  0.00000000000E+00 0.  1.
        -11    1    5    5    0    0  0.22566496755E+03  0.47965933210E+03  0.80981815159E+02  0.53624230236E+03  0.00000000000E+00 0. -1.
          3    1    6    6  503    0  0.27082170492E+02  0.37663917592E+02  0.21571779424E+03  0.22064945366E+03  0.00000000000E+00 0. -1.
         -3    1    6    6    0  503  0.34183361927E+02  0.17003188700E+03  0.34907113013E+03  0.38978198871E+03  0.00000000000E+00 0.  1.
<mgrwt>
<rscale>  0 0.77812030E+03</rscale>
<asrwt>0</asrwt>
<pdfrwt beam="1">  1        1 0.22176609E+00 0.77812030E+03</pdfrwt>
<pdfrwt beam="2">  1       -1 0.84531534E-01 0.77812030E+03</pdfrwt>
<totfact> 0.10287491E+01</totfact>
</mgrwt>
</event>
<event>
12    1  0.3147868E-008  0.7248099E+03  0.7818608E-02  0.9675720E-01
          2   -1    0    0  501    0  0.00000000000E+00  0.00000000000E+00  0.17171980941E+04  0.17171980941E+04  0.00000000000E+00 0. -1.
         -2   -1    0    0    0  501 -0.00000000000E+00 -0.00000000000E+00 -0.47836858255E+03  0.47836858255E+03  0.00000000000E+00 0.  1.
         23    2    1    2    0    0 -0.69236991651E+03  0.17302595015E+03  0.10021301149E+04  0.12337500823E+04  0.92522525301E+02 0.  0.
    5000000    2    1    2    0    0  0.69236991651E+03 -0.17302595015E+03  0.23669939668E+03  0.96181659437E+03  0.59979202737E+03 0.  0.
         23    2    4    4    0    0  0.31594689088E+03 -0.15129125289E+03 -0.17034744234E+03  0.40002389466E+03  0.91046054997E+02 0.  0.
         23    2    4    4    0    0  0.37642302563E+03 -0.21734697262E+02  0.40704683903E+03  0.56179269971E+03  0.88075064538E+02 0.  0.
          5    1    3    3  502    0 -0.12480018869E+03  0.67201238893E+02  0.18074572531E+03  0.22974377211E+03  0.47000000000E+01 0. -1.
         -5    1    3    3    0  502 -0.56756972782E+03  0.10582471126E+03  0.82138438960E+03  0.10040063102E+04  0.47000000000E+01 0.  1.
         11    1    5    5    0    0  0.29216884692E+03 -0.13040551230E+03 -0.17977975865E+03  0.36699999233E+03  0.00000000000E+00 0.  1.
        -11    1    5    5    0    0  0.23778043958E+02 -0.20885740584E+02  0.94323163070E+01  0.33023902331E+02  0.00000000000E+00 0. -1.
          3    1    6    6  503    0  0.14412867771E+03 -0.26211127128E+02  0.10273280221E+03  0.17892492161E+03  0.00000000000E+00 0. -1.
         -3    1    6    6    0  503  0.23229434792E+03  0.44764298663E+01  0.30431403682E+03  0.38286777809E+03  0.00000000000E+00 0.  1.
<mgrwt>
<rscale>  0 0.72480994E+03</rscale>
<asrwt>0</asrwt>
<pdfrwt beam="1">  1        2 0.26418432E+00 0.72480994E+03</pdfrwt>
<pdfrwt beam="2">  1       -2 0.73595167E-01 0.72480994E+03</pdfrwt>
<totfact> 0.16483269E+01</totfact>
</mgrwt>
</event>
<event>
12    1  0.3147868E-008  0.7738193E+03  0.7818608E-02  0.9598705E-01
         -1   -1    0    0    0  501 -0.00000000000E+00  0.00000000000E+00  0.67159295808E+03  0.67159295808E+03  0.00000000000E+00 0.  1.
          1   -1    0    0  501    0  0.00000000000E+00 -0.00000000000E+00 -0.13942310783E+04  0.13942310783E+04  0.00000000000E+00 0. -1.
         23    2    1    2    0    0 -0.57219412952E+03 -0.38445197434E+03  0.24283957087E+03  0.73639669459E+03  0.89997734294E+02 0.  0.
    5000000    2    1    2    0    0  0.57219412952E+03  0.38445197434E+03 -0.96547769111E+03  0.13294273418E+04  0.60001703533E+03 0.  0.
         23    2    4    4    0    0 -0.64714441715E+02 -0.15527281963E+02 -0.12137859814E+02  0.11180720466E+03  0.89019480570E+02 0.  0.
         23    2    4    4    0    0  0.63690857124E+03  0.39997925631E+03 -0.95333983129E+03  0.12176201372E+04  0.90033498617E+02 0.  0.
          5    1    3    3  502    0 -0.34257539188E+03 -0.17667218929E+03  0.13730244639E+03  0.40920045623E+03  0.47000000000E+01 0. -1.
         -5    1    3    3    0  502 -0.22961873764E+03 -0.20777978505E+03  0.10553712448E+03  0.32719623836E+03  0.47000000000E+01 0.  1.
         13    1    5    5    0    0 -0.21219920443E+02  0.30415424356E+02  0.18578455372E+02  0.41479417382E+02  0.00000000000E+00 0. -1.
        -13    1    5    5    0    0 -0.43494521271E+02 -0.45942706319E+02 -0.30716315186E+02  0.70327787276E+02  0.00000000000E+00 0.  1.
          1    1    6    6  503    0  0.12444778028E+03  0.76065147703E+02 -0.13159894262E+03  0.19644703716E+03  0.00000000000E+00 0. -1.
         -1    1    6    6    0  503  0.51246079096E+03  0.32391410860E+03 -0.82174088867E+03  0.10211731000E+04  0.00000000000E+00 0.  1.
<mgrwt>
<rscale>  0 0.77381931E+03</rscale>
<asrwt>0</asrwt>
<pdfrwt beam="1">  1        1 0.21449709E+00 0.77381931E+03</pdfrwt>
<pdfrwt beam="2">  1       -1 0.10332199E+00 0.77381931E+03</pdfrwt>
<totfact> 0.70941076E+00</totfact>
</mgrwt>
</event>
<event>
12    1  0.5197644E-008  0.1025205E+04  0.7818608E-02  0.9281324E-01
          2   -1    0    0  501    0  0.00000000000E+00  0.00000000000E+00  0.16547402168E+04  0.16547402168E+04  0.00000000000E+00 0. -1.
         -2   -1    0    0    0  501 -0.00000000000E+00 -0.00000000000E+00 -0.94372699283E+03  0.94372699283E+03  0.00000000000E+00 0.  1.
         23    2    1    2    0    0  0.29538166979E+03  0.90316167463E+03  0.10553893678E+04  0.14230758832E+04  0.91361426178E+02 0.  0.
    5000000    2    1    2    0    0 -0.29538166979E+03 -0.90316167463E+03 -0.34437614390E+03  0.11753913264E+04  0.59999875028E+03 0.  0.
         23    2    4    4    0    0 -0.38031044896E+03 -0.31987104713E+03 -0.43455643771E+02  0.50706978307E+03  0.90982677204E+02 0.  0.
         23    2    4    4    0    0  0.84928779175E+02 -0.58329062750E+03 -0.30092050013E+03  0.66832154333E+03  0.93057424324E+02 0.  0.
          5    1    3    3  502    0  0.14933679883E+03  0.59582205958E+03  0.67269226419E+03  0.91095684775E+03  0.47000000000E+01 0. -1.
         -5    1    3    3    0  502  0.14604487096E+03  0.30733961505E+03  0.38269710363E+03  0.51211903542E+03  0.47000000000E+01 0.  1.
         11    1    5    5    0    0 -0.25112781828E+03 -0.15829493492E+03 -0.44672052087E+02  0.30019670181E+03  0.00000000000E+00 0. -1.
        -11    1    5    5    0    0 -0.12918263068E+03 -0.16157611220E+03  0.12164083153E+01  0.20687308127E+03  0.00000000000E+00 0.  1.
          3    1    6    6  503    0  0.75478884442E+02 -0.32512714408E+03 -0.21055303980E+03  0.39463566030E+03  0.00000000000E+00 0. -1.
         -3    1    6    6    0  503  0.94498947323E+01 -0.25816348343E+03 -0.90367460327E+02  0.27368588303E+03  0.00000000000E+00 0.  1.
<mgrwt>
<rscale>  0 0.10252052E+04</rscale>
<asrwt>0</asrwt>
<pdfrwt beam="1">  1        2 0.25457542E+00 0.10252052E+04</pdfrwt>
<pdfrwt beam="2">  1       -2 0.14518877E+00 0.10252052E+04</pdfrwt>
<totfact> 0.33636076E+00</totfact>
</mgrwt>
</event>
<event>
12    1  0.3147868E-008  0.1070389E+04  0.7818608E-02  0.9234543E-01
          2   -1    0    0  501    0  0.00000000000E+00  0.00000000000E+00  0.98118293127E+03  0.98118293127E+03  0.00000000000E+00 0.  1.
         -2   -1    0    0    0  501 -0.00000000000E+00 -0.00000000000E+00 -0.24066003160E+04  0.24066003160E+04  0.00000000000E+00 0. -1.
         23    2    1    2    0    0  0.88617870760E+03 -0.55204253969E+03 -0.18367753467E+04  0.21152504275E+04  0.10235736110E+03 0.  0.
    5000000    2    1    2    0    0 -0.88617870760E+03  0.55204253969E+03  0.41135796194E+03  0.12725328198E+04  0.60005061218E+03 0.  0.
         23    2    4    4    0    0 -0.68160081037E+03  0.53066326757E+03  0.80535042876E+02  0.87239599757E+03  0.91682687498E+02 0.  0.
         23    2    4    4    0    0 -0.20457789722E+03  0.21379272119E+02  0.33082291907E+03  0.40013682223E+03  0.91413803191E+02 0.  0.
          5    1    3    3  502    0  0.50856244555E+03 -0.36283717495E+03 -0.10323238045E+04  0.12066487078E+04  0.47000000000E+01 0. -1.
         -5    1    3    3    0  502  0.37761626204E+03 -0.18920536474E+03 -0.80445154217E+03  0.90860171973E+03  0.47000000000E+01 0.  1.
         11    1    5    5    0    0 -0.48973502711E+03  0.32727384137E+03  0.58568080647E+02  0.59192802273E+03  0.00000000000E+00 0. -1.
        -11    1    5    5    0    0 -0.19186578326E+03  0.20338942621E+03  0.21966962228E+02  0.28046797484E+03  0.00000000000E+00 0.  1.
          1    1    6    6  503    0 -0.17478799859E+03  0.51930583297E+02  0.27219428884E+03  0.32762380990E+03  0.00000000000E+00 0.  1.
         -1    1    6    6    0  503 -0.29789898631E+02 -0.30551311178E+02  0.58628630225E+02  0.72513012330E+02  0.00000000000E+00 0. -1.
<mgrwt>
<rscale>  0 0.10703894E+04</rscale>
<asrwt>0</asrwt>
<pdfrwt beam="1">  1        2 0.15095122E+00 0.10703894E+04</pdfrwt>
<pdfrwt beam="2">  1       -2 0.37024620E+00 0.10703894E+04</pdfrwt>
<totfact> 0.30050598E-01</totfact>
</mgrwt>
</event>
<event>
12    1  0.3147868E-008  0.9607334E+03  0.7818608E-02  0.9352692E-01
         -1   -1    0    0    0  501 -0.00000000000E+00  0.00000000000E+00  0.81461785554E+03  0.81461785554E+03  0.00000000000E+00 0.  1.
          1   -1    0    0  501    0  0.00000000000E+00 -0.00000000000E+00 -0.11751713329E+04  0.11751713329E+04  0.00000000000E+00 0. -1.
         23    2    1    2    0    0 -0.78317782139E+03  0.40360282336E+03 -0.92769747571E+02  0.89067507175E+03  0.91832012066E+02 0.  0.
    5000000    2    1    2    0    0  0.78317782139E+03 -0.40360282336E+03 -0.26778372975E+03  0.10991141166E+04  0.60006747666E+03 0.  0.
         23    2    4    4    0    0  0.44282015992E+03  0.69205893862E+02 -0.21725348644E+03  0.50691638043E+03  0.94265527153E+02 0.  0.
         23    2    4    4    0    0  0.34035766147E+03 -0.47280871722E+03 -0.50530243317E+02  0.59219773621E+03  0.93559780246E+02 0.  0.
          5    1    3    3  502    0 -0.62202903318E+03  0.31066453699E+03 -0.36501122597E+02  0.69626646811E+03  0.47000000000E+01 0. -1.
         -5    1    3    3    0  502 -0.16114878820E+03  0.92938286375E+02 -0.56268624974E+02  0.19440860364E+03  0.47000000000E+01 0.  1.
         11    1    5    5    0    0  0.16617479325E+03  0.71121976276E+02 -0.98532031099E+02  0.20586636096E+03  0.00000000000E+00 0. -1.
        -11    1    5    5    0    0  0.27664536666E+03 -0.19160824137E+01 -0.11872145534E+03  0.30105001947E+03  0.00000000000E+00 0.  1.
          4    1    6    6  503    0  0.50386070169E+01 -0.93395213347E+01  0.12828116781E+02  0.16648567493E+02  0.00000000000E+00 0. -1.
         -4    1    6    6    0  503  0.33531905445E+03 -0.46346919589E+03 -0.63358360098E+02  0.57554916872E+03  0.00000000000E+00 0.  1.
<mgrwt>
<rscale>  0 0.96073338E+03</rscale>
<asrwt>0</asrwt>
<pdfrwt beam="1">  1        1 0.18079559E+00 0.96073338E+03</pdfrwt>
<pdfrwt beam="2">  1       -1 0.12532582E+00 0.96073338E+03</pdfrwt>
<totfact> 0.62442157E+00</totfact>
</mgrwt>
</event>
<event>
12    1  0.3147868E-008  0.6463810E+03  0.7818608E-02  0.9813594E-01
         -2   -1    0    0    0  501 -0.00000000000E+00  0.00000000000E+00  0.46265188661E+03  0.46265188661E+03  0.00000000000E+00 0.  1.
          2   -1    0    0  501    0  0.00000000000E+00 -0.00000000000E+00 -0.23517777373E+04  0.23517777373E+04  0.00000000000E+00 0. -1.
         23    2    1    2    0    0 -0.39795709931E+03  0.42204119253E+03  0.15430891307E+03  0.60716074047E+03  0.91347156706E+02 0.  0.
    5000000    2    1    2    0    0  0.39795709931E+03 -0.42204119253E+03 -0.20434347638E+04  0.22072688834E+04  0.59993472060E+03 0.  0.
         23    2    4    4    0    0  0.51551517072E+02 -0.32596016622E+03 -0.41807531572E+03  0.54022854749E+03  0.90290226657E+02 0.  0.
         23    2    4    4    0    0  0.34640558224E+03 -0.96081026309E+02 -0.16253594480E+04  0.16670403360E+04  0.89452531237E+02 0.  0.
          5    1    3    3  502    0 -0.13178824999E+03  0.85270961237E+02  0.26517091249E+02  0.15926244314E+03  0.47000000000E+01 0. -1.
         -5    1    3    3    0  502 -0.26616884932E+03  0.33677023129E+03  0.12779182182E+03  0.44789829733E+03  0.47000000000E+01 0.  1.
         13    1    5    5    0    0 -0.19063051926E+02 -0.49423237397E+02 -0.39289164876E+02  0.65952216189E+02  0.00000000000E+00 0.  1.
        -13    1    5    5    0    0  0.70614568998E+02 -0.27653692882E+03 -0.37878615085E+03  0.47427633130E+03  0.00000000000E+00 0. -1.
          1    1    6    6  503    0  0.24257140842E+03 -0.10399456953E+03 -0.10757368307E+04  0.11076396019E+04  0.00000000000E+00 0. -1.
         -1    1    6    6    0  503  0.10383417382E+03  0.79135432213E+01 -0.54962261733E+03  0.55940073409E+03  0.00000000000E+00 0.  1.
<mgrwt>
<rscale>  0 0.64638101E+03</rscale>
<asrwt>0</asrwt>
<pdfrwt beam="1">  1        2 0.36181195E+00 0.64638101E+03</pdfrwt>
<pdfrwt beam="2">  1       -2 0.71177215E-01 0.64638101E+03</pdfrwt>
<totfact> 0.80826465E+00</totfact>
</mgrwt>
</event>
<event>
12    1  0.3147868E-008  0.5575036E+03  0.7818608E-02  0.9997719E-01
          2   -1    0    0  501    0  0.00000000000E+00  0.00000000000E+00  0.13404722840E+04  0.13404722840E+04  0.00000000000E+00 0. -1.
         -2   -1    0    0    0  501 -0.00000000000E+00 -0.00000000000E+00 -0.43431515198E+03  0.43431515198E+03  0.00000000000E+00 0.  1.
         23    2    1    2    0    0 -0.42632911516E+03 -0.45499571204E+02  0.93937280712E+03  0.10366227815E+04  0.91317002460E+02 0.  0.
    5000000    2    1    2    0    0  0.42632911516E+03  0.45499571204E+02 -0.33215675134E+02  0.73816465446E+03  0.59996420777E+03 0.  0.
         23    2    4    4    0    0  0.52470796136E+03 -0.67641892006E+02  0.57862430729E+02  0.53997700990E+03  0.91286582049E+02 0.  0.
         23    2    4    4    0    0 -0.98378846205E+02  0.11314146321E+03 -0.91078105862E+02  0.19818764455E+03  0.92215687430E+02 0.  0.
          5    1    3    3  502    0 -0.77834362248E+02  0.82184986992E+01  0.25433638798E+03  0.26614811650E+03  0.47000000000E+01 0. -1.
         -5    1    3    3    0  502 -0.34849475291E+03 -0.53718069903E+02  0.68503641914E+03  0.77047466498E+03  0.47000000000E+01 0.  1.
         13    1    5    5    0    0  0.39390369983E+03 -0.75121426521E+02  0.12061547806E+02  0.40118428982E+03  0.00000000000E+00 0.  1.
        -13    1    5    5    0    0  0.13080426153E+03  0.74795345147E+01  0.45800882923E+02  0.13879272008E+03  0.00000000000E+00 0. -1.
          1    1    6    6  503    0 -0.41649385381E+01  0.16313357157E+02  0.17928708581E+02  0.24594937002E+02  0.00000000000E+00 0. -1.
         -1    1    6    6    0  503 -0.94213907667E+02  0.96828106053E+02 -0.10900681444E+03  0.17359270755E+03  0.00000000000E+00 0.  1.
<mgrwt>
<rscale>  0 0.55750360E+03</rscale>
<asrwt>0</asrwt>
<pdfrwt beam="1">  1        2 0.20622650E+00 0.55750360E+03</pdfrwt>
<pdfrwt beam="2">  1       -2 0.66817716E-01 0.55750360E+03</pdfrwt>
<totfact> 0.33669368E+01</totfact>
</mgrwt>
</event>
<event>
12    1  0.3147868E-008  0.8586437E+03  0.7818608E-02  0.9478809E-01
         -2   -1    0    0    0  501 -0.00000000000E+00  0.00000000000E+00  0.40813252134E+03  0.40813252134E+03  0.00000000000E+00 0. -1.
          2   -1    0    0  501    0  0.00000000000E+00 -0.00000000000E+00 -0.20597292353E+04  0.20597292353E+04  0.00000000000E+00 0.  1.
         23    2    1    2    0    0 -0.62260363963E+03  0.51089543854E+03 -0.91449496239E+03  0.12220555417E+04  0.92028634181E+02 0.  0.
    5000000    2    1    2    0    0  0.62260363963E+03 -0.51089543854E+03 -0.73710175160E+03  0.12458062150E+04  0.60005390752E+03 0.  0.
         23    2    4    4    0    0  0.66155428123E+03 -0.49949952435E+03 -0.77496560873E+03  0.11383009405E+04  0.89462252798E+02 0.  0.
         23    2    4    4    0    0 -0.38950641599E+02 -0.11395914184E+02  0.37863857138E+02  0.10750527446E+03  0.92068957949E+02 0.  0.
          5    1    3    3  502    0 -0.49774821080E+03  0.45250764904E+03 -0.75723693347E+03  0.10128900815E+04  0.47000000000E+01 0. -1.
         -5    1    3    3    0  502 -0.12485542883E+03  0.58387789499E+02 -0.15725802892E+03  0.20916546018E+03  0.47000000000E+01 0.  1.
         13    1    5    5    0    0  0.42571877194E+03 -0.35263078395E+03 -0.46824187598E+03  0.72445524154E+03  0.00000000000E+00 0.  1.
        -13    1    5    5    0    0  0.23583550928E+03 -0.14686874041E+03 -0.30672373275E+03  0.41384569900E+03  0.00000000000E+00 0. -1.
          3    1    6    6  503    0  0.14762777709E+02  0.10413170704E+02  0.45572653908E+02  0.49022857056E+02  0.00000000000E+00 0. -1.
         -3    1    6    6    0  503 -0.53713419308E+02 -0.21809084888E+02 -0.77087967700E+01  0.58482417401E+02  0.00000000000E+00 0.  1.
<mgrwt>
<rscale>  0 0.85864366E+03</rscale>
<asrwt>0</asrwt>
<pdfrwt beam="1">  1        2 0.31688142E+00 0.85864366E+03</pdfrwt>
<pdfrwt beam="2">  1       -2 0.62789620E-01 0.85864366E+03</pdfrwt>
<totfact> 0.14855245E+01</totfact>
</mgrwt>
</event>
<event>
12    1  0.3147868E-008  0.9947681E+03  0.7818608E-02  0.9314302E-01
          2   -1    0    0  501    0  0.00000000000E+00  0.00000000000E+00  0.21741383270E+04  0.21741383270E+04  0.00000000000E+00 0. -1.
         -2   -1    0    0    0  501 -0.00000000000E+00 -0.00000000000E+00 -0.66981291211E+03  0.66981291211E+03  0.00000000000E+00 0.  1.
         23    2    1    2    0    0 -0.96751698783E+03 -0.13365835188E+03  0.13769699040E+04  0.16906605186E+04  0.91286340223E+02 0.  0.
    5000000    2    1    2    0    0  0.96751698783E+03  0.13365835188E+03  0.12735551088E+03  0.11532907205E+04  0.59992198080E+03 0.  0.
         23    2    4    4    0    0  0.48623086817E+02  0.31642670811E+02 -0.15172298218E+03  0.18336583064E+03  0.85074680937E+02 0.  0.
         23    2    4    4    0    0  0.91889390101E+03  0.10201568107E+03  0.27907849306E+03  0.96992488985E+03  0.89979365140E+02 0.  0.
          5    1    3    3  502    0 -0.30672581680E+03 -0.20069769861E+00  0.42269609039E+03  0.52227850981E+03  0.47000000000E+01 0. -1.
         -5    1    3    3    0  502 -0.66079117103E+03 -0.13345765418E+03  0.95427381363E+03  0.11683820088E+04  0.47000000000E+01 0.  1.
         11    1    5    5    0    0 -0.11812340653E+02  0.12141119836E+00  0.47182060671E+01  0.12720361665E+02  0.00000000000E+00 0.  1.
        -11    1    5    5    0    0  0.60435427470E+02  0.31521259612E+02 -0.15644118825E+03  0.17064546898E+03  0.00000000000E+00 0. -1.
          3    1    6    6  503    0  0.70114660084E+03  0.40200031656E+02  0.22082982609E+03  0.73619862164E+03  0.00000000000E+00 0. -1.
         -3    1    6    6    0  503  0.21774730018E+03  0.61815649417E+02  0.58248666965E+02  0.23372626821E+03  0.00000000000E+00 0.  1.
<mgrwt>
<rscale>  0 0.99476810E+03</rscale>
<asrwt>0</asrwt>
<pdfrwt beam="1">  1        2 0.33448282E+00 0.99476810E+03</pdfrwt>
<pdfrwt beam="2">  1       -2 0.10304814E+00 0.99476810E+03</pdfrwt>
<totfact> 0.41198788E+00</totfact>
</mgrwt>
</event>
<event>
12    1  0.3147868E-008  0.7801342E+03  0.7818608E-02  0.9589226E-01
          2   -1    0    0  501    0  0.00000000000E+00  0.00000000000E+00  0.17165342500E+04  0.17165342500E+04  0.00000000000E+00 0. -1.
         -2   -1    0    0    0  501 -0.00000000000E+00 -0.00000000000E+00 -0.37832282782E+03  0.37832282782E+03  0.00000000000E+00 0.  1.
         23    2    1    2    0    0 -0.68964727457E+03  0.18035341330E+02  0.62358670874E+03  0.93441055776E+03  0.91236342898E+02 0.  0.
    5000000    2    1    2    0    0  0.68964727457E+03 -0.18035341330E+02  0.71462471346E+03  0.11604465201E+04  0.60000750667E+03 0.  0.
         23    2    4    4    0    0 -0.50445722679E+02  0.59932721768E+02 -0.52833463065E+01  0.12054334405E+03  0.91466288719E+02 0.  0.
         23    2    4    4    0    0  0.74009299725E+03 -0.77968063098E+02  0.71990805977E+03  0.10399031760E+04  0.96510815932E+02 0.  0.
          5    1    3    3  502    0 -0.28711609950E+03 -0.27172213340E+02  0.29763407020E+03  0.41446605834E+03  0.47000000000E+01 0. -1.
         -5    1    3    3    0  502 -0.40253117507E+03  0.45207554670E+02  0.32595263854E+03  0.51994449942E+03  0.47000000000E+01 0.  1.
         11    1    5    5    0    0 -0.34234663498E+02  0.82160096834E+02  0.91494986764E+01  0.89476293076E+02  0.00000000000E+00 0. -1.
        -11    1    5    5    0    0 -0.16211059181E+02 -0.22227375066E+02 -0.14432844983E+02  0.31067050977E+02  0.00000000000E+00 0.  1.
          1    1    6    6  503    0  0.10854774572E+03 -0.45933712437E+02  0.12190214913E+03  0.16956607268E+03  0.00000000000E+00 0.  1.
         -1    1    6    6    0  503  0.63154525152E+03 -0.32034350661E+02  0.59800591064E+03  0.87033710337E+03  0.00000000000E+00 0. -1.
<mgrwt>
<rscale>  0 0.78013417E+03</rscale>
<asrwt>0</asrwt>
<pdfrwt beam="1">  1        2 0.26408219E+00 0.78013417E+03</pdfrwt>
<pdfrwt beam="2">  1       -2 0.58203513E-01 0.78013417E+03</pdfrwt>
<totfact> 0.27141054E+01</totfact>
</mgrwt>
</event>
<event>
12    1  0.3147868E-008  0.5582878E+03  0.7818608E-02  0.9995936E-01
          2   -1    0    0  501    0  0.00000000000E+00  0.00000000000E+00  0.45446680743E+03  0.45446680743E+03  0.00000000000E+00 0. -1.
         -2   -1    0    0    0  501 -0.00000000000E+00 -0.00000000000E+00 -0.89100299141E+03  0.89100299141E+03  0.00000000000E+00 0.  1.
         23    2    1    2    0    0  0.21138307467E+03  0.43793422202E+03 -0.23353468976E+03  0.54694928143E+03  0.90254518257E+02 0.  0.
    5000000    2    1    2    0    0 -0.21138307467E+03 -0.43793422202E+03 -0.20300149422E+03  0.79852051740E+03  0.59996351805E+03 0.  0.
         23    2    4    4    0    0 -0.29299888489E+03 -0.17165002737E+03 -0.32813394613E+03  0.48053949066E+03  0.89074334354E+02 0.  0.
         23    2    4    4    0    0  0.81615810223E+02 -0.26628419465E+03  0.12513245190E+03  0.31798102674E+03  0.88799718763E+02 0.  0.
          5    1    3    3  502    0  0.69010772372E+02  0.16895416083E+03 -0.42021343387E+02  0.18733894006E+03  0.47000000000E+01 0. -1.
         -5    1    3    3    0  502  0.14237230229E+03  0.26898006119E+03 -0.19151334637E+03  0.35961034137E+03  0.47000000000E+01 0.  1.
         11    1    5    5    0    0 -0.16423977944E+03 -0.87968067878E+02 -0.11897612183E+03  0.22106199059E+03  0.00000000000E+00 0. -1.
        -11    1    5    5    0    0 -0.12875910545E+03 -0.83681959496E+02 -0.20915782429E+03  0.25947750007E+03  0.00000000000E+00 0.  1.
          1    1    6    6  503    0  0.92744264459E+02 -0.17737778690E+03  0.10547188449E+03  0.22624919070E+03  0.00000000000E+00 0. -1.
         -1    1    6    6    0  503 -0.11128454237E+02 -0.88906407753E+02  0.19660567412E+02  0.91731836045E+02  0.00000000000E+00 0.  1.
<mgrwt>
<rscale>  0 0.55828782E+03</rscale>
<asrwt>0</asrwt>
<pdfrwt beam="1">  1        2 0.69917971E-01 0.55828782E+03</pdfrwt>
<pdfrwt beam="2">  1       -2 0.13707738E+00 0.55828782E+03</pdfrwt>
<totfact> 0.26875297E+01</totfact>
</mgrwt>
</event>
<event>
12    1  0.3147868E-008  0.5044152E+03  0.7818608E-02  0.1012633E+00
         -1   -1    0    0    0  501 -0.00000000000E+00  0.00000000000E+00  0.38310570780E+03  0.38310570780E+03  0.00000000000E+00 0.  1.
          1   -1    0    0  501    0  0.00000000000E+00 -0.00000000000E+00 -0.72737751127E+03  0.72737751127E+03  0.00000000000E+00 0. -1.
         23    2    1    2    0    0 -0.22021706243E+03 -0.25303813465E+03 -0.20285694125E+03  0.40866368030E+03  0.11546087137E+03 0.  0.
    5000000    2    1    2    0    0  0.22021706243E+03  0.25303813465E+03 -0.14141486222E+03  0.70181953877E+03  0.60002387416E+03 0.  0.
         23    2    4    4    0    0 -0.16424909978E+03 -0.39827484532E+02 -0.26147199243E+02  0.19432736237E+03  0.92279209121E+02 0.  0.
         23    2    4    4    0    0  0.38446616221E+03  0.29286561918E+03 -0.11526766298E+03  0.50749217639E+03  0.10333041272E+03 0.  0.
          5    1    3    3  502    0 -0.46041581374E+02 -0.60409733785E+02  0.46060966866E+01  0.76239551927E+02  0.47000000000E+01 0. -1.
         -5    1    3    3    0  502 -0.17417548105E+03 -0.19262840086E+03 -0.20746303793E+03  0.33242412838E+03  0.47000000000E+01 0.  1.
         13    1    5    5    0    0 -0.12049615049E+03  0.12705180815E+02 -0.33111239300E+02  0.12560691888E+03  0.00000000000E+00 0.  1.
        -13    1    5    5    0    0 -0.43752949290E+02 -0.52532665347E+02  0.69640400570E+01  0.68720443493E+02  0.00000000000E+00 0. -1.
          1    1    6    6  503    0  0.30378621696E+03  0.22508882853E+03 -0.13267893988E+03  0.40069283427E+03  0.00000000000E+00 0. -1.
         -1    1    6    6    0  503  0.80679945244E+02  0.67776790645E+02  0.17411276903E+02  0.10679934212E+03  0.00000000000E+00 0.  1.
<mgrwt>
<rscale>  0 0.50441516E+03</rscale>
<asrwt>0</asrwt>
<pdfrwt beam="1">  1        1 0.11190423E+00 0.50441516E+03</pdfrwt>
<pdfrwt beam="2">  1       -1 0.58939341E-01 0.50441516E+03</pdfrwt>
<totfact> 0.78290297E+01</totfact>
</mgrwt>
</event>
<event>
12    1  0.3147868E-008  0.6796793E+03  0.7818608E-02  0.9752628E-01
          2   -1    0    0  501    0  0.00000000000E+00  0.00000000000E+00  0.12630427950E+04  0.12630427950E+04  0.00000000000E+00 0. -1.
         -2   -1    0    0    0  501 -0.00000000000E+00 -0.00000000000E+00 -0.40131595853E+03  0.40131595853E+03  0.00000000000E+00 0.  1.
         23    2    1    2    0    0  0.42341666935E+03  0.39735081534E+03  0.32272911273E+03  0.67039431867E+03  0.90028417553E+02 0.  0.
    5000000    2    1    2    0    0 -0.42341666935E+03 -0.39735081534E+03  0.53899772369E+03  0.99396443482E+03  0.60023112649E+03 0.  0.
         23    2    4    4    0    0 -0.39285055193E+03 -0.51708085625E+03  0.52304186435E+03  0.83889838712E+03  0.92051854965E+02 0.  0.
         23    2    4    4    0    0 -0.30566117421E+02  0.11973004091E+03  0.15955859346E+02  0.15506604770E+03  0.92310993230E+02 0.  0.
          5    1    3    3  502    0  0.29246026908E+03  0.31098608714E+03  0.26853541796E+03  0.50435970902E+03  0.47000000000E+01 0. -1.
         -5    1    3    3    0  502  0.13095640027E+03  0.86364728204E+02  0.54193694771E+02  0.16603460965E+03  0.47000000000E+01 0.  1.
         13    1    5    5    0    0 -0.75312755920E+02 -0.13299362830E+03  0.82172607615E+02  0.17352709821E+03  0.00000000000E+00 0. -1.
        -13    1    5    5    0    0 -0.31753779601E+03 -0.38408722795E+03  0.44086925673E+03  0.66537128891E+03  0.00000000000E+00 0.  1.
          4    1    6    6  503    0 -0.27074014531E+02  0.80803171763E+02 -0.33903026473E+02  0.91714611888E+02  0.00000000000E+00 0. -1.
         -4    1    6    6    0  503 -0.34921028902E+01  0.38926869150E+02  0.49858885820E+02  0.63351435813E+02  0.00000000000E+00 0.  1.
<mgrwt>
<rscale>  0 0.67967932E+03</rscale>
<asrwt>0</asrwt>
<pdfrwt beam="1">  1        2 0.19431427E+00 0.67967932E+03</pdfrwt>
<pdfrwt beam="2">  1       -2 0.61740917E-01 0.67967932E+03</pdfrwt>
<totfact> 0.43471284E+01</totfact>
</mgrwt>
</event>
<event>
12    1  0.3147868E-008  0.5254382E+03  0.7818608E-02  0.1007344E+00
          2   -1    0    0  501    0  0.00000000000E+00  0.00000000000E+00  0.89719421543E+03  0.89719421543E+03  0.00000000000E+00 0. -1.
         -2   -1    0    0    0  501 -0.00000000000E+00 -0.00000000000E+00 -0.32983981350E+03  0.32983981350E+03  0.00000000000E+00 0.  1.
         23    2    1    2    0    0 -0.49898209040E+02  0.35172109093E+03  0.78750964863E+02  0.37532207196E+03  0.92018401186E+02 0.  0.
    5000000    2    1    2    0    0  0.49898209040E+02 -0.35172109093E+03  0.48860343708E+03  0.85171195698E+03  0.60040185031E+03 0.  0.
         23    2    4    4    0    0  0.65089788113E+02  0.14765714315E+03  0.16555742090E+03  0.25010507879E+03  0.95414770236E+02 0.  0.
         23    2    4    4    0    0 -0.15191579074E+02 -0.49937823409E+03  0.32304601617E+03  0.60160687819E+03  0.89233976497E+02 0.  0.
          5    1    3    3  502    0 -0.67033458446E+02  0.33610838360E+03  0.68472826092E+02  0.34953247058E+03  0.47000000000E+01 0. -1.
         -5    1    3    3    0  502  0.17135249407E+02  0.15612707338E+02  0.10278138771E+02  0.25789601378E+02  0.47000000000E+01 0.  1.
         13    1    5    5    0    0  0.80827509164E+02  0.74172090179E+02  0.77377327281E+02  0.13424543186E+03  0.00000000000E+00 0. -1.
        -13    1    5    5    0    0 -0.15737721050E+02  0.73485052974E+02  0.88180093622E+02  0.11585964693E+03  0.00000000000E+00 0.  1.
          3    1    6    6  503    0 -0.10405426345E+02 -0.35249751567E+03  0.17761856614E+03  0.39485583001E+03  0.00000000000E+00 0. -1.
         -3    1    6    6    0  503 -0.47861527286E+01 -0.14688071841E+03  0.14542745004E+03  0.20675104818E+03  0.00000000000E+00 0.  1.
<mgrwt>
<rscale>  0 0.52543818E+03</rscale>
<asrwt>0</asrwt>
<pdfrwt beam="1">  1        2 0.13802988E+00 0.52543818E+03</pdfrwt>
<pdfrwt beam="2">  1       -2 0.50744587E-01 0.52543818E+03</pdfrwt>
<totfact> 0.11146772E+02</totfact>
</mgrwt>
</event>
<event>
12    1  0.3147868E-008  0.6090177E+03  0.7818608E-02  0.9886872E-01
          2   -1    0    0  501    0  0.00000000000E+00  0.00000000000E+00  0.15895842642E+04  0.15895842642E+04  0.00000000000E+00 0. -1.
         -2   -1    0    0    0  501 -0.00000000000E+00 -0.00000000000E+00 -0.27055419660E+03  0.27055419660E+03  0.00000000000E+00 0.  1.
         23    2    1    2    0    0 -0.29459057542E+03  0.36232832723E+03  0.21963596448E+03  0.52338323332E+03  0.87319116967E+02 0.  0.
    5000000    2    1    2    0    0  0.29459057542E+03 -0.36232832723E+03  0.10993941031E+04  0.13367552275E+04  0.60015141454E+03 0.  0.
         23    2    4    4    0    0  0.46034628373E+03 -0.26546394498E+03  0.69515230028E+03  0.87962014551E+03  0.90028177728E+02 0.  0.
         23    2    4    4    0    0 -0.16575570831E+03 -0.96864382259E+02  0.40424180287E+03  0.45713508198E+03  0.93291932176E+02 0.  0.
          5    1    3    3  502    0 -0.10198486749E+03  0.17740618249E+03  0.64820390071E+02  0.21470360908E+03  0.47000000000E+01 0. -1.
         -5    1    3    3    0  502 -0.19260570793E+03  0.18492214474E+03  0.15481557441E+03  0.30867962424E+03  0.47000000000E+01 0.  1.
         11    1    5    5    0    0  0.30137317346E+03 -0.20339408296E+03  0.52517877737E+03  0.63875479714E+03  0.00000000000E+00 0.  1.
        -11    1    5    5    0    0  0.15897311026E+03 -0.62069862011E+02  0.16997352291E+03  0.24086534837E+03  0.00000000000E+00 0. -1.
          4    1    6    6  503    0 -0.60147957137E+02  0.10947092425E+02  0.14133812806E+03  0.15399377268E+03  0.00000000000E+00 0. -1.
         -4    1    6    6    0  503 -0.10560775117E+03 -0.10781147468E+03  0.26290367480E+03  0.30314130930E+03  0.00000000000E+00 0.  1.
<mgrwt>
<rscale>  0 0.60901774E+03</rscale>
<asrwt>0</asrwt>
<pdfrwt beam="1">  1        2 0.24455142E+00 0.60901774E+03</pdfrwt>
<pdfrwt beam="2">  1       -2 0.41623723E-01 0.60901774E+03</pdfrwt>
<totfact> 0.64191907E+01</totfact>
</mgrwt>
</event>
<event>
12    1  0.3147868E-008  0.9755625E+03  0.7818608E-02  0.9335761E-01
         -2   -1    0    0    0  501 -0.00000000000E+00  0.00000000000E+00  0.45545836411E+03  0.45545836411E+03  0.00000000000E+00 0.  1.
          2   -1    0    0  501    0  0.00000000000E+00 -0.00000000000E+00 -0.27686322166E+04  0.27686322166E+04  0.00000000000E+00 0. -1.
         23    2    1    2    0    0 -0.76599618020E+03  0.54936617962E+03 -0.17087737529E+04  0.19537048252E+04  0.92203353030E+02 0.  0.
    5000000    2    1    2    0    0  0.76599618020E+03 -0.54936617962E+03 -0.60440009963E+03  0.12703857555E+04  0.60002261613E+03 0.  0.
         23    2    4    4    0    0  0.28146653784E+03 -0.37863811849E+02  0.53409216525E+02  0.30168167096E+03  0.86615275879E+02 0.  0.
         23    2    4    4    0    0  0.48452964236E+03 -0.51150236777E+03 -0.65780931615E+03  0.96870408450E+03  0.96285307034E+02 0.  0.
          5    1    3    3  502    0 -0.29059280401E+03  0.17667878806E+03 -0.69058675975E+03  0.76979980166E+03  0.47000000000E+01 0. -1.
         -5    1    3    3    0  502 -0.47540337619E+03  0.37268739156E+03 -0.10181869931E+04  0.11839050236E+04  0.47000000000E+01 0.  1.
         13    1    5    5    0    0  0.23367529007E+03  0.34930392414E+01  0.40852699611E+02  0.23724520138E+03  0.00000000000E+00 0.  1.
        -13    1    5    5    0    0  0.47791247765E+02 -0.41356851090E+02  0.12556516914E+02  0.64436469580E+02  0.00000000000E+00 0. -1.
          3    1    6    6  503    0  0.34398286814E+03 -0.30206141630E+03 -0.39808684654E+03  0.60666172632E+03  0.00000000000E+00 0. -1.
         -3    1    6    6    0  503  0.14054677422E+03 -0.20944095147E+03 -0.25972246961E+03  0.36204235818E+03  0.00000000000E+00 0.  1.
<mgrwt>
<rscale>  0 0.97556247E+03</rscale>
<asrwt>0</asrwt>
<pdfrwt beam="1">  1        2 0.42594341E+00 0.97556247E+03</pdfrwt>
<pdfrwt beam="2">  1       -2 0.70070519E-01 0.97556247E+03</pdfrwt>
<totfact> 0.45706516E+00</totfact>
</mgrwt>
</event>
<event>
12    1  0.3147868E-008  0.6219812E+03  0.7818608E-02  0.9860823E-01
          1   -1    0    0  501    0  0.00000000000E+00  0.00000000000E+00  0.12738973430E+04  0.12738973430E+04  0.00000000000E+00 0. -1.
         -1   -1    0    0    0  501 -0.00000000000E+00 -0.00000000000E+00 -0.45639611076E+03  0.45639611076E+03  0.00000000000E+00 0.  1.
         23    2    1    2    0    0 -0.20289069386E+03 -0.45606170495E+03  0.80281095773E+03  0.94968134691E+03  0.90732102639E+02 0.  0.
    5000000    2    1    2    0    0  0.20289069386E+03  0.45606170495E+03  0.14690274467E+02  0.78061210680E+03  0.59998545377E+03 0.  0.
         23    2    4    4    0    0  0.67033641967E+02 -0.12679954132E+03 -0.31481649990E+02  0.17323713205E+03  0.91915052087E+02 0.  0.
         23    2    4    4    0    0  0.13585705190E+03  0.58286124627E+03  0.46171924458E+02  0.60737497474E+03  0.92672230923E+02 0.  0.
          5    1    3    3  502    0 -0.47677122042E+02 -0.14919325654E+03  0.18365312703E+03  0.24141726705E+03  0.47000000000E+01 0. -1.
         -5    1    3    3    0  502 -0.15521357182E+03 -0.30686844841E+03  0.61915783070E+03  0.70826407986E+03  0.47000000000E+01 0.  1.
         11    1    5    5    0    0  0.63354204641E+02 -0.10571195016E+03  0.12946579032E+02  0.12392088428E+03  0.00000000000E+00 0. -1.
        -11    1    5    5    0    0  0.36794373255E+01 -0.21087591165E+02 -0.44428229023E+02  0.49316247772E+02  0.00000000000E+00 0.  1.
          3    1    6    6  503    0  0.12811294352E+03  0.52963948240E+03  0.68381275020E+02  0.54918749657E+03  0.00000000000E+00 0. -1.
         -3    1    6    6    0  503  0.77441083731E+01  0.53221763869E+02 -0.22209350562E+02  0.58187478174E+02  0.00000000000E+00 0.  1.
<mgrwt>
<rscale>  0 0.62198116E+03</rscale>
<asrwt>0</asrwt>
<pdfrwt beam="1">  1        1 0.19598421E+00 0.62198116E+03</pdfrwt>
<pdfrwt beam="2">  1       -1 0.70214787E-01 0.62198116E+03</pdfrwt>
<totfact> 0.20343572E+01</totfact>
</mgrwt>
</event>
<event>
12    1  0.3147868E-008  0.4544737E+03  0.7818608E-02  0.1026396E+00
         -1   -1    0    0    0  501 -0.00000000000E+00  0.00000000000E+00  0.68677639035E+03  0.68677639035E+03  0.00000000000E+00 0.  1.
          1   -1    0    0  501    0  0.00000000000E+00 -0.00000000000E+00 -0.20076297465E+04  0.20076297465E+04  0.00000000000E+00 0. -1.
         23    2    1    2    0    0  0.20252029771E+03  0.16293901764E+03  0.60020302602E+03  0.66510616251E+03  0.12066043472E+03 0.  0.
    5000000    2    1    2    0    0 -0.20252029771E+03 -0.16293901764E+03 -0.19210563822E+04  0.20292999743E+04  0.60003097247E+03 0.  0.
         23    2    4    4    0    0 -0.15639383172E+03  0.20366721439E+03 -0.85126030275E+03  0.89379837822E+03  0.91060820646E+02 0.  0.
         23    2    4    4    0    0 -0.46126465995E+02 -0.36660623203E+03 -0.10697960794E+04  0.11355015961E+04  0.91501054733E+02 0.  0.
          5    1    3    3  502    0  0.56674687447E+02  0.92613080595E+02  0.14003143089E+03  0.17725714240E+03  0.47000000000E+01 0. -1.
         -5    1    3    3    0  502  0.14584561026E+03  0.70325937041E+02  0.46017159513E+03  0.48784902010E+03  0.47000000000E+01 0.  1.
         13    1    5    5    0    0 -0.79692976513E+02  0.82350432901E+02 -0.52501272247E+03  0.53737409973E+03  0.00000000000E+00 0. -1.
        -13    1    5    5    0    0 -0.76700855203E+02  0.12131678149E+03 -0.32624758028E+03  0.35642427849E+03  0.00000000000E+00 0.  1.
          1    1    6    6  503    0 -0.30681552633E+02 -0.36300257031E+03 -0.10356001763E+04  0.10978068814E+04  0.00000000000E+00 0. -1.
         -1    1    6    6    0  503 -0.15444913361E+02 -0.36036617123E+01 -0.34195903143E+02  0.37694714725E+02  0.00000000000E+00 0.  1.
<mgrwt>
<rscale>  0 0.45447370E+03</rscale>
<asrwt>0</asrwt>
<pdfrwt beam="1">  1        1 0.30886611E+00 0.45447370E+03</pdfrwt>
<pdfrwt beam="2">  1       -1 0.10565791E+00 0.45447370E+03</pdfrwt>
<totfact> 0.28000155E+00</totfact>
</mgrwt>
</event>
<event>
12    1  0.3147868E-008  0.2084024E+04  0.7818608E-02  0.8568314E-01
         -1   -1    0    0    0  501 -0.00000000000E+00  0.00000000000E+00  0.15759864995E+04  0.15759864995E+04  0.00000000000E+00 0.  1.
          1   -1    0    0  501    0  0.00000000000E+00 -0.00000000000E+00 -0.28597114648E+04  0.28597114648E+04  0.00000000000E+00 0. -1.
         23    2    1    2    0    0  0.20367124498E+04  0.41349933271E+03 -0.70137680325E+03  0.21955303192E+04  0.96149159861E+02 0.  0.
    5000000    2    1    2    0    0 -0.20367124498E+04 -0.41349933271E+03 -0.58234816213E+03  0.22401676451E+04  0.60003532823E+03 0.  0.
         23    2    4    4    0    0 -0.35077721777E+03 -0.45307926525E+02 -0.33503643966E+03  0.49439486314E+03  0.84139170982E+02 0.  0.
         23    2    4    4    0    0 -0.16859352320E+04 -0.36819140618E+03 -0.24731172247E+03  0.17457727820E+04  0.92827798299E+02 0.  0.
          5    1    3    3  502    0  0.10062997008E+04  0.19522175548E+03 -0.29633284094E+03  0.10670453900E+04  0.47000000000E+01 0. -1.
         -5    1    3    3    0  502  0.10304127490E+04  0.21827757723E+03 -0.40504396231E+03  0.11284849292E+04  0.47000000000E+01 0.  1.
         13    1    5    5    0    0 -0.55537944365E+02  0.21952145419E+02 -0.69715945453E+02  0.91796911730E+02  0.00000000000E+00 0.  1.
        -13    1    5    5    0    0 -0.29523927340E+03 -0.67260071945E+02 -0.26532049420E+03  0.40259795141E+03  0.00000000000E+00 0. -1.
          2    1    6    6  503    0 -0.11061674255E+04 -0.20656098015E+03 -0.18940843066E+03  0.11411175948E+04  0.00000000000E+00 0. -1.
         -2    1    6    6    0  503 -0.57976780657E+03 -0.16163042603E+03 -0.57903291818E+02  0.60465518716E+03  0.00000000000E+00 0.  1.
<mgrwt>
<rscale>  0 0.20840242E+04</rscale>
<asrwt>0</asrwt>
<pdfrwt beam="1">  1        1 0.43995561E+00 0.20840242E+04</pdfrwt>
<pdfrwt beam="2">  1       -1 0.24245946E+00 0.20840242E+04</pdfrwt>
<totfact> 0.52099228E-02</totfact>
</mgrwt>
</event>
<event>
12    1  0.3147868E-008  0.9051611E+03  0.7818608E-02  0.9419153E-01
         -1   -1    0    0    0  501 -0.00000000000E+00  0.00000000000E+00  0.35736932832E+03  0.35736932832E+03  0.00000000000E+00 0.  1.
          1   -1    0    0  501    0  0.00000000000E+00 -0.00000000000E+00 -0.33740893287E+04  0.33740893287E+04  0.00000000000E+00 0. -1.
         23    2    1    2    0    0 -0.71604948578E+03  0.43828202197E+03 -0.43294575701E+03  0.94923431747E+03  0.93732406729E+02 0.  0.
    5000000    2    1    2    0    0  0.71604948578E+03 -0.43828202197E+03 -0.25837742433E+04  0.27822243395E+04  0.60005411258E+03 0.  0.
         23    2    4    4    0    0 -0.11272032029E+02  0.51618014749E+02 -0.62975927756E+03  0.63816471002E+03  0.88690311147E+02 0.  0.
         23    2    4    4    0    0  0.72732151781E+03 -0.48990003672E+03 -0.19540149658E+04  0.21440596295E+04  0.99088708361E+02 0.  0.
          5    1    3    3  502    0 -0.29922205632E+03  0.19991800202E+03 -0.23511958462E+03  0.42988877118E+03  0.47000000000E+01 0. -1.
         -5    1    3    3    0  502 -0.41682742947E+03  0.23836401994E+03 -0.19782617240E+03  0.51934554628E+03  0.47000000000E+01 0.  1.
         11    1    5    5    0    0  0.13175708186E+02  0.62347286852E+02 -0.27008123785E+03  0.27749713242E+03  0.00000000000E+00 0.  1.
        -11    1    5    5    0    0 -0.24447740215E+02 -0.10729272103E+02 -0.35967803972E+03  0.36066757761E+03  0.00000000000E+00 0. -1.
          2    1    6    6  503    0  0.82495245951E+02 -0.29979743675E+02 -0.25012770149E+03  0.26508134165E+03  0.00000000000E+00 0. -1.
         -2    1    6    6    0  503  0.64482627186E+03 -0.45992029304E+03 -0.17038872643E+04  0.18789782879E+04  0.00000000000E+00 0.  1.
<mgrwt>
<rscale>  0 0.90516113E+03</rscale>
<asrwt>0</asrwt>
<pdfrwt beam="1">  1        1 0.51909065E+00 0.90516113E+03</pdfrwt>
<pdfrwt beam="2">  1       -1 0.54979898E-01 0.90516113E+03</pdfrwt>
<totfact> 0.11038225E+00</totfact>
</mgrwt>
</event>
<event>
12    1  0.3147868E-008  0.7086057E+03  0.7818608E-02  0.9702627E-01
         -2   -1    0    0    0  501 -0.00000000000E+00  0.00000000000E+00  0.53585577009E+03  0.53585577009E+03  0.00000000000E+00 0.  1.
          2   -1    0    0  501    0  0.00000000000E+00 -0.00000000000E+00 -0.12841755869E+04  0.12841755869E+04  0.00000000000E+00 0. -1.
         23    2    1    2    0    0 -0.63836032339E+03  0.67703632664E+02 -0.67904987835E+03  0.93869772755E+03  0.89202029501E+02 0.  0.
    5000000    2    1    2    0    0  0.63836032339E+03 -0.67703632664E+02 -0.69269938442E+02  0.88133362942E+03  0.59988578715E+03 0.  0.
         23    2    4    4    0    0  0.22777089788E+02  0.95300473817E+02  0.15040716276E+03  0.20164307081E+03  0.91851169122E+02 0.  0.
         23    2    4    4    0    0  0.61558323361E+03 -0.16300410648E+03 -0.21967710120E+03  0.67969055861E+03  0.90598953869E+02 0.  0.
          5    1    3    3  502    0 -0.48172991155E+03  0.86363080152E+02 -0.53388256573E+03  0.72427548163E+03  0.47000000000E+01 0. -1.
         -5    1    3    3    0  502 -0.15663041184E+03 -0.18659447488E+02 -0.14516731262E+03  0.21442224593E+03  0.47000000000E+01 0.  1.
         13    1    5    5    0    0 -0.35049517660E+02  0.36663578021E+02  0.70875229268E+02  0.87154946878E+02  0.00000000000E+00 0. -1.
        -13    1    5    5    0    0  0.57826607448E+02  0.58636895796E+02  0.79531933492E+02  0.11448812394E+03  0.00000000000E+00 0.  1.
          2    1    6    6  503    0  0.28465485687E+02 -0.51576759246E+01 -0.32616955843E+02  0.43597606641E+02  0.00000000000E+00 0.  1.
         -2    1    6    6    0  503  0.58711774792E+03 -0.15784643056E+03 -0.18706014536E+03  0.63609295197E+03  0.00000000000E+00 0. -1.
<mgrwt>
<rscale>  0 0.70860575E+03</rscale>
<asrwt>0</asrwt>
<pdfrwt beam="1">  1        2 0.19756547E+00 0.70860575E+03</pdfrwt>
<pdfrwt beam="2">  1       -2 0.82439350E-01 0.70860575E+03</pdfrwt>
<totfact> 0.22361137E+01</totfact>
</mgrwt>
</event>
<event>
12    1  0.3147868E-008  0.7112942E+03  0.7818608E-02  0.9698110E-01
         -2   -1    0    0    0  501 -0.00000000000E+00  0.00000000000E+00  0.56692242735E+03  0.56692242735E+03  0.00000000000E+00 0.  1.
          2   -1    0    0  501    0  0.00000000000E+00 -0.00000000000E+00 -0.12585515266E+04  0.12585515266E+04  0.00000000000E+00 0. -1.
         23    2    1    2    0    0  0.21243839284E+03 -0.66969868185E+03 -0.69526038591E+02  0.71167056678E+03  0.89525026442E+02 0.  0.
    5000000    2    1    2    0    0 -0.21243839284E+03  0.66969868185E+03 -0.62210306067E+03  0.11138033872E+04  0.59993280622E+03 0.  0.
         23    2    4    4    0    0 -0.76506147876E+02  0.45574215995E+03 -0.39658845124E+02  0.47267982324E+03  0.91100407698E+02 0.  0.
         23    2    4    4    0    0 -0.13593224497E+03  0.21395652190E+03 -0.58244421555E+03  0.64112356394E+03  0.86851548813E+02 0.  0.
          5    1    3    3  502    0  0.79755333770E+02 -0.15086264549E+03  0.60020370040E+01  0.17081734548E+03  0.47000000000E+01 0. -1.
         -5    1    3    3    0  502  0.13268305907E+03 -0.51883603636E+03 -0.75528075595E+02  0.54085322130E+03  0.47000000000E+01 0.  1.
         11    1    5    5    0    0 -0.10325853836E+02  0.30769283288E+02  0.20514907662E+02  0.38395748304E+02  0.00000000000E+00 0.  1.
        -11    1    5    5    0    0 -0.66180294040E+02  0.42497287666E+03 -0.60173752786E+02  0.43428407494E+03  0.00000000000E+00 0. -1.
          3    1    6    6  503    0 -0.81563823448E+02  0.13919876469E+03 -0.46157908120E+03  0.48896237236E+03  0.00000000000E+00 0.  1.
         -3    1    6    6    0  503 -0.54368421518E+02  0.74757757210E+02 -0.12086513435E+03  0.15216119158E+03  0.00000000000E+00 0. -1.
<mgrwt>
<rscale>  0 0.71129423E+03</rscale>
<asrwt>0</asrwt>
<pdfrwt beam="1">  1        2 0.19362331E+00 0.71129423E+03</pdfrwt>
<pdfrwt beam="2">  1       -2 0.87218836E-01 0.71129423E+03</pdfrwt>
<totfact> 0.20348608E+01</totfact>
</mgrwt>
</event>
<event>
12    1  0.3147868E-008  0.4642583E+03  0.7818608E-02  0.1023553E+00
         -2   -1    0    0    0  501 -0.00000000000E+00  0.00000000000E+00  0.55704986532E+03  0.55704986532E+03  0.00000000000E+00 0. -1.
          2   -1    0    0  501    0  0.00000000000E+00 -0.00000000000E+00 -0.49624263066E+03  0.49624263066E+03  0.00000000000E+00 0.  1.
         23    2    1    2    0    0  0.73241985404E+02 -0.27266666165E+03  0.21587197324E+03  0.37229287061E+03  0.11085926157E+03 0.  0.
    5000000    2    1    2    0    0 -0.73241985404E+02  0.27266666165E+03 -0.15506473858E+03  0.68099962537E+03  0.60000326649E+03 0.  0.
         23    2    4    4    0    0 -0.30859789896E+03  0.56078290910E+02 -0.40311447386E+02  0.32935403448E+03  0.92041454188E+02 0.  0.
         23    2    4    4    0    0  0.23535591355E+03  0.21658837074E+03 -0.11475329119E+03  0.35164559088E+03  0.90462010619E+02 0.  0.
          5    1    3    3  502    0  0.25357327449E+02 -0.60863333089E+02  0.11537722053E+03  0.13297117126E+03  0.47000000000E+01 0. -1.
         -5    1    3    3    0  502  0.47884657956E+02 -0.21180332856E+03  0.10049475271E+03  0.23932169935E+03  0.47000000000E+01 0.  1.
         13    1    5    5    0    0 -0.20081232235E+03  0.44122984681E+02  0.17705757233E+02  0.20636356370E+03  0.00000000000E+00 0.  1.
        -13    1    5    5    0    0 -0.10778557661E+03  0.11955306229E+02 -0.58017204619E+02  0.12299047078E+03  0.00000000000E+00 0. -1.
          4    1    6    6  503    0  0.17527477329E+03  0.20545672690E+03 -0.10505906617E+03  0.28977770820E+03  0.00000000000E+00 0. -1.
         -4    1    6    6    0  503  0.60081140261E+02  0.11131643837E+02 -0.96942250170E+01  0.61867882688E+02  0.00000000000E+00 0.  1.
<mgrwt>
<rscale>  0 0.46425827E+03</rscale>
<asrwt>0</asrwt>
<pdfrwt beam="1">  1        2 0.76345020E-01 0.46425827E+03</pdfrwt>
<pdfrwt beam="2">  1       -2 0.85699979E-01 0.46425827E+03</pdfrwt>
<totfact> 0.75861577E+01</totfact>
</mgrwt>
</event>
<event>
12    1  0.3147868E-008  0.6512558E+03  0.7818608E-02  0.9804426E-01
         -1   -1    0    0    0  501 -0.00000000000E+00  0.00000000000E+00  0.74649737033E+03  0.74649737033E+03  0.00000000000E+00 0.  1.
          1   -1    0    0  501    0  0.00000000000E+00 -0.00000000000E+00 -0.89435396868E+03  0.89435396868E+03  0.00000000000E+00 0. -1.
         23    2    1    2    0    0  0.30246883358E+03  0.54315539281E+03  0.26655211282E+03  0.68252943989E+03  0.91056199333E+02 0.  0.
    5000000    2    1    2    0    0 -0.30246883358E+03 -0.54315539281E+03 -0.41440871116E+03  0.95832189912E+03  0.60011757716E+03 0.  0.
         23    2    4    4    0    0 -0.18082780940E+03 -0.51551109735E+03 -0.52890627037E+03  0.76576220272E+03  0.90551201678E+02 0.  0.
         23    2    4    4    0    0 -0.12164102418E+03 -0.27644295459E+02  0.11449755921E+03  0.19255969640E+03  0.91699508056E+02 0.  0.
          5    1    3    3  502    0  0.78631340783E+02  0.14784576566E+03  0.29511970944E+02  0.17010086598E+03  0.47000000000E+01 0. -1.
         -5    1    3    3    0  502  0.22383749280E+03  0.39530962715E+03  0.23704014187E+03  0.51242857391E+03  0.47000000000E+01 0.  1.
         13    1    5    5    0    0 -0.10144018576E+03 -0.35706402386E+03 -0.30649277617E+03  0.48137578903E+03  0.00000000000E+00 0.  1.
        -13    1    5    5    0    0 -0.79387623636E+02 -0.15844707349E+03 -0.22241349420E+03  0.28438641369E+03  0.00000000000E+00 0. -1.
          1    1    6    6  503    0 -0.65904779037E+02  0.75700640637E+01  0.10741914237E+03  0.12625219966E+03  0.00000000000E+00 0. -1.
         -1    1    6    6    0  503 -0.55736245148E+02 -0.35214359522E+02  0.70784168353E+01  0.66307496746E+02  0.00000000000E+00 0.  1.
<mgrwt>
<rscale>  0 0.65125576E+03</rscale>
<asrwt>0</asrwt>
<pdfrwt beam="1">  1        1 0.13759292E+00 0.65125576E+03</pdfrwt>
<pdfrwt beam="2">  1       -1 0.11484575E+00 0.65125576E+03</pdfrwt>
<totfact> 0.13229502E+01</totfact>
</mgrwt>
</event>
<event>
12    1  0.3147868E-008  0.8800021E+03  0.7818608E-02  0.9450931E-01
          2   -1    0    0  501    0  0.00000000000E+00  0.00000000000E+00  0.13614116756E+04  0.13614116756E+04  0.00000000000E+00 0. -1.
         -2   -1    0    0    0  501 -0.00000000000E+00 -0.00000000000E+00 -0.79892884585E+03  0.79892884585E+03  0.00000000000E+00 0.  1.
         23    2    1    2    0    0  0.24347062927E+03  0.82748844218E+03 -0.16419145035E+03  0.88282481046E+03  0.91682846474E+02 0.  0.
    5000000    2    1    2    0    0 -0.24347062927E+03 -0.82748844218E+03  0.72667428011E+03  0.12775157110E+04  0.59997984399E+03 0.  0.
         23    2    4    4    0    0 -0.16740426653E+03 -0.73710433099E+03  0.28752766733E+03  0.81376251419E+03  0.90500203300E+02 0.  0.
         23    2    4    4    0    0 -0.76066362746E+02 -0.90384111191E+02  0.43914661278E+03  0.46375319680E+03  0.90894999503E+02 0.  0.
          5    1    3    3  502    0  0.15466248694E+03  0.55174455014E+03 -0.65574183901E+02  0.57677083584E+03  0.47000000000E+01 0. -1.
         -5    1    3    3    0  502  0.88808142336E+02  0.27574389204E+03 -0.98617266454E+02  0.30605397463E+03  0.47000000000E+01 0.  1.
         13    1    5    5    0    0 -0.69159109425E+02 -0.49788828216E+03  0.18968132212E+03  0.53726597500E+03  0.00000000000E+00 0. -1.
        -13    1    5    5    0    0 -0.98245157103E+02 -0.23921604883E+03  0.97846345206E+02  0.27649653918E+03  0.00000000000E+00 0.  1.
          3    1    6    6  503    0 -0.84501887472E+02 -0.94340717630E+02  0.43583571551E+03  0.45386508007E+03  0.00000000000E+00 0. -1.
         -3    1    6    6    0  503  0.84355247266E+01  0.39566064382E+01  0.33108972687E+01  0.98881167390E+01  0.00000000000E+00 0.  1.
<mgrwt>
<rscale>  0 0.88000209E+03</rscale>
<asrwt>0</asrwt>
<pdfrwt beam="1">  1        2 0.20944795E+00 0.88000209E+03</pdfrwt>
<pdfrwt beam="2">  1       -2 0.12291213E+00 0.88000209E+03</pdfrwt>
<totfact> 0.76628505E+00</totfact>
</mgrwt>
</event>
<event>
12    1  0.3147868E-008  0.5482248E+03  0.7818608E-02  0.1001906E+00
         -2   -1    0    0    0  501 -0.00000000000E+00  0.00000000000E+00  0.28694344208E+03  0.28694344208E+03  0.00000000000E+00 0.  1.
          2   -1    0    0  501    0  0.00000000000E+00 -0.00000000000E+00 -0.17923920060E+04  0.17923920060E+04  0.00000000000E+00 0. -1.
         23    2    1    2    0    0  0.33443444274E+03 -0.23462446999E+03 -0.12352447288E+04  0.13042512732E+04  0.91360851696E+02 0.  0.
    5000000    2    1    2    0    0 -0.33443444274E+03  0.23462446999E+03 -0.27020383507E+03  0.77508417482E+03  0.60070818802E+03 0.  0.
         23    2    4    4    0    0 -0.41983913043E+03  0.32047850257E+03 -0.97346296073E+02  0.54497254399E+03  0.92452183832E+02 0.  0.
         23    2    4    4    0    0  0.85404687688E+02 -0.85854032585E+02 -0.17285753900E+03  0.23011163082E+03  0.91688375835E+02 0.  0.
          5    1    3    3  502    0  0.14312038285E+03 -0.49209294407E+02 -0.48545619920E+03  0.50852218239E+03  0.47000000000E+01 0. -1.
         -5    1    3    3    0  502  0.19131405989E+03 -0.18541517558E+03 -0.74978852963E+03  0.79572909084E+03  0.47000000000E+01 0.  1.
         13    1    5    5    0    0 -0.85783425389E+02  0.11414022578E+03 -0.13007498923E+02  0.14337357581E+03  0.00000000000E+00 0.  1.
        -13    1    5    5    0    0 -0.33405570504E+03  0.20633827679E+03 -0.84338797150E+02  0.40159896818E+03  0.00000000000E+00 0. -1.
          2    1    6    6  503    0  0.61977935414E+02 -0.98610828186E+02 -0.16561868203E+03  0.20247199251E+03  0.00000000000E+00 0. -1.
         -2    1    6    6    0  503  0.23426752274E+02  0.12756795601E+02 -0.72388569688E+01  0.27639638318E+02  0.00000000000E+00 0.  1.
<mgrwt>
<rscale>  0 0.54822483E+03</rscale>
<asrwt>0</asrwt>
<pdfrwt beam="1">  1        2 0.27575262E+00 0.54822483E+03</pdfrwt>
<pdfrwt beam="2">  1       -2 0.44145145E-01 0.54822483E+03</pdfrwt>
<totfact> 0.44758495E+01</totfact>
</mgrwt>
</event>
<event>
12    1  0.3147868E-008  0.7765921E+03  0.7818608E-02  0.9594531E-01
         -2   -1    0    0    0  501 -0.00000000000E+00  0.00000000000E+00  0.26721971800E+03  0.26721971800E+03  0.00000000000E+00 0.  1.
          2   -1    0    0  501    0  0.00000000000E+00 -0.00000000000E+00 -0.25342591650E+04  0.25342591650E+04  0.00000000000E+00 0. -1.
         23    2    1    2    0    0  0.58836193447E+03  0.32756450275E+03 -0.59998283231E+03  0.90610764998E+03  0.87082747424E+02 0.  0.
    5000000    2    1    2    0    0 -0.58836193447E+03 -0.32756450275E+03 -0.16670566147E+04  0.18953712330E+04  0.59990506331E+03 0.  0.
         23    2    4    4    0    0 -0.10158934464E+03 -0.36938413533E+03 -0.58413405760E+03  0.70417063897E+03  0.88761800138E+02 0.  0.
         23    2    4    4    0    0 -0.48677258982E+03  0.41819632589E+02 -0.10829225571E+04  0.11912005940E+04  0.86839822230E+02 0.  0.
          5    1    3    3  502    0  0.29222684025E+03  0.20898498773E+03 -0.33805461705E+03  0.49332977344E+03  0.47000000000E+01 0. -1.
         -5    1    3    3    0  502  0.29613509422E+03  0.11857951502E+03 -0.26192821527E+03  0.41277787654E+03  0.47000000000E+01 0.  1.
         13    1    5    5    0    0 -0.69418872565E+02 -0.25463970669E+03 -0.47069217952E+03  0.53964014672E+03  0.00000000000E+00 0. -1.
        -13    1    5    5    0    0 -0.32170472080E+02 -0.11474442864E+03 -0.11344187807E+03  0.16453049225E+03  0.00000000000E+00 0.  1.
          3    1    6    6  503    0 -0.18706864742E+03  0.43458222027E+02 -0.50286291283E+03  0.53828840319E+03  0.00000000000E+00 0. -1.
         -3    1    6    6    0  503 -0.29970394240E+03 -0.16385894384E+01 -0.58005964425E+03  0.65291219084E+03  0.00000000000E+00 0.  1.
<mgrwt>
<rscale>  0 0.77659208E+03</rscale>
<asrwt>0</asrwt>
<pdfrwt beam="1">  1        2 0.38988605E+00 0.77659208E+03</pdfrwt>
<pdfrwt beam="2">  1       -2 0.41110723E-01 0.77659208E+03</pdfrwt>
<totfact> 0.19427818E+01</totfact>
</mgrwt>
</event>
<event>
12    1  0.3147868E-008  0.9059497E+03  0.7818608E-02  0.9418174E-01
          2   -1    0    0  501    0  0.00000000000E+00  0.00000000000E+00  0.10578742195E+04  0.10578742195E+04  0.00000000000E+00 0. -1.
         -2   -1    0    0    0  501 -0.00000000000E+00 -0.00000000000E+00 -0.83782961033E+03  0.83782961033E+03  0.00000000000E+00 0.  1.
         23    2    1    2    0    0  0.50614266798E+03  0.67114224242E+03  0.33018908221E+02  0.84612922982E+03  0.90731005425E+02 0.  0.
    5000000    2    1    2    0    0 -0.50614266798E+03 -0.67114224242E+03  0.18702570098E+03  0.10495746001E+04  0.60001326513E+03 0.  0.
         23    2    4    4    0    0 -0.87855084925E+02  0.70799398113E+02  0.11942694175E+03  0.19003293702E+03  0.95491633229E+02 0.  0.
         23    2    4    4    0    0 -0.41828758305E+03 -0.74194164054E+03  0.67598759231E+02  0.85954166303E+03  0.93810330640E+02 0.  0.
          5    1    3    3  502    0  0.34191177007E+03  0.47424824920E+03 -0.16735241410E+02  0.58490787196E+03  0.47000000000E+01 0. -1.
         -5    1    3    3    0  502  0.16423089790E+03  0.19689399323E+03  0.49754149630E+02  0.26122135786E+03  0.47000000000E+01 0.  1.
         13    1    5    5    0    0 -0.16078720601E+02  0.27889954549E+02 -0.11916538213E+02  0.34327521086E+02  0.00000000000E+00 0.  1.
        -13    1    5    5    0    0 -0.71776364324E+02  0.42909443565E+02  0.13134347997E+03  0.15570541594E+03  0.00000000000E+00 0. -1.
          3    1    6    6  503    0 -0.32532246019E+03 -0.50802424632E+03  0.73755091502E+02  0.60775254131E+03  0.00000000000E+00 0. -1.
         -3    1    6    6    0  503 -0.92965122864E+02 -0.23391739422E+03 -0.61563322720E+01  0.25178912172E+03  0.00000000000E+00 0.  1.
<mgrwt>
<rscale>  0 0.90594975E+03</rscale>
<asrwt>0</asrwt>
<pdfrwt beam="1">  1        2 0.16274988E+00 0.90594975E+03</pdfrwt>
<pdfrwt beam="2">  1       -2 0.12889686E+00 0.90594975E+03</pdfrwt>
<totfact> 0.10279216E+01</totfact>
</mgrwt>
</event>
<event>
12    1  0.3147868E-008  0.7428440E+03  0.7818608E-02  0.9646644E-01
         -2   -1    0    0    0  501 -0.00000000000E+00  0.00000000000E+00  0.35668398252E+03  0.35668398252E+03  0.00000000000E+00 0.  1.
          2   -1    0    0  501    0  0.00000000000E+00 -0.00000000000E+00 -0.19575864942E+04  0.19575864942E+04  0.00000000000E+00 0. -1.
         23    2    1    2    0    0  0.67641502329E+03 -0.16113040057E+03 -0.98250650469E+03  0.12070498415E+04  0.90277341797E+02 0.  0.
    5000000    2    1    2    0    0 -0.67641502329E+03  0.16113040057E+03 -0.61839600696E+03  0.11072206352E+04  0.60001968617E+03 0.  0.
         23    2    4    4    0    0 -0.67520417531E+03  0.10138060269E+03 -0.26356918161E+03  0.73766118960E+03  0.92177069731E+02 0.  0.
         23    2    4    4    0    0 -0.12108479783E+01  0.59749797874E+02 -0.35482682535E+03  0.36955944557E+03  0.84265077717E+02 0.  0.
          5    1    3    3  502    0  0.52990869683E+03 -0.14449712011E+03 -0.71577591202E+03  0.90224159233E+03  0.47000000000E+01 0. -1.
         -5    1    3    3    0  502  0.14650632645E+03 -0.16633280461E+02 -0.26673059267E+03  0.30480824920E+03  0.47000000000E+01 0.  1.
         11    1    5    5    0    0 -0.28246356962E+03 -0.30556242992E+01 -0.11419487177E+03  0.30468914280E+03  0.00000000000E+00 0.  1.
        -11    1    5    5    0    0 -0.39274060569E+03  0.10443622699E+03 -0.14937430984E+03  0.43297204679E+03  0.00000000000E+00 0. -1.
          2    1    6    6  503    0 -0.30360040515E+02  0.63737752052E+02 -0.28828445175E+03  0.29680323149E+03  0.00000000000E+00 0. -1.
         -2    1    6    6    0  503  0.29149192537E+02 -0.39879541778E+01 -0.66542373596E+02  0.72756214084E+02  0.00000000000E+00 0.  1.
<mgrwt>
<rscale>  0 0.74284400E+03</rscale>
<asrwt>0</asrwt>
<pdfrwt beam="1">  1        2 0.30116715E+00 0.74284400E+03</pdfrwt>
<pdfrwt beam="2">  1       -2 0.54874459E-01 0.74284400E+03</pdfrwt>
<totfact> 0.22778507E+01</totfact>
</mgrwt>
</event>
<event>
12    1  0.3147868E-008  0.2186726E+04  0.7818608E-02  0.8523974E-01
          1   -1    0    0  501    0  0.00000000000E+00  0.00000000000E+00  0.18330173799E+04  0.18330173799E+04  0.00000000000E+00 0. -1.
         -1   -1    0    0    0  501 -0.00000000000E+00 -0.00000000000E+00 -0.28306353956E+04  0.28306353956E+04  0.00000000000E+00 0.  1.
         23    2    1    2    0    0 -0.20149995670E+04 -0.77812263029E+03  0.10688479528E+03  0.21645311609E+04  0.89848228653E+02 0.  0.
    5000000    2    1    2    0    0  0.20149995670E+04  0.77812263029E+03 -0.11045028110E+04  0.24991216146E+04  0.59998691831E+03 0.  0.
         23    2    4    4    0    0  0.12622685608E+04  0.72161892050E+03 -0.89598687721E+03  0.17105132150E+04  0.94906209926E+02 0.  0.
         23    2    4    4    0    0  0.75273100625E+03  0.56503709786E+02 -0.20851593377E+03  0.78860839956E+03  0.92885285334E+02 0.  0.
          5    1    3    3  502    0 -0.15411121524E+04 -0.58322978406E+03  0.45162579505E+02  0.16484069266E+04  0.47000000000E+01 0. -1.
         -5    1    3    3    0  502 -0.47388741464E+03 -0.19489284623E+03  0.61722215772E+02  0.51612423426E+03  0.47000000000E+01 0.  1.
         13    1    5    5    0    0  0.33001652952E+03  0.17956901538E+03 -0.18447849378E+03  0.41855496139E+03  0.00000000000E+00 0.  1.
        -13    1    5    5    0    0  0.93225203125E+03  0.54204990512E+03 -0.71150838343E+03  0.12919582536E+04  0.00000000000E+00 0. -1.
          4    1    6    6  503    0  0.53194377721E+03  0.76688930501E+02 -0.12577733124E+03  0.55196495471E+03  0.00000000000E+00 0.  1.
         -4    1    6    6    0  503  0.22078722904E+03 -0.20185220715E+02 -0.82738602523E+02  0.23664344485E+03  0.00000000000E+00 0. -1.
<mgrwt>
<rscale>  0 0.21867255E+04</rscale>
<asrwt>0</asrwt>
<pdfrwt beam="1">  1        1 0.28200267E+00 0.21867255E+04</pdfrwt>
<pdfrwt beam="2">  1       -1 0.43548237E+00 0.21867255E+04</pdfrwt>
<totfact> 0.13725980E-02</totfact>
</mgrwt>
</event>
<event>
12    1  0.3147868E-008  0.2861752E+03  0.7818608E-02  0.1092363E+00
          1   -1    0    0  501    0  0.00000000000E+00  0.00000000000E+00  0.33359602272E+03  0.33359602272E+03  0.00000000000E+00 0. -1.
         -1   -1    0    0    0  501 -0.00000000000E+00 -0.00000000000E+00 -0.64250491659E+03  0.64250491659E+03  0.00000000000E+00 0.  1.
         23    2    1    2    0    0 -0.63877374609E+02 -0.24883396690E+03 -0.96849117079E+02  0.28981449557E+03  0.92811789625E+02 0.  0.
    5000000    2    1    2    0    0  0.63877374609E+02  0.24883396690E+03 -0.21205977679E+03  0.68628644374E+03  0.60001755963E+03 0.  0.
         23    2    4    4    0    0  0.16540010852E+02  0.16272821003E+03 -0.40789627660E+03  0.44890165091E+03  0.91538393152E+02 0.  0.
         23    2    4    4    0    0  0.47337363758E+02  0.86105756863E+02  0.19583649982E+03  0.23738479283E+03  0.91348660822E+02 0.  0.
          5    1    3    3  502    0  0.12765965320E+02 -0.18007850970E+02 -0.29985222036E+02  0.37529403242E+02  0.47000000000E+01 0. -1.
         -5    1    3    3    0  502 -0.76643339930E+02 -0.23082611593E+03 -0.66863895043E+02  0.25228509233E+03  0.47000000000E+01 0.  1.
         13    1    5    5    0    0  0.41499802734E+02  0.58464319554E+02 -0.10132688550E+03  0.12412674173E+03  0.00000000000E+00 0.  1.
        -13    1    5    5    0    0 -0.24959791882E+02  0.10426389048E+03 -0.30656939110E+03  0.32477490917E+03  0.00000000000E+00 0. -1.
          1    1    6    6  503    0  0.70476212286E+02  0.58501005683E+02  0.10315560814E+03  0.13795051162E+03  0.00000000000E+00 0. -1.
         -1    1    6    6    0  503 -0.23138848528E+02  0.27604751180E+02  0.92680891674E+02  0.99434281214E+02  0.00000000000E+00 0.  1.
<mgrwt>
<rscale>  0 0.28617519E+03</rscale>
<asrwt>0</asrwt>
<pdfrwt beam="1">  1        1 0.51322465E-01 0.28617519E+03</pdfrwt>
<pdfrwt beam="2">  1       -1 0.98846910E-01 0.28617519E+03</pdfrwt>
<totfact> 0.79828025E+01</totfact>
</mgrwt>
</event>
<event>
12    1  0.3147868E-008  0.3760372E+03  0.7818608E-02  0.1052408E+00
         -2   -1    0    0    0  501 -0.00000000000E+00  0.00000000000E+00  0.62111305834E+02  0.62111305834E+02  0.00000000000E+00 0.  1.
          2   -1    0    0  501    0  0.00000000000E+00 -0.00000000000E+00 -0.25730960993E+04  0.25730960993E+04  0.00000000000E+00 0. -1.
         23    2    1    2    0    0  0.86167952896E+02  0.12617447672E+03 -0.46908225233E+03  0.50144961127E+03  0.89825600539E+02 0.  0.
    5000000    2    1    2    0    0 -0.86167952896E+02 -0.12617447672E+03 -0.20419025411E+04  0.21337577939E+04  0.60017615805E+03 0.  0.
         23    2    4    4    0    0 -0.58817874040E+02  0.22422149125E+03 -0.99219455873E+03  0.10229469240E+04  0.90749917297E+02 0.  0.
         23    2    4    4    0    0 -0.27350078856E+02 -0.35039596797E+03 -0.10497079824E+04  0.11108108699E+04  0.92133485289E+02 0.  0.
          5    1    3    3  502    0  0.91696909851E+01  0.53311385918E+02 -0.70510594398E+02  0.88994499963E+02  0.47000000000E+01 0. -1.
         -5    1    3    3    0  502  0.76998261911E+02  0.72863090799E+02 -0.39857165793E+03  0.41245511130E+03  0.47000000000E+01 0.  1.
         13    1    5    5    0    0 -0.31649975477E+01  0.13500473296E+03 -0.42016694108E+03  0.44133496747E+03  0.00000000000E+00 0. -1.
        -13    1    5    5    0    0 -0.55652876492E+02  0.89216758286E+02 -0.57202761765E+03  0.58161195653E+03  0.00000000000E+00 0.  1.
          3    1    6    6  503    0 -0.80427207712E+01 -0.11805774458E+03 -0.23085317946E+03  0.25941377542E+03  0.00000000000E+00 0. -1.
         -3    1    6    6    0  503 -0.19307358085E+02 -0.23233822339E+03 -0.81885480295E+03  0.85139709445E+03  0.00000000000E+00 0.  1.
<mgrwt>
<rscale>  0 0.37603722E+03</rscale>
<asrwt>0</asrwt>
<pdfrwt beam="1">  1        2 0.39586088E+00 0.37603722E+03</pdfrwt>
<pdfrwt beam="2">  1       -2 0.95555869E-02 0.37603722E+03</pdfrwt>
<totfact> 0.25521166E+02</totfact>
</mgrwt>
</event>
<event>
12    1  0.3147868E-008  0.5699301E+03  0.7818608E-02  0.9969833E-01
         -2   -1    0    0    0  501 -0.00000000000E+00  0.00000000000E+00  0.34817189083E+03  0.34817189083E+03  0.00000000000E+00 0.  1.
          2   -1    0    0  501    0  0.00000000000E+00 -0.00000000000E+00 -0.95669966802E+03  0.95669966802E+03  0.00000000000E+00 0. -1.
         23    2    1    2    0    0  0.40592837790E+03  0.86487912564E+02 -0.22126809763E+03  0.47884223184E+03  0.89846006927E+02 0.  0.
    5000000    2    1    2    0    0 -0.40592837790E+03 -0.86487912564E+02 -0.38725967956E+03  0.82602932701E+03  0.60008031351E+03 0.  0.
         23    2    4    4    0    0  0.12244525154E+03  0.72985136522E+02 -0.10851320875E+03  0.20111839632E+03  0.91399251022E+02 0.  0.
         23    2    4    4    0    0 -0.52837362944E+03 -0.15947304909E+03 -0.27874647082E+03  0.62491093069E+03  0.90574447950E+02 0.  0.
          5    1    3    3  502    0  0.12735819471E+03 -0.61394042239E+01 -0.95795231954E+02  0.15955130369E+03  0.47000000000E+01 0. -1.
         -5    1    3    3    0  502  0.27857018319E+03  0.92627316788E+02 -0.12547286567E+03  0.31929092815E+03  0.47000000000E+01 0.  1.
         13    1    5    5    0    0  0.85014167186E+02  0.93334752118E+01 -0.23872091750E+02  0.88794139145E+02  0.00000000000E+00 0. -1.
        -13    1    5    5    0    0  0.37431084359E+02  0.63651661310E+02 -0.84641116998E+02  0.11232425718E+03  0.00000000000E+00 0.  1.
          3    1    6    6  503    0 -0.23457478859E+03 -0.24098013761E+02 -0.11693920980E+03  0.26321250825E+03  0.00000000000E+00 0. -1.
         -3    1    6    6    0  503 -0.29379884085E+03 -0.13537503533E+03 -0.16180726102E+03  0.36169842244E+03  0.00000000000E+00 0.  1.
<mgrwt>
<rscale>  0 0.56993013E+03</rscale>
<asrwt>0</asrwt>
<pdfrwt beam="1">  1        2 0.14718456E+00 0.56993013E+03</pdfrwt>
<pdfrwt beam="2">  1       -2 0.53564907E-01 0.56993013E+03</pdfrwt>
<totfact> 0.90842552E+01</totfact>
</mgrwt>
</event>
<event>
12    1  0.3147868E-008  0.1620683E+04  0.7818608E-02  0.8807941E-01
          1   -1    0    0  501    0  0.00000000000E+00  0.00000000000E+00  0.27563713062E+04  0.27563713062E+04  0.00000000000E+00 0. -1.
         -1   -1    0    0    0  501 -0.00000000000E+00 -0.00000000000E+00 -0.12676477453E+04  0.12676477453E+04  0.00000000000E+00 0.  1.
         23    2    1    2    0    0  0.35646166123E+03  0.15400690577E+04  0.16961972666E+04  0.23205555578E+04  0.94948992234E+02 0.  0.
    5000000    2    1    2    0    0 -0.35646166123E+03 -0.15400690577E+04 -0.20747370579E+03  0.17034634937E+04  0.59988742067E+03 0.  0.
         23    2    4    4    0    0 -0.43375950922E+03 -0.14881009703E+04 -0.14860196437E+03  0.15598257280E+04  0.91552981478E+02 0.  0.
         23    2    4    4    0    0  0.77297847987E+02 -0.51968087418E+02 -0.58871741421E+02  0.14363776570E+03  0.92142750040E+02 0.  0.
          5    1    3    3  502    0  0.23693957608E+03  0.10217652622E+04  0.10590692077E+04  0.14905684454E+04  0.47000000000E+01 0. -1.
         -5    1    3    3    0  502  0.11952208515E+03  0.51830379548E+03  0.63712805890E+03  0.82998711236E+03  0.47000000000E+01 0.  1.
         11    1    5    5    0    0 -0.86599483805E+02 -0.28125046782E+03  0.74617783644E+01  0.29437556689E+03  0.00000000000E+00 0.  1.
        -11    1    5    5    0    0 -0.34716002541E+03 -0.12068505025E+04 -0.15606374273E+03  0.12654501611E+04  0.00000000000E+00 0. -1.
          2    1    6    6  503    0 -0.69578237363E+01  0.51783112117E+01  0.15361236423E+02  0.17640686001E+02  0.00000000000E+00 0. -1.
         -2    1    6    6    0  503  0.84255671723E+02 -0.57146398630E+02 -0.74232977844E+02  0.12599707970E+03  0.00000000000E+00 0.  1.
<mgrwt>
<rscale>  0 0.16206834E+04</rscale>
<asrwt>0</asrwt>
<pdfrwt beam="1">  1        1 0.42405712E+00 0.16206834E+04</pdfrwt>
<pdfrwt beam="2">  1       -1 0.19502273E+00 0.16206834E+04</pdfrwt>
<totfact> 0.13608188E-01</totfact>
</mgrwt>
</event>
<event>
12    1  0.3147868E-008  0.8318038E+03  0.7818608E-02  0.9515090E-01
          1   -1    0    0  501    0  0.00000000000E+00  0.00000000000E+00  0.21853504404E+04  0.21853504404E+04  0.00000000000E+00 0. -1.
         -1   -1    0    0    0  501 -0.00000000000E+00 -0.00000000000E+00 -0.33133603144E+03  0.33133603144E+03  0.00000000000E+00 0.  1.
         23    2    1    2    0    0 -0.29313451855E+03 -0.67952868925E+03  0.74561043404E+03  0.10550369785E+04  0.97370535544E+02 0.  0.
    5000000    2    1    2    0    0  0.29313451855E+03  0.67952868925E+03  0.11084039749E+04  0.14616494933E+04  0.60014396958E+03 0.  0.
         23    2    4    4    0    0 -0.14170008793E+03  0.24803631849E+03  0.55637654420E+03  0.63210979101E+03  0.91689687242E+02 0.  0.
         23    2    4    4    0    0  0.43483460648E+03  0.43149237076E+03  0.55202743071E+03  0.82953970230E+03  0.90194414587E+02 0.  0.
          5    1    3    3  502    0 -0.52303032146E+02 -0.21301758056E+03  0.18524148035E+03  0.28713863001E+03  0.47000000000E+01 0. -1.
         -5    1    3    3    0  502 -0.24083148640E+03 -0.46651110869E+03  0.56036895368E+03  0.76789834850E+03  0.47000000000E+01 0.  1.
         11    1    5    5    0    0 -0.12414474317E+03  0.25295506334E+03  0.52168749866E+03  0.59292160324E+03  0.00000000000E+00 0. -1.
        -11    1    5    5    0    0 -0.17555344756E+02 -0.49187448527E+01  0.34689045541E+02  0.39188187774E+02  0.00000000000E+00 0.  1.
          4    1    6    6  503    0  0.32401953470E+03  0.37225949802E+03  0.43742714614E+03  0.65947577735E+03  0.00000000000E+00 0. -1.
         -4    1    6    6    0  503  0.11081507178E+03  0.59232872745E+02  0.11460028457E+03  0.17006392495E+03  0.00000000000E+00 0.  1.
<mgrwt>
<rscale>  0 0.83180379E+03</rscale>
<asrwt>0</asrwt>
<pdfrwt beam="1">  1        1 0.33620775E+00 0.83180379E+03</pdfrwt>
<pdfrwt beam="2">  1       -1 0.50974775E-01 0.83180379E+03</pdfrwt>
<totfact> 0.89369456E+00</totfact>
</mgrwt>
</event>
<event>
12    1  0.3147868E-008  0.3040194E+03  0.7818608E-02  0.1083248E+00
         -1   -1    0    0    0  501 -0.00000000000E+00  0.00000000000E+00  0.19489419713E+03  0.19489419713E+03  0.00000000000E+00 0.  1.
          1   -1    0    0  501    0  0.00000000000E+00 -0.00000000000E+00 -0.13044615543E+04  0.13044615543E+04  0.00000000000E+00 0. -1.
         23    2    1    2    0    0  0.13665219202E+03 -0.13852839241E+03 -0.73452832279E+03  0.76547584770E+03  0.92506644916E+02 0.  0.
    5000000    2    1    2    0    0 -0.13665219202E+03  0.13852839241E+03 -0.37503903435E+03  0.73387990370E+03  0.60005124672E+03 0.  0.
         23    2    4    4    0    0 -0.19283014563E+03 -0.41311600307E+02 -0.45941392864E+03  0.50864881215E+03  0.93660786309E+02 0.  0.
         23    2    4    4    0    0  0.56177953606E+02  0.17983999271E+03  0.84374894284E+02  0.22523109156E+03  0.90064068132E+02 0.  0.
          5    1    3    3  502    0  0.10355978129E+02 -0.55811151658E+02 -0.30220152299E+03  0.30752232672E+03  0.47000000000E+01 0. -1.
         -5    1    3    3    0  502  0.12629621389E+03 -0.82717240747E+02 -0.43232679980E+03  0.45795352099E+03  0.47000000000E+01 0.  1.
         11    1    5    5    0    0 -0.99296983122E+02  0.13123381233E+02 -0.29741524747E+03  0.31382788822E+03  0.00000000000E+00 0.  1.
        -11    1    5    5    0    0 -0.93533162503E+02 -0.54434981540E+02 -0.16199868116E+03  0.19482092393E+03  0.00000000000E+00 0. -1.
          3    1    6    6  503    0  0.24849885807E+02  0.31918674550E+02  0.59571950354E+02  0.72007887614E+02  0.00000000000E+00 0. -1.
         -3    1    6    6    0  503  0.31328067799E+02  0.14792131816E+03  0.24802943929E+02  0.15322320394E+03  0.00000000000E+00 0.  1.
<mgrwt>
<rscale>  0 0.30401940E+03</rscale>
<asrwt>0</asrwt>
<pdfrwt beam="1">  1        1 0.20068638E+00 0.30401940E+03</pdfrwt>
<pdfrwt beam="2">  1       -1 0.29983724E-01 0.30401940E+03</pdfrwt>
<totfact> 0.99501481E+01</totfact>
</mgrwt>
</event>
<event>
12    1  0.3147868E-008  0.1487586E+04  0.7818608E-02  0.8892750E-01
         -2   -1    0    0    0  501 -0.00000000000E+00  0.00000000000E+00  0.14075655573E+04  0.14075655573E+04  0.00000000000E+00 0.  1.
          2   -1    0    0  501    0  0.00000000000E+00 -0.00000000000E+00 -0.18963735872E+04  0.18963735872E+04  0.00000000000E+00 0. -1.
         23    2    1    2    0    0 -0.31529967173E+03 -0.14353346024E+04  0.34276496757E+03  0.15118963084E+04  0.93505724731E+02 0.  0.
    5000000    2    1    2    0    0  0.31529967173E+03  0.14353346024E+04 -0.83157299749E+03  0.17920428360E+04  0.60025375628E+03 0.  0.
         23    2    4    4    0    0 -0.14991731906E+02  0.65593462190E+03 -0.63596820482E+03  0.91831600094E+03  0.91508140695E+02 0.  0.
         23    2    4    4    0    0  0.33029140364E+03  0.77939998053E+03 -0.19560479267E+03  0.87372683505E+03  0.92631562604E+02 0.  0.
          5    1    3    3  502    0 -0.12666543314E+03 -0.62966527393E+03  0.19578371781E+03  0.67147289097E+03  0.47000000000E+01 0. -1.
         -5    1    3    3    0  502 -0.18863423859E+03 -0.80566932850E+03  0.14698124976E+03  0.84042341747E+03  0.47000000000E+01 0.  1.
         13    1    5    5    0    0 -0.33550336124E+02  0.56996762679E+03 -0.58109829281E+03  0.81465572271E+03  0.00000000000E+00 0.  1.
        -13    1    5    5    0    0  0.18558604218E+02  0.85966995111E+02 -0.54869912012E+02  0.10366027823E+03  0.00000000000E+00 0. -1.
          1    1    6    6  503    0  0.22753598993E+03  0.54074581561E+03 -0.17897295984E+03  0.61335958798E+03  0.00000000000E+00 0. -1.
         -1    1    6    6    0  503  0.10275541371E+03  0.23865416492E+03 -0.16631832834E+02  0.26036724707E+03  0.00000000000E+00 0.  1.
<mgrwt>
<rscale>  0 0.14875859E+04</rscale>
<asrwt>0</asrwt>
<pdfrwt beam="1">  1        2 0.29174978E+00 0.14875859E+04</pdfrwt>
<pdfrwt beam="2">  1       -2 0.21654855E+00 0.14875859E+04</pdfrwt>
<totfact> 0.74544790E-01</totfact>
</mgrwt>
</event>
<event>
12    1  0.3147868E-008  0.8071322E+03  0.7818608E-02  0.9549751E-01
         -1   -1    0    0    0  501 -0.00000000000E+00  0.00000000000E+00  0.19147338134E+04  0.19147338134E+04  0.00000000000E+00 0.  1.
          1   -1    0    0  501    0  0.00000000000E+00 -0.00000000000E+00 -0.49392470755E+03  0.49392470755E+03  0.00000000000E+00 0. -1.
         23    2    1    2    0    0  0.43365006209E+03  0.66693395216E+03  0.11028555580E+04  0.13629033686E+04  0.91443629208E+02 0.  0.
    5000000    2    1    2    0    0 -0.43365006209E+03 -0.66693395216E+03  0.31795354785E+03  0.10457551524E+04  0.59971335429E+03 0.  0.
         23    2    4    4    0    0 -0.11099624512E+03 -0.22677856648E+03  0.40406547614E+03  0.48507551480E+03  0.90998139591E+02 0.  0.
         23    2    4    4    0    0 -0.32265381697E+03 -0.44015538568E+03 -0.86111928289E+02  0.56067963761E+03  0.95415631250E+02 0.  0.
          5    1    3    3  502    0  0.18572478573E+03  0.31911192065E+03  0.44108642314E+03  0.57524380624E+03  0.47000000000E+01 0. -1.
         -5    1    3    3    0  502  0.24792527636E+03  0.34782203151E+03  0.66176913491E+03  0.78765956236E+03  0.47000000000E+01 0.  1.
         11    1    5    5    0    0 -0.90686044782E+02 -0.86971846996E+02  0.21553934969E+03  0.24949002416E+03  0.00000000000E+00 0. -1.
        -11    1    5    5    0    0 -0.20310200341E+02 -0.13980671948E+03  0.18852612645E+03  0.23558549064E+03  0.00000000000E+00 0.  1.
          1    1    6    6  503    0 -0.19199281170E+03 -0.19821436809E+03 -0.13490907659E+02  0.27628279000E+03  0.00000000000E+00 0. -1.
         -1    1    6    6    0  503 -0.13066100527E+03 -0.24194101759E+03 -0.72621020630E+02  0.28439684760E+03  0.00000000000E+00 0.  1.
<mgrwt>
<rscale>  0 0.80713220E+03</rscale>
<asrwt>0</asrwt>
<pdfrwt beam="1">  1        1 0.75988417E-01 0.80713220E+03</pdfrwt>
<pdfrwt beam="2">  1       -1 0.29457443E+00 0.80713220E+03</pdfrwt>
<totfact> 0.16821220E+00</totfact>
</mgrwt>
</event>
<event>
12    1  0.3147868E-008  0.1054251E+04  0.7818608E-02  0.9250966E-01
          2   -1    0    0  501    0  0.00000000000E+00  0.00000000000E+00  0.18494822624E+04  0.18494822624E+04  0.00000000000E+00 0. -1.
         -2   -1    0    0    0  501 -0.00000000000E+00 -0.00000000000E+00 -0.61429618960E+03  0.61429618960E+03  0.00000000000E+00 0.  1.
         23    2    1    2    0    0 -0.11196705711E+03  0.96679751713E+03  0.44617141644E+03  0.10745849421E+04  0.91813964019E+02 0.  0.
    5000000    2    1    2    0    0  0.11196705711E+03 -0.96679751713E+03  0.78901465634E+03  0.13891935098E+04  0.60006701199E+03 0.  0.
         23    2    4    4    0    0 -0.20404862520E+03 -0.17632109673E+03  0.15105227165E+03  0.32178977540E+03  0.89481283980E+02 0.  0.
         23    2    4    4    0    0  0.31601568232E+03 -0.79047642040E+03  0.63796238470E+03  0.10674037344E+04  0.87383324218E+02 0.  0.
          5    1    3    3  502    0 -0.90582603556E+02  0.39458584455E+03  0.17832356544E+03  0.44240770877E+03  0.47000000000E+01 0. -1.
         -5    1    3    3    0  502 -0.21384453557E+02  0.57221167258E+03  0.26784785100E+03  0.63217723336E+03  0.47000000000E+01 0.  1.
         13    1    5    5    0    0 -0.91177210114E+02 -0.32495110647E+02  0.80237676423E+02  0.12572708769E+03  0.00000000000E+00 0.  1.
        -13    1    5    5    0    0 -0.11287141509E+03 -0.14382598608E+03  0.70814595224E+02  0.19606268771E+03  0.00000000000E+00 0. -1.
          2    1    6    6  503    0  0.14752054917E+02 -0.31148543299E+02  0.69337283569E+01  0.35155816913E+02  0.00000000000E+00 0. -1.
         -2    1    6    6    0  503  0.30126362740E+03 -0.75932787710E+03  0.63102865634E+03  0.10322479175E+04  0.00000000000E+00 0.  1.
<mgrwt>
<rscale>  0 0.10542513E+04</rscale>
<asrwt>0</asrwt>
<pdfrwt beam="1">  1        2 0.28453573E+00 0.10542513E+04</pdfrwt>
<pdfrwt beam="2">  1       -2 0.94507107E-01 0.10542513E+04</pdfrwt>
<totfact> 0.75893434E+00</totfact>
</mgrwt>
</event>
<event>
12    1  0.3147868E-008  0.8973708E+03  0.7818608E-02  0.9428874E-01
         -1   -1    0    0    0  501 -0.00000000000E+00  0.00000000000E+00  0.18060697808E+04  0.18060697808E+04  0.00000000000E+00 0.  1.
          1   -1    0    0  501    0  0.00000000000E+00 -0.00000000000E+00 -0.63546139137E+03  0.63546139137E+03  0.00000000000E+00 0. -1.
         23    2    1    2    0    0  0.48387121060E+03 -0.72057489441E+03  0.98824739685E+01  0.87275119472E+03  0.90760441199E+02 0.  0.
    5000000    2    1    2    0    0 -0.48387121060E+03  0.72057489441E+03  0.11607259155E+04  0.15687799775E+04  0.60035526143E+03 0.  0.
         23    2    4    4    0    0 -0.49771680737E+03  0.61346313140E+03  0.61385804509E+03  0.10045462196E+04  0.90732430121E+02 0.  0.
         23    2    4    4    0    0  0.13845596763E+02  0.10711176301E+03  0.54686787038E+03  0.56423375785E+03  0.87353508943E+02 0.  0.
          5    1    3    3  502    0  0.71214429921E+02 -0.13503715208E+03 -0.28487199743E+02  0.15537096904E+03  0.47000000000E+01 0. -1.
         -5    1    3    3    0  502  0.41265678068E+03 -0.58553774233E+03  0.38369673712E+02  0.71738022568E+03  0.47000000000E+01 0.  1.
         13    1    5    5    0    0 -0.17141268129E+03  0.16910923200E+03  0.14686355987E+03  0.28204457958E+03  0.00000000000E+00 0.  1.
        -13    1    5    5    0    0 -0.32630412608E+03  0.44435389940E+03  0.46699448521E+03  0.72250164002E+03  0.00000000000E+00 0. -1.
          2    1    6    6  503    0 -0.87829733242E+01 -0.10562051808E+02  0.12263418258E+03  0.12340113572E+03  0.00000000000E+00 0. -1.
         -2    1    6    6    0  503  0.22628570088E+02  0.11767381482E+03  0.42423368779E+03  0.44083262213E+03  0.00000000000E+00 0.  1.
<mgrwt>
<rscale>  0 0.89737078E+03</rscale>
<asrwt>0</asrwt>
<pdfrwt beam="1">  1        1 0.97763292E-01 0.89737078E+03</pdfrwt>
<pdfrwt beam="2">  1       -1 0.27785689E+00 0.89737078E+03</pdfrwt>
<totfact> 0.14846284E+00</totfact>
</mgrwt>
</event>
<event>
12    1  0.3147868E-008  0.4332811E+03  0.7818608E-02  0.1032828E+00
          2   -1    0    0  501    0  0.00000000000E+00  0.00000000000E+00  0.76304081303E+03  0.76304081303E+03  0.00000000000E+00 0. -1.
         -2   -1    0    0    0  501 -0.00000000000E+00 -0.00000000000E+00 -0.45716155983E+03  0.45716155983E+03  0.00000000000E+00 0.  1.
         23    2    1    2    0    0  0.71968308695E+02  0.39420004291E+03 -0.53013508411E+02  0.41436224990E+03  0.91173081454E+02 0.  0.
    5000000    2    1    2    0    0 -0.71968308695E+02 -0.39420004291E+03  0.35889276161E+03  0.80584012296E+03  0.60000098179E+03 0.  0.
         23    2    4    4    0    0 -0.74471506391E+02 -0.44063180269E+02 -0.14142518276E+03  0.18855627563E+03  0.89804329735E+02 0.  0.
         23    2    4    4    0    0  0.25031976964E+01 -0.35013686264E+03  0.50031794437E+03  0.61728384733E+03  0.90106681961E+02 0.  0.
          5    1    3    3  502    0 -0.21385346199E+02  0.88301993536E+02 -0.75812744746E+01  0.91291515581E+02  0.47000000000E+01 0. -1.
         -5    1    3    3    0  502  0.93353654894E+02  0.30589804938E+03 -0.45432233937E+02  0.32307073432E+03  0.47000000000E+01 0.  1.
         11    1    5    5    0    0 -0.77154055777E+01  0.14537954104E+02  0.50807943325E+01  0.17224809543E+02  0.00000000000E+00 0.  1.
        -11    1    5    5    0    0 -0.66756100813E+02 -0.58601134373E+02 -0.14650597710E+03  0.17133146608E+03  0.00000000000E+00 0. -1.
          1    1    6    6  503    0  0.82709764487E+01 -0.15892398711E+03  0.15295108630E+03  0.22072443800E+03  0.00000000000E+00 0. -1.
         -1    1    6    6    0  503 -0.57677787523E+01 -0.19121287553E+03  0.34736685807E+03  0.39655940933E+03  0.00000000000E+00 0.  1.
<mgrwt>
<rscale>  0 0.43328106E+03</rscale>
<asrwt>0</asrwt>
<pdfrwt beam="1">  1        2 0.11739089E+00 0.43328106E+03</pdfrwt>
<pdfrwt beam="2">  1       -2 0.70332548E-01 0.43328106E+03</pdfrwt>
<totfact> 0.70358515E+01</totfact>
</mgrwt>
</event>
<event>
12    1  0.3147868E-008  0.6193252E+03  0.7818608E-02  0.9866104E-01
          2   -1    0    0  501    0  0.00000000000E+00  0.00000000000E+00  0.84313917331E+03  0.84313917331E+03  0.00000000000E+00 0. -1.
         -2   -1    0    0    0  501 -0.00000000000E+00 -0.00000000000E+00 -0.60159602156E+03  0.60159602156E+03  0.00000000000E+00 0.  1.
         23    2    1    2    0    0 -0.57163311931E+03  0.95017944646E+02  0.48766496714E+02  0.58857480530E+03  0.90825642455E+02 0.  0.
    5000000    2    1    2    0    0  0.57163311931E+03 -0.95017944646E+02  0.19277665503E+03  0.85616038957E+03  0.60004578246E+03 0.  0.
         23    2    4    4    0    0  0.57928874493E+03 -0.14402638454E+03  0.32382477783E+03  0.68514172148E+03  0.90761458386E+02 0.  0.
         23    2    4    4    0    0 -0.76556256156E+01  0.49008439896E+02 -0.13104812280E+03  0.17101866809E+03  0.98047634146E+02 0.  0.
          5    1    3    3  502    0 -0.30767767810E+03  0.92769857157E+02  0.45099133278E+02  0.32454248076E+03  0.47000000000E+01 0. -1.
         -5    1    3    3    0  502 -0.26395544121E+03  0.22480874885E+01  0.36673634356E+01  0.26403232453E+03  0.47000000000E+01 0.  1.
         13    1    5    5    0    0  0.32844346461E+03 -0.78844788452E+02  0.13178793252E+03  0.36257367426E+03  0.00000000000E+00 0. -1.
        -13    1    5    5    0    0  0.25084528032E+03 -0.65181596090E+02  0.19203684532E+03  0.32256804722E+03  0.00000000000E+00 0.  1.
          4    1    6    6  503    0  0.40972663162E+01  0.42822942132E+02 -0.14530195651E+03  0.15153630103E+03  0.00000000000E+00 0. -1.
         -4    1    6    6    0  503 -0.11752891932E+02  0.61854977641E+01  0.14253833703E+02  0.19482367068E+02  0.00000000000E+00 0.  1.
<mgrwt>
<rscale>  0 0.61932518E+03</rscale>
<asrwt>0</asrwt>
<pdfrwt beam="1">  1        2 0.12971372E+00 0.61932518E+03</pdfrwt>
<pdfrwt beam="2">  1       -2 0.92553234E-01 0.61932518E+03</pdfrwt>
<totfact> 0.32662625E+01</totfact>
</mgrwt>
</event>
<event>
12    1  0.3147868E-008  0.4167501E+03  0.7818608E-02  0.1038129E+00
         -1   -1    0    0    0  501 -0.00000000000E+00  0.00000000000E+00  0.42732236350E+03  0.42732236350E+03  0.00000000000E+00 0.  1.
          1   -1    0    0  501    0  0.00000000000E+00 -0.00000000000E+00 -0.94599809108E+03  0.94599809108E+03  0.00000000000E+00 0. -1.
         23    2    1    2    0    0  0.18842076090E+03 -0.15266146964E+03  0.25583853038E+03  0.36409878111E+03  0.91140887262E+02 0.  0.
    5000000    2    1    2    0    0 -0.18842076090E+03  0.15266146964E+03 -0.77451425796E+03  0.10092216735E+04  0.59987343912E+03 0.  0.
         23    2    4    4    0    0  0.60375984838E+02 -0.15789817122E+03 -0.44495731756E+03  0.48462913633E+03  0.91111433509E+02 0.  0.
         23    2    4    4    0    0 -0.24879674574E+03  0.31055964086E+03 -0.32955694040E+03  0.52459253713E+03  0.90787894716E+02 0.  0.
          5    1    3    3  502    0  0.13086204172E+03 -0.10852482872E+03  0.11407300519E+03  0.20478587091E+03  0.47000000000E+01 0. -1.
         -5    1    3    3    0  502  0.57558719185E+02 -0.44136640918E+02  0.14176552519E+03  0.15931291020E+03  0.47000000000E+01 0.  1.
         13    1    5    5    0    0 -0.10399454710E+02  0.23240160273E+00 -0.79605779193E+02  0.80282518332E+02  0.00000000000E+00 0. -1.
        -13    1    5    5    0    0  0.70775439548E+02 -0.15813057282E+03 -0.36535153836E+03  0.40434661800E+03  0.00000000000E+00 0.  1.
          4    1    6    6  503    0 -0.98374104064E+02  0.19137036258E+03 -0.15528264143E+03  0.26535406300E+03  0.00000000000E+00 0. -1.
         -4    1    6    6    0  503 -0.15042264168E+03  0.11918927828E+03 -0.17427429897E+03  0.25923847413E+03  0.00000000000E+00 0.  1.
<mgrwt>
<rscale>  0 0.41675015E+03</rscale>
<asrwt>0</asrwt>
<pdfrwt beam="1">  1        1 0.14553817E+00 0.41675015E+03</pdfrwt>
<pdfrwt beam="2">  1       -1 0.65741902E-01 0.41675015E+03</pdfrwt>
<totfact> 0.41998607E+01</totfact>
</mgrwt>
</event>
<event>
12    1  0.3147868E-008  0.6213788E+03  0.7818608E-02  0.9862018E-01
         -2   -1    0    0    0  501 -0.00000000000E+00  0.00000000000E+00  0.87950565734E+03  0.87950565734E+03  0.00000000000E+00 0.  1.
          2   -1    0    0  501    0  0.00000000000E+00 -0.00000000000E+00 -0.65357874680E+03  0.65357874680E+03  0.00000000000E+00 0. -1.
         23    2    1    2    0    0  0.52535816099E+03  0.24625552364E+03 -0.16637528829E+03  0.61084440555E+03  0.93846528948E+02 0.  0.
    5000000    2    1    2    0    0 -0.52535816099E+03 -0.24625552364E+03  0.39230219883E+03  0.92223999859E+03  0.59998551612E+03 0.  0.
         23    2    4    4    0    0 -0.21622004651E+03 -0.25065991315E+03  0.47773381542E+03  0.58856885667E+03  0.92748046185E+02 0.  0.
         23    2    4    4    0    0 -0.30913811448E+03  0.44043895104E+01 -0.85431616588E+02  0.33367114192E+03  0.91935289017E+02 0.  0.
          5    1    3    3  502    0  0.21079859171E+03  0.53802985773E+02 -0.81835287930E+02  0.23248636927E+03  0.47000000000E+01 0. -1.
         -5    1    3    3    0  502  0.31455956928E+03  0.19245253787E+03 -0.84540000363E+02  0.37835803628E+03  0.47000000000E+01 0.  1.
         11    1    5    5    0    0 -0.96586466152E+02 -0.16362996076E+03  0.32115560755E+03  0.37315497285E+03  0.00000000000E+00 0.  1.
        -11    1    5    5    0    0 -0.11963358036E+03 -0.87029952399E+02  0.15657820788E+03  0.21541388383E+03  0.00000000000E+00 0. -1.
          4    1    6    6  503    0 -0.16833713432E+03  0.40319522305E+02 -0.72898158748E+02  0.18782224633E+03  0.00000000000E+00 0.  1.
         -4    1    6    6    0  503 -0.14080098016E+03 -0.35915132795E+02 -0.12533457841E+02  0.14584889559E+03  0.00000000000E+00 0. -1.
<mgrwt>
<rscale>  0 0.62137881E+03</rscale>
<asrwt>0</asrwt>
<pdfrwt beam="1">  1        2 0.10055058E+00 0.62137881E+03</pdfrwt>
<pdfrwt beam="2">  1       -2 0.13530856E+00 0.62137881E+03</pdfrwt>
<totfact> 0.17998963E+01</totfact>
</mgrwt>
</event>
<event>
12    1  0.3147868E-008  0.8895919E+03  0.7818608E-02  0.9438686E-01
          2   -1    0    0  501    0  0.00000000000E+00  0.00000000000E+00  0.13881478107E+04  0.13881478107E+04  0.00000000000E+00 0. -1.
         -2   -1    0    0    0  501 -0.00000000000E+00 -0.00000000000E+00 -0.75075709824E+03  0.75075709824E+03  0.00000000000E+00 0.  1.
         23    2    1    2    0    0 -0.23884131228E+03 -0.84437359746E+03  0.61524095912E+03  0.10757793843E+04  0.93637072514E+02 0.  0.
    5000000    2    1    2    0    0  0.23884131228E+03  0.84437359746E+03  0.22149753330E+02  0.10631255246E+04  0.59977772969E+03 0.  0.
         23    2    4    4    0    0  0.48018766843E+02  0.48276724370E+03 -0.26005679156E+03  0.55789759134E+03  0.90830468593E+02 0.  0.
         23    2    4    4    0    0  0.19082254544E+03  0.36160635376E+03  0.28220654489E+03  0.50522793330E+03  0.91882161915E+02 0.  0.
          5    1    3    3  502    0 -0.11957408609E+03 -0.55201894589E+03  0.36074446819E+03  0.67021007156E+03  0.47000000000E+01 0. -1.
         -5    1    3    3    0  502 -0.11926722619E+03 -0.29235465157E+03  0.25449649092E+03  0.40556931273E+03  0.47000000000E+01 0.  1.
         11    1    5    5    0    0  0.54624567704E+02  0.23077905867E+03 -0.16306236198E+03  0.28780575257E+03  0.00000000000E+00 0. -1.
        -11    1    5    5    0    0 -0.66058008607E+01  0.25198818503E+03 -0.96994429583E+02  0.27009183877E+03  0.00000000000E+00 0.  1.
          1    1    6    6  503    0  0.18192879223E+03  0.35203179156E+03  0.24522170178E+03  0.46600230765E+03  0.00000000000E+00 0. -1.
         -1    1    6    6    0  503  0.88937532056E+01  0.95745621981E+01  0.36984843111E+02  0.39225625646E+02  0.00000000000E+00 0.  1.
<mgrwt>
<rscale>  0 0.88959187E+03</rscale>
<asrwt>0</asrwt>
<pdfrwt beam="1">  1        2 0.21356120E+00 0.88959187E+03</pdfrwt>
<pdfrwt beam="2">  1       -2 0.11550109E+00 0.88959187E+03</pdfrwt>
<totfact> 0.86217509E+00</totfact>
</mgrwt>
</event>
<event>
12    1  0.3147868E-008  0.7001065E+03  0.7818608E-02  0.9717050E-01
         -1   -1    0    0    0  501 -0.00000000000E+00  0.00000000000E+00  0.41169329643E+03  0.41169329643E+03  0.00000000000E+00 0.  1.
          1   -1    0    0  501    0  0.00000000000E+00 -0.00000000000E+00 -0.30013759763E+04  0.30013759763E+04  0.00000000000E+00 0. -1.
         23    2    1    2    0    0  0.37649108351E+03  0.57101078738E+03 -0.23618017070E+02  0.69049179667E+03  0.91772846051E+02 0.  0.
    5000000    2    1    2    0    0 -0.37649108351E+03 -0.57101078738E+03 -0.25660646628E+04  0.27225774761E+04  0.59995116815E+03 0.  0.
         23    2    4    4    0    0 -0.21052664314E+03 -0.42417920919E+03 -0.75575529936E+03  0.89662198548E+03  0.92279159926E+02 0.  0.
         23    2    4    4    0    0 -0.16596444037E+03 -0.14683157819E+03 -0.18103093635E+04  0.18259554906E+04  0.88259585068E+02 0.  0.
          5    1    3    3  502    0  0.91000644247E+02  0.80783694248E+02 -0.18346346549E+02  0.12314950646E+03  0.47000000000E+01 0. -1.
         -5    1    3    3    0  502  0.28549043926E+03  0.49022709313E+03 -0.52716705207E+01  0.56734229021E+03  0.47000000000E+01 0.  1.
         11    1    5    5    0    0 -0.37120462094E+02 -0.35656277467E+02 -0.45579961768E+02  0.68751958108E+02  0.00000000000E+00 0. -1.
        -11    1    5    5    0    0 -0.17340618105E+03 -0.38852293173E+03 -0.71017533759E+03  0.82787002738E+03  0.00000000000E+00 0.  1.
          4    1    6    6  503    0 -0.78535357965E+02 -0.21596885270E+02 -0.47414168372E+03  0.48108685718E+03  0.00000000000E+00 0. -1.
         -4    1    6    6    0  503 -0.87429082402E+02 -0.12523469292E+03 -0.13361676797E+04  0.13448686334E+04  0.00000000000E+00 0.  1.
<mgrwt>
<rscale>  0 0.70010651E+03</rscale>
<asrwt>0</asrwt>
<pdfrwt beam="1">  1        1 0.46175015E+00 0.70010651E+03</pdfrwt>
<pdfrwt beam="2">  1       -1 0.63337431E-01 0.70010651E+03</pdfrwt>
<totfact> 0.16403171E+00</totfact>
</mgrwt>
</event>
<event>
12    1  0.3147868E-008  0.5006520E+03  0.7818608E-02  0.1013609E+00
          1   -1    0    0  501    0  0.00000000000E+00  0.00000000000E+00  0.15840095465E+04  0.15840095465E+04  0.00000000000E+00 0. -1.
         -1   -1    0    0    0  501 -0.00000000000E+00 -0.00000000000E+00 -0.25600993696E+03  0.25600993696E+03  0.00000000000E+00 0.  1.
         23    2    1    2    0    0  0.25400866080E+03  0.35659676259E+03  0.84262883876E+03  0.95290704709E+03  0.79541370598E+02 0.  0.
    5000000    2    1    2    0    0 -0.25400866080E+03 -0.35659676259E+03  0.48537077082E+03  0.88711243641E+03  0.59975164761E+03 0.  0.
         23    2    4    4    0    0 -0.26361831700E+03 -0.11622426280E+03 -0.37851994341E+02  0.30402250095E+03  0.89410353349E+02 0.  0.
         23    2    4    4    0    0  0.96096561944E+01 -0.24037249979E+03  0.52322276517E+03  0.58308993546E+03  0.91435915837E+02 0.  0.
          5    1    3    3  502    0  0.27207195296E+02  0.83978557590E+02  0.20576500125E+03  0.22395078779E+03  0.47000000000E+01 0. -1.
         -5    1    3    3    0  502  0.22680146551E+03  0.27261820500E+03  0.63686383751E+03  0.72895625930E+03  0.47000000000E+01 0.  1.
         13    1    5    5    0    0 -0.11307275481E+03 -0.97352417118E+02 -0.82330707473E+01  0.14943468290E+03  0.00000000000E+00 0. -1.
        -13    1    5    5    0    0 -0.15054556219E+03 -0.18871845682E+02 -0.29618923594E+02  0.15458781805E+03  0.00000000000E+00 0.  1.
          2    1    6    6  503    0  0.50616098924E+02 -0.12424403746E+03  0.26760306852E+03  0.29934924853E+03  0.00000000000E+00 0. -1.
         -2    1    6    6    0  503 -0.41006442729E+02 -0.11612846233E+03  0.25561969664E+03  0.28374068693E+03  0.00000000000E+00 0.  1.
<mgrwt>
<rscale>  0 0.50065204E+03</rscale>
<asrwt>0</asrwt>
<pdfrwt beam="1">  1        1 0.24369377E+00 0.50065204E+03</pdfrwt>
<pdfrwt beam="2">  1       -1 0.39386145E-01 0.50065204E+03</pdfrwt>
<totfact> 0.38335549E+01</totfact>
</mgrwt>
</event>
<event>
12    1  0.3147868E-008  0.6135191E+03  0.7818608E-02  0.9877749E-01
          2   -1    0    0  501    0  0.00000000000E+00  0.00000000000E+00  0.10298302850E+04  0.10298302850E+04  0.00000000000E+00 0. -1.
         -2   -1    0    0    0  501 -0.00000000000E+00 -0.00000000000E+00 -0.51406703789E+03  0.51406703789E+03  0.00000000000E+00 0.  1.
         23    2    1    2    0    0  0.12269488147E+03  0.51012060347E+03 -0.93560248366E+02  0.54048269757E+03  0.89949776445E+02 0.  0.
    5000000    2    1    2    0    0 -0.12269488147E+03 -0.51012060347E+03  0.60932349546E+03  0.10034146253E+04  0.60024055520E+03 0.  0.
         23    2    4    4    0    0 -0.20456424027E+03 -0.54695674282E+03  0.29092960354E+03  0.66019100678E+03  0.10101447570E+03 0.  0.
         23    2    4    4    0    0  0.81869358802E+02  0.36836139348E+02  0.31839389191E+03  0.34322361851E+03  0.91478351664E+02 0.  0.
          5    1    3    3  502    0  0.53347381673E+02  0.35112299485E+03 -0.92182049270E+02  0.36695084256E+03  0.47000000000E+01 0. -1.
         -5    1    3    3    0  502  0.69347499794E+02  0.15899760861E+03 -0.13781990960E+01  0.17353185502E+03  0.47000000000E+01 0.  1.
         11    1    5    5    0    0 -0.88485107027E+02 -0.36750730078E+03  0.20321550097E+03  0.42917102666E+03  0.00000000000E+00 0. -1.
        -11    1    5    5    0    0 -0.11607913324E+03 -0.17944944203E+03  0.87714102576E+02  0.23101998011E+03  0.00000000000E+00 0.  1.
          2    1    6    6  503    0  0.78880730666E+02  0.49805640118E+02  0.31627534940E+03  0.32974667261E+03  0.00000000000E+00 0. -1.
         -2    1    6    6    0  503  0.29886281359E+01 -0.12969500769E+02  0.21185425068E+01  0.13476945896E+02  0.00000000000E+00 0.  1.
<mgrwt>
<rscale>  0 0.61351906E+03</rscale>
<asrwt>0</asrwt>
<pdfrwt beam="1">  1        2 0.15843543E+00 0.61351906E+03</pdfrwt>
<pdfrwt beam="2">  1       -2 0.79087237E-01 0.61351906E+03</pdfrwt>
<totfact> 0.35251981E+01</totfact>
</mgrwt>
</event>
<event>
12    1  0.3147868E-008  0.5527137E+03  0.7818608E-02  0.1000868E+00
         -1   -1    0    0    0  501 -0.00000000000E+00  0.00000000000E+00  0.34464306726E+03  0.34464306726E+03  0.00000000000E+00 0.  1.
          1   -1    0    0  501    0  0.00000000000E+00 -0.00000000000E+00 -0.11090310622E+04  0.11090310622E+04  0.00000000000E+00 0. -1.
         23    2    1    2    0    0  0.30634976978E+03 -0.27547085134E+03 -0.55355961850E+03  0.69596803873E+03  0.90602915606E+02 0.  0.
    5000000    2    1    2    0    0 -0.30634976978E+03  0.27547085134E+03 -0.21082837643E+03  0.75770609072E+03  0.59994628445E+03 0.  0.
         23    2    4    4    0    0 -0.23764940656E+03 -0.12101619887E+03 -0.19928867843E+03  0.34461550994E+03  0.89003997148E+02 0.  0.
         23    2    4    4    0    0 -0.68700363220E+02  0.39648705022E+03 -0.11539698005E+02  0.41309058079E+03  0.92676547235E+02 0.  0.
          5    1    3    3  502    0  0.50937131179E+02 -0.44261022913E+02 -0.43448264030E+02  0.80395715863E+02  0.47000000000E+01 0. -1.
         -5    1    3    3    0  502  0.25541263860E+03 -0.23120982843E+03 -0.51011135447E+03  0.61557232287E+03  0.47000000000E+01 0.  1.
         11    1    5    5    0    0 -0.13446575461E+03 -0.20034455262E+02 -0.83504606289E+02  0.15954760366E+03  0.00000000000E+00 0. -1.
        -11    1    5    5    0    0 -0.10318365195E+03 -0.10098174361E+03 -0.11578407214E+03  0.18506790628E+03  0.00000000000E+00 0.  1.
          2    1    6    6  503    0  0.18853445863E+02  0.15298807419E+03 -0.64009546464E+01  0.15427824048E+03  0.00000000000E+00 0.  1.
         -2    1    6    6    0  503 -0.87553809083E+02  0.24349897603E+03 -0.51387433582E+01  0.25881234031E+03  0.00000000000E+00 0. -1.
<mgrwt>
<rscale>  0 0.55271370E+03</rscale>
<asrwt>0</asrwt>
<pdfrwt beam="1">  1        1 0.17062017E+00 0.55271370E+03</pdfrwt>
<pdfrwt beam="2">  1       -1 0.53022010E-01 0.55271370E+03</pdfrwt>
<totfact> 0.47001346E+01</totfact>
</mgrwt>
</event>
<event>
12    1  0.3147868E-008  0.4436821E+03  0.7818608E-02  0.1029623E+00
         -2   -1    0    0    0  501 -0.00000000000E+00  0.00000000000E+00  0.40125199708E+03  0.40125199708E+03  0.00000000000E+00 0.  1.
          2   -1    0    0  501    0  0.00000000000E+00 -0.00000000000E+00 -0.10297363878E+04  0.10297363878E+04  0.00000000000E+00 0. -1.
         23    2    1    2    0    0  0.33205384457E+03  0.25354318073E+03  0.53931246562E+02  0.43084120162E+03  0.90397242589E+02 0.  0.
    5000000    2    1    2    0    0 -0.33205384457E+03 -0.25354318073E+03 -0.68241563724E+03  0.10001471832E+04  0.60004948628E+03 0.  0.
         23    2    4    4    0    0 -0.10494298329E+03 -0.19589449506E+03  0.31859761640E+02  0.24251629211E+03  0.91713818975E+02 0.  0.
         23    2    4    4    0    0 -0.22711086128E+03 -0.57648685666E+02 -0.71427539888E+03  0.75763089112E+03  0.94406077465E+02 0.  0.
          5    1    3    3  502    0  0.17364148957E+03  0.18792233902E+03  0.30500413358E+02  0.25771794197E+03  0.47000000000E+01 0. -1.
         -5    1    3    3    0  502  0.15841235500E+03  0.65620841710E+02  0.23430833205E+02  0.17312325964E+03  0.47000000000E+01 0.  1.
         13    1    5    5    0    0 -0.47948311610E+02 -0.56432575180E+02  0.52044761789E+02  0.90511509529E+02  0.00000000000E+00 0.  1.
        -13    1    5    5    0    0 -0.56994671677E+02 -0.13946191988E+03 -0.20185000149E+02  0.15200478258E+03  0.00000000000E+00 0. -1.
          2    1    6    6  503    0 -0.18050450423E+03 -0.54277549512E+02 -0.65810143613E+03  0.68456221680E+03  0.00000000000E+00 0. -1.
         -2    1    6    6    0  503 -0.46606357045E+02 -0.33711361546E+01 -0.56173962747E+02  0.73068674319E+02  0.00000000000E+00 0.  1.
<mgrwt>
<rscale>  0 0.44368211E+03</rscale>
<asrwt>0</asrwt>
<pdfrwt beam="1">  1        2 0.15842098E+00 0.44368211E+03</pdfrwt>
<pdfrwt beam="2">  1       -2 0.61731078E-01 0.44368211E+03</pdfrwt>
<totfact> 0.61705745E+01</totfact>
</mgrwt>
</event>
<event>
12    1  0.3147868E-008  0.1150653E+04  0.7818608E-02  0.9157181E-01
         -1   -1    0    0    0  501 -0.00000000000E+00  0.00000000000E+00  0.22290242458E+04  0.22290242458E+04  0.00000000000E+00 0.  1.
          1   -1    0    0  501    0  0.00000000000E+00 -0.00000000000E+00 -0.91448943544E+03  0.91448943544E+03  0.00000000000E+00 0. -1.
         23    2    1    2    0    0  0.47338862253E+03 -0.10040900222E+04  0.14997504843E+04  0.18681111076E+04  0.91071590743E+02 0.  0.
    5000000    2    1    2    0    0 -0.47338862253E+03  0.10040900222E+04 -0.18521567395E+03  0.12754025736E+04  0.60004443033E+03 0.  0.
         23    2    4    4    0    0  0.32666465151E+01  0.46749468083E+03  0.11838833446E+03  0.49067379092E+03  0.90460067323E+02 0.  0.
         23    2    4    4    0    0 -0.47665526904E+03  0.53659534134E+03 -0.30360400841E+03  0.78472878270E+03  0.92136109213E+02 0.  0.
          5    1    3    3  502    0  0.31204568414E+03 -0.66794201746E+03  0.92276359976E+03  0.11811154892E+04  0.47000000000E+01 0.  1.
         -5    1    3    3    0  502  0.16134293839E+03 -0.33614800471E+03  0.57698688456E+03  0.68699561847E+03  0.47000000000E+01 0. -1.
         11    1    5    5    0    0 -0.47079505636E+01  0.27189711347E+03  0.11399485927E+03  0.29486443165E+03  0.00000000000E+00 0.  1.
        -11    1    5    5    0    0  0.79745970787E+01  0.19559756736E+03  0.43934751916E+01  0.19580935928E+03  0.00000000000E+00 0. -1.
          3    1    6    6  503    0 -0.76508382803E+02  0.42029018175E+02 -0.41978565971E+02  0.96861607507E+02  0.00000000000E+00 0. -1.
         -3    1    6    6    0  503 -0.40014688624E+03  0.49456632317E+03 -0.26162544244E+03  0.68786717519E+03  0.00000000000E+00 0.  1.
<mgrwt>
<rscale>  0 0.11506533E+04</rscale>
<asrwt>0</asrwt>
<pdfrwt beam="1">  1        1 0.14069068E+00 0.11506533E+04</pdfrwt>
<pdfrwt beam="2">  1       -1 0.34292681E+00 0.11506533E+04</pdfrwt>
<totfact> 0.30524836E-01</totfact>
</mgrwt>
</event>
<event>
12    1  0.3147868E-008  0.5912621E+03  0.7818608E-02  0.9923702E-01
         -2   -1    0    0    0  501 -0.00000000000E+00  0.00000000000E+00  0.56180305622E+03  0.56180305622E+03  0.00000000000E+00 0.  1.
          2   -1    0    0  501    0  0.00000000000E+00 -0.00000000000E+00 -0.20199638281E+04  0.20199638281E+04  0.00000000000E+00 0. -1.
         23    2    1    2    0    0  0.20101815961E+03 -0.51941326899E+03  0.30221090439E+03  0.64020283876E+03  0.91267735409E+02 0.  0.
    5000000    2    1    2    0    0 -0.20101815961E+03  0.51941326899E+03 -0.17603716763E+04  0.19415640456E+04  0.60046986590E+03 0.  0.
         23    2    4    4    0    0 -0.24435345979E+03  0.35665283932E+03 -0.16722225721E+04  0.17296629839E+04  0.92172913519E+02 0.  0.
         23    2    4    4    0    0  0.43335300174E+02  0.16276042968E+03 -0.88149104145E+02  0.21190106167E+03  0.93610307467E+02 0.  0.
          5    1    3    3  502    0  0.68474402676E+02 -0.26862802690E+03  0.18462602248E+03  0.33310451638E+03  0.47000000000E+01 0. -1.
         -5    1    3    3    0  502  0.13254375694E+03 -0.25078524209E+03  0.11758488191E+03  0.30709832238E+03  0.47000000000E+01 0.  1.
         13    1    5    5    0    0 -0.14108533965E+03  0.13963923686E+03 -0.86115354261E+03  0.88373616735E+03  0.00000000000E+00 0. -1.
        -13    1    5    5    0    0 -0.10326812014E+03  0.21701360246E+03 -0.81106902954E+03  0.84592681655E+03  0.00000000000E+00 0.  1.
          2    1    6    6  503    0  0.62866822203E+02  0.13339477496E+03 -0.95747786033E+02  0.17582389443E+03  0.00000000000E+00 0. -1.
         -2    1    6    6    0  503 -0.19531522030E+02  0.29365654712E+02  0.75986818882E+01  0.36077167238E+02  0.00000000000E+00 0.  1.
<mgrwt>
<rscale>  0 0.59126206E+03</rscale>
<asrwt>0</asrwt>
<pdfrwt beam="1">  1        2 0.31076367E+00 0.59126206E+03</pdfrwt>
<pdfrwt beam="2">  1       -2 0.86431240E-01 0.59126206E+03</pdfrwt>
<totfact> 0.80496261E+00</totfact>
</mgrwt>
</event>
<event>
12    1  0.3147868E-008  0.3338627E+03  0.7818608E-02  0.1069440E+00
         -2   -1    0    0    0  501 -0.00000000000E+00  0.00000000000E+00  0.21377750615E+03  0.21377750615E+03  0.00000000000E+00 0.  1.
          2   -1    0    0  501    0  0.00000000000E+00 -0.00000000000E+00 -0.10641752977E+04  0.10641752977E+04  0.00000000000E+00 0. -1.
         23    2    1    2    0    0 -0.21863343726E+03 -0.66202794543E+02 -0.48442650706E+02  0.25067319740E+03  0.91142589347E+02 0.  0.
    5000000    2    1    2    0    0  0.21863343726E+03  0.66202794543E+02 -0.80195514087E+03  0.10272796065E+04  0.59998995993E+03 0.  0.
         23    2    4    4    0    0  0.25788162480E+03 -0.60643960701E+02 -0.87554702038E+02  0.29365169216E+03  0.91568925281E+02 0.  0.
         23    2    4    4    0    0 -0.39248187541E+02  0.12684675524E+03 -0.71440043884E+03  0.73362791432E+03  0.10105152210E+03 0.  0.
          5    1    3    3  502    0 -0.21744398386E+03 -0.61316063888E+02 -0.62982944306E+02  0.23458577766E+03  0.47000000000E+01 0. -1.
         -5    1    3    3    0  502 -0.11894534037E+01 -0.48867306555E+01  0.14540293600E+02  0.16087419740E+02  0.47000000000E+01 0.  1.
         13    1    5    5    0    0  0.24386864379E+03 -0.45684246259E+02 -0.10232898190E+03  0.26838440028E+03  0.00000000000E+00 0. -1.
        -13    1    5    5    0    0  0.14012981013E+02 -0.14959714442E+02  0.14774279862E+02  0.25267291871E+02  0.00000000000E+00 0.  1.
          3    1    6    6  503    0 -0.59055914097E+02  0.27834902378E+02 -0.25075965003E+03  0.25911924835E+03  0.00000000000E+00 0. -1.
         -3    1    6    6    0  503  0.19807726556E+02  0.99011852867E+02 -0.46364078880E+03  0.47450866597E+03  0.00000000000E+00 0.  1.
<mgrwt>
<rscale>  0 0.33386274E+03</rscale>
<asrwt>0</asrwt>
<pdfrwt beam="1">  1        2 0.16371927E+00 0.33386274E+03</pdfrwt>
<pdfrwt beam="2">  1       -2 0.32888847E-01 0.33386274E+03</pdfrwt>
<totfact> 0.20723155E+02</totfact>
</mgrwt>
</event>
<event>
12    1  0.3147868E-008  0.1038065E+04  0.7818608E-02  0.9267754E-01
          2   -1    0    0  501    0  0.00000000000E+00  0.00000000000E+00  0.29684282853E+04  0.29684282853E+04  0.00000000000E+00 0. -1.
         -2   -1    0    0    0  501 -0.00000000000E+00 -0.00000000000E+00 -0.40229414505E+03  0.40229414505E+03  0.00000000000E+00 0.  1.
         23    2    1    2    0    0  0.65530611539E+03 -0.70789988442E+03  0.16407004829E+04  0.19055525671E+04  0.93188839558E+02 0.  0.
    5000000    2    1    2    0    0 -0.65530611539E+03  0.70789988442E+03  0.92543365730E+03  0.14651698633E+04  0.59978906542E+03 0.  0.
         23    2    4    4    0    0  0.25839323179E+02  0.31824919545E+03  0.37794118783E+03  0.50399794424E+03  0.96042518300E+02 0.  0.
         23    2    4    4    0    0 -0.68114543857E+03  0.38965068897E+03  0.54749246947E+03  0.96117191904E+03  0.91195865754E+02 0.  0.
          5    1    3    3  502    0  0.38897742171E+03 -0.35777063849E+03  0.85943028598E+03  0.10089329863E+04  0.47000000000E+01 0. -1.
         -5    1    3    3    0  502  0.26632869368E+03 -0.35012924592E+03  0.78127019697E+03  0.89661958076E+03  0.47000000000E+01 0.  1.
         11    1    5    5    0    0  0.12462166510E+02  0.23069340124E+03  0.20142940732E+03  0.30651028874E+03  0.00000000000E+00 0. -1.
        -11    1    5    5    0    0  0.13377156669E+02  0.87555794213E+02  0.17651178051E+03  0.19748765551E+03  0.00000000000E+00 0.  1.
          2    1    6    6  503    0 -0.51077172586E+03  0.32737455121E+03  0.39251657946E+03  0.72258640858E+03  0.00000000000E+00 0. -1.
         -2    1    6    6    0  503 -0.17037371271E+03  0.62276137760E+02  0.15497589001E+03  0.23858551046E+03  0.00000000000E+00 0.  1.
<mgrwt>
<rscale>  0 0.10380648E+04</rscale>
<asrwt>0</asrwt>
<pdfrwt beam="1">  1        2 0.45668126E+00 0.10380648E+04</pdfrwt>
<pdfrwt beam="2">  1       -2 0.61891409E-01 0.10380648E+04</pdfrwt>
<totfact> 0.44904708E+00</totfact>
</mgrwt>
</event>
<event>
12    1  0.3147868E-008  0.3756878E+03  0.7818608E-02  0.1052539E+00
         -2   -1    0    0    0  501 -0.00000000000E+00  0.00000000000E+00  0.23765107410E+03  0.23765107410E+03  0.00000000000E+00 0.  1.
          2   -1    0    0  501    0  0.00000000000E+00 -0.00000000000E+00 -0.16463912977E+04  0.16463912977E+04  0.00000000000E+00 0. -1.
         23    2    1    2    0    0 -0.29838808328E+03  0.12100078806E+03 -0.17013629468E+02  0.33465925226E+03  0.89614243173E+02 0.  0.
    5000000    2    1    2    0    0  0.29838808328E+03 -0.12100078806E+03 -0.13917265941E+04  0.15493831196E+04  0.60000708276E+03 0.  0.
         23    2    4    4    0    0  0.16147985755E+03 -0.19771465725E+03 -0.18179482080E+03  0.32588907156E+03  0.89372814701E+02 0.  0.
         23    2    4    4    0    0  0.13690822573E+03  0.76713869186E+02 -0.12099317733E+04  0.12234940480E+04  0.91509066944E+02 0.  0.
          5    1    3    3  502    0 -0.10355575939E+03  0.35353134057E+02 -0.47919170057E+02  0.11954905374E+03  0.47000000000E+01 0. -1.
         -5    1    3    3    0  502 -0.19483232389E+03  0.85647654005E+02  0.30905540589E+02  0.21511019852E+03  0.47000000000E+01 0.  1.
         11    1    5    5    0    0  0.12508624206E+03 -0.11060704750E+03 -0.15482219146E+03  0.22770682440E+03  0.00000000000E+00 0.  1.
        -11    1    5    5    0    0  0.36393615489E+02 -0.87107609745E+02 -0.26972629341E+02  0.98182247160E+02  0.00000000000E+00 0. -1.
          3    1    6    6  503    0  0.54159945698E+02 -0.86335244884E+00 -0.64608940994E+03  0.64835605244E+03  0.00000000000E+00 0. -1.
         -3    1    6    6    0  503  0.82748280031E+02  0.77577221635E+02 -0.56384236341E+03  0.57513799556E+03  0.00000000000E+00 0.  1.
<mgrwt>
<rscale>  0 0.37568782E+03</rscale>
<asrwt>0</asrwt>
<pdfrwt beam="1">  1        2 0.25329097E+00 0.37568782E+03</pdfrwt>
<pdfrwt beam="2">  1       -2 0.36561704E-01 0.37568782E+03</pdfrwt>
<totfact> 0.79679269E+01</totfact>
</mgrwt>
</event>
<event>
12    1  0.3147868E-008  0.8764624E+03  0.7818608E-02  0.9455492E-01
          1   -1    0    0  501    0  0.00000000000E+00  0.00000000000E+00  0.11052425975E+04  0.11052425975E+04  0.00000000000E+00 0. -1.
         -1   -1    0    0    0  501 -0.00000000000E+00 -0.00000000000E+00 -0.76678635555E+03  0.76678635555E+03  0.00000000000E+00 0.  1.
         23    2    1    2    0    0 -0.18030959544E+03 -0.75674002227E+03  0.41710266681E+03  0.88646699587E+03  0.81744043089E+02 0.  0.
    5000000    2    1    2    0    0  0.18030959544E+03  0.75674002227E+03 -0.78646424901E+02  0.98556195714E+03  0.59998341618E+03 0.  0.
         23    2    4    4    0    0 -0.16655875941E+03  0.73860170493E+02 -0.65755161883E+02  0.21427883517E+03  0.91621682835E+02 0.  0.
         23    2    4    4    0    0  0.34686835485E+03  0.68287985178E+03 -0.12891263018E+02  0.77128312197E+03  0.89827178540E+02 0.  0.
          5    1    3    3  502    0 -0.35683335115E+02 -0.92067257022E+02  0.80590989474E+02  0.12754088680E+03  0.47000000000E+01 0. -1.
         -5    1    3    3    0  502 -0.14462626032E+03 -0.66467276525E+03  0.33651167733E+03  0.75892610907E+03  0.47000000000E+01 0.  1.
         13    1    5    5    0    0 -0.17324543428E+03  0.51885308773E+02 -0.55963688224E+02  0.18930927120E+03  0.00000000000E+00 0.  1.
        -13    1    5    5    0    0  0.66866748623E+01  0.21974861720E+02 -0.97914736594E+01  0.24969563968E+02  0.00000000000E+00 0. -1.
          1    1    6    6  503    0  0.94753997719E+01  0.67931000589E+02  0.10931708239E+02  0.69454346781E+02  0.00000000000E+00 0. -1.
         -1    1    6    6    0  503  0.33739295508E+03  0.61494885119E+03 -0.23822971257E+02  0.70182877519E+03  0.00000000000E+00 0.  1.
<mgrwt>
<rscale>  0 0.87646240E+03</rscale>
<asrwt>0</asrwt>
<pdfrwt beam="1">  1        1 0.17003732E+00 0.87646240E+03</pdfrwt>
<pdfrwt beam="2">  1       -1 0.11796713E+00 0.87646240E+03</pdfrwt>
<totfact> 0.82488211E+00</totfact>
</mgrwt>
</event>
<event>
12    1  0.3147868E-008  0.6108729E+03  0.7818608E-02  0.9883101E-01
         -2   -1    0    0    0  501 -0.00000000000E+00  0.00000000000E+00  0.37321398379E+03  0.37321398379E+03  0.00000000000E+00 0.  1.
          2   -1    0    0  501    0  0.00000000000E+00 -0.00000000000E+00 -0.14604993240E+04  0.14604993240E+04  0.00000000000E+00 0. -1.
         23    2    1    2    0    0  0.56325020686E+03  0.11934698710E+03 -0.71458018936E+03  0.92235950524E+03  0.92885472653E+02 0.  0.
    5000000    2    1    2    0    0 -0.56325020686E+03 -0.11934698710E+03 -0.37270515090E+03  0.91135380259E+03  0.60013508908E+03 0.  0.
         23    2    4    4    0    0 -0.36768144925E+03 -0.20455430507E+03  0.45443533395E+02  0.43313737956E+03  0.92253796665E+02 0.  0.
         23    2    4    4    0    0 -0.19556875761E+03  0.85207317972E+02 -0.41814868429E+03  0.47821642304E+03  0.91297311565E+02 0.  0.
          5    1    3    3  502    0  0.32026476952E+03  0.46059133793E+02 -0.46382271573E+03  0.56554802451E+03  0.47000000000E+01 0. -1.
         -5    1    3    3    0  502  0.24298543734E+03  0.73287853303E+02 -0.25075747364E+03  0.35681148074E+03  0.47000000000E+01 0.  1.
         13    1    5    5    0    0 -0.31168337393E+03 -0.20783995752E+03  0.37879186308E+02  0.37653526565E+03  0.00000000000E+00 0.  1.
        -13    1    5    5    0    0 -0.55998075321E+02  0.32856524511E+01  0.75643470866E+01  0.56602113905E+02  0.00000000000E+00 0. -1.
          2    1    6    6  503    0 -0.70296759113E+02  0.25075855107E+02 -0.65955664519E+02  0.99602121129E+02  0.00000000000E+00 0. -1.
         -2    1    6    6    0  503 -0.12527199850E+03  0.60131462865E+02 -0.35219301977E+03  0.37861430191E+03  0.00000000000E+00 0.  1.
<mgrwt>
<rscale>  0 0.61087294E+03</rscale>
<asrwt>0</asrwt>
<pdfrwt beam="1">  1        2 0.22469220E+00 0.61087294E+03</pdfrwt>
<pdfrwt beam="2">  1       -2 0.57417536E-01 0.61087294E+03</pdfrwt>
<totfact> 0.39465918E+01</totfact>
</mgrwt>
</event>
<event>
12    1  0.3147868E-008  0.4523689E+03  0.7818608E-02  0.1027018E+00
         -1   -1    0    0    0  501 -0.00000000000E+00  0.00000000000E+00  0.36248283423E+03  0.36248283423E+03  0.00000000000E+00 0.  1.
          1   -1    0    0  501    0  0.00000000000E+00 -0.00000000000E+00 -0.77452822192E+03  0.77452822192E+03  0.00000000000E+00 0. -1.
         23    2    1    2    0    0  0.22142177426E+03  0.20298273520E+03  0.56204743427E+02  0.31874035375E+03  0.90591649820E+02 0.  0.
    5000000    2    1    2    0    0 -0.22142177426E+03 -0.20298273520E+03 -0.46825013112E+03  0.81827070240E+03  0.60006596654E+03 0.  0.
         23    2    4    4    0    0 -0.19846657174E+03 -0.36350212200E+03 -0.15163820354E+03  0.45055737278E+03  0.92114214977E+02 0.  0.
         23    2    4    4    0    0 -0.22955202525E+02  0.16051938680E+03 -0.31661192757E+03  0.36771332961E+03  0.93148082272E+02 0.  0.
          5    1    3    3  502    0  0.73283828761E+02  0.10558433429E+03  0.58696911893E+02  0.14137181003E+03  0.47000000000E+01 0. -1.
         -5    1    3    3    0  502  0.14813794550E+03  0.97398400912E+02 -0.24921684662E+01  0.17736854372E+03  0.47000000000E+01 0.  1.
         11    1    5    5    0    0 -0.69383120675E+02 -0.18209272980E+03 -0.11090812228E+03  0.22421505585E+03  0.00000000000E+00 0. -1.
        -11    1    5    5    0    0 -0.12908345106E+03 -0.18140939220E+03 -0.40730081260E+02  0.22634231693E+03  0.00000000000E+00 0.  1.
          1    1    6    6  503    0 -0.49449688338E+02  0.62324256421E+02 -0.95257483982E+02  0.12411113113E+03  0.00000000000E+00 0. -1.
         -1    1    6    6    0  503  0.26494485813E+02  0.98195130376E+02 -0.22135444359E+03  0.24360219848E+03  0.00000000000E+00 0.  1.
<mgrwt>
<rscale>  0 0.45236892E+03</rscale>
<asrwt>0</asrwt>
<pdfrwt beam="1">  1        1 0.11915819E+00 0.45236892E+03</pdfrwt>
<pdfrwt beam="2">  1       -1 0.55766590E-01 0.45236892E+03</pdfrwt>
<totfact> 0.79657891E+01</totfact>
</mgrwt>
</event>
<event>
12    1  0.3147868E-008  0.5868086E+03  0.7818608E-02  0.9933158E-01
          2   -1    0    0  501    0  0.00000000000E+00  0.00000000000E+00  0.23498710486E+04  0.23498710486E+04  0.00000000000E+00 0.  1.
         -2   -1    0    0    0  501 -0.00000000000E+00 -0.00000000000E+00 -0.31720602281E+03  0.31720602281E+03  0.00000000000E+00 0. -1.
         23    2    1    2    0    0 -0.45715311184E+03  0.82452552732E+02 -0.23838245132E+02  0.47498547224E+03  0.96205747193E+02 0.  0.
    5000000    2    1    2    0    0  0.45715311184E+03 -0.82452552732E+02  0.20565032709E+04  0.21920915992E+04  0.60022702764E+03 0.  0.
         23    2    4    4    0    0  0.22591588190E+03 -0.29055749159E+03  0.15000110528E+04  0.15476184652E+04  0.98122952839E+02 0.  0.
         23    2    4    4    0    0  0.23123722994E+03  0.20810493886E+03  0.55649221818E+03  0.64447313397E+03  0.94253431868E+02 0.  0.
          5    1    3    3  502    0 -0.23916846829E+03  0.90524630086E+02 -0.27601068887E+01  0.25578501337E+03  0.47000000000E+01 0. -1.
         -5    1    3    3    0  502 -0.21798464355E+03 -0.80720773539E+01 -0.21078138243E+02  0.21920045887E+03  0.47000000000E+01 0.  1.
         11    1    5    5    0    0  0.17992880083E+03 -0.15465575862E+03  0.91193094363E+03  0.94229020105E+03  0.00000000000E+00 0.  1.
        -11    1    5    5    0    0  0.45987081062E+02 -0.13590173297E+03  0.58808010913E+03  0.60532826416E+03  0.00000000000E+00 0. -1.
          1    1    6    6  503    0  0.16055424628E+03  0.18411498326E+03  0.36760496542E+03  0.44137218270E+03  0.00000000000E+00 0. -1.
         -1    1    6    6    0  503  0.70682983658E+02  0.23989955594E+02  0.18888725277E+03  0.20310095127E+03  0.00000000000E+00 0.  1.
<mgrwt>
<rscale>  0 0.58680861E+03</rscale>
<asrwt>0</asrwt>
<pdfrwt beam="1">  1        2 0.36151861E+00 0.58680861E+03</pdfrwt>
<pdfrwt beam="2">  1       -2 0.48800928E-01 0.58680861E+03</pdfrwt>
<totfact> 0.18104798E+01</totfact>
</mgrwt>
</event>
<event>
12    1  0.3147868E-008  0.6416371E+03  0.7818608E-02  0.9822599E-01
         -1   -1    0    0    0  501 -0.00000000000E+00  0.00000000000E+00  0.70456653419E+03  0.70456653419E+03  0.00000000000E+00 0.  1.
          1   -1    0    0  501    0  0.00000000000E+00 -0.00000000000E+00 -0.83940147243E+03  0.83940147243E+03  0.00000000000E+00 0. -1.
         23    2    1    2    0    0  0.37583373070E+03  0.46216322434E+03  0.19970493779E+03  0.63469852648E+03  0.90079510859E+02 0.  0.
    5000000    2    1    2    0    0 -0.37583373070E+03 -0.46216322434E+03 -0.33453987603E+03  0.90926948013E+03  0.60000684978E+03 0.  0.
         23    2    4    4    0    0 -0.32781055158E+01  0.29001070134E+02 -0.26562839923E+03  0.28240421342E+03  0.91333921599E+02 0.  0.
         23    2    4    4    0    0 -0.37255562519E+03 -0.49116429447E+03 -0.68911476799E+02  0.62686526671E+03  0.90394761745E+02 0.  0.
          5    1    3    3  502    0  0.24417079286E+03  0.22974783161E+03  0.11011824416E+03  0.35291863073E+03  0.47000000000E+01 0. -1.
         -5    1    3    3    0  502  0.13166293784E+03  0.23241539273E+03  0.89586693632E+02  0.28177989576E+03  0.47000000000E+01 0.  1.
         11    1    5    5    0    0  0.24423057918E+02  0.26078150284E+02 -0.34714030437E+02  0.49815856808E+02  0.00000000000E+00 0. -1.
        -11    1    5    5    0    0 -0.27701163434E+02  0.29229198499E+01 -0.23091436879E+03  0.23258835661E+03  0.00000000000E+00 0.  1.
          1    1    6    6  503    0 -0.21920234459E+03 -0.31354894997E+03 -0.84127783973E+02  0.39171430397E+03  0.00000000000E+00 0. -1.
         -1    1    6    6    0  503 -0.15335328060E+03 -0.17761534451E+03  0.15216307174E+02  0.23515096274E+03  0.00000000000E+00 0.  1.
<mgrwt>
<rscale>  0 0.64163711E+03</rscale>
<asrwt>0</asrwt>
<pdfrwt beam="1">  1        1 0.12913869E+00 0.64163711E+03</pdfrwt>
<pdfrwt beam="2">  1       -1 0.10839485E+00 0.64163711E+03</pdfrwt>
<totfact> 0.16858532E+01</totfact>
</mgrwt>
</event>
<event>
12    1  0.3147868E-008  0.7248492E+03  0.7818608E-02  0.9675656E-01
         -3   -1    0    0    0  501 -0.00000000000E+00  0.00000000000E+00  0.11888068702E+04  0.11888068702E+04  0.00000000000E+00 0.  1.
          3   -1    0    0  501    0  0.00000000000E+00 -0.00000000000E+00 -0.64419818265E+03  0.64419818265E+03  0.00000000000E+00 0. -1.
         23    2    1    2    0    0 -0.26529175872E+03 -0.58416998921E+03 -0.20273241275E+03  0.67948472067E+03  0.94682421294E+02 0.  0.
    5000000    2    1    2    0    0  0.26529175872E+03  0.58416998921E+03  0.74734110028E+03  0.11535203322E+04  0.60037999882E+03 0.  0.
         23    2    4    4    0    0 -0.12581568112E+03  0.69134363869E+02  0.34713416681E+03  0.38747608933E+03  0.95007600526E+02 0.  0.
         23    2    4    4    0    0  0.39110743984E+03  0.51503562534E+03  0.40020693347E+03  0.76604424282E+03  0.91823022671E+02 0.  0.
          5    1    3    3  502    0 -0.15388431116E+03 -0.41815511744E+03 -0.16955255505E+03  0.47676434681E+03  0.47000000000E+01 0. -1.
         -5    1    3    3    0  502 -0.11140744756E+03 -0.16601487177E+03 -0.33179857700E+02  0.20272037386E+03  0.47000000000E+01 0.  1.
         13    1    5    5    0    0 -0.66671483428E+02  0.10212838273E+02  0.66623048455E+02  0.94805165226E+02  0.00000000000E+00 0. -1.
        -13    1    5    5    0    0 -0.59144197689E+02  0.58921525596E+02  0.28051111835E+03  0.29267092411E+03  0.00000000000E+00 0.  1.
          3    1    6    6  503    0  0.16054098605E+03  0.14036554075E+03  0.12869166865E+03  0.24907315955E+03  0.00000000000E+00 0. -1.
         -3    1    6    6    0  503  0.23056645379E+03  0.37467008459E+03  0.27151526483E+03  0.51697108327E+03  0.00000000000E+00 0.  1.
<mgrwt>
<rscale>  0 0.72484919E+03</rscale>
<asrwt>0</asrwt>
<pdfrwt beam="1">  1        3 0.99107413E-01 0.72484919E+03</pdfrwt>
<pdfrwt beam="2">  1       -3 0.18289336E+00 0.72484919E+03</pdfrwt>
<totfact> 0.43914313E-01</totfact>
</mgrwt>
</event>
<event>
12    1  0.3147868E-008  0.1339405E+04  0.7818608E-02  0.8998887E-01
         -2   -1    0    0    0  501 -0.00000000000E+00  0.00000000000E+00  0.14452386002E+04  0.14452386002E+04  0.00000000000E+00 0.  1.
          2   -1    0    0  501    0  0.00000000000E+00 -0.00000000000E+00 -0.17615262168E+04  0.17615262168E+04  0.00000000000E+00 0. -1.
         23    2    1    2    0    0 -0.10909473520E+04 -0.66108063775E+03  0.71049667631E+03  0.14628219473E+04  0.88593384984E+02 0.  0.
    5000000    2    1    2    0    0  0.10909473520E+04  0.66108063775E+03 -0.10267842929E+04  0.17439428697E+04  0.59988083319E+03 0.  0.
         23    2    4    4    0    0  0.67198992206E+03  0.70260287721E+03 -0.76402740579E+03  0.12398773247E+04  0.91305230408E+02 0.  0.
         23    2    4    4    0    0  0.41895742998E+03 -0.41522239467E+02 -0.26275688715E+03  0.50406554499E+03  0.88269289113E+02 0.  0.
          5    1    3    3  502    0 -0.36324452217E+03 -0.17922596587E+03  0.20102255188E+03  0.45221752078E+03  0.47000000000E+01 0. -1.
         -5    1    3    3    0  502 -0.72770282986E+03 -0.48185467187E+03  0.50947412442E+03  0.10106044265E+04  0.47000000000E+01 0.  1.
         13    1    5    5    0    0  0.14434681189E+03  0.16777738575E+03 -0.22188626652E+03  0.31339873730E+03  0.00000000000E+00 0. -1.
        -13    1    5    5    0    0  0.52764311016E+03  0.53482549146E+03 -0.54214113927E+03  0.92647858740E+03  0.00000000000E+00 0.  1.
          2    1    6    6  503    0  0.27396227156E+03  0.10795788819E+02 -0.19026332992E+03  0.33372445222E+03  0.00000000000E+00 0. -1.
         -2    1    6    6    0  503  0.14499515842E+03 -0.52318028286E+02 -0.72493557223E+02  0.17034109277E+03  0.00000000000E+00 0.  1.
<mgrwt>
<rscale>  0 0.13394052E+04</rscale>
<asrwt>0</asrwt>
<pdfrwt beam="1">  1        2 0.27100403E+00 0.13394052E+04</pdfrwt>
<pdfrwt beam="2">  1       -2 0.22234440E+00 0.13394052E+04</pdfrwt>
<totfact> 0.82678604E-01</totfact>
</mgrwt>
</event>
<event>
12    1  0.3147868E-008  0.1260804E+04  0.7818608E-02  0.9061239E-01
          2   -1    0    0  501    0  0.00000000000E+00  0.00000000000E+00  0.32296127742E+04  0.32296127742E+04  0.00000000000E+00 0. -1.
         -2   -1    0    0    0  501 -0.00000000000E+00 -0.00000000000E+00 -0.51931496115E+03  0.51931496115E+03  0.00000000000E+00 0.  1.
         23    2    1    2    0    0  0.13917951085E+03 -0.12139562107E+04  0.11841154207E+04  0.17038569427E+04  0.89098452078E+02 0.  0.
    5000000    2    1    2    0    0 -0.13917951085E+03  0.12139562107E+04  0.15261823923E+04  0.20450707926E+04  0.60001769502E+03 0.  0.
         23    2    4    4    0    0 -0.15419979191E+03  0.11974167236E+04  0.11974805214E+04  0.17029396738E+04  0.91975801143E+02 0.  0.
         23    2    4    4    0    0  0.15020281057E+02  0.16539487098E+02  0.32870187097E+03  0.34213111874E+03  0.92247595928E+02 0.  0.
          5    1    3    3  502    0  0.10463071309E+03 -0.67432041950E+03  0.61223562174E+03  0.91679341228E+03  0.47000000000E+01 0. -1.
         -5    1    3    3    0  502  0.34548797761E+02 -0.53963579117E+03  0.57187979896E+03  0.78706353047E+03  0.47000000000E+01 0.  1.
         13    1    5    5    0    0 -0.13954750825E+03  0.10422950018E+04  0.99758766045E+03  0.14494942284E+04  0.00000000000E+00 0.  1.
        -13    1    5    5    0    0 -0.14652283659E+02  0.15512172180E+03  0.19989286092E+03  0.25344544549E+03  0.00000000000E+00 0. -1.
          3    1    6    6  503    0  0.43615644943E+02  0.35909178339E+02  0.15371710217E+03  0.16377039131E+03  0.00000000000E+00 0. -1.
         -3    1    6    6    0  503 -0.28595363886E+02 -0.19369691241E+02  0.17498476880E+03  0.17836072742E+03  0.00000000000E+00 0.  1.
<mgrwt>
<rscale>  0 0.12608041E+04</rscale>
<asrwt>0</asrwt>
<pdfrwt beam="1">  1        2 0.49686349E+00 0.12608041E+04</pdfrwt>
<pdfrwt beam="2">  1       -2 0.79894612E-01 0.12608041E+04</pdfrwt>
<totfact> 0.17018344E+00</totfact>
</mgrwt>
</event>
<event>
12    1  0.3147868E-008  0.2260337E+04  0.7818608E-02  0.8493726E-01
          2   -1    0    0  501    0  0.00000000000E+00  0.00000000000E+00  0.30645552600E+04  0.30645552600E+04  0.00000000000E+00 0.  1.
         -2   -1    0    0    0  501 -0.00000000000E+00 -0.00000000000E+00 -0.17253786614E+04  0.17253786614E+04  0.00000000000E+00 0. -1.
         23    2    1    2    0    0 -0.81473201839E+03  0.21039787584E+04  0.78211187905E+03  0.23897531603E+04  0.93307546686E+02 0.  0.
    5000000    2    1    2    0    0  0.81473201839E+03 -0.21039787584E+04  0.55706471956E+03  0.24001807611E+04  0.60002642159E+03 0.  0.
         23    2    4    4    0    0  0.74185186783E+03 -0.18955044453E+04  0.31838324638E+03  0.20621501362E+04  0.88396814046E+02 0.  0.
         23    2    4    4    0    0  0.72880150556E+02 -0.20847431305E+03  0.23868147318E+03  0.33803062485E+03  0.92319023769E+02 0.  0.
          5    1    3    3  502    0 -0.65875714677E+03  0.17222393787E+04  0.60177126278E+03  0.19396443485E+04  0.47000000000E+01 0. -1.
         -5    1    3    3    0  502 -0.15597487162E+03  0.38173937969E+03  0.18034061627E+03  0.45010881180E+03  0.47000000000E+01 0.  1.
         11    1    5    5    0    0  0.38610769744E+03 -0.87831449191E+03  0.12994558166E+03  0.96819489511E+03  0.00000000000E+00 0. -1.
        -11    1    5    5    0    0  0.35574417039E+03 -0.10171899534E+04  0.18843766473E+03  0.10939552411E+04  0.00000000000E+00 0.  1.
          4    1    6    6  503    0  0.81101918327E+02 -0.19812544945E+03  0.18562027796E+03  0.28334802358E+03  0.00000000000E+00 0. -1.
         -4    1    6    6    0  503 -0.82217677706E+01 -0.10348863593E+02  0.53061195222E+02  0.54682601267E+02  0.00000000000E+00 0.  1.
<mgrwt>
<rscale>  0 0.22603368E+04</rscale>
<asrwt>0</asrwt>
<pdfrwt beam="1">  1        2 0.47147004E+00 0.22603368E+04</pdfrwt>
<pdfrwt beam="2">  1       -2 0.26544287E+00 0.22603368E+04</pdfrwt>
<totfact> 0.70843273E-02</totfact>
</mgrwt>
</event>
<event>
12    1  0.3147868E-008  0.4002212E+03  0.7818608E-02  0.1043703E+00
          2   -1    0    0  501    0  0.00000000000E+00  0.00000000000E+00  0.12322249222E+04  0.12322249222E+04  0.00000000000E+00 0. -1.
         -2   -1    0    0    0  501 -0.00000000000E+00 -0.00000000000E+00 -0.31270431575E+03  0.31270431575E+03  0.00000000000E+00 0.  1.
         23    2    1    2    0    0  0.21764826397E+03  0.30079015240E+03 -0.39784898033E+01  0.38275485901E+03  0.92951444985E+02 0.  0.
    5000000    2    1    2    0    0 -0.21764826397E+03 -0.30079015240E+03  0.92349909628E+03  0.11621743790E+04  0.59996101847E+03 0.  0.
         23    2    4    4    0    0 -0.12589492230E+03 -0.11960803753E+03 -0.15651470347E+02  0.19693087632E+03  0.91548825340E+02 0.  0.
         23    2    4    4    0    0 -0.91753341670E+02 -0.18118211487E+03  0.93915056663E+03  0.96524350264E+03  0.91899935437E+02 0.  0.
          5    1    3    3  502    0  0.10886597555E+03  0.76190152606E+02  0.40657985503E+01  0.13302391028E+03  0.47000000000E+01 0. -1.
         -5    1    3    3    0  502  0.10878228842E+03  0.22459999979E+03 -0.80442883536E+01  0.24973094874E+03  0.47000000000E+01 0.  1.
         13    1    5    5    0    0 -0.88530548615E+02 -0.21207976405E+02 -0.59546152002E+01  0.91229895009E+02  0.00000000000E+00 0. -1.
        -13    1    5    5    0    0 -0.37364373685E+02 -0.98400061122E+02 -0.96968551464E+01  0.10570098131E+03  0.00000000000E+00 0.  1.
          4    1    6    6  503    0 -0.62817317928E+02 -0.33683110618E+02  0.35324385494E+03  0.36036341160E+03  0.00000000000E+00 0. -1.
         -4    1    6    6    0  503 -0.28936023742E+02 -0.14749900426E+03  0.58590671169E+03  0.60488009104E+03  0.00000000000E+00 0.  1.
<mgrwt>
<rscale>  0 0.40022117E+03</rscale>
<asrwt>0</asrwt>
<pdfrwt beam="1">  1        2 0.18957306E+00 0.40022117E+03</pdfrwt>
<pdfrwt beam="2">  1       -2 0.48108357E-01 0.40022117E+03</pdfrwt>
<totfact> 0.78576965E+01</totfact>
</mgrwt>
</event>
<event>
12    1  0.3147868E-008  0.8077054E+03  0.7818608E-02  0.9548930E-01
          2   -1    0    0  501    0  0.00000000000E+00  0.00000000000E+00  0.40051621360E+04  0.40051621360E+04  0.00000000000E+00 0. -1.
         -2   -1    0    0    0  501 -0.00000000000E+00 -0.00000000000E+00 -0.24306728702E+03  0.24306728702E+03  0.00000000000E+00 0.  1.
         23    2    1    2    0    0  0.44674108843E+02  0.79731899422E+03  0.25703232094E+04  0.26932777983E+04  0.97316717181E+02 0.  0.
    5000000    2    1    2    0    0 -0.44674108843E+02 -0.79731899422E+03  0.11917716396E+04  0.15549516247E+04  0.59986795194E+03 0.  0.
         23    2    4    4    0    0 -0.56577418207E+02 -0.54933693481E+03  0.32566790569E+03  0.64865841789E+03  0.98620921247E+02 0.  0.
         23    2    4    4    0    0  0.11903309364E+02 -0.24798205941E+03  0.86610373389E+03  0.90629320683E+03  0.97953602899E+02 0.  0.
          5    1    3    3  502    0 -0.96429524113E+01  0.93367951905E+02  0.40440012151E+03  0.41517720223E+03  0.47000000000E+01 0. -1.
         -5    1    3    3    0  502  0.54317061255E+02  0.70395104231E+03  0.21659230879E+04  0.22781005960E+04  0.47000000000E+01 0.  1.
         11    1    5    5    0    0 -0.91446724773E+01 -0.20362825334E+03  0.17469398698E+03  0.26845126128E+03  0.00000000000E+00 0. -1.
        -11    1    5    5    0    0 -0.47432745730E+02 -0.34570868147E+03  0.15097391870E+03  0.38020715661E+03  0.00000000000E+00 0.  1.
          3    1    6    6  503    0  0.45433598052E+02 -0.86970651821E+02  0.24863327091E+03  0.26729498595E+03  0.00000000000E+00 0. -1.
         -3    1    6    6    0  503 -0.33530288688E+02 -0.16101140759E+03  0.61747046298E+03  0.63899822088E+03  0.00000000000E+00 0.  1.
<mgrwt>
<rscale>  0 0.80770544E+03</rscale>
<asrwt>0</asrwt>
<pdfrwt beam="1">  1        2 0.61617874E+00 0.80770544E+03</pdfrwt>
<pdfrwt beam="2">  1       -2 0.37394970E-01 0.80770544E+03</pdfrwt>
<totfact> 0.25006639E+00</totfact>
</mgrwt>
</event>
<event>
12    1  0.3147868E-008  0.1011444E+04  0.7818608E-02  0.9296081E-01
          4   -1    0    0  501    0  0.00000000000E+00  0.00000000000E+00  0.18872900377E+04  0.18872900377E+04  0.00000000000E+00 0. -1.
         -4   -1    0    0    0  501 -0.00000000000E+00 -0.00000000000E+00 -0.57504571803E+03  0.57504571803E+03  0.00000000000E+00 0.  1.
         23    2    1    2    0    0  0.23261975410E+03 -0.91559375519E+03  0.75176781033E+03  0.12108297515E+04  0.92357847642E+02 0.  0.
    5000000    2    1    2    0    0 -0.23261975410E+03  0.91559375519E+03  0.56047650935E+03  0.12515060042E+04  0.59975785653E+03 0.  0.
         23    2    4    4    0    0 -0.38257189984E+03  0.46128402184E+03  0.44176407855E+03  0.75034932463E+03  0.93404499468E+02 0.  0.
         23    2    4    4    0    0  0.14995214574E+03  0.45430973335E+03  0.11871243080E+03  0.50115667957E+03  0.90456599647E+02 0.  0.
          5    1    3    3  502    0  0.22226422089E+02 -0.67214178766E+02  0.89345481986E+02  0.11408972266E+03  0.47000000000E+01 0. -1.
         -5    1    3    3    0  502  0.21039333201E+03 -0.84837957642E+03  0.66242232835E+03  0.10967400289E+04  0.47000000000E+01 0.  1.
         13    1    5    5    0    0 -0.16633061239E+03  0.20868698408E+03  0.14017817093E+03  0.30143996011E+03  0.00000000000E+00 0.  1.
        -13    1    5    5    0    0 -0.21624128745E+03  0.25259703776E+03  0.30158590762E+03  0.44890936452E+03  0.00000000000E+00 0. -1.
          4    1    6    6  503    0  0.12673499307E+03  0.37541755419E+03  0.13244184060E+03  0.41778097085E+03  0.00000000000E+00 0. -1.
         -4    1    6    6    0  503  0.23217152671E+02  0.78892179161E+02 -0.13729409801E+02  0.83375708719E+02  0.00000000000E+00 0.  1.
<mgrwt>
<rscale>  0 0.10114441E+04</rscale>
<asrwt>0</asrwt>
<pdfrwt beam="1">  1        4 0.29035231E+00 0.10114441E+04</pdfrwt>
<pdfrwt beam="2">  1       -4 0.88468573E-01 0.10114441E+04</pdfrwt>
<totfact> 0.76312584E-02</totfact>
</mgrwt>
</event>
<event>
12    1  0.3147868E-008  0.4119347E+03  0.7818608E-02  0.1039724E+00
          1   -1    0    0  501    0  0.00000000000E+00  0.00000000000E+00  0.12782278035E+04  0.12782278035E+04  0.00000000000E+00 0. -1.
         -1   -1    0    0    0  501 -0.00000000000E+00 -0.00000000000E+00 -0.18752086796E+03  0.18752086796E+03  0.00000000000E+00 0.  1.
         23    2    1    2    0    0 -0.16062163605E+02  0.23043283445E+03  0.62048806792E+03  0.66941935748E+03  0.98790431946E+02 0.  0.
    5000000    2    1    2    0    0  0.16062163605E+02 -0.23043283445E+03  0.47021886766E+03  0.79632931402E+03  0.59973103019E+03 0.  0.
         23    2    4    4    0    0  0.85245395976E+02  0.14527057328E+03  0.87807529382E+01  0.19008776001E+03  0.87669480943E+02 0.  0.
         23    2    4    4    0    0 -0.69183232371E+02 -0.37570340773E+03  0.46143811472E+03  0.60624155401E+03  0.93082317708E+02 0.  0.
          5    1    3    3  502    0 -0.56143531027E+02  0.12127140090E+03  0.36317512241E+03  0.38701047569E+03  0.47000000000E+01 0. -1.
         -5    1    3    3    0  502  0.40081367421E+02  0.10916143355E+03  0.25731294551E+03  0.28240888179E+03  0.47000000000E+01 0.  1.
         11    1    5    5    0    0  0.10194249281E+03  0.13807030070E+03  0.95086253899E+01  0.17188977204E+03  0.00000000000E+00 0.  1.
        -11    1    5    5    0    0 -0.16697096834E+02  0.72002725793E+01 -0.72787245169E+00  0.18197987972E+02  0.00000000000E+00 0. -1.
          1    1    6    6  503    0  0.37661391879E+01 -0.51993664519E+02  0.24542067095E+02  0.57618035473E+02  0.00000000000E+00 0. -1.
         -1    1    6    6    0  503 -0.72949371559E+02 -0.32370974321E+03  0.43689604762E+03  0.54862351853E+03  0.00000000000E+00 0.  1.
<mgrwt>
<rscale>  0 0.41193471E+03</rscale>
<asrwt>0</asrwt>
<pdfrwt beam="1">  1        1 0.19665043E+00 0.41193471E+03</pdfrwt>
<pdfrwt beam="2">  1       -1 0.28849365E-01 0.41193471E+03</pdfrwt>
<totfact> 0.10865051E+02</totfact>
</mgrwt>
</event>
<event>
12    1  0.3147868E-008  0.4803832E+03  0.7818608E-02  0.1019030E+00
          1   -1    0    0  501    0  0.00000000000E+00  0.00000000000E+00  0.40550272442E+03  0.40550272442E+03  0.00000000000E+00 0. -1.
         -1   -1    0    0    0  501 -0.00000000000E+00 -0.00000000000E+00 -0.71316993264E+03  0.71316993264E+03  0.00000000000E+00 0.  1.
         23    2    1    2    0    0  0.17306395353E+02  0.31948411614E+03  0.71707403914E+02  0.34051074676E+03  0.91847727778E+02 0.  0.
    5000000    2    1    2    0    0 -0.17306395353E+02 -0.31948411614E+03 -0.37937461214E+03  0.77816191030E+03  0.59936737526E+03 0.  0.
         23    2    4    4    0    0 -0.18370465753E+02 -0.47148054946E+03 -0.35705450561E+03  0.59803213100E+03  0.86735962531E+02 0.  0.
         23    2    4    4    0    0  0.10640704001E+01  0.15199643333E+03 -0.22320106527E+02  0.18012977931E+03  0.94045213847E+02 0.  0.
          5    1    3    3  502    0  0.47775580041E+02  0.25296235654E+03  0.71391677775E+02  0.26719154464E+03  0.47000000000E+01 0. -1.
         -5    1    3    3    0  502 -0.30469184688E+02  0.66521759596E+02  0.31572613839E+00  0.73319202112E+02  0.47000000000E+01 0.  1.
         13    1    5    5    0    0 -0.82180802635E+01 -0.58133389157E+02 -0.12994340572E+02  0.60132193250E+02  0.00000000000E+00 0. -1.
        -13    1    5    5    0    0 -0.10152385489E+02 -0.41334716030E+03 -0.34406016504E+03  0.53789993775E+03  0.00000000000E+00 0.  1.
          1    1    6    6  503    0  0.21488744286E+02  0.89242111508E+02  0.29288309774E+02  0.96352092280E+02  0.00000000000E+00 0. -1.
         -1    1    6    6    0  503 -0.20424673886E+02  0.62754321818E+02 -0.51608416301E+02  0.83777687025E+02  0.00000000000E+00 0.  1.
<mgrwt>
<rscale>  0 0.48038316E+03</rscale>
<asrwt>0</asrwt>
<pdfrwt beam="1">  1        1 0.62385035E-01 0.48038316E+03</pdfrwt>
<pdfrwt beam="2">  1       -1 0.10971845E+00 0.48038316E+03</pdfrwt>
<totfact> 0.47494876E+01</totfact>
</mgrwt>
</event>
<event>
12    1  0.3147868E-008  0.8694224E+03  0.7818608E-02  0.9464633E-01
          2   -1    0    0  501    0  0.00000000000E+00  0.00000000000E+00  0.85738738160E+03  0.85738738160E+03  0.00000000000E+00 0. -1.
         -2   -1    0    0    0  501 -0.00000000000E+00 -0.00000000000E+00 -0.99914106125E+03  0.99914106125E+03  0.00000000000E+00 0.  1.
         23    2    1    2    0    0  0.77528581618E+03  0.37863277355E+02 -0.34568361313E+03  0.85448071071E+03  0.90213081351E+02 0.  0.
    5000000    2    1    2    0    0 -0.77528581618E+03 -0.37863277355E+02  0.20392993348E+03  0.10020477321E+04  0.60000876258E+03 0.  0.
         23    2    4    4    0    0 -0.21166546785E+02 -0.18305268763E+03  0.29992401787E+02  0.20904012929E+03  0.94031496517E+02 0.  0.
         23    2    4    4    0    0 -0.75411926939E+03  0.14518941027E+03  0.17393753170E+03  0.79300760285E+03  0.93973165988E+02 0.  0.
          5    1    3    3  502    0  0.18382651918E+03  0.24836213620E+02 -0.12156546909E+03  0.22183164774E+03  0.47000000000E+01 0. -1.
         -5    1    3    3    0  502  0.59145929700E+03  0.13027063734E+02 -0.22411814404E+03  0.63264906297E+03  0.47000000000E+01 0.  1.
         13    1    5    5    0    0 -0.40205079456E+02 -0.12078856758E+03 -0.17428884869E+02  0.12849160479E+03  0.00000000000E+00 0. -1.
        -13    1    5    5    0    0  0.19038532671E+02 -0.62264120042E+02  0.47421286656E+02  0.80548524499E+02  0.00000000000E+00 0.  1.
          2    1    6    6  503    0 -0.34321817660E+03  0.43566231305E+02  0.36106999888E+02  0.34785118758E+03  0.00000000000E+00 0. -1.
         -2    1    6    6    0  503 -0.41090109279E+03  0.10162317897E+03  0.13783053181E+03  0.44515641527E+03  0.00000000000E+00 0.  1.
<mgrwt>
<rscale>  0 0.86942244E+03</rscale>
<asrwt>0</asrwt>
<pdfrwt beam="1">  1        2 0.13190575E+00 0.86942244E+03</pdfrwt>
<pdfrwt beam="2">  1       -2 0.15371401E+00 0.86942244E+03</pdfrwt>
<totfact> 0.88386158E+00</totfact>
</mgrwt>
</event>
<event>
12    1  0.3147868E-008  0.9256395E+03  0.7818608E-02  0.9394086E-01
         -2   -1    0    0    0  501 -0.00000000000E+00  0.00000000000E+00  0.71485144744E+03  0.71485144744E+03  0.00000000000E+00 0.  1.
          2   -1    0    0  501    0  0.00000000000E+00 -0.00000000000E+00 -0.15012449602E+04  0.15012449602E+04  0.00000000000E+00 0. -1.
         23    2    1    2    0    0 -0.83559164623E+03  0.29523452486E+03 -0.71699054303E+03  0.11436178197E+04  0.91703079799E+02 0.  0.
    5000000    2    1    2    0    0  0.83559164623E+03 -0.29523452486E+03 -0.69402969712E+02  0.10724785879E+04  0.60001393769E+03 0.  0.
         23    2    4    4    0    0  0.34338571071E+03 -0.30654483671E+03 -0.25980602877E+03  0.53665305182E+03  0.92810787168E+02 0.  0.
         23    2    4    4    0    0  0.49220593552E+03  0.11310311851E+02  0.19040305906E+03  0.53582553609E+03  0.91984097062E+02 0.  0.
          5    1    3    3  502    0 -0.91558265804E+02  0.53616200140E+02 -0.11476892898E+03  0.15637010588E+03  0.47000000000E+01 0. -1.
         -5    1    3    3    0  502 -0.74403338043E+03  0.24161832472E+03 -0.60222161405E+03  0.98724771383E+03  0.47000000000E+01 0.  1.
         13    1    5    5    0    0  0.20415614475E+03 -0.15654634308E+03 -0.19214520665E+03  0.32110164965E+03  0.00000000000E+00 0.  1.
        -13    1    5    5    0    0  0.13922956596E+03 -0.14999849363E+03 -0.67660822119E+02  0.21555140217E+03  0.00000000000E+00 0. -1.
          1    1    6    6  503    0  0.31401871852E+02  0.24548518064E+02  0.15580800615E+02  0.42795661494E+02  0.00000000000E+00 0.  1.
         -1    1    6    6    0  503  0.46080406367E+03 -0.13238206213E+02  0.17482225845E+03  0.49302987460E+03  0.00000000000E+00 0. -1.
<mgrwt>
<rscale>  0 0.92563950E+03</rscale>
<asrwt>0</asrwt>
<pdfrwt beam="1">  1        2 0.23096076E+00 0.92563950E+03</pdfrwt>
<pdfrwt beam="2">  1       -2 0.10997715E+00 0.92563950E+03</pdfrwt>
<totfact> 0.83533949E+00</totfact>
</mgrwt>
</event>
<event>
12    1  0.3147868E-008  0.8521088E+03  0.7818608E-02  0.9487511E-01
          1   -1    0    0  501    0  0.00000000000E+00  0.00000000000E+00  0.47697076142E+03  0.47697076142E+03  0.00000000000E+00 0. -1.
         -1   -1    0    0    0  501 -0.00000000000E+00 -0.00000000000E+00 -0.27742533246E+04  0.27742533246E+04  0.00000000000E+00 0.  1.
         23    2    1    2    0    0  0.71651051752E+02 -0.75552816185E+03 -0.21383620329E+04  0.22708980069E+04  0.91809026883E+02 0.  0.
    5000000    2    1    2    0    0 -0.71651051752E+02  0.75552816185E+03 -0.15892053020E+03  0.98032607905E+03  0.59985565744E+03 0.  0.
         23    2    4    4    0    0 -0.24689722180E+03  0.71481130744E+03 -0.13603322274E+03  0.77371735270E+03  0.90664550998E+02 0.  0.
         23    2    4    4    0    0  0.17524617005E+03  0.40716854419E+02 -0.22887307462E+02  0.20660872635E+03  0.98965926516E+02 0.  0.
          5    1    3    3  502    0  0.52168481981E+02 -0.41159047815E+03 -0.10376234923E+04  0.11175029637E+04  0.47000000000E+01 0. -1.
         -5    1    3    3    0  502  0.19482569771E+02 -0.34393768371E+03 -0.11007385407E+04  0.11533950432E+04  0.47000000000E+01 0.  1.
         11    1    5    5    0    0 -0.14342479739E+03  0.29546772407E+03 -0.36359570245E+02  0.33044495279E+03  0.00000000000E+00 0.  1.
        -11    1    5    5    0    0 -0.10347242441E+03  0.41934358336E+03 -0.99673652496E+02  0.44327239991E+03  0.00000000000E+00 0. -1.
          4    1    6    6  503    0  0.12794308768E+03  0.10668384152E+02 -0.57570656570E+02  0.14070404615E+03  0.00000000000E+00 0. -1.
         -4    1    6    6    0  503  0.47303082370E+02  0.30048470267E+02  0.34683349108E+02  0.65904680201E+02  0.00000000000E+00 0.  1.
<mgrwt>
<rscale>  0 0.85210884E+03</rscale>
<asrwt>0</asrwt>
<pdfrwt beam="1">  1        1 0.73380117E-01 0.85210884E+03</pdfrwt>
<pdfrwt beam="2">  1       -1 0.42680820E+00 0.85210884E+03</pdfrwt>
<totfact> 0.23323178E-01</totfact>
</mgrwt>
</event>
<event>
12    1  0.3147868E-008  0.8909428E+03  0.7818608E-02  0.9436975E-01
         -2   -1    0    0    0  501 -0.00000000000E+00  0.00000000000E+00  0.16664079301E+04  0.16664079301E+04  0.00000000000E+00 0. -1.
          2   -1    0    0  501    0  0.00000000000E+00 -0.00000000000E+00 -0.58049256265E+03  0.58049256265E+03  0.00000000000E+00 0.  1.
         23    2    1    2    0    0 -0.75671197749E+03 -0.23248814370E+03  0.95687702118E+03  0.12452512081E+04  0.91505102397E+02 0.  0.
    5000000    2    1    2    0    0  0.75671197749E+03  0.23248814370E+03  0.12903834632E+03  0.10016492847E+04  0.59998886731E+03 0.  0.
         23    2    4    4    0    0  0.64488094393E+03  0.40515291404E+03  0.12400677795E+03  0.77652753134E+03  0.87160830381E+02 0.  0.
         23    2    4    4    0    0  0.11183103356E+03 -0.17266477035E+03  0.50315683758E+01  0.22512175337E+03  0.91297229813E+02 0.  0.
          5    1    3    3  502    0 -0.36871999354E+03 -0.13709506176E+03  0.41317535597E+03  0.57051332533E+03  0.47000000000E+01 0. -1.
         -5    1    3    3    0  502 -0.38799198395E+03 -0.95393081937E+02  0.54370166520E+03  0.67473788276E+03  0.47000000000E+01 0.  1.
         11    1    5    5    0    0  0.97756812607E+02  0.36133228464E+02 -0.39573770586E+01  0.10429604711E+03  0.00000000000E+00 0.  1.
        -11    1    5    5    0    0  0.54712413132E+03  0.36901968558E+03  0.12796415501E+03  0.67223148423E+03  0.00000000000E+00 0. -1.
          2    1    6    6  503    0 -0.14111835994E+02 -0.37140125422E+02  0.55140798949E+01  0.40111568264E+02  0.00000000000E+00 0. -1.
         -2    1    6    6    0  503  0.12594286955E+03 -0.13552464493E+03 -0.48251151908E+00  0.18501018510E+03  0.00000000000E+00 0.  1.
<mgrwt>
<rscale>  0 0.89094275E+03</rscale>
<asrwt>0</asrwt>
<pdfrwt beam="1">  1        2 0.89306549E-01 0.89094275E+03</pdfrwt>
<pdfrwt beam="2">  1       -2 0.25637045E+00 0.89094275E+03</pdfrwt>
<totfact> 0.30685570E+00</totfact>
</mgrwt>
</event>
<event>
12    1  0.3147868E-008  0.5156953E+03  0.7818608E-02  0.1009761E+00
         -4   -1    0    0    0  501 -0.00000000000E+00  0.00000000000E+00  0.78423029601E+03  0.78423029601E+03  0.00000000000E+00 0.  1.
          4   -1    0    0  501    0  0.00000000000E+00 -0.00000000000E+00 -0.40430932359E+03  0.40430932359E+03  0.00000000000E+00 0. -1.
         23    2    1    2    0    0  0.38173990412E+03  0.28819018786E+02  0.25036516828E+03  0.46512667858E+03  0.84286531542E+02 0.  0.
    5000000    2    1    2    0    0 -0.38173990412E+03 -0.28819018786E+02  0.12955580415E+03  0.72341294102E+03  0.59998807206E+03 0.  0.
         23    2    4    4    0    0 -0.36939399639E+03 -0.22784250175E+03  0.20914248796E+03  0.49024571057E+03  0.90753216366E+02 0.  0.
         23    2    4    4    0    0 -0.12345907724E+02  0.19902348297E+03 -0.79586683818E+02  0.23316723045E+03  0.90940359060E+02 0.  0.
          5    1    3    3  502    0  0.20382257391E+03  0.82136044089E+01  0.84087708101E+02  0.22068968618E+03  0.47000000000E+01 0. -1.
         -5    1    3    3    0  502  0.17791733021E+03  0.20605414377E+02  0.16627746017E+03  0.24443699240E+03  0.47000000000E+01 0.  1.
         11    1    5    5    0    0 -0.29463551857E+03 -0.17056653131E+03  0.12115301315E+03  0.36136004622E+03  0.00000000000E+00 0.  1.
        -11    1    5    5    0    0 -0.74758477819E+02 -0.57275970449E+02  0.87989474815E+02  0.12888566435E+03  0.00000000000E+00 0. -1.
          2    1    6    6  503    0  0.25364768269E+02  0.25437520060E+02  0.52657611952E+01  0.36306571541E+02  0.00000000000E+00 0.  1.
         -2    1    6    6    0  503 -0.37710675993E+02  0.17358596291E+03 -0.84852445014E+02  0.19686065891E+03  0.00000000000E+00 0. -1.
<mgrwt>
<rscale>  0 0.51569533E+03</rscale>
<asrwt>0</asrwt>
<pdfrwt beam="1">  1        4 0.62201435E-01 0.51569533E+03</pdfrwt>
<pdfrwt beam="2">  1       -4 0.12065081E+00 0.51569533E+03</pdfrwt>
<totfact> 0.24737685E+00</totfact>
</mgrwt>
</event>
<event>
12    1  0.3147868E-008  0.6712730E+03  0.7818608E-02  0.9767661E-01
          1   -1    0    0  501    0  0.00000000000E+00  0.00000000000E+00  0.74834987493E+03  0.74834987493E+03  0.00000000000E+00 0. -1.
         -1   -1    0    0    0  501 -0.00000000000E+00 -0.00000000000E+00 -0.78680107261E+03  0.78680107261E+03  0.00000000000E+00 0.  1.
         23    2    1    2    0    0 -0.55735999538E+03  0.23817083602E+03  0.20913613491E+03  0.64706959382E+03  0.87095492105E+02 0.  0.
    5000000    2    1    2    0    0  0.55735999538E+03 -0.23817083602E+03 -0.24758733259E+03  0.88808135372E+03  0.60001124321E+03 0.  0.
         23    2    4    4    0    0  0.52797703707E+03 -0.30840861851E+03 -0.36662330542E+03  0.71871322486E+03  0.90886873984E+02 0.  0.
         23    2    4    4    0    0  0.29382958308E+02  0.70237782492E+02  0.11903597283E+03  0.16936812885E+03  0.93377170201E+02 0.  0.
          5    1    3    3  502    0 -0.83646365855E+02  0.71223439401E+02  0.33414471258E+02  0.11492654058E+03  0.47000000000E+01 0. -1.
         -5    1    3    3    0  502 -0.47371362953E+03  0.16694739662E+03  0.17572166365E+03  0.53214305324E+03  0.47000000000E+01 0.  1.
         13    1    5    5    0    0  0.37641053167E+03 -0.20376802715E+03 -0.20915657516E+03  0.47639560259E+03  0.00000000000E+00 0. -1.
        -13    1    5    5    0    0  0.15156650541E+03 -0.10464059136E+03 -0.15746673026E+03  0.24231762227E+03  0.00000000000E+00 0.  1.
          1    1    6    6  503    0  0.61107290449E+02  0.57477824301E+02  0.68270147185E+02  0.10816013235E+03  0.00000000000E+00 0. -1.
         -1    1    6    6    0  503 -0.31724332140E+02  0.12759958191E+02  0.50765825649E+02  0.61207996508E+02  0.00000000000E+00 0.  1.
<mgrwt>
<rscale>  0 0.67127298E+03</rscale>
<asrwt>0</asrwt>
<pdfrwt beam="1">  1        1 0.11513075E+00 0.67127298E+03</pdfrwt>
<pdfrwt beam="2">  1       -1 0.12104632E+00 0.67127298E+03</pdfrwt>
<totfact> 0.15473951E+01</totfact>
</mgrwt>
</event>
<event>
12    1  0.3147868E-008  0.6051781E+03  0.7818608E-02  0.9894721E-01
          1   -1    0    0  501    0  0.00000000000E+00  0.00000000000E+00  0.22130316503E+04  0.22130316503E+04  0.00000000000E+00 0. -1.
         -1   -1    0    0    0  501 -0.00000000000E+00 -0.00000000000E+00 -0.18861844657E+03  0.18861844657E+03  0.00000000000E+00 0.  1.
         23    2    1    2    0    0 -0.42125344009E+03 -0.26911017123E+03  0.88444765639E+03  0.10198338994E+04  0.89099833732E+02 0.  0.
    5000000    2    1    2    0    0  0.42125344009E+03  0.26911017123E+03  0.11399655473E+04  0.13818161975E+04  0.60001650769E+03 0.  0.
         23    2    4    4    0    0  0.40412744137E+03  0.40148929083E+03  0.10496356984E+04  0.11971396192E+04  0.83039321151E+02 0.  0.
         23    2    4    4    0    0  0.17125998721E+02 -0.13237911960E+03  0.90329848891E+02  0.18467657831E+03  0.90157783022E+02 0.  0.
          5    1    3    3  502    0 -0.21809732104E+03 -0.11991251069E+03  0.52218935835E+03  0.57848877918E+03  0.47000000000E+01 0. -1.
         -5    1    3    3    0  502 -0.20315611905E+03 -0.14919766054E+03  0.36225829803E+03  0.44134512018E+03  0.47000000000E+01 0.  1.
         13    1    5    5    0    0  0.19379707656E+03  0.21819009717E+03  0.61399794896E+03  0.67982181983E+03  0.00000000000E+00 0. -1.
        -13    1    5    5    0    0  0.21033036480E+03  0.18329919366E+03  0.43563774946E+03  0.51731779933E+03  0.00000000000E+00 0.  1.
          3    1    6    6  503    0  0.27915997966E+02 -0.73133365658E+02  0.26713745765E+01  0.78325783476E+02  0.00000000000E+00 0. -1.
         -3    1    6    6    0  503 -0.10789999245E+02 -0.59245753937E+02  0.87658474314E+02  0.10635079484E+03  0.00000000000E+00 0.  1.
<mgrwt>
<rscale>  0 0.60517806E+03</rscale>
<asrwt>0</asrwt>
<pdfrwt beam="1">  1        1 0.34046639E+00 0.60517806E+03</pdfrwt>
<pdfrwt beam="2">  1       -1 0.29018224E-01 0.60517806E+03</pdfrwt>
<totfact> 0.24601683E+01</totfact>
</mgrwt>
</event>
<event>
12    1  0.3147868E-008  0.9030408E+03  0.7818608E-02  0.9421788E-01
         -1   -1    0    0    0  501 -0.00000000000E+00  0.00000000000E+00  0.58162505067E+03  0.58162505067E+03  0.00000000000E+00 0.  1.
          1   -1    0    0  501    0  0.00000000000E+00 -0.00000000000E+00 -0.19527665706E+04  0.19527665706E+04  0.00000000000E+00 0. -1.
         23    2    1    2    0    0 -0.49946600572E+03  0.65953321605E+03 -0.99540336194E+01  0.83211710926E+03  0.88709902519E+02 0.  0.
    5000000    2    1    2    0    0  0.49946600572E+03 -0.65953321605E+03 -0.13611874864E+04  0.17022745120E+04  0.60038053551E+03 0.  0.
         23    2    4    4    0    0  0.23141897268E+03 -0.64867440278E+03 -0.11666795429E+04  0.13586403652E+04  0.10212376983E+03 0.  0.
         23    2    4    4    0    0  0.26804703304E+03 -0.10858813266E+02 -0.19450794343E+03  0.34363414683E+03  0.91016268133E+02 0.  0.
          5    1    3    3  502    0 -0.43723847750E+03  0.58142348831E+03 -0.37344504952E+02  0.72845553125E+03  0.47000000000E+01 0. -1.
         -5    1    3    3    0  502 -0.62227528221E+02  0.78109727734E+02  0.27390471333E+02  0.10366157801E+03  0.47000000000E+01 0.  1.
         11    1    5    5    0    0  0.13027241872E+03 -0.49526477570E+03 -0.83839124605E+03  0.98242454295E+03  0.00000000000E+00 0. -1.
        -11    1    5    5    0    0  0.10114655395E+03 -0.15340962708E+03 -0.32828829688E+03  0.37621582227E+03  0.00000000000E+00 0.  1.
          2    1    6    6  503    0  0.22078808454E+02 -0.28604933922E+02 -0.18012690400E+02  0.40375401458E+02  0.00000000000E+00 0. -1.
         -2    1    6    6    0  503  0.24596822459E+03  0.17746120655E+02 -0.17649525303E+03  0.30325874538E+03  0.00000000000E+00 0.  1.
<mgrwt>
<rscale>  0 0.90304084E+03</rscale>
<asrwt>0</asrwt>
<pdfrwt beam="1">  1        1 0.30042563E+00 0.90304084E+03</pdfrwt>
<pdfrwt beam="2">  1       -1 0.89480777E-01 0.90304084E+03</pdfrwt>
<totfact> 0.40209154E+00</totfact>
</mgrwt>
</event>
<event>
12    1  0.3147868E-008  0.1305903E+04  0.7818608E-02  0.9024897E-01
         -2   -1    0    0    0  501 -0.00000000000E+00  0.00000000000E+00  0.18434370516E+04  0.18434370516E+04  0.00000000000E+00 0.  1.
          2   -1    0    0  501    0  0.00000000000E+00 -0.00000000000E+00 -0.10421428689E+04  0.10421428689E+04  0.00000000000E+00 0. -1.
         23    2    1    2    0    0  0.12164358113E+04  0.32430749251E+03 -0.28790950759E+02  0.12626194260E+04  0.92127429844E+02 0.  0.
    5000000    2    1    2    0    0 -0.12164358113E+04 -0.32430749251E+03  0.83008513339E+03  0.16229604945E+04  0.60005666845E+03 0.  0.
         23    2    4    4    0    0 -0.46696958130E+03  0.10123798185E+03  0.11448806278E+03  0.49904309224E+03  0.87331395105E+02 0.  0.
         23    2    4    4    0    0 -0.74946623001E+03 -0.42554547437E+03  0.71559707061E+03  0.11239174023E+04  0.91228169870E+02 0.  0.
          5    1    3    3  502    0  0.11338806992E+04  0.32303120085E+03 -0.17359570627E+02  0.11791344459E+04  0.47000000000E+01 0. -1.
         -5    1    3    3    0  502  0.82555112074E+02  0.12762916598E+01 -0.11431380132E+02  0.83484980096E+02  0.47000000000E+01 0.  1.
         13    1    5    5    0    0 -0.15572843824E+03 -0.13320105828E+01  0.14428718573E+02  0.15640111460E+03  0.00000000000E+00 0.  1.
        -13    1    5    5    0    0 -0.31124114305E+03  0.10256999244E+03  0.10005934421E+03  0.34264197764E+03  0.00000000000E+00 0. -1.
          3    1    6    6  503    0 -0.72652685850E+03 -0.39063088537E+03  0.68202986631E+03  0.10703263536E+04  0.00000000000E+00 0. -1.
         -3    1    6    6    0  503 -0.22939371504E+02 -0.34914588994E+02  0.33567204301E+02  0.53591048639E+02  0.00000000000E+00 0.  1.
<mgrwt>
<rscale>  0 0.13059031E+04</rscale>
<asrwt>0</asrwt>
<pdfrwt beam="1">  1        2 0.16032967E+00 0.13059031E+04</pdfrwt>
<pdfrwt beam="2">  1       -2 0.28360570E+00 0.13059031E+04</pdfrwt>
<totfact> 0.91468630E-01</totfact>
</mgrwt>
</event>
<event>
12    1  0.3147868E-008  0.5995785E+03  0.7818608E-02  0.9906281E-01
          1   -1    0    0  501    0  0.00000000000E+00  0.00000000000E+00  0.20856636382E+04  0.20856636382E+04  0.00000000000E+00 0. -1.
         -1   -1    0    0    0  501 -0.00000000000E+00 -0.00000000000E+00 -0.21226447015E+03  0.21226447015E+03  0.00000000000E+00 0.  1.
         23    2    1    2    0    0  0.15079825299E+03  0.48053872856E+03  0.50304414682E+03  0.71945344116E+03  0.10441387642E+03 0.  0.
    5000000    2    1    2    0    0 -0.15079825299E+03 -0.48053872856E+03  0.13703550213E+04  0.15784746672E+04  0.60004317178E+03 0.  0.
         23    2    4    4    0    0 -0.11288013125E+03  0.51390377918E+02  0.69047459228E+02  0.16946882442E+03  0.92570167168E+02 0.  0.
         23    2    4    4    0    0 -0.37918121742E+02 -0.53192910647E+03  0.13013075620E+04  0.14090058428E+04  0.86658731652E+02 0.  0.
          5    1    3    3  502    0  0.14872033993E+03  0.34106749938E+03  0.33195557225E+03  0.49865957385E+03  0.47000000000E+01 0. -1.
         -5    1    3    3    0  502  0.20779130602E+01  0.13947122918E+03  0.17108857458E+03  0.22079386731E+03  0.47000000000E+01 0.  1.
         13    1    5    5    0    0 -0.53764573305E+01 -0.21826222988E+02  0.59234253732E+00  0.22486466442E+02  0.00000000000E+00 0. -1.
        -13    1    5    5    0    0 -0.10750367392E+03  0.73216600906E+02  0.68455116691E+02  0.14698235798E+03  0.00000000000E+00 0.  1.
          4    1    6    6  503    0 -0.37695094706E+02 -0.23502221049E+03  0.48221573410E+03  0.53776237671E+03  0.00000000000E+00 0. -1.
         -4    1    6    6    0  503 -0.22302703658E+00 -0.29690689598E+03  0.81909182792E+03  0.87124346608E+03  0.00000000000E+00 0.  1.
<mgrwt>
<rscale>  0 0.59957847E+03</rscale>
<asrwt>0</asrwt>
<pdfrwt beam="1">  1        1 0.32087132E+00 0.59957847E+03</pdfrwt>
<pdfrwt beam="2">  1       -1 0.32656074E-01 0.59957847E+03</pdfrwt>
<totfact> 0.24373060E+01</totfact>
</mgrwt>
</event>
<event>
12    1  0.3147868E-008  0.4181159E+03  0.7818608E-02  0.1037681E+00
         -1   -1    0    0    0  501 -0.00000000000E+00  0.00000000000E+00  0.29609054638E+03  0.29609054638E+03  0.00000000000E+00 0.  1.
          1   -1    0    0  501    0  0.00000000000E+00 -0.00000000000E+00 -0.98885979947E+03  0.98885979947E+03  0.00000000000E+00 0. -1.
         23    2    1    2    0    0 -0.33906595284E+03 -0.12593235908E+03 -0.16648148603E+03  0.40870223667E+03  0.92177836977E+02 0.  0.
    5000000    2    1    2    0    0  0.33906595284E+03  0.12593235908E+03 -0.52628776706E+03  0.87624810918E+03  0.60000604634E+03 0.  0.
         23    2    4    4    0    0 -0.13768064565E+02 -0.55086291717E+02  0.87983557172E+02  0.13918957007E+03  0.91698260327E+02 0.  0.
         23    2    4    4    0    0  0.35283401740E+03  0.18101865080E+03 -0.61427132423E+03  0.73705853911E+03  0.93093686817E+02 0.  0.
          5    1    3    3  502    0 -0.73281655612E+02 -0.65910891931E+02 -0.25685444137E+02  0.10196214378E+03  0.47000000000E+01 0. -1.
         -5    1    3    3    0  502 -0.26578429722E+03 -0.60021467149E+02 -0.14079604189E+03  0.30674009288E+03  0.47000000000E+01 0.  1.
         11    1    5    5    0    0 -0.10372351010E+02 -0.19180063766E+02  0.99082919409E+02  0.10145385863E+03  0.00000000000E+00 0.  1.
        -11    1    5    5    0    0 -0.33957135558E+01 -0.35906227951E+02 -0.11099362237E+02  0.37735711445E+02  0.00000000000E+00 0. -1.
          4    1    6    6  503    0  0.29332099057E+03  0.18620074094E+03 -0.51639467015E+03  0.62239165708E+03  0.00000000000E+00 0.  1.
         -4    1    6    6    0  503  0.59513026828E+02 -0.51820901455E+01 -0.97876654078E+02  0.11466688203E+03  0.00000000000E+00 0. -1.
<mgrwt>
<rscale>  0 0.41811594E+03</rscale>
<asrwt>0</asrwt>
<pdfrwt beam="1">  1        1 0.15213228E+00 0.41811594E+03</pdfrwt>
<pdfrwt beam="2">  1       -1 0.45552391E-01 0.41811594E+03</pdfrwt>
<totfact> 0.78418817E+01</totfact>
</mgrwt>
</event>
<event>
12    1  0.3147868E-008  0.9264593E+03  0.7818608E-02  0.9393097E-01
         -2   -1    0    0    0  501 -0.00000000000E+00  0.00000000000E+00  0.50028714008E+03  0.50028714008E+03  0.00000000000E+00 0.  1.
          2   -1    0    0  501    0  0.00000000000E+00 -0.00000000000E+00 -0.23072178400E+04  0.23072178400E+04  0.00000000000E+00 0. -1.
         23    2    1    2    0    0  0.87736595074E+03  0.98112457404E+02 -0.14153859963E+04  0.16706306583E+04  0.91061583259E+02 0.  0.
    5000000    2    1    2    0    0 -0.87736595074E+03 -0.98112457404E+02 -0.39154470366E+03  0.11368743219E+04  0.59981572415E+03 0.  0.
         23    2    4    4    0    0 -0.50810886673E+03  0.12341432608E+03 -0.44668590936E+03  0.69344247360E+03  0.89041822992E+02 0.  0.
         23    2    4    4    0    0 -0.36925708400E+03 -0.22152678348E+03  0.55141205702E+02  0.44343184826E+03  0.90367812849E+02 0.  0.
          5    1    3    3  502    0  0.43227799460E+03  0.82719916976E+02 -0.64757910761E+03  0.78299913148E+03  0.47000000000E+01 0. -1.
         -5    1    3    3    0  502  0.44508795614E+03  0.15392540428E+02 -0.76780688869E+03  0.88763152678E+03  0.47000000000E+01 0.  1.
         11    1    5    5    0    0 -0.20145935802E+03  0.83974178520E+02 -0.14915454529E+03  0.26435698207E+03  0.00000000000E+00 0. -1.
        -11    1    5    5    0    0 -0.30664950872E+03  0.39440147558E+02 -0.29753136407E+03  0.42908549153E+03  0.00000000000E+00 0.  1.
          2    1    6    6  503    0 -0.16526022484E+03 -0.15173201908E+03  0.25425177345E+02  0.22578748232E+03  0.00000000000E+00 0.  1.
         -2    1    6    6    0  503 -0.20399685916E+03 -0.69794764405E+02  0.29716028357E+02  0.21764436594E+03  0.00000000000E+00 0. -1.
<mgrwt>
<rscale>  0 0.92645930E+03</rscale>
<asrwt>0</asrwt>
<pdfrwt beam="1">  1        2 0.35495660E+00 0.92645930E+03</pdfrwt>
<pdfrwt beam="2">  1       -2 0.76967251E-01 0.92645930E+03</pdfrwt>
<totfact> 0.68823261E+00</totfact>
</mgrwt>
</event>
<event>
12    1  0.3454848E-008  0.8671528E+03  0.7818608E-02  0.9467600E-01
         -2   -1    0    0    0  501 -0.00000000000E+00  0.00000000000E+00  0.31063942830E+03  0.31063942830E+03  0.00000000000E+00 0.  1.
          2   -1    0    0  501    0  0.00000000000E+00 -0.00000000000E+00 -0.27933758394E+04  0.27933758394E+04  0.00000000000E+00 0. -1.
         23    2    1    2    0    0  0.42197410943E+03 -0.63974255800E+03 -0.16572549419E+04  0.18281077586E+04  0.90284798517E+02 0.  0.
    5000000    2    1    2    0    0 -0.42197410943E+03  0.63974255800E+03 -0.82548146914E+03  0.12759075091E+04  0.59932263960E+03 0.  0.
         23    2    4    4    0    0 -0.49983733101E+03  0.25463586583E+03 -0.51052627299E+03  0.76422225235E+03  0.93390545203E+02 0.  0.
         23    2    4    4    0    0  0.77863221579E+02  0.38510669217E+03 -0.31495519615E+03  0.51168525675E+03  0.90858025337E+02 0.  0.
          5    1    3    3  502    0  0.17466646885E+03 -0.18809301956E+03 -0.55252259182E+03  0.60925418654E+03  0.47000000000E+01 0. -1.
         -5    1    3    3    0  502  0.24730764058E+03 -0.45164953844E+03 -0.11047323501E+04  0.12188535720E+04  0.47000000000E+01 0.  1.
         13    1    5    5    0    0 -0.38618686011E+03  0.19314489969E+03 -0.33629188765E+03  0.54730017075E+03  0.00000000000E+00 0.  1.
        -13    1    5    5    0    0 -0.11365047090E+03  0.61490966137E+02 -0.17423438533E+03  0.21692208160E+03  0.00000000000E+00 0. -1.
          1    1    6    6  503    0  0.52647538331E+01  0.23315231979E+03 -0.15986185624E+03  0.28274287778E+03  0.00000000000E+00 0. -1.
         -1    1    6    6    0  503  0.72598467746E+02  0.15195437238E+03 -0.15509333991E+03  0.22894237897E+03  0.00000000000E+00 0.  1.
<mgrwt>
<rscale>  0 0.86715277E+03</rscale>
<asrwt>0</asrwt>
<pdfrwt beam="1">  1        2 0.42975012E+00 0.86715277E+03</pdfrwt>
<pdfrwt beam="2">  1       -2 0.47790683E-01 0.86715277E+03</pdfrwt>
<totfact> 0.10041568E+01</totfact>
</mgrwt>
</event>
<event>
12    1  0.3147868E-008  0.9780478E+03  0.7818608E-02  0.9332955E-01
          1   -1    0    0  501    0  0.00000000000E+00  0.00000000000E+00  0.16730567877E+04  0.16730567877E+04  0.00000000000E+00 0. -1.
         -1   -1    0    0    0  501 -0.00000000000E+00 -0.00000000000E+00 -0.61527234585E+03  0.61527234585E+03  0.00000000000E+00 0.  1.
         23    2    1    2    0    0 -0.91562056829E+03 -0.18909651054E+02  0.61879329230E+03  0.11086434736E+04  0.86409565655E+02 0.  0.
    5000000    2    1    2    0    0  0.91562056829E+03  0.18909651054E+02  0.43899114950E+03  0.11796856599E+04  0.60018865935E+03 0.  0.
         23    2    4    4    0    0  0.41350793508E+03  0.24576886183E+03  0.36393231409E+02  0.49134335130E+03  0.93288132962E+02 0.  0.
         23    2    4    4    0    0  0.50211263321E+03 -0.22685921078E+03  0.40259791809E+03  0.68834230859E+03  0.90265454012E+02 0.  0.
          5    1    3    3  502    0 -0.36596473485E+02  0.10890684322E+02  0.41393656966E+02  0.56510474370E+02  0.47000000000E+01 0. -1.
         -5    1    3    3    0  502 -0.87902409480E+03 -0.29800335376E+02  0.57739963533E+03  0.10521329993E+04  0.47000000000E+01 0.  1.
         13    1    5    5    0    0  0.12171134306E+03  0.83143927271E+02 -0.30838875379E+02  0.15059083606E+03  0.00000000000E+00 0. -1.
        -13    1    5    5    0    0  0.29179659202E+03  0.16262493456E+03  0.67232106788E+02  0.34075251524E+03  0.00000000000E+00 0.  1.
          3    1    6    6  503    0  0.21422657086E+03 -0.54346861053E+02  0.13385454640E+03  0.25838661839E+03  0.00000000000E+00 0. -1.
         -3    1    6    6    0  503  0.28788606235E+03 -0.17251234973E+03  0.26874337170E+03  0.42995569020E+03  0.00000000000E+00 0.  1.
<mgrwt>
<rscale>  0 0.97804783E+03</rscale>
<asrwt>0</asrwt>
<pdfrwt beam="1">  1        1 0.25739335E+00 0.97804783E+03</pdfrwt>
<pdfrwt beam="2">  1       -1 0.94657285E-01 0.97804783E+03</pdfrwt>
<totfact> 0.54219449E+00</totfact>
</mgrwt>
</event>
<event>
12    1  0.3147868E-008  0.5887117E+03  0.7818608E-02  0.9929106E-01
         -2   -1    0    0    0  501 -0.00000000000E+00  0.00000000000E+00  0.34387593414E+03  0.34387593414E+03  0.00000000000E+00 0.  1.
          2   -1    0    0  501    0  0.00000000000E+00 -0.00000000000E+00 -0.13215767847E+04  0.13215767847E+04  0.00000000000E+00 0. -1.
         23    2    1    2    0    0 -0.31932784977E+03 -0.30988299985E+03 -0.76292353567E+03  0.88794818620E+03  0.91661937918E+02 0.  0.
    5000000    2    1    2    0    0  0.31932784977E+03  0.30988299985E+03 -0.21477731493E+03  0.77750453268E+03  0.60032179212E+03 0.  0.
         23    2    4    4    0    0  0.39705026912E+03 -0.23084236094E+01 -0.70781111165E+02  0.41400137678E+03  0.93450143110E+02 0.  0.
         23    2    4    4    0    0 -0.77722419351E+02  0.31219142346E+03 -0.14399620377E+03  0.36350315590E+03  0.88855941263E+02 0.  0.
          5    1    3    3  502    0 -0.18049932532E+03 -0.23114560875E+03 -0.52580252306E+03  0.60207863452E+03  0.47000000000E+01 0. -1.
         -5    1    3    3    0  502 -0.13882852446E+03 -0.78737391103E+02 -0.23712101261E+03  0.28586955168E+03  0.47000000000E+01 0.  1.
         13    1    5    5    0    0  0.22828320815E+03 -0.27387052551E+02 -0.16990611025E+01  0.22992642428E+03  0.00000000000E+00 0. -1.
        -13    1    5    5    0    0  0.16876706097E+03  0.25078628942E+02 -0.69082050062E+02  0.18407495250E+03  0.00000000000E+00 0.  1.
          4    1    6    6  503    0 -0.68339465428E+02  0.20068807282E+03 -0.51114620423E+02  0.21807954863E+03  0.00000000000E+00 0. -1.
         -4    1    6    6    0  503 -0.93829539226E+01  0.11150335064E+03 -0.92881583345E+02  0.14542360728E+03  0.00000000000E+00 0.  1.
<mgrwt>
<rscale>  0 0.58871174E+03</rscale>
<asrwt>0</asrwt>
<pdfrwt beam="1">  1        2 0.20331950E+00 0.58871174E+03</pdfrwt>
<pdfrwt beam="2">  1       -2 0.52903991E-01 0.58871174E+03</pdfrwt>
<totfact> 0.56119409E+01</totfact>
</mgrwt>
</event>
<event>
12    1  0.3147868E-008  0.1531637E+04  0.7818608E-02  0.8863683E-01
         -1   -1    0    0    0  501 -0.00000000000E+00  0.00000000000E+00  0.78364818015E+03  0.78364818015E+03  0.00000000000E+00 0.  1.
          1   -1    0    0  501    0  0.00000000000E+00 -0.00000000000E+00 -0.35580884795E+04  0.35580884795E+04  0.00000000000E+00 0. -1.
         23    2    1    2    0    0 -0.13783984176E+04  0.55076773491E+03 -0.21690008877E+04  0.26300536525E+04  0.96385002974E+02 0.  0.
    5000000    2    1    2    0    0  0.13783984176E+04 -0.55076773491E+03 -0.60543941170E+03  0.17116830072E+04  0.59997878317E+03 0.  0.
         23    2    4    4    0    0  0.25559682704E+02 -0.12951446362E+03 -0.15358024317E+03  0.22157534024E+03  0.89896866702E+02 0.  0.
         23    2    4    4    0    0  0.13528387349E+04 -0.42125327129E+03 -0.45185916853E+03  0.14901076669E+04  0.92828818700E+02 0.  0.
          5    1    3    3  502    0 -0.10345570320E+04  0.45729348966E+03 -0.16455425364E+04  0.19968119384E+04  0.47000000000E+01 0. -1.
         -5    1    3    3    0  502 -0.34384138560E+03  0.93474245245E+02 -0.52345835125E+03  0.63324171409E+03  0.47000000000E+01 0.  1.
         13    1    5    5    0    0 -0.88885472416E+01  0.10876482465E+02 -0.69543048464E+01  0.15673751905E+02  0.00000000000E+00 0. -1.
        -13    1    5    5    0    0  0.34448229946E+02 -0.14039094608E+03 -0.14662593832E+03  0.20590158833E+03  0.00000000000E+00 0.  1.
          2    1    6    6  503    0  0.10317026198E+04 -0.30850822655E+03 -0.30325311385E+03  0.11187269875E+04  0.00000000000E+00 0. -1.
         -2    1    6    6    0  503  0.32113611511E+03 -0.11274504474E+03 -0.14860605468E+03  0.37138067940E+03  0.00000000000E+00 0.  1.
<mgrwt>
<rscale>  0 0.15316372E+04</rscale>
<asrwt>0</asrwt>
<pdfrwt beam="1">  1        1 0.54739823E+00 0.15316372E+04</pdfrwt>
<pdfrwt beam="2">  1       -1 0.12056126E+00 0.15316372E+04</pdfrwt>
<totfact> 0.13157247E-01</totfact>
</mgrwt>
</event>
<event>
12    1  0.3147868E-008  0.5756022E+03  0.7818608E-02  0.9957358E-01
          1   -1    0    0  501    0  0.00000000000E+00  0.00000000000E+00  0.12579077061E+04  0.12579077061E+04  0.00000000000E+00 0. -1.
         -1   -1    0    0    0  501 -0.00000000000E+00 -0.00000000000E+00 -0.28312386694E+03  0.28312386694E+03  0.00000000000E+00 0.  1.
         23    2    1    2    0    0 -0.17636818280E+03  0.40242840927E+03  0.35311723449E+03  0.57177197435E+03  0.95796914713E+02 0.  0.
    5000000    2    1    2    0    0  0.17636818280E+03 -0.40242840927E+03  0.62166660462E+03  0.96925959864E+03  0.59995036608E+03 0.  0.
         23    2    4    4    0    0  0.35878958145E+03 -0.31125241668E+03  0.27280859511E+03  0.55509313510E+03  0.89976821642E+02 0.  0.
         23    2    4    4    0    0 -0.18242139865E+03 -0.91175992591E+02  0.34885800952E+03  0.41416646353E+03  0.90781718437E+02 0.  0.
          5    1    3    3  502    0 -0.12619678791E+03  0.36034107933E+03  0.27991740325E+03  0.47344182892E+03  0.47000000000E+01 0. -1.
         -5    1    3    3    0  502 -0.50171394883E+02  0.42087329937E+02  0.73199831241E+02  0.98330145425E+02  0.47000000000E+01 0.  1.
         13    1    5    5    0    0  0.31953902809E+03 -0.23732905443E+03  0.24244745141E+03  0.46605904909E+03  0.00000000000E+00 0. -1.
        -13    1    5    5    0    0  0.39250553359E+02 -0.73923362248E+02  0.30361143700E+02  0.89034086012E+02  0.00000000000E+00 0.  1.
          1    1    6    6  503    0 -0.12867858913E+03 -0.10546907553E+03  0.27943111649E+03  0.32521324398E+03  0.00000000000E+00 0. -1.
         -1    1    6    6    0  503 -0.53742809518E+02  0.14293082936E+02  0.69426893022E+02  0.88953219556E+02  0.00000000000E+00 0.  1.
<mgrwt>
<rscale>  0 0.57560224E+03</rscale>
<asrwt>0</asrwt>
<pdfrwt beam="1">  1        1 0.19352426E+00 0.57560224E+03</pdfrwt>
<pdfrwt beam="2">  1       -1 0.43557519E-01 0.57560224E+03</pdfrwt>
<totfact> 0.52842679E+01</totfact>
</mgrwt>
</event>
<event>
12    1  0.3147868E-008  0.6138863E+03  0.7818608E-02  0.9877008E-01
         -2   -1    0    0    0  501 -0.00000000000E+00  0.00000000000E+00  0.86317485036E+03  0.86317485036E+03  0.00000000000E+00 0.  1.
          2   -1    0    0  501    0  0.00000000000E+00 -0.00000000000E+00 -0.61959123049E+03  0.61959123049E+03  0.00000000000E+00 0. -1.
         23    2    1    2    0    0  0.26581103652E+03 -0.39396103744E+03 -0.27742033628E+03  0.55666220167E+03  0.83964025803E+02 0.  0.
    5000000    2    1    2    0    0 -0.26581103652E+03  0.39396103744E+03  0.52100395616E+03  0.92610387919E+03  0.60030197947E+03 0.  0.
         23    2    4    4    0    0  0.10819691277E+03 -0.66529975304E+02  0.52331464407E+02  0.16598237263E+03  0.93159842795E+02 0.  0.
         23    2    4    4    0    0 -0.37400794929E+03  0.46049101274E+03  0.46867249175E+03  0.76012150656E+03  0.78720272192E+02 0.  0.
          5    1    3    3  502    0  0.12550502148E+03 -0.15764844034E+03 -0.74021129019E+02  0.21472251558E+03  0.47000000000E+01 0. -1.
         -5    1    3    3    0  502  0.14030601504E+03 -0.23631259710E+03 -0.20339920726E+03  0.34193968608E+03  0.47000000000E+01 0.  1.
         13    1    5    5    0    0  0.11627447988E+03 -0.31025865158E+02  0.46943529947E+02  0.12917450981E+03  0.00000000000E+00 0. -1.
        -13    1    5    5    0    0 -0.80775671092E+01 -0.35504110146E+02  0.53879344593E+01  0.36807862820E+02  0.00000000000E+00 0.  1.
          3    1    6    6  503    0 -0.26139556309E+03  0.29171440409E+03  0.34862618737E+03  0.52437119723E+03  0.00000000000E+00 0. -1.
         -3    1    6    6    0  503 -0.11261238620E+03  0.16877660866E+03  0.12004630438E+03  0.23575030933E+03  0.00000000000E+00 0.  1.
<mgrwt>
<rscale>  0 0.61388630E+03</rscale>
<asrwt>0</asrwt>
<pdfrwt beam="1">  1        2 0.95321728E-01 0.61388630E+03</pdfrwt>
<pdfrwt beam="2">  1       -2 0.13279613E+00 0.61388630E+03</pdfrwt>
<totfact> 0.20163275E+01</totfact>
</mgrwt>
</event>
<event>
12    1  0.3147868E-008  0.3681316E+03  0.7818608E-02  0.1055410E+00
         -2   -1    0    0    0  501 -0.00000000000E+00  0.00000000000E+00  0.77573481262E+02  0.77573481262E+02  0.00000000000E+00 0.  1.
          2   -1    0    0  501    0  0.00000000000E+00 -0.00000000000E+00 -0.26795751135E+04  0.26795751135E+04  0.00000000000E+00 0. -1.
         23    2    1    2    0    0 -0.44121343105E+02  0.23977177263E+03 -0.63321273217E+03  0.68458732669E+03  0.90907908439E+02 0.  0.
    5000000    2    1    2    0    0  0.44121343105E+02 -0.23977177263E+03 -0.19687889001E+04  0.20725612681E+04  0.59995273231E+03 0.  0.
         23    2    4    4    0    0 -0.18241697121E+03 -0.67694097730E+02 -0.15120841861E+04  0.15272996742E+04  0.91582022644E+02 0.  0.
         23    2    4    4    0    0  0.22653831432E+03 -0.17207767490E+03 -0.45670471403E+03  0.54526159388E+03  0.88321435041E+02 0.  0.
          5    1    3    3  502    0 -0.81263433310E+01  0.97331269647E+02 -0.37426062056E+03  0.38682362339E+03  0.47000000000E+01 0. -1.
         -5    1    3    3    0  502 -0.35994999774E+02  0.14244050299E+03 -0.25895211160E+03  0.29776370330E+03  0.47000000000E+01 0.  1.
         11    1    5    5    0    0 -0.41249478006E+02 -0.39451019291E+02 -0.71843581168E+03  0.72069960307E+03  0.00000000000E+00 0.  1.
        -11    1    5    5    0    0 -0.14116749320E+03 -0.28243078439E+02 -0.79364837437E+03  0.80660007114E+03  0.00000000000E+00 0. -1.
          1    1    6    6  503    0  0.73345519808E+02 -0.91765510795E+02 -0.12740617306E+03  0.17329976105E+03  0.00000000000E+00 0. -1.
         -1    1    6    6    0  503  0.15319279451E+03 -0.80312164107E+02 -0.32929854097E+03  0.37196183283E+03  0.00000000000E+00 0.  1.
<mgrwt>
<rscale>  0 0.36813158E+03</rscale>
<asrwt>0</asrwt>
<pdfrwt beam="1">  1        2 0.41224234E+00 0.36813158E+03</pdfrwt>
<pdfrwt beam="2">  1       -2 0.11934381E-01 0.36813158E+03</pdfrwt>
<totfact> 0.15546244E+02</totfact>
</mgrwt>
</event>
<event>
12    1  0.3147868E-008  0.4566054E+03  0.7818608E-02  0.1025770E+00
         -1   -1    0    0    0  501 -0.00000000000E+00  0.00000000000E+00  0.76535706023E+03  0.76535706023E+03  0.00000000000E+00 0.  1.
          1   -1    0    0  501    0  0.00000000000E+00 -0.00000000000E+00 -0.55482596061E+03  0.55482596061E+03  0.00000000000E+00 0. -1.
         23    2    1    2    0    0 -0.33488848093E+03 -0.13340413229E+03 -0.28059098020E+03  0.46515960760E+03  0.87722318690E+02 0.  0.
    5000000    2    1    2    0    0  0.33488848093E+03  0.13340413229E+03  0.49112207982E+03  0.85502341324E+03  0.59993098163E+03 0.  0.
         23    2    4    4    0    0  0.38142690600E+03  0.20656135878E+03  0.55840547671E+03  0.71300037234E+03  0.91644830608E+02 0.  0.
         23    2    4    4    0    0 -0.46538425062E+02 -0.73157226487E+02 -0.67283396887E+02  0.14202304090E+03  0.90142575152E+02 0.  0.
          5    1    3    3  502    0 -0.18235255000E+03 -0.46381502937E+02 -0.99665167066E+02  0.21297636449E+03  0.47000000000E+01 0. -1.
         -5    1    3    3    0  502 -0.15253593094E+03 -0.87022629358E+02 -0.18092581313E+03  0.25218324311E+03  0.47000000000E+01 0.  1.
         11    1    5    5    0    0  0.30920122996E+03  0.17754085096E+03  0.39572962520E+03  0.53266132827E+03  0.00000000000E+00 0. -1.
        -11    1    5    5    0    0  0.72225676033E+02  0.29020507821E+02  0.16267585151E+03  0.18033904407E+03  0.00000000000E+00 0.  1.
          1    1    6    6  503    0 -0.66341562839E+02 -0.43716863452E+02 -0.18285185971E+02  0.81527388870E+02  0.00000000000E+00 0. -1.
         -1    1    6    6    0  503  0.19803137777E+02 -0.29440363035E+02 -0.48998210916E+02  0.60495652029E+02  0.00000000000E+00 0.  1.
<mgrwt>
<rscale>  0 0.45660536E+03</rscale>
<asrwt>0</asrwt>
<pdfrwt beam="1">  1        1 0.85357840E-01 0.45660536E+03</pdfrwt>
<pdfrwt beam="2">  1       -1 0.11774724E+00 0.45660536E+03</pdfrwt>
<totfact> 0.26456915E+01</totfact>
</mgrwt>
</event>
<event>
12    1  0.3147868E-008  0.4585159E+03  0.7818608E-02  0.1025213E+00
         -1   -1    0    0    0  501 -0.00000000000E+00  0.00000000000E+00  0.26858147667E+03  0.26858147667E+03  0.00000000000E+00 0.  1.
          1   -1    0    0  501    0  0.00000000000E+00 -0.00000000000E+00 -0.89494169945E+03  0.89494169945E+03  0.00000000000E+00 0. -1.
         23    2    1    2    0    0  0.25990885744E+03  0.13933539491E+03 -0.15213631014E+03  0.34400547500E+03  0.90704705049E+02 0.  0.
    5000000    2    1    2    0    0 -0.25990885744E+03 -0.13933539491E+03 -0.47422391265E+03  0.81951770112E+03  0.59979494551E+03 0.  0.
         23    2    4    4    0    0 -0.12676031882E+01 -0.29967287987E+03 -0.37176306570E+03  0.48564225650E+03  0.88516566412E+02 0.  0.
         23    2    4    4    0    0 -0.25864125425E+03  0.16033748496E+03 -0.10246084695E+03  0.33387544462E+03  0.91494152158E+02 0.  0.
          5    1    3    3  502    0  0.10078403582E+03  0.24072531660E+02 -0.91521017389E+02  0.13832966161E+03  0.47000000000E+01 0. -1.
         -5    1    3    3    0  502  0.15912482162E+03  0.11526286325E+03 -0.60615292752E+02  0.20567581340E+03  0.47000000000E+01 0.  1.
         11    1    5    5    0    0  0.39834152973E+02 -0.20690484841E+03 -0.24075248617E+03  0.31993458025E+03  0.00000000000E+00 0.  1.
        -11    1    5    5    0    0 -0.41101756161E+02 -0.92768031459E+02 -0.13101057953E+03  0.16570767625E+03  0.00000000000E+00 0. -1.
          1    1    6    6  503    0 -0.44598043686E+02  0.33665524029E+02  0.16373226611E+02  0.58227446779E+02  0.00000000000E+00 0. -1.
         -1    1    6    6    0  503 -0.21404321057E+03  0.12667196093E+03 -0.11883407356E+03  0.27564799784E+03  0.00000000000E+00 0.  1.
<mgrwt>
<rscale>  0 0.45851592E+03</rscale>
<asrwt>0</asrwt>
<pdfrwt beam="1">  1        1 0.13768334E+00 0.45851592E+03</pdfrwt>
<pdfrwt beam="2">  1       -1 0.41320227E-01 0.45851592E+03</pdfrwt>
<totfact> 0.11038619E+02</totfact>
</mgrwt>
</event>
<event>
12    1  0.3147868E-008  0.1525335E+04  0.7818608E-02  0.8867778E-01
         -2   -1    0    0    0  501 -0.00000000000E+00  0.00000000000E+00  0.24195362007E+04  0.24195362007E+04  0.00000000000E+00 0.  1.
          2   -1    0    0  501    0  0.00000000000E+00 -0.00000000000E+00 -0.26067104877E+04  0.26067104877E+04  0.00000000000E+00 0. -1.
         23    2    1    2    0    0 -0.12632646029E+04 -0.75817296190E+03  0.18974584876E+04  0.24039493374E+04  0.89218875483E+02 0.  0.
    5000000    2    1    2    0    0  0.12632646029E+04  0.75817296190E+03 -0.20846327747E+04  0.26222973509E+04  0.60007157446E+03 0.  0.
         23    2    4    4    0    0  0.33217521746E+02 -0.57655237982E+02 -0.15344732522E+03  0.18981665081E+03  0.89759395553E+02 0.  0.
         23    2    4    4    0    0  0.12300470812E+04  0.81582819988E+03 -0.19311854494E+04  0.24324807001E+04  0.94306112197E+02 0.  0.
          5    1    3    3  502    0 -0.91516167430E+03 -0.59137656072E+03  0.14244454121E+04  0.17934084723E+04  0.47000000000E+01 0. -1.
         -5    1    3    3    0  502 -0.34810292861E+03 -0.16679640118E+03  0.47301307552E+03  0.61054086511E+03  0.47000000000E+01 0.  1.
         11    1    5    5    0    0 -0.11374950797E+02  0.11721771246E+02 -0.84628174876E+00  0.16355599028E+02  0.00000000000E+00 0. -1.
        -11    1    5    5    0    0  0.44592472543E+02 -0.69377009228E+02 -0.15260104347E+03  0.17346105178E+03  0.00000000000E+00 0.  1.
          1    1    6    6  503    0  0.61410310063E+03  0.39232622931E+03 -0.87858803380E+03  0.11414724795E+04  0.00000000000E+00 0. -1.
         -1    1    6    6    0  503  0.61594398053E+03  0.42350197057E+03 -0.10525974156E+04  0.12910082206E+04  0.00000000000E+00 0.  1.
<mgrwt>
<rscale>  0 0.15253353E+04</rscale>
<asrwt>0</asrwt>
<pdfrwt beam="1">  1        2 0.40103238E+00 0.15253353E+04</pdfrwt>
<pdfrwt beam="2">  1       -2 0.37223634E+00 0.15253353E+04</pdfrwt>
<totfact> 0.31734837E-02</totfact>
</mgrwt>
</event>
<event>
12    1  0.3147868E-008  0.6057434E+03  0.7818608E-02  0.9893561E-01
          1   -1    0    0  501    0  0.00000000000E+00  0.00000000000E+00  0.13017028298E+04  0.13017028298E+04  0.00000000000E+00 0. -1.
         -1   -1    0    0    0  501 -0.00000000000E+00 -0.00000000000E+00 -0.29141125389E+03  0.29141125389E+03  0.00000000000E+00 0.  1.
         23    2    1    2    0    0  0.45655820186E+03 -0.68902041524E+02  0.32553609668E+03  0.57210931961E+03  0.90235471557E+02 0.  0.
    5000000    2    1    2    0    0 -0.45655820186E+03  0.68902041524E+02  0.68475547921E+03  0.10210047641E+04  0.60030640420E+03 0.  0.
         23    2    4    4    0    0 -0.15881167636E+03  0.30880710717E+03  0.26747478532E+03  0.44778684685E+03  0.91582320567E+02 0.  0.
         23    2    4    4    0    0 -0.29774652550E+03 -0.23990506565E+03  0.41728069389E+03  0.57321791722E+03  0.90819431612E+02 0.  0.
          5    1    3    3  502    0  0.17966955937E+03 -0.47290979819E+02  0.17910564422E+03  0.25810561622E+03  0.47000000000E+01 0. -1.
         -5    1    3    3    0  502  0.27688864250E+03 -0.21611061705E+02  0.14643045246E+03  0.31400370339E+03  0.47000000000E+01 0.  1.
         11    1    5    5    0    0 -0.89657031811E+02  0.95358193184E+02  0.13092749245E+03  0.18513124166E+03  0.00000000000E+00 0. -1.
        -11    1    5    5    0    0 -0.69154644553E+02  0.21344891399E+03  0.13654729287E+03  0.26265560519E+03  0.00000000000E+00 0.  1.
          4    1    6    6  503    0 -0.21064923063E+03 -0.11401472893E+03  0.26709884076E+03  0.35876767902E+03  0.00000000000E+00 0. -1.
         -4    1    6    6    0  503 -0.87097294870E+02 -0.12589033672E+03  0.15018185313E+03  0.21445023819E+03  0.00000000000E+00 0.  1.
<mgrwt>
<rscale>  0 0.60574343E+03</rscale>
<asrwt>0</asrwt>
<pdfrwt beam="1">  1        1 0.20026197E+00 0.60574343E+03</pdfrwt>
<pdfrwt beam="2">  1       -1 0.44832501E-01 0.60574343E+03</pdfrwt>
<totfact> 0.46477937E+01</totfact>
</mgrwt>
</event>
<event>
12    1  0.3147868E-008  0.1687522E+04  0.7818608E-02  0.8768513E-01
         -1   -1    0    0    0  501 -0.00000000000E+00  0.00000000000E+00  0.15615415201E+04  0.15615415201E+04  0.00000000000E+00 0.  1.
          1   -1    0    0  501    0  0.00000000000E+00 -0.00000000000E+00 -0.18938733948E+04  0.18938733948E+04  0.00000000000E+00 0. -1.
         23    2    1    2    0    0 -0.10828175751E+04  0.12454402866E+04 -0.39059125373E+03  0.16984365419E+04  0.92248311624E+02 0.  0.
    5000000    2    1    2    0    0  0.10828175751E+04 -0.12454402866E+04  0.58259379012E+02  0.17569783731E+04  0.59996953249E+03 0.  0.
         23    2    4    4    0    0  0.73727513720E+03 -0.11352867483E+04 -0.74659662727E+02  0.13596351514E+04  0.10287395660E+03 0.  0.
         23    2    4    4    0    0  0.34554243786E+03 -0.11015353833E+03  0.13291904174E+03  0.39734322170E+03  0.93170734684E+02 0.  0.
          5    1    3    3  502    0 -0.18839529501E+03  0.27198527287E+03 -0.83003561364E+02  0.34114580027E+03  0.47000000000E+01 0. -1.
         -5    1    3    3    0  502 -0.89442228005E+03  0.97345501371E+03 -0.30758769236E+03  0.13572907416E+04  0.47000000000E+01 0.  1.
         11    1    5    5    0    0  0.64660384315E+03 -0.93392760160E+03 -0.80038037304E+02  0.11387376267E+04  0.00000000000E+00 0. -1.
        -11    1    5    5    0    0  0.90671294045E+02 -0.20135914665E+03  0.53783745767E+01  0.22089752470E+03  0.00000000000E+00 0.  1.
          3    1    6    6  503    0  0.19898527796E+03 -0.86459845320E+02  0.35677347658E+02  0.21987114143E+03  0.00000000000E+00 0. -1.
         -3    1    6    6    0  503  0.14655715990E+03 -0.23693693014E+02  0.97241694081E+02  0.17747208027E+03  0.00000000000E+00 0.  1.
<mgrwt>
<rscale>  0 0.16875218E+04</rscale>
<asrwt>0</asrwt>
<pdfrwt beam="1">  1        1 0.29136514E+00 0.16875218E+04</pdfrwt>
<pdfrwt beam="2">  1       -1 0.24023716E+00 0.16875218E+04</pdfrwt>
<totfact> 0.26280862E-01</totfact>
</mgrwt>
</event>
<event>
12    1  0.3147868E-008  0.1912717E+04  0.7818608E-02  0.8648552E-01
         -1   -1    0    0    0  501 -0.00000000000E+00  0.00000000000E+00  0.24117829882E+04  0.24117829882E+04  0.00000000000E+00 0.  1.
          1   -1    0    0  501    0  0.00000000000E+00 -0.00000000000E+00 -0.22535681785E+04  0.22535681785E+04  0.00000000000E+00 0. -1.
         23    2    1    2    0    0 -0.58791807827E+03  0.17765740269E+04  0.14014915878E+04  0.23399734233E+04  0.97128837855E+02 0.  0.
    5000000    2    1    2    0    0  0.58791807827E+03 -0.17765740269E+04 -0.12432767781E+04  0.23253777434E+04  0.59981794108E+03 0.  0.
         23    2    4    4    0    0 -0.88711641861E+02 -0.12548738353E+03 -0.12878578263E+03  0.21956836227E+03  0.89485468511E+02 0.  0.
         23    2    4    4    0    0  0.67662972013E+03 -0.16510866434E+04 -0.11144909955E+04  0.21058093811E+04  0.91804620468E+02 0.  0.
          5    1    3    3  502    0 -0.37683423221E+03  0.10961575683E+04  0.81142022489E+03  0.14149170733E+04  0.47000000000E+01 0. -1.
         -5    1    3    3    0  502 -0.21108384606E+03  0.68041645863E+03  0.59007136295E+03  0.92505634997E+03  0.47000000000E+01 0.  1.
         11    1    5    5    0    0  0.82877160050E+01 -0.34213884763E+02 -0.13445593619E+01  0.35229021943E+02  0.00000000000E+00 0.  1.
        -11    1    5    5    0    0 -0.96999357866E+02 -0.91273498770E+02 -0.12744122327E+03  0.18433934033E+03  0.00000000000E+00 0. -1.
          2    1    6    6  503    0  0.45239929168E+03 -0.10228119222E+04 -0.73566065410E+03  0.13386582631E+04  0.00000000000E+00 0. -1.
         -2    1    6    6    0  503  0.22423042845E+03 -0.62827472115E+03 -0.37883034142E+03  0.76715111801E+03  0.00000000000E+00 0.  1.
<mgrwt>
<rscale>  0 0.19127167E+04</rscale>
<asrwt>0</asrwt>
<pdfrwt beam="1">  1        1 0.34670280E+00 0.19127167E+04</pdfrwt>
<pdfrwt beam="2">  1       -1 0.37104354E+00 0.19127167E+04</pdfrwt>
<totfact> 0.20148647E-02</totfact>
</mgrwt>
</event>
<event>
12    1  0.3147868E-008  0.2256547E+04  0.7818608E-02  0.8495254E-01
         -2   -1    0    0    0  501 -0.00000000000E+00  0.00000000000E+00  0.26050055034E+04  0.26050055034E+04  0.00000000000E+00 0.  1.
          2   -1    0    0  501    0  0.00000000000E+00 -0.00000000000E+00 -0.20899438128E+04  0.20899438128E+04  0.00000000000E+00 0. -1.
         23    2    1    2    0    0 -0.21230043481E+03  0.22088873626E+04  0.83774305300E+03  0.23736940869E+04  0.91407548751E+02 0.  0.
    5000000    2    1    2    0    0  0.21230043481E+03 -0.22088873626E+04 -0.32268136239E+03  0.23212552293E+04  0.59987308894E+03 0.  0.
         23    2    4    4    0    0 -0.17319524057E+03 -0.43240995125E+03 -0.12125636205E+03  0.49038272808E+03  0.93793162700E+02 0.  0.
         23    2    4    4    0    0  0.38549567539E+03 -0.17764774113E+04 -0.20142500034E+03  0.18308725012E+04  0.83923633832E+02 0.  0.
          5    1    3    3  502    0 -0.11982347783E+03  0.94244623758E+03  0.39524336047E+03  0.10289810399E+04  0.47000000000E+01 0. -1.
         -5    1    3    3    0  502 -0.92476956980E+02  0.12664411250E+04  0.44249969253E+03  0.13447130469E+04  0.47000000000E+01 0.  1.
         13    1    5    5    0    0 -0.10363987108E+03 -0.14770372951E+03 -0.26542838642E+02  0.18237910207E+03  0.00000000000E+00 0.  1.
        -13    1    5    5    0    0 -0.69555369494E+02 -0.28470622174E+03 -0.94713523409E+02  0.30800362601E+03  0.00000000000E+00 0. -1.
          4    1    6    6  503    0  0.27220876370E+03 -0.10631989656E+04 -0.12795392888E+03  0.11049261783E+04  0.00000000000E+00 0. -1.
         -4    1    6    6    0  503  0.11328691169E+03 -0.71327844572E+03 -0.73471071459E+02  0.72594632297E+03  0.00000000000E+00 0.  1.
<mgrwt>
<rscale>  0 0.22565472E+04</rscale>
<asrwt>0</asrwt>
<pdfrwt beam="1">  1        2 0.32152982E+00 0.22565472E+04</pdfrwt>
<pdfrwt beam="2">  1       -2 0.40077008E+00 0.22565472E+04</pdfrwt>
<totfact> 0.37709080E-02</totfact>
</mgrwt>
</event>
<event>
12    1  0.3147868E-008  0.6110857E+03  0.7818608E-02  0.9882670E-01
          2   -1    0    0  501    0  0.00000000000E+00  0.00000000000E+00  0.69379932502E+03  0.69379932502E+03  0.00000000000E+00 0. -1.
         -2   -1    0    0    0  501 -0.00000000000E+00 -0.00000000000E+00 -0.94766074044E+03  0.94766074044E+03  0.00000000000E+00 0.  1.
         23    2    1    2    0    0  0.42586709200E+03  0.18076657700E+03  0.41674737521E+03  0.62953746463E+03  0.92734617176E+02 0.  0.
    5000000    2    1    2    0    0 -0.42586709200E+03 -0.18076657700E+03 -0.67060879063E+03  0.10119226008E+04  0.60019318939E+03 0.  0.
         23    2    4    4    0    0 -0.93393590916E+02 -0.34895168402E+03 -0.28717545934E+03  0.46944037840E+03  0.86109719673E+02 0.  0.
         23    2    4    4    0    0 -0.33247350108E+03  0.16818510702E+03 -0.38343333129E+03  0.54248222243E+03  0.91874822239E+02 0.  0.
          5    1    3    3  502    0  0.96906691252E+02  0.43084358778E+01  0.67103639956E+02  0.11804430492E+03  0.47000000000E+01 0. -1.
         -5    1    3    3    0  502  0.32896040075E+03  0.17645814112E+03  0.34964373526E+03  0.51149315971E+03  0.47000000000E+01 0.  1.
         11    1    5    5    0    0 -0.10645062521E+02 -0.18757677056E+03 -0.17115277703E+03  0.25414884477E+03  0.00000000000E+00 0.  1.
        -11    1    5    5    0    0 -0.82748528395E+02 -0.16137491345E+03 -0.11602268231E+03  0.21529153364E+03  0.00000000000E+00 0. -1.
          2    1    6    6  503    0 -0.17625610294E+03  0.13689489804E+03 -0.24515518866E+03  0.33152299084E+03  0.00000000000E+00 0. -1.
         -2    1    6    6    0  503 -0.15621739814E+03  0.31290208978E+02 -0.13827814263E+03  0.21095923158E+03  0.00000000000E+00 0.  1.
<mgrwt>
<rscale>  0 0.61108566E+03</rscale>
<asrwt>0</asrwt>
<pdfrwt beam="1">  1        2 0.10673836E+00 0.61108566E+03</pdfrwt>
<pdfrwt beam="2">  1       -2 0.14579396E+00 0.61108566E+03</pdfrwt>
<totfact> 0.13799776E+01</totfact>
</mgrwt>
</event>
<event>
12    1  0.3147868E-008  0.6520671E+03  0.7818608E-02  0.9802908E-01
          1   -1    0    0  501    0  0.00000000000E+00  0.00000000000E+00  0.21648642713E+04  0.21648642713E+04  0.00000000000E+00 0. -1.
         -1   -1    0    0    0  501 -0.00000000000E+00 -0.00000000000E+00 -0.61698569022E+03  0.61698569022E+03  0.00000000000E+00 0.  1.
         23    2    1    2    0    0 -0.21978138604E+02  0.52746817376E+03 -0.40533805994E+03  0.67145035117E+03  0.88548960128E+02 0.  0.
    5000000    2    1    2    0    0  0.21978138604E+02 -0.52746817376E+03  0.19532166411E+04  0.21103996104E+04  0.60002129608E+03 0.  0.
         23    2    4    4    0    0 -0.17638954659E+03  0.48807861052E+01  0.75927837906E+03  0.78500793470E+03  0.92718425455E+02 0.  0.
         23    2    4    4    0    0  0.19836768520E+03 -0.53234895987E+03  0.11939382620E+04  0.13253916757E+04  0.91811583874E+02 0.  0.
          5    1    3    3  502    0  0.29547145531E+02  0.11029252051E+03 -0.10049162395E+03  0.15217795627E+03  0.47000000000E+01 0. -1.
         -5    1    3    3    0  502 -0.51525284135E+02  0.41717565325E+03 -0.30484643599E+03  0.51927239490E+03  0.47000000000E+01 0.  1.
         11    1    5    5    0    0 -0.73387137363E+02  0.44355991378E+02  0.40395796878E+03  0.41295903724E+03  0.00000000000E+00 0.  1.
        -11    1    5    5    0    0 -0.10300240923E+03 -0.39475205273E+02  0.35532041028E+03  0.37204889746E+03  0.00000000000E+00 0. -1.
          2    1    6    6  503    0  0.11844198852E+02 -0.12317788569E+03  0.21399012359E+03  0.24719395131E+03  0.00000000000E+00 0. -1.
         -2    1    6    6    0  503  0.18652348634E+03 -0.40917107418E+03  0.97994813841E+03  0.10781977244E+04  0.00000000000E+00 0.  1.
<mgrwt>
<rscale>  0 0.65206711E+03</rscale>
<asrwt>0</asrwt>
<pdfrwt beam="1">  1        1 0.33305604E+00 0.65206711E+03</pdfrwt>
<pdfrwt beam="2">  1       -1 0.94920876E-01 0.65206711E+03</pdfrwt>
<totfact> 0.26621135E+00</totfact>
</mgrwt>
</event>
<event>
12    1  0.3147868E-008  0.1003055E+04  0.7818608E-02  0.9305200E-01
         -1   -1    0    0    0  501 -0.00000000000E+00  0.00000000000E+00  0.40244441789E+03  0.40244441789E+03  0.00000000000E+00 0.  1.
          1   -1    0    0  501    0  0.00000000000E+00 -0.00000000000E+00 -0.27487320667E+04  0.27487320667E+04  0.00000000000E+00 0. -1.
         23    2    1    2    0    0 -0.89195235568E+03  0.25965274739E+03 -0.14647850094E+04  0.17369392630E+04  0.91456687672E+02 0.  0.
    5000000    2    1    2    0    0  0.89195235568E+03 -0.25965274739E+03 -0.88150263944E+03  0.14142372216E+04  0.60001788431E+03 0.  0.
         23    2    4    4    0    0  0.94574600771E+03 -0.22388300560E+03 -0.69987040991E+03  0.12011002184E+04  0.90906725408E+02 0.  0.
         23    2    4    4    0    0 -0.53793652026E+02 -0.35769741786E+02 -0.18163222953E+03  0.21313700315E+03  0.90905906742E+02 0.  0.
          5    1    3    3  502    0 -0.17524531706E+03  0.56506441096E+02 -0.22772166972E+03  0.29288760284E+03  0.47000000000E+01 0. -1.
         -5    1    3    3    0  502 -0.71670703862E+03  0.20314630629E+03 -0.12370633397E+04  0.14440516602E+04  0.47000000000E+01 0.  1.
         13    1    5    5    0    0  0.70138905251E+03 -0.12801357494E+03 -0.53091903199E+03  0.88893706013E+03  0.00000000000E+00 0. -1.
        -13    1    5    5    0    0  0.24435695520E+03 -0.95869430662E+02 -0.16895137791E+03  0.31216315828E+03  0.00000000000E+00 0.  1.
          2    1    6    6  503    0 -0.22064644718E+02  0.24755162983E+02 -0.10664685617E+03  0.11168356447E+03  0.00000000000E+00 0. -1.
         -2    1    6    6    0  503 -0.31729007308E+02 -0.60524904770E+02 -0.74985373357E+02  0.10145343868E+03  0.00000000000E+00 0.  1.
<mgrwt>
<rscale>  0 0.10030554E+04</rscale>
<asrwt>0</asrwt>
<pdfrwt beam="1">  1        1 0.42288185E+00 0.10030554E+04</pdfrwt>
<pdfrwt beam="2">  1       -1 0.61914527E-01 0.10030554E+04</pdfrwt>
<totfact> 0.24528983E+00</totfact>
</mgrwt>
</event>
<event>
12    1  0.3147868E-008  0.6925090E+03  0.7818608E-02  0.9730129E-01
          2   -1    0    0  501    0  0.00000000000E+00  0.00000000000E+00  0.81159641075E+03  0.81159641075E+03  0.00000000000E+00 0. -1.
         -2   -1    0    0    0  501 -0.00000000000E+00 -0.00000000000E+00 -0.68144691539E+03  0.68144691539E+03  0.00000000000E+00 0.  1.
         23    2    1    2    0    0  0.59889668968E+03  0.14626548246E+03  0.10839137509E+03  0.63244017472E+03  0.90338519681E+02 0.  0.
    5000000    2    1    2    0    0 -0.59889668968E+03 -0.14626548246E+03  0.21758120269E+02  0.86060315142E+03  0.60007793842E+03 0.  0.
         23    2    4    4    0    0 -0.56601168627E+03 -0.27361887065E+03 -0.12317170078E+03  0.64728317078E+03  0.92561978890E+02 0.  0.
         23    2    4    4    0    0 -0.32885003411E+02  0.12735338820E+03  0.14492982105E+03  0.21331998064E+03  0.84855478163E+02 0.  0.
          5    1    3    3  502    0  0.13507809318E+03  0.27678980850E+01  0.10887440337E+01  0.13519255853E+03  0.47000000000E+01 0. -1.
         -5    1    3    3    0  502  0.46381859649E+03  0.14349758437E+03  0.10730263106E+03  0.49724761619E+03  0.47000000000E+01 0.  1.
         13    1    5    5    0    0 -0.16492861903E+03 -0.58318108224E+02  0.28006783370E+01  0.17495798044E+03  0.00000000000E+00 0.  1.
        -13    1    5    5    0    0 -0.40108306724E+03 -0.21530076243E+03 -0.12597237912E+03  0.47232519034E+03  0.00000000000E+00 0. -1.
          4    1    6    6  503    0 -0.37608675876E+01  0.67277998464E+02  0.12767194439E+03  0.14436273268E+03  0.00000000000E+00 0.  1.
         -4    1    6    6    0  503 -0.29124135823E+02  0.60075389733E+02  0.17257876662E+02  0.68957247958E+02  0.00000000000E+00 0. -1.
<mgrwt>
<rscale>  0 0.69250902E+03</rscale>
<asrwt>0</asrwt>
<pdfrwt beam="1">  1        2 0.12486099E+00 0.69250902E+03</pdfrwt>
<pdfrwt beam="2">  1       -2 0.10483799E+00 0.69250902E+03</pdfrwt>
<totfact> 0.25431373E+01</totfact>
</mgrwt>
</event>
<event>
12    1  0.3147868E-008  0.6739572E+03  0.7818608E-02  0.9762835E-01
          2   -1    0    0  501    0  0.00000000000E+00  0.00000000000E+00  0.40736159320E+03  0.40736159320E+03  0.00000000000E+00 0. -1.
         -2   -1    0    0    0  501 -0.00000000000E+00 -0.00000000000E+00 -0.11573670222E+04  0.11573670222E+04  0.00000000000E+00 0.  1.
         23    2    1    2    0    0 -0.54181436305E+03  0.29161784606E+02 -0.19568385241E+03  0.58403696540E+03  0.91617646582E+02 0.  0.
    5000000    2    1    2    0    0  0.54181436305E+03 -0.29161784606E+02 -0.55432157659E+03  0.98069165000E+03  0.60005873747E+03 0.  0.
         23    2    4    4    0    0  0.38663928717E+03  0.25488421613E+03 -0.30266570278E+03  0.56078708681E+03  0.91759070830E+02 0.  0.
         23    2    4    4    0    0  0.15517507588E+03 -0.28404600073E+03 -0.25165587382E+03  0.41990456320E+03  0.90706828070E+02 0.  0.
          5    1    3    3  502    0 -0.24969748685E+03 -0.19227576864E+02 -0.56255111439E+02  0.25672020219E+03  0.47000000000E+01 0. -1.
         -5    1    3    3    0  502 -0.29211687620E+03  0.48389361470E+02 -0.13942874097E+03  0.32731676320E+03  0.47000000000E+01 0.  1.
         11    1    5    5    0    0  0.30781715826E+03  0.23613399527E+03 -0.22462596388E+03  0.44829397752E+03  0.00000000000E+00 0. -1.
        -11    1    5    5    0    0  0.78822128915E+02  0.18750220862E+02 -0.78039738900E+02  0.11249310929E+03  0.00000000000E+00 0.  1.
          1    1    6    6  503    0  0.79091373699E+02 -0.71694680266E+02 -0.52335587216E+02  0.11888896610E+03  0.00000000000E+00 0. -1.
         -1    1    6    6    0  503  0.76083702184E+02 -0.21235132047E+03 -0.19932028660E+03  0.30101559709E+03  0.00000000000E+00 0.  1.
<mgrwt>
<rscale>  0 0.67395718E+03</rscale>
<asrwt>0</asrwt>
<pdfrwt beam="1">  1        2 0.62671016E-01 0.67395718E+03</pdfrwt>
<pdfrwt beam="2">  1       -2 0.17805646E+00 0.67395718E+03</pdfrwt>
<totfact> 0.14907004E+01</totfact>
</mgrwt>
</event>
<event>
12    1  0.3147868E-008  0.6860352E+03  0.7818608E-02  0.9741416E-01
          1   -1    0    0  501    0  0.00000000000E+00  0.00000000000E+00  0.57208771659E+03  0.57208771659E+03  0.00000000000E+00 0. -1.
         -1   -1    0    0    0  501 -0.00000000000E+00 -0.00000000000E+00 -0.14612896796E+04  0.14612896796E+04  0.00000000000E+00 0.  1.
         23    2    1    2    0    0 -0.43225386525E+03  0.39080082054E+03 -0.10283168838E+04  0.11855089473E+04  0.91799592511E+02 0.  0.
    5000000    2    1    2    0    0  0.43225386525E+03 -0.39080082054E+03  0.13911492077E+03  0.84786844894E+03  0.59996604917E+03 0.  0.
         23    2    4    4    0    0  0.23828055824E+03 -0.50726170779E+03  0.19217446311E+03  0.59910999534E+03  0.88936480839E+02 0.  0.
         23    2    4    4    0    0  0.19397330701E+03  0.11646088725E+03 -0.53059542340E+02  0.24875845359E+03  0.88750611885E+02 0.  0.
          5    1    3    3  502    0 -0.15119899771E+03  0.11648420014E+03 -0.25939710540E+03  0.32208485541E+03  0.47000000000E+01 0. -1.
         -5    1    3    3    0  502 -0.28105486753E+03  0.27431662040E+03 -0.76891977838E+03  0.86342409185E+03  0.47000000000E+01 0.  1.
         11    1    5    5    0    0  0.17001035516E+03 -0.35666179683E+03  0.17737615028E+03  0.43309751427E+03  0.00000000000E+00 0. -1.
        -11    1    5    5    0    0  0.68270203076E+02 -0.15059991096E+03  0.14798312836E+02  0.16601248108E+03  0.00000000000E+00 0.  1.
          3    1    6    6  503    0  0.12473760813E+03  0.89938774415E+02  0.61078700721E+01  0.15390178719E+03  0.00000000000E+00 0. -1.
         -3    1    6    6    0  503  0.69235698880E+02  0.26522112833E+02 -0.59167412412E+02  0.94856666397E+02  0.00000000000E+00 0.  1.
<mgrwt>
<rscale>  0 0.68603524E+03</rscale>
<asrwt>0</asrwt>
<pdfrwt beam="1">  1        1 0.88013495E-01 0.68603524E+03</pdfrwt>
<pdfrwt beam="2">  1       -1 0.22481380E+00 0.68603524E+03</pdfrwt>
<totfact> 0.39353176E+00</totfact>
</mgrwt>
</event>
<event>
12    1  0.3147868E-008  0.4770953E+03  0.7818608E-02  0.1019937E+00
          1   -1    0    0  501    0  0.00000000000E+00  0.00000000000E+00  0.51871253705E+03  0.51871253705E+03  0.00000000000E+00 0. -1.
         -1   -1    0    0    0  501 -0.00000000000E+00 -0.00000000000E+00 -0.58039071125E+03  0.58039071125E+03  0.00000000000E+00 0.  1.
         23    2    1    2    0    0 -0.33757215773E+03 -0.21255599810E+01 -0.19567701252E+03  0.39788926948E+03  0.77890293752E+02 0.  0.
    5000000    2    1    2    0    0  0.33757215773E+03  0.21255599810E+01  0.13399883831E+03  0.70121397881E+03  0.59982153656E+03 0.  0.
         23    2    4    4    0    0  0.32218237355E+03  0.22175324183E+03 -0.44559418829E+02  0.40386671818E+03  0.90259637492E+02 0.  0.
         23    2    4    4    0    0  0.15389784183E+02 -0.21962768185E+03  0.17855825714E+03  0.29734726063E+03  0.89772925309E+02 0.  0.
          5    1    3    3  502    0 -0.31135358872E+03  0.87394297946E+01 -0.19786431974E+03  0.36903904112E+03  0.47000000000E+01 0. -1.
         -5    1    3    3    0  502 -0.26218569012E+02 -0.10864989776E+02  0.21873072239E+01  0.28850228366E+02  0.47000000000E+01 0.  1.
         11    1    5    5    0    0  0.17746662226E+03  0.95632214969E+02 -0.62523595784E+02  0.21106663068E+03  0.00000000000E+00 0. -1.
        -11    1    5    5    0    0  0.14471575129E+03  0.12612102686E+03  0.17964176955E+02  0.19280008750E+03  0.00000000000E+00 0.  1.
          2    1    6    6  503    0  0.14171897076E+02 -0.13912458201E+03  0.55851926513E+02  0.15058529038E+03  0.00000000000E+00 0. -1.
         -2    1    6    6    0  503  0.12178871062E+01 -0.80503099840E+02  0.12270633063E+03  0.14676197024E+03  0.00000000000E+00 0.  1.
<mgrwt>
<rscale>  0 0.47709526E+03</rscale>
<asrwt>0</asrwt>
<pdfrwt beam="1">  1        1 0.79801929E-01 0.47709526E+03</pdfrwt>
<pdfrwt beam="2">  1       -1 0.89290878E-01 0.47709526E+03</pdfrwt>
<totfact> 0.54378645E+01</totfact>
</mgrwt>
</event>
<event>
12    1  0.3147868E-008  0.1264032E+04  0.7818608E-02  0.9058584E-01
         -2   -1    0    0    0  501 -0.00000000000E+00  0.00000000000E+00  0.95652860343E+03  0.95652860343E+03  0.00000000000E+00 0. -1.
          2   -1    0    0  501    0  0.00000000000E+00 -0.00000000000E+00 -0.29612072104E+04  0.29612072104E+04  0.00000000000E+00 0.  1.
         23    2    1    2    0    0 -0.66214182256E+03  0.10460789502E+04 -0.22020277716E+04  0.25278619996E+04  0.91907666991E+02 0.  0.
    5000000    2    1    2    0    0  0.66214182256E+03 -0.10460789502E+04  0.19734916466E+03  0.13898738141E+04  0.60007463146E+03 0.  0.
         23    2    4    4    0    0  0.43284506680E+03 -0.38086273349E+03 -0.14589731830E+03  0.60166362014E+03  0.91114272734E+02 0.  0.
         23    2    4    4    0    0  0.22929675576E+03 -0.66521621667E+03  0.34324648295E+03  0.78821019401E+03  0.91474284723E+02 0.  0.
          5    1    3    3  502    0 -0.22493852622E+03  0.27814631464E+03 -0.63114412032E+03  0.72548446127E+03  0.47000000000E+01 0. -1.
         -5    1    3    3    0  502 -0.43720329635E+03  0.76793263552E+03 -0.15708836513E+04  0.18023775384E+04  0.47000000000E+01 0.  1.
         13    1    5    5    0    0  0.31093084161E+03 -0.28827334329E+03 -0.66421621956E+02  0.42917518635E+03  0.00000000000E+00 0. -1.
        -13    1    5    5    0    0  0.12191422519E+03 -0.92589390198E+02 -0.79475696340E+02  0.17248843378E+03  0.00000000000E+00 0.  1.
          4    1    6    6  503    0  0.11288140675E+03 -0.19677779418E+03  0.10856603057E+03  0.25149611381E+03  0.00000000000E+00 0. -1.
         -4    1    6    6    0  503  0.11641534901E+03 -0.46843842249E+03  0.23468045238E+03  0.53671408020E+03  0.00000000000E+00 0.  1.
<mgrwt>
<rscale>  0 0.12640323E+04</rscale>
<asrwt>0</asrwt>
<pdfrwt beam="1">  1        2 0.45557033E+00 0.12640323E+04</pdfrwt>
<pdfrwt beam="2">  1       -2 0.14715825E+00 0.12640323E+04</pdfrwt>
<totfact> 0.56617442E-01</totfact>
</mgrwt>
</event>
<event>
12    1  0.3147868E-008  0.1250530E+04  0.7818608E-02  0.9069742E-01
         -2   -1    0    0    0  501 -0.00000000000E+00  0.00000000000E+00  0.96035076794E+03  0.96035076794E+03  0.00000000000E+00 0.  1.
          2   -1    0    0  501    0  0.00000000000E+00 -0.00000000000E+00 -0.17230672344E+04  0.17230672344E+04  0.00000000000E+00 0. -1.
         23    2    1    2    0    0 -0.23032359470E+03 -0.11809460413E+04 -0.53346774646E+03  0.13194269951E+04  0.92829134686E+02 0.  0.
    5000000    2    1    2    0    0  0.23032359470E+03  0.11809460413E+04 -0.22924872004E+03  0.13639910072E+04  0.60019495291E+03 0.  0.
         23    2    4    4    0    0  0.10887795779E+03  0.23627405558E+02  0.71471122573E+02  0.15807662581E+03  0.86414317567E+02 0.  0.
         23    2    4    4    0    0  0.12144563691E+03  0.11573186357E+04 -0.30071984261E+03  0.12059143814E+04  0.98293459981E+02 0.  0.
          5    1    3    3  502    0 -0.13523568999E+03 -0.69391542739E+03 -0.36287939605E+03  0.79467657465E+03  0.47000000000E+01 0. -1.
         -5    1    3    3    0  502 -0.95087904706E+02 -0.48703061390E+03 -0.17058835041E+03  0.52475042048E+03  0.47000000000E+01 0.  1.
         11    1    5    5    0    0  0.10866796143E+03 -0.72131275290E+00  0.76902420798E+02  0.13312861623E+03  0.00000000000E+00 0. -1.
        -11    1    5    5    0    0  0.20999635779E+00  0.24348718310E+02 -0.54312982256E+01  0.24948009585E+02  0.00000000000E+00 0.  1.
          3    1    6    6  503    0  0.55208016315E+02  0.76007657889E+03 -0.23768394997E+03  0.79828440478E+03  0.00000000000E+00 0. -1.
         -3    1    6    6    0  503  0.66237620594E+02  0.39724205684E+03 -0.63035892639E+02  0.40762997665E+03  0.00000000000E+00 0.  1.
<mgrwt>
<rscale>  0 0.12505301E+04</rscale>
<asrwt>0</asrwt>
<pdfrwt beam="1">  1        2 0.26508727E+00 0.12505301E+04</pdfrwt>
<pdfrwt beam="2">  1       -2 0.14774627E+00 0.12505301E+04</pdfrwt>
<totfact> 0.28726860E+00</totfact>
</mgrwt>
</event>
<event>
12    1  0.3147868E-008  0.1008912E+04  0.7818608E-02  0.9298824E-01
          2   -1    0    0  501    0  0.00000000000E+00  0.00000000000E+00  0.21806798399E+04  0.21806798399E+04  0.00000000000E+00 0.  1.
         -2   -1    0    0    0  501 -0.00000000000E+00 -0.00000000000E+00 -0.64435380450E+03  0.64435380450E+03  0.00000000000E+00 0. -1.
         23    2    1    2    0    0 -0.73819264821E+03  0.67255329912E+03  0.12906109526E+04  0.16343778522E+04  0.90873576373E+02 0.  0.
    5000000    2    1    2    0    0  0.73819264821E+03 -0.67255329912E+03  0.24571508283E+03  0.11906557922E+04  0.60002415581E+03 0.  0.
         23    2    4    4    0    0  0.18591537324E+03 -0.24924249707E+03  0.35359447983E+03  0.48046588436E+03  0.95561820392E+02 0.  0.
         23    2    4    4    0    0  0.55227727496E+03 -0.42331080205E+03 -0.10787939700E+03  0.71018990784E+03  0.92355386030E+02 0.  0.
          5    1    3    3  502    0 -0.16924767415E+03  0.20022629058E+03  0.30533200672E+03  0.40247368482E+03  0.47000000000E+01 0. -1.
         -5    1    3    3    0  502 -0.56894497406E+03  0.47232700854E+03  0.98527894589E+03  0.12319041674E+04  0.47000000000E+01 0.  1.
         11    1    5    5    0    0  0.30627827582E+02 -0.13606499552E+02  0.82923197405E+02  0.89439685377E+02  0.00000000000E+00 0.  1.
        -11    1    5    5    0    0  0.15528754566E+03 -0.23563599752E+03  0.27067128242E+03  0.39102619898E+03  0.00000000000E+00 0. -1.
          3    1    6    6  503    0  0.37140204557E+03 -0.23602890670E+03 -0.45088910648E+02  0.44235973383E+03  0.00000000000E+00 0. -1.
         -3    1    6    6    0  503  0.18087522940E+03 -0.18728189535E+03 -0.62790486352E+02  0.26783017401E+03  0.00000000000E+00 0.  1.
<mgrwt>
<rscale>  0 0.10089117E+04</rscale>
<asrwt>0</asrwt>
<pdfrwt beam="1">  1        2 0.33548920E+00 0.10089117E+04</pdfrwt>
<pdfrwt beam="2">  1       -2 0.99131356E-01 0.10089117E+04</pdfrwt>
<totfact> 0.44737313E+00</totfact>
</mgrwt>
</event>
<event>
12    1  0.3147868E-008  0.1182594E+04  0.7818608E-02  0.9128230E-01
         -1   -1    0    0    0  501 -0.00000000000E+00  0.00000000000E+00  0.14631759811E+04  0.14631759811E+04  0.00000000000E+00 0.  1.
          1   -1    0    0  501    0  0.00000000000E+00 -0.00000000000E+00 -0.10054610227E+04  0.10054610227E+04  0.00000000000E+00 0. -1.
         23    2    1    2    0    0  0.79575331783E+03  0.76916336502E+03 -0.49324947021E+02  0.11115012953E+04  0.90368988888E+02 0.  0.
    5000000    2    1    2    0    0 -0.79575331783E+03 -0.76916336502E+03  0.50703990547E+03  0.13571357085E+04  0.59991019369E+03 0.  0.
         23    2    4    4    0    0 -0.10047606773E+03  0.80153284533E+02  0.60646910695E+02  0.16871331573E+03  0.90918347542E+02 0.  0.
         23    2    4    4    0    0 -0.69527725010E+03 -0.84931664955E+03  0.44639299477E+03  0.11884223927E+04  0.91278979104E+02 0.  0.
          5    1    3    3  502    0  0.39193201223E+03  0.32399888178E+03 -0.13588392982E+01  0.50853703311E+03  0.47000000000E+01 0. -1.
         -5    1    3    3    0  502  0.40382130560E+03  0.44516448325E+03 -0.47966107723E+02  0.60296426220E+03  0.47000000000E+01 0.  1.
         11    1    5    5    0    0 -0.88499224557E+02  0.16031297172E+02  0.20930913976E+02  0.92342939070E+02  0.00000000000E+00 0.  1.
        -11    1    5    5    0    0 -0.11976843170E+02  0.64121987361E+02  0.39715996719E+02  0.76370376658E+02  0.00000000000E+00 0. -1.
          1    1    6    6  503    0 -0.46906708128E+03 -0.51306415897E+03  0.25783909609E+03  0.74144437244E+03  0.00000000000E+00 0. -1.
         -1    1    6    6    0  503 -0.22621016882E+03 -0.33625249059E+03  0.18855389868E+03  0.44697802028E+03  0.00000000000E+00 0.  1.
<mgrwt>
<rscale>  0 0.11825943E+04</rscale>
<asrwt>0</asrwt>
<pdfrwt beam="1">  1        1 0.15468631E+00 0.11825943E+04</pdfrwt>
<pdfrwt beam="2">  1       -1 0.22510400E+00 0.11825943E+04</pdfrwt>
<totfact> 0.14988802E+00</totfact>
</mgrwt>
</event>
<event>
12    1  0.3147868E-008  0.1440444E+04  0.7818608E-02  0.8925053E-01
         -2   -1    0    0    0  501 -0.00000000000E+00  0.00000000000E+00  0.11804424346E+04  0.11804424346E+04  0.00000000000E+00 0.  1.
          2   -1    0    0  501    0  0.00000000000E+00 -0.00000000000E+00 -0.25429535932E+04  0.25429535932E+04  0.00000000000E+00 0. -1.
         23    2    1    2    0    0  0.78206122940E+03  0.11630307812E+04  0.33280610720E+03  0.14434320856E+04  0.92064739034E+02 0.  0.
    5000000    2    1    2    0    0 -0.78206122940E+03 -0.11630307812E+04 -0.16953172658E+04  0.22799639422E+04  0.59989547524E+03 0.  0.
         23    2    4    4    0    0 -0.63495238445E+03 -0.53303965389E+03 -0.69748331856E+03  0.10872828144E+04  0.91679526557E+02 0.  0.
         23    2    4    4    0    0 -0.14710884495E+03 -0.62999112731E+03 -0.99783394726E+03  0.11926811278E+04  0.91026664006E+02 0.  0.
          5    1    3    3  502    0  0.68911278622E+03  0.10307424157E+04  0.26413763603E+03  0.12677133511E+04  0.47000000000E+01 0. -1.
         -5    1    3    3    0  502  0.92948443186E+02  0.13228836548E+03  0.68668471172E+02  0.17571873453E+03  0.47000000000E+01 0.  1.
         13    1    5    5    0    0 -0.28848523782E+03 -0.28800862200E+03 -0.30335311078E+03  0.50812971632E+03  0.00000000000E+00 0.  1.
        -13    1    5    5    0    0 -0.34646714664E+03 -0.24503103189E+03 -0.39413020778E+03  0.57915309804E+03  0.00000000000E+00 0. -1.
          3    1    6    6  503    0 -0.46774439473E+02 -0.24320673148E+03 -0.46279656811E+03  0.52489810999E+03  0.00000000000E+00 0. -1.
         -3    1    6    6    0  503 -0.10033440548E+03 -0.38678439584E+03 -0.53503737915E+03  0.66778301781E+03  0.00000000000E+00 0.  1.
<mgrwt>
<rscale>  0 0.14404436E+04</rscale>
<asrwt>0</asrwt>
<pdfrwt beam="1">  1        2 0.39122363E+00 0.14404436E+04</pdfrwt>
<pdfrwt beam="2">  1       -2 0.18160653E+00 0.14404436E+04</pdfrwt>
<totfact> 0.55049454E-01</totfact>
</mgrwt>
</event>
<event>
12    1  0.3147868E-008  0.6301656E+03  0.7818608E-02  0.9844726E-01
         -1   -1    0    0    0  501 -0.00000000000E+00  0.00000000000E+00  0.21040529103E+03  0.21040529103E+03  0.00000000000E+00 0.  1.
          1   -1    0    0  501    0  0.00000000000E+00 -0.00000000000E+00 -0.29130101429E+04  0.29130101429E+04  0.00000000000E+00 0. -1.
         23    2    1    2    0    0  0.41854593997E+03  0.24977848349E+03 -0.20581245814E+04  0.21169612467E+04  0.89878434287E+02 0.  0.
    5000000    2    1    2    0    0 -0.41854593997E+03 -0.24977848349E+03 -0.64448027050E+03  0.10064541872E+04  0.60002101400E+03 0.  0.
         23    2    4    4    0    0 -0.51837690735E+03 -0.32418320254E+03 -0.49585809640E+03  0.79261696666E+03  0.92504255017E+02 0.  0.
         23    2    4    4    0    0  0.99830967380E+02  0.74404719047E+02 -0.14862217411E+03  0.21383722057E+03  0.90197128549E+02 0.  0.
          5    1    3    3  502    0  0.20563398365E+03  0.17017261153E+03 -0.10342314604E+04  0.10681296067E+04  0.47000000000E+01 0. -1.
         -5    1    3    3    0  502  0.21291195632E+03  0.79605871957E+02 -0.10238931210E+04  0.10488316400E+04  0.47000000000E+01 0.  1.
         13    1    5    5    0    0 -0.22039400247E+03 -0.18054218404E+03 -0.26622013927E+03  0.38992583795E+03  0.00000000000E+00 0. -1.
        -13    1    5    5    0    0 -0.29798290487E+03 -0.14364101850E+03 -0.22963795713E+03  0.40269112871E+03  0.00000000000E+00 0.  1.
          4    1    6    6  503    0  0.44164472955E+02 -0.13578925099E+02 -0.26151571657E+02  0.53092302440E+02  0.00000000000E+00 0. -1.
         -4    1    6    6    0  503  0.55666494424E+02  0.87983644146E+02 -0.12247060245E+03  0.16074491813E+03  0.00000000000E+00 0.  1.
<mgrwt>
<rscale>  0 0.63016561E+03</rscale>
<asrwt>0</asrwt>
<pdfrwt beam="1">  1        1 0.44815539E+00 0.63016561E+03</pdfrwt>
<pdfrwt beam="2">  1       -1 0.32370046E-01 0.63016561E+03</pdfrwt>
<totfact> 0.67159989E+00</totfact>
</mgrwt>
</event>
<event>
12    1  0.3147868E-008  0.5195707E+03  0.7818608E-02  0.1008793E+00
         -2   -1    0    0    0  501 -0.00000000000E+00  0.00000000000E+00  0.77132266270E+03  0.77132266270E+03  0.00000000000E+00 0. -1.
          2   -1    0    0  501    0  0.00000000000E+00 -0.00000000000E+00 -0.40318090624E+03  0.40318090624E+03  0.00000000000E+00 0.  1.
         23    2    1    2    0    0 -0.11204708861E+03  0.34339463796E+03  0.28621245651E+03  0.46931863938E+03  0.88701677311E+02 0.  0.
    5000000    2    1    2    0    0  0.11204708861E+03 -0.34339463796E+03  0.81929299949E+02  0.70518492956E+03  0.60008245037E+03 0.  0.
         23    2    4    4    0    0 -0.21372904387E+03 -0.26926770033E+02  0.54053343342E+02  0.24117397812E+03  0.94010471002E+02 0.  0.
         23    2    4    4    0    0  0.32577613248E+03 -0.31646786793E+03  0.27875956607E+02  0.46401095144E+03  0.90813513160E+02 0.  0.
          5    1    3    3  502    0 -0.19637848797E+02  0.12816430591E+03  0.57512370262E+02  0.14192074249E+03  0.47000000000E+01 0. -1.
         -5    1    3    3    0  502 -0.92409239811E+02  0.21523033205E+03  0.22870008625E+03  0.32739789689E+03  0.47000000000E+01 0.  1.
         13    1    5    5    0    0 -0.89849047947E+02 -0.20680951210E+02  0.70482707069E+02  0.11605328585E+03  0.00000000000E+00 0. -1.
        -13    1    5    5    0    0 -0.12387999592E+03 -0.62458188234E+01 -0.16429363727E+02  0.12512069227E+03  0.00000000000E+00 0.  1.
          1    1    6    6  503    0  0.66454065980E+02 -0.10503247422E+03  0.35735331327E+02  0.12932508430E+03  0.00000000000E+00 0. -1.
         -1    1    6    6    0  503  0.25932206650E+03 -0.21143539371E+03 -0.78593747194E+01  0.33468586713E+03  0.00000000000E+00 0.  1.
<mgrwt>
<rscale>  0 0.51957065E+03</rscale>
<asrwt>0</asrwt>
<pdfrwt beam="1">  1        2 0.62027832E-01 0.51957065E+03</pdfrwt>
<pdfrwt beam="2">  1       -2 0.11866502E+00 0.51957065E+03</pdfrwt>
<totfact> 0.44302330E+01</totfact>
</mgrwt>
</event>
<event>
12    1  0.3147868E-008  0.2196113E+04  0.7818608E-02  0.8520048E-01
          2   -1    0    0  501    0  0.00000000000E+00  0.00000000000E+00  0.37089757205E+04  0.37089757205E+04  0.00000000000E+00 0. -1.
         -2   -1    0    0    0  501 -0.00000000000E+00 -0.00000000000E+00 -0.15292680101E+04  0.15292680101E+04  0.00000000000E+00 0.  1.
         23    2    1    2    0    0 -0.27549370705E+03  0.21540440365E+04  0.20402738740E+04  0.29810609276E+04  0.90577478381E+02 0.  0.
    5000000    2    1    2    0    0  0.27549370705E+03 -0.21540440365E+04  0.13943383637E+03  0.22571828030E+04  0.59969151871E+03 0.  0.
         23    2    4    4    0    0  0.28804718737E+03 -0.61291349172E+03 -0.11401055723E+03  0.69285803713E+03  0.91759042943E+02 0.  0.
         23    2    4    4    0    0 -0.12553480324E+02 -0.15411305448E+04  0.25344439361E+03  0.15643247658E+04  0.87389739376E+02 0.  0.
          5    1    3    3  502    0 -0.68153609021E+02  0.79776047177E+03  0.71429411590E+03  0.10729887505E+04  0.47000000000E+01 0. -1.
         -5    1    3    3    0  502 -0.20734009803E+03  0.13562835647E+04  0.13259797581E+04  0.19080721771E+04  0.47000000000E+01 0.  1.
         13    1    5    5    0    0  0.78603576174E+02 -0.17624207175E+03 -0.74819321781E+02  0.20697275413E+03  0.00000000000E+00 0.  1.
        -13    1    5    5    0    0  0.20944361120E+03 -0.43667141997E+03 -0.39191235453E+02  0.48588528299E+03  0.00000000000E+00 0. -1.
          4    1    6    6  503    0 -0.28770763191E+02 -0.42618963490E+03  0.40078577287E+02  0.42903572586E+03  0.00000000000E+00 0.  1.
         -4    1    6    6    0  503  0.16217282867E+02 -0.11149409099E+04  0.21336581632E+03  0.11352890400E+04  0.00000000000E+00 0. -1.
<mgrwt>
<rscale>  0 0.21961127E+04</rscale>
<asrwt>0</asrwt>
<pdfrwt beam="1">  1        2 0.57061165E+00 0.21961127E+04</pdfrwt>
<pdfrwt beam="2">  1       -2 0.23527200E+00 0.21961127E+04</pdfrwt>
<totfact> 0.39737723E-02</totfact>
</mgrwt>
</event>
<event>
12    1  0.3147868E-008  0.5045793E+03  0.7818608E-02  0.1012591E+00
         -2   -1    0    0    0  501 -0.00000000000E+00  0.00000000000E+00  0.94450638986E+03  0.94450638986E+03  0.00000000000E+00 0.  1.
          2   -1    0    0  501    0  0.00000000000E+00 -0.00000000000E+00 -0.51719856098E+03  0.51719856098E+03  0.00000000000E+00 0. -1.
         23    2    1    2    0    0  0.35560090650E+03  0.11633154970E+03 -0.26900327772E+03  0.46886735670E+03  0.86537856452E+02 0.  0.
    5000000    2    1    2    0    0 -0.35560090650E+03 -0.11633154970E+03  0.69631110659E+03  0.99283759414E+03  0.60074312066E+03 0.  0.
         23    2    4    4    0    0 -0.47684966844E+03 -0.80117854899E+02  0.32506179422E+03  0.59017191786E+03  0.93985347805E+02 0.  0.
         23    2    4    4    0    0  0.12124876194E+03 -0.36213694802E+02  0.37124931237E+03  0.40266567628E+03  0.91109280314E+02 0.  0.
          5    1    3    3  502    0  0.21602419492E+03  0.52724470958E+02 -0.20539984544E+03  0.30274991186E+03  0.47000000000E+01 0. -1.
         -5    1    3    3    0  502  0.13957671158E+03  0.63607078742E+02 -0.63603432281E+02  0.16611744484E+03  0.47000000000E+01 0.  1.
         13    1    5    5    0    0 -0.23280028513E+02 -0.15292082207E+02  0.45770956449E+02  0.53579734603E+02  0.00000000000E+00 0. -1.
        -13    1    5    5    0    0 -0.45356963992E+03 -0.64825772691E+02  0.27929083777E+03  0.53659218326E+03  0.00000000000E+00 0.  1.
          4    1    6    6  503    0  0.61226938318E+02  0.20606892709E+02  0.23110758248E+03  0.23996686580E+03  0.00000000000E+00 0. -1.
         -4    1    6    6    0  503  0.60021823622E+02 -0.56820587511E+02  0.14014172989E+03  0.16269881048E+03  0.00000000000E+00 0.  1.
<mgrwt>
<rscale>  0 0.50457933E+03</rscale>
<asrwt>0</asrwt>
<pdfrwt beam="1">  1        2 0.79569010E-01 0.50457933E+03</pdfrwt>
<pdfrwt beam="2">  1       -2 0.14530868E+00 0.50457933E+03</pdfrwt>
<totfact> 0.20064733E+01</totfact>
</mgrwt>
</event>
<event>
12    1  0.3147868E-008  0.9475369E+03  0.7818608E-02  0.9368034E-01
         -2   -1    0    0    0  501 -0.00000000000E+00  0.00000000000E+00  0.80199333241E+03  0.80199333241E+03  0.00000000000E+00 0.  1.
          2   -1    0    0  501    0  0.00000000000E+00 -0.00000000000E+00 -0.19760726455E+04  0.19760726455E+04  0.00000000000E+00 0. -1.
         23    2    1    2    0    0  0.28782705327E+03 -0.80888313591E+03 -0.14566034187E+04  0.16931286020E+04  0.88626201238E+02 0.  0.
    5000000    2    1    2    0    0 -0.28782705327E+03  0.80888313591E+03  0.28252410562E+03  0.10849373759E+04  0.60011073904E+03 0.  0.
         23    2    4    4    0    0  0.17028321471E+03  0.25140757256E+03  0.46892475550E+02  0.32055882557E+03  0.91416167240E+02 0.  0.
         23    2    4    4    0    0 -0.45811026798E+03  0.55747556335E+03  0.23563163007E+03  0.76437855029E+03  0.90045997654E+02 0.  0.
          5    1    3    3  502    0  0.12615267900E+03 -0.34477712324E+03 -0.53866325977E+03  0.65189413293E+03  0.47000000000E+01 0. -1.
         -5    1    3    3    0  502  0.16167437427E+03 -0.46410601267E+03 -0.91794015889E+03  0.10412344691E+04  0.47000000000E+01 0.  1.
         11    1    5    5    0    0  0.30709027847E+02  0.11358879574E+03  0.40026603942E+02  0.12428832581E+03  0.00000000000E+00 0. -1.
        -11    1    5    5    0    0  0.13957418686E+03  0.13781877682E+03  0.68658716075E+01  0.19627049976E+03  0.00000000000E+00 0.  1.
          1    1    6    6  503    0 -0.48571346435E+02  0.79694462305E+02  0.60343476311E+02  0.11113828391E+03  0.00000000000E+00 0. -1.
         -1    1    6    6    0  503 -0.40953892154E+03  0.47778110104E+03  0.17528815376E+03  0.65324026638E+03  0.00000000000E+00 0.  1.
<mgrwt>
<rscale>  0 0.94753691E+03</rscale>
<asrwt>0</asrwt>
<pdfrwt beam="1">  1        2 0.30401118E+00 0.94753691E+03</pdfrwt>
<pdfrwt beam="2">  1       -2 0.12338359E+00 0.94753691E+03</pdfrwt>
<totfact> 0.34313097E+00</totfact>
</mgrwt>
</event>
<event>
12    1  0.3147868E-008  0.1202100E+04  0.7818608E-02  0.9111020E-01
         -2   -1    0    0    0  501 -0.00000000000E+00  0.00000000000E+00  0.68088110576E+03  0.68088110576E+03  0.00000000000E+00 0.  1.
          2   -1    0    0  501    0  0.00000000000E+00 -0.00000000000E+00 -0.25179033950E+04  0.25179033950E+04  0.00000000000E+00 0. -1.
         23    2    1    2    0    0  0.10711209436E+04 -0.46897112676E+03 -0.37131525237E+03  0.12301479823E+04  0.90305305238E+02 0.  0.
    5000000    2    1    2    0    0 -0.10711209436E+04  0.46897112676E+03 -0.14657070369E+04  0.19686365185E+04  0.59999885879E+03 0.  0.
         23    2    4    4    0    0 -0.94054666291E+03  0.25038174022E+03 -0.13671257770E+04  0.16806846603E+04  0.91372842397E+02 0.  0.
         23    2    4    4    0    0 -0.13057428065E+03  0.21858938654E+03 -0.98581259867E+02  0.28795185818E+03  0.91471553805E+02 0.  0.
          5    1    3    3  502    0  0.74652782248E+03 -0.37105621207E+03 -0.26026737583E+03  0.87335428045E+03  0.47000000000E+01 0. -1.
         -5    1    3    3    0  502  0.32459312108E+03 -0.97914914688E+02 -0.11104787654E+03  0.35679370182E+03  0.47000000000E+01 0.  1.
         11    1    5    5    0    0 -0.17708799599E+03  0.70480041290E+02 -0.22067867942E+03  0.29159333685E+03  0.00000000000E+00 0. -1.
        -11    1    5    5    0    0 -0.76345866692E+03  0.17990169893E+03 -0.11464470976E+04  0.13890913235E+04  0.00000000000E+00 0.  1.
          4    1    6    6  503    0 -0.20550721780E+02  0.60403521351E+02 -0.67310206494E+02  0.92744711200E+02  0.00000000000E+00 0. -1.
         -4    1    6    6    0  503 -0.11002355887E+03  0.15818586519E+03 -0.31271053373E+02  0.19520714697E+03  0.00000000000E+00 0.  1.
<mgrwt>
<rscale>  0 0.12021002E+04</rscale>
<asrwt>0</asrwt>
<pdfrwt beam="1">  1        2 0.38736975E+00 0.12021002E+04</pdfrwt>
<pdfrwt beam="2">  1       -2 0.10475094E+00 0.12021002E+04</pdfrwt>
<totfact> 0.24691826E+00</totfact>
</mgrwt>
</event>
<event>
12    1  0.3147868E-008  0.6530705E+03  0.7818608E-02  0.9801035E-01
          1   -1    0    0  501    0  0.00000000000E+00  0.00000000000E+00  0.60989490374E+03  0.60989490374E+03  0.00000000000E+00 0. -1.
         -1   -1    0    0    0  501 -0.00000000000E+00 -0.00000000000E+00 -0.72977924073E+03  0.72977924073E+03  0.00000000000E+00 0.  1.
         23    2    1    2    0    0 -0.48859122391E+02 -0.52518256788E+03 -0.38085744046E+02  0.53661644172E+03  0.91119362272E+02 0.  0.
    5000000    2    1    2    0    0  0.48859122391E+02  0.52518256788E+03 -0.81798592946E+02  0.80305770274E+03  0.60000560054E+03 0.  0.
         23    2    4    4    0    0  0.27964352604E+03  0.14069158470E+03  0.43802294930E+02  0.32856216397E+03  0.89665104074E+02 0.  0.
         23    2    4    4    0    0 -0.23078440365E+03  0.38449098318E+03 -0.12560088788E+03  0.47449553877E+03  0.90970743448E+02 0.  0.
          5    1    3    3  502    0  0.18221057238E+02 -0.97910171112E+02  0.15056450768E+02  0.10083251085E+03  0.47000000000E+01 0. -1.
         -5    1    3    3    0  502 -0.67080179629E+02 -0.42727239677E+03 -0.53142194813E+02  0.43578393088E+03  0.47000000000E+01 0.  1.
         11    1    5    5    0    0  0.19876589212E+03  0.52827552261E+02  0.36831873076E+02  0.20893830913E+03  0.00000000000E+00 0. -1.
        -11    1    5    5    0    0  0.80877633921E+02  0.87864032444E+02  0.69704218542E+01  0.11962385484E+03  0.00000000000E+00 0.  1.
          4    1    6    6  503    0 -0.11631237517E+03  0.17576580460E+03 -0.10521869019E+03  0.23556986108E+03  0.00000000000E+00 0. -1.
         -4    1    6    6    0  503 -0.11447202848E+03  0.20872517857E+03 -0.20382197687E+02  0.23892567769E+03  0.00000000000E+00 0.  1.
<mgrwt>
<rscale>  0 0.65307047E+03</rscale>
<asrwt>0</asrwt>
<pdfrwt beam="1">  1        1 0.93829985E-01 0.65307047E+03</pdfrwt>
<pdfrwt beam="2">  1       -1 0.11227373E+00 0.65307047E+03</pdfrwt>
<totfact> 0.25201916E+01</totfact>
</mgrwt>
</event>
<event>
12    1  0.3147868E-008  0.4984400E+03  0.7818608E-02  0.1014187E+00
          2   -1    0    0  501    0  0.00000000000E+00  0.00000000000E+00  0.13367020207E+04  0.13367020207E+04  0.00000000000E+00 0. -1.
         -2   -1    0    0    0  501 -0.00000000000E+00 -0.00000000000E+00 -0.23938049959E+03  0.23938049959E+03  0.00000000000E+00 0.  1.
         23    2    1    2    0    0  0.23844859850E+03  0.20783985077E+03  0.56376929980E+02  0.33367069615E+03  0.90014651793E+02 0.  0.
    5000000    2    1    2    0    0 -0.23844859850E+03 -0.20783985077E+03  0.10409445912E+04  0.12424118242E+04  0.59997196709E+03 0.  0.
         23    2    4    4    0    0  0.11061820267E+03 -0.27875455998E+03  0.48304692793E+03  0.57548310819E+03  0.88915587862E+02 0.  0.
         23    2    4    4    0    0 -0.34906680116E+03  0.70914709208E+02  0.55789766325E+03  0.66692871599E+03  0.81655262553E+02 0.  0.
          5    1    3    3  502    0  0.18513306342E+03  0.10643827082E+03  0.26948363386E+02  0.21529435886E+03  0.47000000000E+01 0. -1.
         -5    1    3    3    0  502  0.53315535075E+02  0.10140157996E+03  0.29428566594E+02  0.11837633729E+03  0.47000000000E+01 0.  1.
         11    1    5    5    0    0  0.11388936861E+03 -0.24171300277E+03  0.45927938261E+03  0.53135065191E+03  0.00000000000E+00 0.  1.
        -11    1    5    5    0    0 -0.32711659477E+01 -0.37041557215E+02  0.23767545314E+02  0.44132456286E+02  0.00000000000E+00 0. -1.
          1    1    6    6  503    0 -0.22125219753E+03  0.70827320472E+01  0.31225675775E+03  0.38276230583E+03  0.00000000000E+00 0. -1.
         -1    1    6    6    0  503 -0.12781460363E+03  0.63831977161E+02  0.24564090549E+03  0.28416641016E+03  0.00000000000E+00 0.  1.
<mgrwt>
<rscale>  0 0.49844001E+03</rscale>
<asrwt>0</asrwt>
<pdfrwt beam="1">  1        2 0.20564646E+00 0.49844001E+03</pdfrwt>
<pdfrwt beam="2">  1       -2 0.36827770E-01 0.49844001E+03</pdfrwt>
<totfact> 0.11390070E+02</totfact>
</mgrwt>
</event>
<event>
12    1  0.3147868E-008  0.4977101E+03  0.7818608E-02  0.1014378E+00
          2   -1    0    0  501    0  0.00000000000E+00  0.00000000000E+00  0.51901478252E+03  0.51901478252E+03  0.00000000000E+00 0. -1.
         -2   -1    0    0    0  501 -0.00000000000E+00 -0.00000000000E+00 -0.59714020214E+03  0.59714020214E+03  0.00000000000E+00 0.  1.
         23    2    1    2    0    0 -0.35835973357E+03  0.12258488233E+03 -0.11002547654E+03  0.40542660961E+03  0.93895571125E+02 0.  0.
    5000000    2    1    2    0    0  0.35835973357E+03 -0.12258488233E+03  0.31900056917E+02  0.71072837504E+03  0.60055678952E+03 0.  0.
         23    2    4    4    0    0 -0.34479127484E+02  0.13415385223E+03  0.14471363648E+03  0.21956012812E+03  0.89880737513E+02 0.  0.
         23    2    4    4    0    0  0.39283886105E+03 -0.25673873456E+03 -0.11281357956E+03  0.49116824693E+03  0.91006562828E+02 0.  0.
          5    1    3    3  502    0 -0.11057194313E+03  0.61015048795E+02 -0.76865419510E+02  0.14791677898E+03  0.47000000000E+01 0. -1.
         -5    1    3    3    0  502 -0.24778779044E+03  0.61569833540E+02 -0.33160057027E+02  0.25750983064E+03  0.47000000000E+01 0.  1.
         13    1    5    5    0    0 -0.22505203494E+02  0.90453540774E+02  0.32786628041E+02  0.98809362923E+02  0.00000000000E+00 0.  1.
        -13    1    5    5    0    0 -0.11973923990E+02  0.43700311455E+02  0.11192700844E+03  0.12075076520E+03  0.00000000000E+00 0. -1.
          4    1    6    6  503    0  0.31958909566E+02 -0.49742370255E+02  0.33652255707E+01  0.59219929435E+02  0.00000000000E+00 0. -1.
         -4    1    6    6    0  503  0.36087995148E+03 -0.20699636431E+03 -0.11617880513E+03  0.43194831749E+03  0.00000000000E+00 0.  1.
<mgrwt>
<rscale>  0 0.49771007E+03</rscale>
<asrwt>0</asrwt>
<pdfrwt beam="1">  1        2 0.79848428E-01 0.49771007E+03</pdfrwt>
<pdfrwt beam="2">  1       -2 0.91867723E-01 0.49771007E+03</pdfrwt>
<totfact> 0.61280337E+01</totfact>
</mgrwt>
</event>
<event>
12    1  0.3147868E-008  0.5237500E+03  0.7818608E-02  0.1007759E+00
         -2   -1    0    0    0  501 -0.00000000000E+00  0.00000000000E+00  0.91468002331E+02  0.91468002331E+02  0.00000000000E+00 0.  1.
          2   -1    0    0  501    0  0.00000000000E+00 -0.00000000000E+00 -0.33571481658E+04  0.33571481658E+04  0.00000000000E+00 0. -1.
         23    2    1    2    0    0 -0.36181883617E+03  0.12770397769E+02 -0.76145667041E+03  0.84818758237E+03  0.92357786423E+02 0.  0.
    5000000    2    1    2    0    0  0.36181883617E+03 -0.12770397769E+02 -0.25042234931E+04  0.26004285858E+04  0.60001464414E+03 0.  0.
         23    2    4    4    0    0 -0.26153288446E+01  0.23147797153E+03 -0.76277744083E+03  0.80229473265E+03  0.90876413633E+02 0.  0.
         23    2    4    4    0    0  0.36443416501E+03 -0.24424836930E+03 -0.17414460523E+04  0.17981338532E+04  0.90451502632E+02 0.  0.
          5    1    3    3  502    0 -0.18555844991E+03 -0.28860380825E+02 -0.32097686579E+03  0.37190468978E+03  0.47000000000E+01 0. -1.
         -5    1    3    3    0  502 -0.17626038626E+03  0.41630778593E+02 -0.44047980462E+03  0.47628289258E+03  0.47000000000E+01 0.  1.
         11    1    5    5    0    0 -0.70673108640E+01  0.12225659455E+02 -0.78415493667E+01  0.16152508425E+02  0.00000000000E+00 0. -1.
        -11    1    5    5    0    0  0.44519820194E+01  0.21925231207E+03 -0.75493589146E+03  0.78614222423E+03  0.00000000000E+00 0.  1.
          3    1    6    6  503    0  0.10869287654E+03 -0.11599842003E+03 -0.52760397709E+03  0.55103151589E+03  0.00000000000E+00 0. -1.
         -3    1    6    6    0  503  0.25574128847E+03 -0.12824994927E+03 -0.12138420752E+04  0.12471023373E+04  0.00000000000E+00 0.  1.
<mgrwt>
<rscale>  0 0.52375005E+03</rscale>
<asrwt>0</asrwt>
<pdfrwt beam="1">  1        2 0.51648439E+00 0.52375005E+03</pdfrwt>
<pdfrwt beam="2">  1       -2 0.14071999E-01 0.52375005E+03</pdfrwt>
<totfact> 0.44387237E+01</totfact>
</mgrwt>
</event>
<event>
12    1  0.3147868E-008  0.7197756E+03  0.7818608E-02  0.9683998E-01
          2   -1    0    0  501    0  0.00000000000E+00  0.00000000000E+00  0.12846109436E+04  0.12846109436E+04  0.00000000000E+00 0. -1.
         -2   -1    0    0    0  501 -0.00000000000E+00 -0.00000000000E+00 -0.64551158276E+03  0.64551158276E+03  0.00000000000E+00 0.  1.
         23    2    1    2    0    0 -0.42750493916E+02 -0.65452566498E+03  0.78796603057E+03  0.10287450123E+04  0.84819716118E+02 0.  0.
    5000000    2    1    2    0    0  0.42750493916E+02  0.65452566498E+03 -0.14886666975E+03  0.90137751400E+03  0.60007390090E+03 0.  0.
         23    2    4    4    0    0  0.17741264475E+03  0.13488607277E+03 -0.25080732253E+03  0.34732512977E+03  0.89782702078E+02 0.  0.
         23    2    4    4    0    0 -0.13466215083E+03  0.51963959221E+03  0.10194065278E+03  0.55405238423E+03  0.91776615344E+02 0.  0.
          5    1    3    3  502    0 -0.17460785044E+02 -0.33761254832E+03  0.34074364217E+03  0.48001607419E+03  0.47000000000E+01 0. -1.
         -5    1    3    3    0  502 -0.25289708873E+02 -0.31691311666E+03  0.44722238840E+03  0.54872893816E+03  0.47000000000E+01 0.  1.
         11    1    5    5    0    0  0.14624941615E+03  0.58435285943E+02 -0.17156510704E+03  0.23289087642E+03  0.00000000000E+00 0.  1.
        -11    1    5    5    0    0  0.31163228593E+02  0.76450786830E+02 -0.79242215495E+02  0.11443425335E+03  0.00000000000E+00 0. -1.
          4    1    6    6  503    0 -0.11810359321E+02  0.20996263717E+03  0.56978297703E+02  0.21787684596E+03  0.00000000000E+00 0. -1.
         -4    1    6    6    0  503 -0.12285179151E+03  0.30967695503E+03  0.44962355077E+02  0.33617553827E+03  0.00000000000E+00 0.  1.
<mgrwt>
<rscale>  0 0.71977563E+03</rscale>
<asrwt>0</asrwt>
<pdfrwt beam="1">  1        2 0.19763245E+00 0.71977563E+03</pdfrwt>
<pdfrwt beam="2">  1       -2 0.99309474E-01 0.71977563E+03</pdfrwt>
<totfact> 0.14518510E+01</totfact>
</mgrwt>
</event>
<event>
12    1  0.3147868E-008  0.9878681E+03  0.7818608E-02  0.9321952E-01
          2   -1    0    0  501    0  0.00000000000E+00  0.00000000000E+00  0.24539403395E+04  0.24539403395E+04  0.00000000000E+00 0. -1.
         -2   -1    0    0    0  501 -0.00000000000E+00 -0.00000000000E+00 -0.56430274627E+03  0.56430274627E+03  0.00000000000E+00 0.  1.
         23    2    1    2    0    0  0.97734639197E+03 -0.37303396424E+02  0.15254309993E+04  0.18143936459E+04  0.92125215416E+02 0.  0.
    5000000    2    1    2    0    0 -0.97734639197E+03  0.37303396424E+02  0.36420659392E+03  0.12038494399E+04  0.60000793128E+03 0.  0.
         23    2    4    4    0    0 -0.27154230344E+03  0.58104873718E+02 -0.14683672420E+03  0.32731870705E+03  0.92006051471E+02 0.  0.
         23    2    4    4    0    0 -0.70580408853E+03 -0.20801477293E+02  0.51104331812E+03  0.87653073284E+03  0.92459395272E+02 0.  0.
          5    1    3    3  502    0  0.76624874738E+03 -0.46385068782E+02  0.12550896943E+04  0.14712446935E+04  0.47000000000E+01 0. -1.
         -5    1    3    3    0  502  0.21109764458E+03  0.90816723576E+01  0.27034130509E+03  0.34314895243E+03  0.47000000000E+01 0.  1.
         11    1    5    5    0    0 -0.76654702113E+02  0.49880434503E+02 -0.78837408106E+02  0.12074492958E+03  0.00000000000E+00 0. -1.
        -11    1    5    5    0    0 -0.19488760133E+03  0.82244392145E+01 -0.67999316092E+02  0.20657377747E+03  0.00000000000E+00 0.  1.
          2    1    6    6  503    0 -0.49039504348E+02 -0.21247252742E+02  0.56757463426E+02  0.77959787008E+02  0.00000000000E+00 0. -1.
         -2    1    6    6    0  503 -0.65676458418E+03  0.44577544914E+00  0.45428585470E+03  0.79857094583E+03  0.00000000000E+00 0.  1.
<mgrwt>
<rscale>  0 0.98786812E+03</rscale>
<asrwt>0</asrwt>
<pdfrwt beam="1">  1        2 0.37752928E+00 0.98786812E+03</pdfrwt>
<pdfrwt beam="2">  1       -2 0.86815808E-01 0.98786812E+03</pdfrwt>
<totfact> 0.42940971E+00</totfact>
</mgrwt>
</event>
<event>
12    1  0.3147868E-008  0.1022459E+04  0.7818608E-02  0.9284249E-01
          1   -1    0    0  501    0  0.00000000000E+00  0.00000000000E+00  0.13916100997E+04  0.13916100997E+04  0.00000000000E+00 0. -1.
         -1   -1    0    0    0  501 -0.00000000000E+00 -0.00000000000E+00 -0.10390294121E+04  0.10390294121E+04  0.00000000000E+00 0.  1.
         23    2    1    2    0    0 -0.96694371956E+03  0.22428256632E+03 -0.36747546593E+03  0.10649073890E+04  0.11707562797E+03 0.  0.
    5000000    2    1    2    0    0  0.96694371956E+03 -0.22428256632E+03  0.72005615351E+03  0.13657321229E+04  0.60121588548E+03 0.  0.
         23    2    4    4    0    0  0.66361687716E+03 -0.30020525790E+03  0.21448783130E+03  0.76432134929E+03  0.87587320388E+02 0.  0.
         23    2    4    4    0    0  0.30332684240E+03  0.75922691578E+02  0.50556832221E+03  0.60141077361E+03  0.91236844326E+02 0.  0.
          5    1    3    3  502    0 -0.72603751721E+03  0.11954492602E+03 -0.25034746456E+03  0.77724990109E+03  0.47000000000E+01 0. -1.
         -5    1    3    3    0  502 -0.24090620235E+03  0.10473764030E+03 -0.11712800137E+03  0.28765748787E+03  0.47000000000E+01 0.  1.
         13    1    5    5    0    0  0.64684971081E+03 -0.28747244057E+03  0.22218643237E+03  0.74190414690E+03  0.00000000000E+00 0.  1.
        -13    1    5    5    0    0  0.16767166344E+02 -0.12732817331E+02 -0.76986010745E+01  0.22417202388E+02  0.00000000000E+00 0. -1.
          1    1    6    6  503    0  0.17681897357E+03  0.71905239391E+02  0.36743451516E+03  0.41405728565E+03  0.00000000000E+00 0. -1.
         -1    1    6    6    0  503  0.12650786883E+03  0.40174521872E+01  0.13813380705E+03  0.18735348795E+03  0.00000000000E+00 0.  1.
<mgrwt>
<rscale>  0 0.10224591E+04</rscale>
<asrwt>0</asrwt>
<pdfrwt beam="1">  1        1 0.21409386E+00 0.10224591E+04</pdfrwt>
<pdfrwt beam="2">  1       -1 0.15985068E+00 0.10224591E+04</pdfrwt>
<totfact> 0.22860268E+00</totfact>
</mgrwt>
</event>
<event>
12    1  0.3147868E-008  0.1316546E+04  0.7818608E-02  0.9016546E-01
          2   -1    0    0  501    0  0.00000000000E+00  0.00000000000E+00  0.28273356079E+04  0.28273356079E+04  0.00000000000E+00 0. -1.
         -2   -1    0    0    0  501 -0.00000000000E+00 -0.00000000000E+00 -0.63630254623E+03  0.63630254623E+03  0.00000000000E+00 0.  1.
         23    2    1    2    0    0 -0.12031605080E+03  0.12660840793E+04  0.98416300650E+03  0.16105851276E+04  0.89234420762E+02 0.  0.
    5000000    2    1    2    0    0  0.12031605080E+03 -0.12660840793E+04  0.12068700552E+04  0.18530530266E+04  0.59985443346E+03 0.  0.
         23    2    4    4    0    0 -0.51332329558E+02 -0.11242823113E+04  0.11362341957E+04  0.16019695948E+04  0.92912386535E+02 0.  0.
         23    2    4    4    0    0  0.17164838036E+03 -0.14180176804E+03  0.70635859483E+02  0.25108343184E+03  0.92100799134E+02 0.  0.
          5    1    3    3  502    0 -0.48010687655E+02  0.41011222800E+03  0.26907966254E+03  0.49287221516E+03  0.47000000000E+01 0. -1.
         -5    1    3    3    0  502 -0.72305363143E+02  0.85597185129E+03  0.71508334396E+03  0.11177129124E+04  0.47000000000E+01 0.  1.
         13    1    5    5    0    0 -0.17868094425E+01 -0.35356394449E+03  0.41581238143E+03  0.54581186510E+03  0.00000000000E+00 0.  1.
        -13    1    5    5    0    0 -0.49545520116E+02 -0.77071836676E+03  0.72042181430E+03  0.10561577297E+04  0.00000000000E+00 0. -1.
          4    1    6    6  503    0  0.66658475912E+02 -0.11071965393E+02 -0.37024670411E+01  0.67673104634E+02  0.00000000000E+00 0. -1.
         -4    1    6    6    0  503  0.10498990444E+03 -0.13072980265E+03  0.74338326524E+02  0.18341032720E+03  0.00000000000E+00 0.  1.
<mgrwt>
<rscale>  0 0.13165460E+04</rscale>
<asrwt>0</asrwt>
<pdfrwt beam="1">  1        2 0.43497470E+00 0.13165460E+04</pdfrwt>
<pdfrwt beam="2">  1       -2 0.97892701E-01 0.13165460E+04</pdfrwt>
<totfact> 0.18839686E+00</totfact>
</mgrwt>
</event>
<event>
12    1  0.3147868E-008  0.4924295E+03  0.7818608E-02  0.1015774E+00
         -2   -1    0    0    0  501 -0.00000000000E+00  0.00000000000E+00  0.10736019206E+04  0.10736019206E+04  0.00000000000E+00 0.  1.
          2   -1    0    0  501    0  0.00000000000E+00 -0.00000000000E+00 -0.36052827129E+03  0.36052827129E+03  0.00000000000E+00 0. -1.
         23    2    1    2    0    0 -0.99654120680E+02  0.43460034654E+03  0.45488954338E+03  0.64352377538E+03  0.91596658315E+02 0.  0.
    5000000    2    1    2    0    0  0.99654120680E+02 -0.43460034654E+03  0.25818410594E+03  0.79060641652E+03  0.59965912676E+03 0.  0.
         23    2    4    4    0    0 -0.11227966231E+02  0.35270417510E+01 -0.14934721213E+03  0.17540517400E+03  0.91235289479E+02 0.  0.
         23    2    4    4    0    0  0.11088208691E+03 -0.43812738829E+03  0.40753131807E+03  0.61520124252E+03  0.90223877243E+02 0.  0.
          5    1    3    3  502    0 -0.37881508835E+02  0.18652555106E+03  0.25884248214E+03  0.32132275125E+03  0.47000000000E+01 0. -1.
         -5    1    3    3    0  502 -0.61772611845E+02  0.24807479548E+03  0.19604706124E+03  0.32220102413E+03  0.47000000000E+01 0.  1.
         11    1    5    5    0    0  0.21986401477E+02  0.34703602326E+02 -0.10070634331E+03  0.10876354834E+03  0.00000000000E+00 0. -1.
        -11    1    5    5    0    0 -0.33214367708E+02 -0.31176560575E+02 -0.48640868823E+02  0.66641625666E+02  0.00000000000E+00 0.  1.
          2    1    6    6  503    0  0.34344800691E+02 -0.11186260950E+03  0.16162101788E+03  0.19953486452E+03  0.00000000000E+00 0.  1.
         -2    1    6    6    0  503  0.76537286220E+02 -0.32626477879E+03  0.24591030019E+03  0.41566637800E+03  0.00000000000E+00 0. -1.
<mgrwt>
<rscale>  0 0.49242949E+03</rscale>
<asrwt>0</asrwt>
<pdfrwt beam="1">  1        2 0.55465888E-01 0.49242949E+03</pdfrwt>
<pdfrwt beam="2">  1       -2 0.16516952E+00 0.49242949E+03</pdfrwt>
<totfact> 0.21463505E+01</totfact>
</mgrwt>
</event>
<event>
12    1  0.3147868E-008  0.1106213E+04  0.7818608E-02  0.9199157E-01
         -1   -1    0    0    0  501 -0.00000000000E+00  0.00000000000E+00  0.28764326932E+04  0.28764326932E+04  0.00000000000E+00 0.  1.
          1   -1    0    0  501    0  0.00000000000E+00 -0.00000000000E+00 -0.57443101712E+03  0.57443101712E+03  0.00000000000E+00 0. -1.
         23    2    1    2    0    0 -0.10840309780E+04  0.91100566971E+02  0.36593555521E+03  0.11505042722E+04  0.79553599730E+02 0.  0.
    5000000    2    1    2    0    0  0.10840309780E+04 -0.91100566971E+02  0.19360661208E+04  0.23003594381E+04  0.59989919610E+03 0.  0.
         23    2    4    4    0    0  0.71155946176E+03 -0.19114191645E+03  0.16575563855E+04  0.18162582463E+04  0.91917061644E+02 0.  0.
         23    2    4    4    0    0  0.37247151626E+03  0.10004134948E+03  0.27850973532E+03  0.48410119178E+03  0.89682713965E+02 0.  0.
          5    1    3    3  502    0 -0.60413987363E+03  0.76964675161E+02  0.23543339928E+03  0.65296211500E+03  0.47000000000E+01 0. -1.
         -5    1    3    3    0  502 -0.47989110439E+03  0.14135891810E+02  0.13050215592E+03  0.49754215722E+03  0.47000000000E+01 0.  1.
         11    1    5    5    0    0  0.20913317474E+03 -0.41752332757E+02  0.38789915914E+03  0.44265754227E+03  0.00000000000E+00 0. -1.
        -11    1    5    5    0    0  0.50242628702E+03 -0.14938958370E+03  0.12696572264E+04  0.13736007040E+04  0.00000000000E+00 0.  1.
          4    1    6    6  503    0  0.21935375311E+03  0.64655869072E+02  0.21726039833E+03  0.31543387753E+03  0.00000000000E+00 0. -1.
         -4    1    6    6    0  503  0.15311776315E+03  0.35385480411E+02  0.61249336988E+02  0.16866731425E+03  0.00000000000E+00 0.  1.
<mgrwt>
<rscale>  0 0.11062131E+04</rscale>
<asrwt>0</asrwt>
<pdfrwt beam="1">  1        1 0.88374004E-01 0.11062131E+04</pdfrwt>
<pdfrwt beam="2">  1       -1 0.44252810E+00 0.11062131E+04</pdfrwt>
<totfact> 0.13418996E-01</totfact>
</mgrwt>
</event>
<event>
12    1  0.3147868E-008  0.6704848E+03  0.7818608E-02  0.9769082E-01
          2   -1    0    0  501    0  0.00000000000E+00  0.00000000000E+00  0.22030346062E+04  0.22030346062E+04  0.00000000000E+00 0. -1.
         -2   -1    0    0    0  501 -0.00000000000E+00 -0.00000000000E+00 -0.27630155801E+03  0.27630155801E+03  0.00000000000E+00 0.  1.
         23    2    1    2    0    0 -0.20674068226E+03 -0.62175116196E+03  0.68520665557E+03  0.95271145557E+03  0.93993295712E+02 0.  0.
    5000000    2    1    2    0    0  0.20674068226E+03  0.62175116196E+03  0.12415263926E+04  0.15266247087E+04  0.59989915848E+03 0.  0.
         23    2    4    4    0    0  0.77569148914E+02  0.37771372465E+03  0.19926741145E+03  0.44371786622E+03  0.92159713995E+02 0.  0.
         23    2    4    4    0    0  0.12917153334E+03  0.24403743731E+03  0.10422589812E+04  0.10829068424E+04  0.10071687882E+03 0.  0.
          5    1    3    3  502    0 -0.39006512993E+02 -0.41705628185E+02  0.46834076077E+02  0.74002622657E+02  0.47000000000E+01 0. -1.
         -5    1    3    3    0  502 -0.16773416927E+03 -0.58004553377E+03  0.63837257949E+03  0.87870883291E+03  0.47000000000E+01 0.  1.
         13    1    5    5    0    0  0.93548356894E+02  0.25639676408E+03  0.15306622130E+03  0.31292149784E+03  0.00000000000E+00 0. -1.
        -13    1    5    5    0    0 -0.15979207979E+02  0.12131696057E+03  0.46201190154E+02  0.13079636838E+03  0.00000000000E+00 0.  1.
          2    1    6    6  503    0  0.12539954263E+03  0.24871531834E+03  0.93819775821E+03  0.97867225790E+03  0.00000000000E+00 0. -1.
         -2    1    6    6    0  503  0.37719907165E+01 -0.46778810302E+01  0.10406122298E+03  0.10423458454E+03  0.00000000000E+00 0.  1.
<mgrwt>
<rscale>  0 0.67048479E+03</rscale>
<asrwt>0</asrwt>
<pdfrwt beam="1">  1        2 0.33892839E+00 0.67048479E+03</pdfrwt>
<pdfrwt beam="2">  1       -2 0.42507933E-01 0.67048479E+03</pdfrwt>
<totfact> 0.28311669E+01</totfact>
</mgrwt>
</event>
<event>
12    1  0.3147868E-008  0.1523898E+04  0.7818608E-02  0.8868715E-01
          1   -1    0    0  501    0  0.00000000000E+00  0.00000000000E+00  0.12175589145E+04  0.12175589145E+04  0.00000000000E+00 0. -1.
         -1   -1    0    0    0  501 -0.00000000000E+00 -0.00000000000E+00 -0.20676926327E+04  0.20676926327E+04  0.00000000000E+00 0.  1.
         23    2    1    2    0    0 -0.32009439355E+03  0.14523641259E+04 -0.44809654779E+02  0.14908283194E+04  0.93483676331E+02 0.  0.
    5000000    2    1    2    0    0  0.32009439355E+03 -0.14523641259E+04 -0.80532406344E+03  0.17944232279E+04  0.59965481608E+03 0.  0.
         23    2    4    4    0    0 -0.92222304915E+02 -0.14978293264E+03  0.12258552382E+02  0.19957817169E+03  0.93494887954E+02 0.  0.
         23    2    4    4    0    0  0.41231669846E+03 -0.13025811933E+04 -0.81758261582E+03  0.15948450562E+04  0.91469090712E+02 0.  0.
          5    1    3    3  502    0 -0.93422628331E+02  0.63587957594E+03 -0.25614845468E+02  0.64323310929E+03  0.47000000000E+01 0. -1.
         -5    1    3    3    0  502 -0.22667176521E+03  0.81648455000E+03 -0.19194809311E+02  0.84759521013E+03  0.47000000000E+01 0.  1.
         13    1    5    5    0    0 -0.52076478764E+02 -0.13738317004E+03 -0.17685605009E+02  0.14798268708E+03  0.00000000000E+00 0. -1.
        -13    1    5    5    0    0 -0.40145826150E+02 -0.12399762596E+02  0.29944157390E+02  0.51595484604E+02  0.00000000000E+00 0.  1.
          1    1    6    6  503    0  0.47974688599E+01 -0.77979317526E+02 -0.36154866609E+02  0.86086956321E+02  0.00000000000E+00 0. -1.
         -1    1    6    6    0  503  0.40751922960E+03 -0.12246018758E+04 -0.78142774921E+03  0.15087580999E+04  0.00000000000E+00 0.  1.
<mgrwt>
<rscale>  0 0.15238976E+04</rscale>
<asrwt>0</asrwt>
<pdfrwt beam="1">  1        1 0.18731676E+00 0.15238976E+04</pdfrwt>
<pdfrwt beam="2">  1       -1 0.31810656E+00 0.15238976E+04</pdfrwt>
<totfact> 0.24718084E-01</totfact>
</mgrwt>
</event>
<event>
12    1  0.3147868E-008  0.4585433E+03  0.7818608E-02  0.1025205E+00
         -2   -1    0    0    0  501 -0.00000000000E+00  0.00000000000E+00  0.37804596925E+03  0.37804596925E+03  0.00000000000E+00 0.  1.
          2   -1    0    0  501    0  0.00000000000E+00 -0.00000000000E+00 -0.72115177621E+03  0.72115177621E+03  0.00000000000E+00 0. -1.
         23    2    1    2    0    0  0.19482052767E+03 -0.17400993520E+03 -0.34780432139E+03  0.44473461406E+03  0.92663560366E+02 0.  0.
    5000000    2    1    2    0    0 -0.19482052767E+03  0.17400993520E+03  0.46985144251E+01  0.65446313140E+03  0.60005451317E+03 0.  0.
         23    2    4    4    0    0  0.73051473431E+01  0.35448588731E+03 -0.24281713418E+02  0.36703380738E+03  0.91709348864E+02 0.  0.
         23    2    4    4    0    0 -0.20212567501E+03 -0.18047595212E+03  0.28980227843E+02  0.28742932402E+03  0.91375078166E+02 0.  0.
          5    1    3    3  502    0  0.15828977624E+03 -0.86770630365E+02 -0.25210691737E+03  0.31010447166E+03  0.47000000000E+01 0. -1.
         -5    1    3    3    0  502  0.36530751424E+02 -0.87239304833E+02 -0.95697404018E+02  0.13463014240E+03  0.47000000000E+01 0.  1.
         11    1    5    5    0    0  0.48156788149E+02  0.21590760867E+03 -0.49169793942E+01  0.22126759459E+03  0.00000000000E+00 0. -1.
        -11    1    5    5    0    0 -0.40851640806E+02  0.13857827864E+03 -0.19364734024E+02  0.14576621279E+03  0.00000000000E+00 0.  1.
          2    1    6    6  503    0 -0.27226289396E+02 -0.53399340389E+02 -0.24449671411E+02  0.64734433035E+02  0.00000000000E+00 0. -1.
         -2    1    6    6    0  503 -0.17489938561E+03 -0.12707661173E+03  0.53429899254E+02  0.22269489098E+03  0.00000000000E+00 0.  1.
<mgrwt>
<rscale>  0 0.45854332E+03</rscale>
<asrwt>0</asrwt>
<pdfrwt beam="1">  1        2 0.11094643E+00 0.45854332E+03</pdfrwt>
<pdfrwt beam="2">  1       -2 0.58160919E-01 0.45854332E+03</pdfrwt>
<totfact> 0.11284549E+02</totfact>
</mgrwt>
</event>
<event>
12    1  0.3147868E-008  0.6634915E+03  0.7818608E-02  0.9781788E-01
         -2   -1    0    0    0  501 -0.00000000000E+00  0.00000000000E+00  0.56931387551E+03  0.56931387551E+03  0.00000000000E+00 0.  1.
          2   -1    0    0  501    0  0.00000000000E+00 -0.00000000000E+00 -0.85548617155E+03  0.85548617155E+03  0.00000000000E+00 0. -1.
         23    2    1    2    0    0  0.35342972272E+03  0.42841599717E+03 -0.14209659296E+02  0.56305106103E+03  0.91497253386E+02 0.  0.
    5000000    2    1    2    0    0 -0.35342972272E+03 -0.42841599717E+03 -0.27196263674E+03  0.86174898603E+03  0.60016231438E+03 0.  0.
         23    2    4    4    0    0 -0.22616986865E+03 -0.53089406484E+03 -0.32148662184E+03  0.66695203292E+03  0.92032867099E+02 0.  0.
         23    2    4    4    0    0 -0.12725985408E+03  0.10247806768E+03  0.49523985095E+02  0.19479695311E+03  0.93789141301E+02 0.  0.
          5    1    3    3  502    0  0.19308110732E+03  0.26931738671E+03  0.30229071354E+02  0.33278830439E+03  0.47000000000E+01 0. -1.
         -5    1    3    3    0  502  0.16034861540E+03  0.15909861046E+03 -0.44438730650E+02  0.23026275664E+03  0.47000000000E+01 0.  1.
         13    1    5    5    0    0 -0.58731513050E+02 -0.24394651586E+03 -0.11716497284E+03  0.27692404029E+03  0.00000000000E+00 0. -1.
        -13    1    5    5    0    0 -0.16743835560E+03 -0.28694754898E+03 -0.20432164900E+03  0.39002799264E+03  0.00000000000E+00 0.  1.
          2    1    6    6  503    0 -0.12182168866E+03  0.46724633055E+02  0.47135453758E+02  0.13872802948E+03  0.00000000000E+00 0. -1.
         -2    1    6    6    0  503 -0.54381654201E+01  0.55753434623E+02  0.23885313375E+01  0.56068923633E+02  0.00000000000E+00 0.  1.
<mgrwt>
<rscale>  0 0.66349145E+03</rscale>
<asrwt>0</asrwt>
<pdfrwt beam="1">  1        2 0.13161326E+00 0.66349145E+03</pdfrwt>
<pdfrwt beam="2">  1       -2 0.87586750E-01 0.66349145E+03</pdfrwt>
<totfact> 0.36197885E+01</totfact>
</mgrwt>
</event>
<event>
12    1  0.3147868E-008  0.5023683E+03  0.7818608E-02  0.1013163E+00
          1   -1    0    0  501    0  0.00000000000E+00  0.00000000000E+00  0.24441785734E+04  0.24441785734E+04  0.00000000000E+00 0.  1.
         -1   -1    0    0    0  501 -0.00000000000E+00 -0.00000000000E+00 -0.18337103617E+03  0.18337103617E+03  0.00000000000E+00 0. -1.
         23    2    1    2    0    0  0.44583525178E+01 -0.48278793865E+03  0.13391511235E+04  0.14263583565E+04  0.89824045274E+02 0.  0.
    5000000    2    1    2    0    0 -0.44583525178E+01  0.48278793865E+03  0.92165641377E+03  0.12011912531E+04  0.60025478820E+03 0.  0.
         23    2    4    4    0    0 -0.61395761530E+02  0.18259357822E+03  0.84729251039E+03  0.87368248605E+03  0.91140736914E+02 0.  0.
         23    2    4    4    0    0  0.56937409012E+02  0.30019436043E+03  0.74363903377E+02  0.32750876701E+03  0.91506719747E+02 0.  0.
          5    1    3    3  502    0  0.31198748995E+02 -0.92636724124E+02  0.21820886132E+03  0.23914874400E+03  0.47000000000E+01 0. -1.
         -5    1    3    3    0  502 -0.26740396477E+02 -0.39015121453E+03  0.11209422621E+04  0.11872096125E+04  0.47000000000E+01 0.  1.
         13    1    5    5    0    0 -0.79896077683E+02  0.12894680543E+03  0.68969080318E+03  0.70617566218E+03  0.00000000000E+00 0. -1.
        -13    1    5    5    0    0  0.18500316153E+02  0.53646772785E+02  0.15760170721E+03  0.16750682387E+03  0.00000000000E+00 0.  1.
          4    1    6    6  503    0  0.30938891425E+02  0.23693357692E+03  0.93342184774E+02  0.25652972213E+03  0.00000000000E+00 0.  1.
         -4    1    6    6    0  503  0.25998517587E+02  0.63260783511E+02 -0.18978281397E+02  0.70979044879E+02  0.00000000000E+00 0. -1.
<mgrwt>
<rscale>  0 0.50236831E+03</rscale>
<asrwt>0</asrwt>
<pdfrwt beam="1">  1        1 0.37602745E+00 0.50236831E+03</pdfrwt>
<pdfrwt beam="2">  1       -1 0.28210930E-01 0.50236831E+03</pdfrwt>
<totfact> 0.18447959E+01</totfact>
</mgrwt>
</event>
<event>
12    1  0.3147868E-008  0.1079949E+04  0.7818608E-02  0.9224958E-01
         -2   -1    0    0    0  501 -0.00000000000E+00  0.00000000000E+00  0.36697993838E+03  0.36697993838E+03  0.00000000000E+00 0. -1.
          2   -1    0    0  501    0  0.00000000000E+00 -0.00000000000E+00 -0.38979634932E+04  0.38979634932E+04  0.00000000000E+00 0.  1.
         23    2    1    2    0    0  0.14806911530E+03 -0.10512798481E+04 -0.10283321387E+04  0.14809986320E+04  0.93681259602E+02 0.  0.
    5000000    2    1    2    0    0 -0.14806911530E+03  0.10512798481E+04 -0.25026514161E+04  0.27839447996E+04  0.59997562858E+03 0.  0.
         23    2    4    4    0    0 -0.14613941658E+03  0.25704896124E+03 -0.13213320536E+04  0.13575321467E+04  0.97694605576E+02 0.  0.
         23    2    4    4    0    0 -0.19296987268E+01  0.79423088687E+03 -0.11813193625E+04  0.14264126529E+04  0.91275378662E+02 0.  0.
          5    1    3    3  502    0  0.23123172656E+02 -0.37147341897E+03 -0.40751005649E+03  0.55191821700E+03  0.47000000000E+01 0. -1.
         -5    1    3    3    0  502  0.12494594265E+03 -0.67980642914E+03 -0.62082208224E+03  0.92908041497E+03  0.47000000000E+01 0.  1.
         11    1    5    5    0    0 -0.39691338411E+02  0.24945364463E+02 -0.35295107508E+03  0.35605074773E+03  0.00000000000E+00 0.  1.
        -11    1    5    5    0    0 -0.10644807817E+03  0.23210359677E+03 -0.96838097848E+03  0.10014813990E+04  0.00000000000E+00 0. -1.
          3    1    6    6  503    0 -0.17453947671E+01  0.21556301278E+03 -0.25163552823E+03  0.33134709588E+03  0.00000000000E+00 0. -1.
         -3    1    6    6    0  503 -0.18430395975E+00  0.57866787409E+03 -0.92968383427E+03  0.10950655570E+04  0.00000000000E+00 0.  1.
<mgrwt>
<rscale>  0 0.10799490E+04</rscale>
<asrwt>0</asrwt>
<pdfrwt beam="1">  1        2 0.59968672E+00 0.10799490E+04</pdfrwt>
<pdfrwt beam="2">  1       -2 0.56458450E-01 0.10799490E+04</pdfrwt>
<totfact> 0.12586792E+00</totfact>
</mgrwt>
</event>
<event>
12    1  0.3147868E-008  0.9115198E+03  0.7818608E-02  0.9411295E-01
          2   -1    0    0  501    0  0.00000000000E+00  0.00000000000E+00  0.55660336951E+03  0.55660336951E+03  0.00000000000E+00 0.  1.
         -2   -1    0    0    0  501 -0.00000000000E+00 -0.00000000000E+00 -0.22586564287E+04  0.22586564287E+04  0.00000000000E+00 0. -1.
         23    2    1    2    0    0 -0.94836823787E+02  0.89115483036E+03 -0.14507415133E+04  0.17078958216E+04  0.95426642915E+02 0.  0.
    5000000    2    1    2    0    0  0.94836823787E+02 -0.89115483036E+03 -0.25131154595E+03  0.11073639767E+04  0.59995543909E+03 0.  0.
         23    2    4    4    0    0  0.14127786435E+02 -0.16285279476E+03  0.17380618667E+03  0.25533438674E+03  0.90919917582E+02 0.  0.
         23    2    4    4    0    0  0.80709037352E+02 -0.72830203559E+03 -0.42511773263E+03  0.85202958994E+03  0.91057848536E+02 0.  0.
          5    1    3    3  502    0 -0.12021848646E+02  0.54797965826E+03 -0.87243302269E+03  0.10303337808E+04  0.47000000000E+01 0. -1.
         -5    1    3    3    0  502 -0.82814975140E+02  0.34317517209E+03 -0.57830849059E+03  0.67756204080E+03  0.47000000000E+01 0.  1.
         11    1    5    5    0    0 -0.34881189263E+02 -0.80020184213E+02  0.10741315906E+03  0.13841067150E+03  0.00000000000E+00 0.  1.
        -11    1    5    5    0    0  0.49008975698E+02 -0.82832610550E+02  0.66393027617E+02  0.11692371524E+03  0.00000000000E+00 0. -1.
          1    1    6    6  503    0  0.99318057583E+02 -0.53692688342E+03 -0.32000130003E+03  0.63289445148E+03  0.00000000000E+00 0. -1.
         -1    1    6    6    0  503 -0.18609020231E+02 -0.19137515217E+03 -0.10511643260E+03  0.21913513845E+03  0.00000000000E+00 0.  1.
<mgrwt>
<rscale>  0 0.91151978E+03</rscale>
<asrwt>0</asrwt>
<pdfrwt beam="1">  1        2 0.85631289E-01 0.91151978E+03</pdfrwt>
<pdfrwt beam="2">  1       -2 0.34748560E+00 0.91151978E+03</pdfrwt>
<totfact> 0.89891841E-01</totfact>
</mgrwt>
</event>
<event>
12    1  0.3147868E-008  0.1000804E+04  0.7818608E-02  0.9307664E-01
         -2   -1    0    0    0  501 -0.00000000000E+00  0.00000000000E+00  0.48706638262E+03  0.48706638262E+03  0.00000000000E+00 0.  1.
          2   -1    0    0  501    0  0.00000000000E+00 -0.00000000000E+00 -0.24992958457E+04  0.24992958457E+04  0.00000000000E+00 0. -1.
         23    2    1    2    0    0 -0.61387919680E+03  0.77179622101E+03 -0.12836287717E+04  0.16210773594E+04  0.87589420567E+02 0.  0.
    5000000    2    1    2    0    0  0.61387919680E+03 -0.77179622101E+03 -0.72860069146E+03  0.13652848690E+04  0.60052204863E+03 0.  0.
         23    2    4    4    0    0  0.37707471710E+03 -0.62105334833E+03 -0.77538392338E+03  0.10665549303E+04  0.91796442497E+02 0.  0.
         23    2    4    4    0    0  0.23680447971E+03 -0.15074287268E+03  0.46783231922E+02  0.29872993875E+03  0.90835732193E+02 0.  0.
          5    1    3    3  502    0 -0.52774233968E+03  0.70525446871E+03 -0.11531814504E+04  0.14511186686E+04  0.47000000000E+01 0. -1.
         -5    1    3    3    0  502 -0.86136857119E+02  0.66541752297E+02 -0.13044732122E+03  0.16995869077E+03  0.47000000000E+01 0.  1.
         11    1    5    5    0    0  0.33309401502E+03 -0.53191181197E+03 -0.62076150277E+03  0.88273815023E+03  0.00000000000E+00 0.  1.
        -11    1    5    5    0    0  0.43980702080E+02 -0.89141536359E+02 -0.15462242061E+03  0.18381678002E+03  0.00000000000E+00 0. -1.
          1    1    6    6  503    0  0.59451589398E+02 -0.64052742723E+02  0.51179382463E+02  0.10127474770E+03  0.00000000000E+00 0. -1.
         -1    1    6    6    0  503  0.17735289031E+03 -0.86690129952E+02 -0.43961505413E+01  0.19745519105E+03  0.00000000000E+00 0.  1.
<mgrwt>
<rscale>  0 0.10008037E+04</rscale>
<asrwt>0</asrwt>
<pdfrwt beam="1">  1        2 0.38450705E+00 0.10008037E+04</pdfrwt>
<pdfrwt beam="2">  1       -2 0.74933290E-01 0.10008037E+04</pdfrwt>
<totfact> 0.56338556E+00</totfact>
</mgrwt>
</event>
<event>
12    1  0.3147868E-008  0.5765335E+03  0.7818608E-02  0.9955324E-01
         -1   -1    0    0    0  501 -0.00000000000E+00  0.00000000000E+00  0.32668028108E+03  0.32668028108E+03  0.00000000000E+00 0.  1.
          1   -1    0    0  501    0  0.00000000000E+00 -0.00000000000E+00 -0.13116165083E+04  0.13116165083E+04  0.00000000000E+00 0. -1.
         23    2    1    2    0    0 -0.27005750807E+03 -0.38432752202E+03 -0.13578121893E+03  0.49734303495E+03  0.90966219826E+02 0.  0.
    5000000    2    1    2    0    0  0.27005750807E+03  0.38432752202E+03 -0.84915500829E+03  0.11409537544E+04  0.60006044677E+03 0.  0.
         23    2    4    4    0    0 -0.10647405827E+03 -0.23142441405E+02 -0.27483370317E+02  0.14524577696E+03  0.92025552991E+02 0.  0.
         23    2    4    4    0    0  0.37653156634E+03  0.40746996343E+03 -0.82167163797E+03  0.99570797746E+03  0.92099425548E+02 0.  0.
          5    1    3    3  502    0 -0.16324892941E+03 -0.15413820386E+03 -0.68145482180E+02  0.23467998548E+03  0.47000000000E+01 0.  1.
         -5    1    3    3    0  502 -0.10680857866E+03 -0.23018931817E+03 -0.67635736746E+02  0.26266304947E+03  0.47000000000E+01 0.  1.
         13    1    5    5    0    0 -0.53241401471E+02 -0.27486003657E+02 -0.58285858150E+02  0.83590480845E+02  0.00000000000E+00 0.  1.
        -13    1    5    5    0    0 -0.53232656796E+02  0.43435622521E+01  0.30802487833E+02  0.61655296117E+02  0.00000000000E+00 0. -1.
          1    1    6    6  503    0  0.42657083949E+02  0.94752019851E+02 -0.12961141321E+03  0.16612251657E+03  0.00000000000E+00 0. -1.
         -1    1    6    6    0  503  0.33387448239E+03  0.31271794358E+03 -0.69206022476E+03  0.82958546089E+03  0.00000000000E+00 0.  1.
<mgrwt>
<rscale>  0 0.57653350E+03</rscale>
<asrwt>0</asrwt>
<pdfrwt beam="1">  1        1 0.20178715E+00 0.57653350E+03</pdfrwt>
<pdfrwt beam="2">  1       -1 0.50258505E-01 0.57653350E+03</pdfrwt>
<totfact> 0.37106246E+01</totfact>
</mgrwt>
</event>
<event>
12    1  0.3147868E-008  0.1114773E+04  0.7818608E-02  0.9190911E-01
          1   -1    0    0  501    0  0.00000000000E+00  0.00000000000E+00  0.78790522669E+03  0.78790522669E+03  0.00000000000E+00 0. -1.
         -1   -1    0    0    0  501 -0.00000000000E+00 -0.00000000000E+00 -0.20185301832E+04  0.20185301832E+04  0.00000000000E+00 0.  1.
         23    2    1    2    0    0 -0.10353442625E+04  0.26190583977E+03 -0.27135518442E+01  0.10719967315E+04  0.92936635396E+02 0.  0.
    5000000    2    1    2    0    0  0.10353442625E+04 -0.26190583977E+03 -0.12279114047E+04  0.17344386784E+04  0.59998225020E+03 0.  0.
         23    2    4    4    0    0  0.93612163399E+03 -0.36983403604E+03 -0.85584699833E+03  0.13243249689E+04  0.90893403815E+02 0.  0.
         23    2    4    4    0    0  0.99222628514E+02  0.10792819627E+03 -0.37206440639E+03  0.41011370952E+03  0.90926930421E+02 0.  0.
          5    1    3    3  502    0 -0.58471829335E+03  0.11275834226E+03  0.29282403440E+02  0.59622938160E+03  0.47000000000E+01 0. -1.
         -5    1    3    3    0  502 -0.45062596916E+03  0.14914749751E+03 -0.31995955284E+02  0.47576734991E+03  0.47000000000E+01 0.  1.
         11    1    5    5    0    0  0.33931077939E+03 -0.14181751189E+03 -0.37015656113E+03  0.52178529247E+03  0.00000000000E+00 0. -1.
        -11    1    5    5    0    0  0.59681085461E+03 -0.22801652415E+03 -0.48569043719E+03  0.80253967643E+03  0.00000000000E+00 0.  1.
          3    1    6    6  503    0  0.43641223212E+01  0.28937966762E+02 -0.17607304825E+03  0.17848857051E+03  0.00000000000E+00 0. -1.
         -3    1    6    6    0  503  0.94858506193E+02  0.78990229511E+02 -0.19599135814E+03  0.23162513901E+03  0.00000000000E+00 0.  1.
<mgrwt>
<rscale>  0 0.11147734E+04</rscale>
<asrwt>0</asrwt>
<pdfrwt beam="1">  1        1 0.12121619E+00 0.11147734E+04</pdfrwt>
<pdfrwt beam="2">  1       -1 0.31054311E+00 0.11147734E+04</pdfrwt>
<totfact> 0.63827446E-01</totfact>
</mgrwt>
</event>
<event>
12    1  0.3147868E-008  0.6991538E+03  0.7818608E-02  0.9718680E-01
          2   -1    0    0  501    0  0.00000000000E+00  0.00000000000E+00  0.27098574352E+04  0.27098574352E+04  0.00000000000E+00 0. -1.
         -2   -1    0    0    0  501 -0.00000000000E+00 -0.00000000000E+00 -0.28397543647E+03  0.28397543647E+03  0.00000000000E+00 0.  1.
         23    2    1    2    0    0 -0.32996391554E+03  0.49039979555E+03  0.22810803945E+03  0.64007650981E+03  0.91085211253E+02 0.  0.
    5000000    2    1    2    0    0  0.32996391554E+03 -0.49039979555E+03  0.21977739593E+04  0.23537563619E+04  0.60049187328E+03 0.  0.
         23    2    4    4    0    0 -0.86663334046E+02  0.27863349993E+02  0.16582609921E+03  0.21379500954E+03  0.99614814089E+02 0.  0.
         23    2    4    4    0    0  0.41662724958E+03 -0.51826314555E+03  0.20319478601E+04  0.21399613524E+04  0.91910446803E+02 0.  0.
          5    1    3    3  502    0 -0.12243845569E+03  0.11037463859E+03  0.68595540045E+02  0.17860899862E+03  0.47000000000E+01 0. -1.
         -5    1    3    3    0  502 -0.20752545985E+03  0.38002515696E+03  0.15951249940E+03  0.46146751118E+03  0.47000000000E+01 0.  1.
         11    1    5    5    0    0 -0.98609143079E+02 -0.61269608089E+01  0.12538382381E+03  0.15963209584E+03  0.00000000000E+00 0.  1.
        -11    1    5    5    0    0  0.11945809034E+02  0.33990310802E+02  0.40442275397E+02  0.54162913706E+02  0.00000000000E+00 0. -1.
          4    1    6    6  503    0  0.36477903963E+03 -0.43819215075E+03  0.18270675030E+04  0.19139623218E+04  0.00000000000E+00 0. -1.
         -4    1    6    6    0  503  0.51848209955E+02 -0.80070994795E+02  0.20488035708E+03  0.22599903053E+03  0.00000000000E+00 0.  1.
<mgrwt>
<rscale>  0 0.69915375E+03</rscale>
<asrwt>0</asrwt>
<pdfrwt beam="1">  1        2 0.41690113E+00 0.69915375E+03</pdfrwt>
<pdfrwt beam="2">  1       -2 0.43688530E-01 0.69915375E+03</pdfrwt>
<totfact> 0.13827875E+01</totfact>
</mgrwt>
</event>
<event>
12    1  0.3147868E-008  0.9885134E+03  0.7818608E-02  0.9321234E-01
         -2   -1    0    0    0  501 -0.00000000000E+00  0.00000000000E+00  0.81141908822E+03  0.81141908822E+03  0.00000000000E+00 0.  1.
          2   -1    0    0  501    0  0.00000000000E+00 -0.00000000000E+00 -0.21362020247E+04  0.21362020247E+04  0.00000000000E+00 0. -1.
         23    2    1    2    0    0 -0.57476367203E+03 -0.78047521929E+03  0.24842518215E+03  0.10047948010E+04  0.91666102205E+02 0.  0.
    5000000    2    1    2    0    0  0.57476367203E+03  0.78047521929E+03 -0.15732081186E+04  0.19428263119E+04  0.60007953413E+03 0.  0.
         23    2    4    4    0    0  0.55010504056E+03  0.58584238496E+03 -0.79053162310E+03  0.11309158067E+04  0.90572948250E+02 0.  0.
         23    2    4    4    0    0  0.24658631469E+02  0.19463283434E+03 -0.78267649551E+03  0.81191050528E+03  0.90145347414E+02 0.  0.
          5    1    3    3  502    0 -0.51194647401E+02 -0.34776524833E+02  0.91282991419E+01  0.62735272752E+02  0.47000000000E+01 0. -1.
         -5    1    3    3    0  502 -0.52356902463E+03 -0.74569869446E+03  0.23929688301E+03  0.94205952821E+03  0.47000000000E+01 0.  1.
         11    1    5    5    0    0  0.28538703507E+03  0.30234205439E+03 -0.47208117883E+03  0.62906050349E+03  0.00000000000E+00 0.  1.
        -11    1    5    5    0    0  0.26471800549E+03  0.28350033057E+03 -0.31845044427E+03  0.50185530317E+03  0.00000000000E+00 0. -1.
          3    1    6    6  503    0  0.32547910498E+02  0.99180668500E+02 -0.55786456378E+03  0.56754651175E+03  0.00000000000E+00 0. -1.
         -3    1    6    6    0  503 -0.78892790287E+01  0.95452165838E+02 -0.22481193173E+03  0.24436399353E+03  0.00000000000E+00 0.  1.
<mgrwt>
<rscale>  0 0.98851339E+03</rscale>
<asrwt>0</asrwt>
<pdfrwt beam="1">  1        2 0.32864647E+00 0.98851339E+03</pdfrwt>
<pdfrwt beam="2">  1       -2 0.12483370E+00 0.98851339E+03</pdfrwt>
<totfact> 0.27039008E+00</totfact>
</mgrwt>
</event>
<event>
12    1  0.3147868E-008  0.4243287E+03  0.7818608E-02  0.1035667E+00
         -2   -1    0    0    0  501 -0.00000000000E+00  0.00000000000E+00  0.52646913344E+03  0.52646913344E+03  0.00000000000E+00 0.  1.
          2   -1    0    0  501    0  0.00000000000E+00 -0.00000000000E+00 -0.64174251418E+03  0.64174251418E+03  0.00000000000E+00 0. -1.
         23    2    1    2    0    0  0.12231118806E+02 -0.28586145331E+03  0.26669665730E+03  0.40154310677E+03  0.90793110001E+02 0.  0.
    5000000    2    1    2    0    0 -0.12231118806E+02  0.28586145331E+03 -0.38197003805E+03  0.76666854085E+03  0.60001097557E+03 0.  0.
         23    2    4    4    0    0 -0.78984330793E+02  0.40239517043E+03 -0.42617179336E+03  0.59861261045E+03  0.92489254709E+02 0.  0.
         23    2    4    4    0    0  0.66753211987E+02 -0.11653371712E+03  0.44201755315E+02  0.16805593040E+03  0.90845484379E+02 0.  0.
          5    1    3    3  502    0  0.39507792150E+02 -0.23711537711E+03  0.18945495756E+03  0.30610429374E+03  0.47000000000E+01 0. -1.
         -5    1    3    3    0  502 -0.27276673344E+02 -0.48746076198E+02  0.77241699739E+02  0.95438813027E+02  0.47000000000E+01 0.  1.
         11    1    5    5    0    0 -0.92659611788E+02  0.28640226075E+03 -0.27625403095E+03  0.40856865792E+03  0.00000000000E+00 0. -1.
        -11    1    5    5    0    0  0.13675280995E+02  0.11599290968E+03 -0.14991776241E+03  0.19004395253E+03  0.00000000000E+00 0.  1.
          1    1    6    6  503    0  0.27543940270E+02 -0.44215123374E+02  0.64907383597E+02  0.83226283264E+02  0.00000000000E+00 0. -1.
         -1    1    6    6    0  503  0.39209271717E+02 -0.72318593746E+02 -0.20705628282E+02  0.84829647132E+02  0.00000000000E+00 0.  1.
<mgrwt>
<rscale>  0 0.42432872E+03</rscale>
<asrwt>0</asrwt>
<pdfrwt beam="1">  1        2 0.98729618E-01 0.42432872E+03</pdfrwt>
<pdfrwt beam="2">  1       -2 0.80995251E-01 0.42432872E+03</pdfrwt>
<totfact> 0.63988151E+01</totfact>
</mgrwt>
</event>
<event>
12    1  0.3147868E-008  0.1560929E+04  0.7818608E-02  0.8844917E-01
         -2   -1    0    0    0  501 -0.00000000000E+00  0.00000000000E+00  0.66839763048E+03  0.66839763048E+03  0.00000000000E+00 0.  1.
          2   -1    0    0  501    0  0.00000000000E+00 -0.00000000000E+00 -0.44657620793E+04  0.44657620793E+04  0.00000000000E+00 0. -1.
         23    2    1    2    0    0  0.14417643609E+04  0.53371546546E+03 -0.28278917414E+04  0.32200310372E+04  0.89952816208E+02 0.  0.
    5000000    2    1    2    0    0 -0.14417643609E+04 -0.53371546546E+03 -0.96947270747E+03  0.19141286726E+04  0.60039534841E+03 0.  0.
         23    2    4    4    0    0 -0.66144395594E+03 -0.66912113832E+02 -0.68011347799E+03  0.95541819309E+03  0.91017816456E+02 0.  0.
         23    2    4    4    0    0 -0.78032040495E+03 -0.46680335163E+03 -0.28935922948E+03  0.95871047953E+03  0.92691512001E+02 0.  0.
          5    1    3    3  502    0  0.10198020241E+04  0.41064619050E+03 -0.20731811373E+04  0.23466419796E+04  0.47000000000E+01 0. -1.
         -5    1    3    3    0  502  0.42196233675E+03  0.12306927496E+03 -0.75471060403E+03  0.87338905759E+03  0.47000000000E+01 0.  1.
         13    1    5    5    0    0 -0.42128779534E+03 -0.81321030561E+02 -0.40611023642E+03  0.59078087362E+03  0.00000000000E+00 0. -1.
        -13    1    5    5    0    0 -0.24015616060E+03  0.14408916728E+02 -0.27400324157E+03  0.36463731947E+03  0.00000000000E+00 0.  1.
          1    1    6    6  503    0 -0.52087939650E+03 -0.26406407325E+03 -0.16633804325E+03  0.60721785638E+03  0.00000000000E+00 0. -1.
         -1    1    6    6    0  503 -0.25944100846E+03 -0.20273927838E+03 -0.12302118623E+03  0.35149262315E+03  0.00000000000E+00 0.  1.
<mgrwt>
<rscale>  0 0.15609292E+04</rscale>
<asrwt>0</asrwt>
<pdfrwt beam="1">  1        2 0.68704033E+00 0.15609292E+04</pdfrwt>
<pdfrwt beam="2">  1       -2 0.10283040E+00 0.15609292E+04</pdfrwt>
<totfact> 0.99672440E-02</totfact>
</mgrwt>
</event>
<event>
12    1  0.3147868E-008  0.3896845E+03  0.7818608E-02  0.1047411E+00
          1   -1    0    0  501    0  0.00000000000E+00  0.00000000000E+00  0.20652783963E+04  0.20652783963E+04  0.00000000000E+00 0. -1.
         -1   -1    0    0    0  501 -0.00000000000E+00 -0.00000000000E+00 -0.13197251813E+03  0.13197251813E+03  0.00000000000E+00 0.  1.
         23    2    1    2    0    0 -0.79169024482E+02 -0.31662219929E+03  0.43758043812E+03  0.55300704954E+03  0.88446625097E+02 0.  0.
    5000000    2    1    2    0    0  0.79169024482E+02  0.31662219929E+03  0.14957254401E+04  0.16442438649E+04  0.59985493553E+03 0.  0.
         23    2    4    4    0    0 -0.90704836322E+02  0.17581759193E+03  0.13467100567E+04  0.13642583364E+04  0.91834845744E+02 0.  0.
         23    2    4    4    0    0  0.16987386080E+03  0.14080460736E+03  0.14901538339E+03  0.27998552844E+03  0.86621276888E+02 0.  0.
          5    1    3    3  502    0 -0.20037183986E+02 -0.24165227989E+03  0.31141757988E+03  0.39471548256E+03  0.47000000000E+01 0. -1.
         -5    1    3    3    0  502 -0.59131840496E+02 -0.74969919407E+02  0.12616285824E+03  0.15829156698E+03  0.47000000000E+01 0.  1.
         11    1    5    5    0    0 -0.90634892434E+01  0.85154399484E+02  0.77236694667E+03  0.77709981270E+03  0.00000000000E+00 0. -1.
        -11    1    5    5    0    0 -0.81641347078E+02  0.90663192446E+02  0.57434310999E+03  0.58715852375E+03  0.00000000000E+00 0.  1.
          3    1    6    6  503    0  0.10697530206E+03  0.38857683621E+02  0.96390415756E+02  0.14914673002E+03  0.00000000000E+00 0. -1.
         -3    1    6    6    0  503  0.62898558742E+02  0.10194692374E+03  0.52624967639E+02  0.13083879842E+03  0.00000000000E+00 0.  1.
<mgrwt>
<rscale>  0 0.38968453E+03</rscale>
<asrwt>0</asrwt>
<pdfrwt beam="1">  1        1 0.31773511E+00 0.38968453E+03</pdfrwt>
<pdfrwt beam="2">  1       -1 0.20303466E-01 0.38968453E+03</pdfrwt>
<totfact> 0.58737309E+01</totfact>
</mgrwt>
</event>
<event>
12    1  0.3422447E-008  0.9054958E+03  0.7818608E-02  0.9418737E-01
         -1   -1    0    0    0  501 -0.00000000000E+00  0.00000000000E+00  0.64719089414E+03  0.64719089414E+03  0.00000000000E+00 0.  1.
          1   -1    0    0  501    0  0.00000000000E+00 -0.00000000000E+00 -0.14957536707E+04  0.14957536707E+04  0.00000000000E+00 0. -1.
         23    2    1    2    0    0  0.51160220829E+03 -0.72648612923E+03 -0.33524408392E+03  0.95427410519E+03  0.93442798291E+02 0.  0.
    5000000    2    1    2    0    0 -0.51160220829E+03  0.72648612923E+03 -0.51331869267E+03  0.11886704597E+04  0.59993538483E+03 0.  0.
         23    2    4    4    0    0 -0.42423317640E+03  0.66377091804E+03 -0.16092202710E+03  0.80915019849E+03  0.90898434039E+02 0.  0.
         23    2    4    4    0    0 -0.87369031888E+02  0.62715211188E+02 -0.35239666558E+03  0.37952026119E+03  0.91025673835E+02 0.  0.
          5    1    3    3  502    0  0.41093555500E+03 -0.54983963385E+03 -0.22175417869E+03  0.72137969134E+03  0.47000000000E+01 0. -1.
         -5    1    3    3    0  502  0.10066665329E+03 -0.17664649538E+03 -0.11348990523E+03  0.23289441385E+03  0.47000000000E+01 0.  1.
         11    1    5    5    0    0 -0.92283851052E+02  0.98253581021E+02 -0.38244518659E+01  0.13485066474E+03  0.00000000000E+00 0.  1.
        -11    1    5    5    0    0 -0.33194932535E+03  0.56551733702E+03 -0.15709757523E+03  0.67429953375E+03  0.00000000000E+00 0. -1.
          4    1    6    6  503    0  0.66918797791E+01 -0.97962646710E+01 -0.98579908201E+02  0.99291219941E+02  0.00000000000E+00 0. -1.
         -4    1    6    6    0  503 -0.94060911667E+02  0.72511475859E+02 -0.25381675738E+03  0.28022904125E+03  0.00000000000E+00 0.  1.
<mgrwt>
<rscale>  0 0.90549575E+03</rscale>
<asrwt>0</asrwt>
<pdfrwt beam="1">  1        1 0.23011595E+00 0.90549575E+03</pdfrwt>
<pdfrwt beam="2">  1       -1 0.99567831E-01 0.90549575E+03</pdfrwt>
<totfact> 0.64504815E+00</totfact>
</mgrwt>
</event>
<event>
12    1  0.3147868E-008  0.6810453E+03  0.7818608E-02  0.9750208E-01
          1   -1    0    0  501    0  0.00000000000E+00  0.00000000000E+00  0.10852014382E+04  0.10852014382E+04  0.00000000000E+00 0.  1.
         -1   -1    0    0    0  501 -0.00000000000E+00 -0.00000000000E+00 -0.45765414106E+03  0.45765414106E+03  0.00000000000E+00 0. -1.
         23    2    1    2    0    0 -0.50755602882E+03  0.24569440050E+03  0.14789438404E+03  0.58993464078E+03  0.90395081353E+02 0.  0.
    5000000    2    1    2    0    0  0.50755602882E+03 -0.24569440050E+03  0.47965291308E+03  0.95292093845E+03  0.60001044747E+03 0.  0.
         23    2    4    4    0    0  0.13952932921E+03 -0.37313951432E+03  0.33339576513E+03  0.52730256815E+03  0.90519231738E+02 0.  0.
         23    2    4    4    0    0  0.36802669961E+03  0.12744511382E+03  0.14625714796E+03  0.42561837030E+03  0.89855078594E+02 0.  0.
          5    1    3    3  502    0 -0.46578182130E+03  0.23387287711E+03  0.11132661194E+03  0.53297742187E+03  0.47000000000E+01 0. -1.
         -5    1    3    3    0  502 -0.41774207527E+02  0.11821523395E+02  0.36567772104E+02  0.56957218915E+02  0.47000000000E+01 0. -1.
         13    1    5    5    0    0  0.85329514469E+02 -0.17989086603E+03  0.11187489853E+03  0.22838091567E+03  0.00000000000E+00 0. -1.
        -13    1    5    5    0    0  0.54199814745E+02 -0.19324864829E+03  0.22152086659E+03  0.29892165247E+03  0.00000000000E+00 0.  1.
          3    1    6    6  503    0  0.22035296558E+03  0.34853026969E+02  0.59345773561E+02  0.23085078248E+03  0.00000000000E+00 0.  1.
         -3    1    6    6    0  503  0.14767373403E+03  0.92592086850E+02  0.86911374398E+02  0.19476758783E+03  0.00000000000E+00 0. -1.
<mgrwt>
<rscale>  0 0.68104529E+03</rscale>
<asrwt>0</asrwt>
<pdfrwt beam="1">  1        1 0.16695407E+00 0.68104529E+03</pdfrwt>
<pdfrwt beam="2">  1       -1 0.70408330E-01 0.68104529E+03</pdfrwt>
<totfact> 0.27501915E+01</totfact>
</mgrwt>
</event>
<event>
12    1  0.3147868E-008  0.1236292E+04  0.7818608E-02  0.9081670E-01
          1   -1    0    0  501    0  0.00000000000E+00  0.00000000000E+00  0.75018242440E+03  0.75018242440E+03  0.00000000000E+00 0. -1.
         -1   -1    0    0    0  501 -0.00000000000E+00 -0.00000000000E+00 -0.22461190031E+04  0.22461190031E+04  0.00000000000E+00 0.  1.
         23    2    1    2    0    0  0.11407456327E+04 -0.25301671820E+03 -0.27695393780E+03  0.12042418765E+04  0.90426517945E+02 0.  0.
    5000000    2    1    2    0    0 -0.11407456327E+04  0.25301671820E+03 -0.12189826409E+04  0.17920595511E+04  0.60020054769E+03 0.  0.
         23    2    4    4    0    0 -0.86380413722E+02  0.21194998265E+03 -0.15747264494E+03  0.29261505704E+03  0.91877998885E+02 0.  0.
         23    2    4    4    0    0 -0.10543652190E+04  0.41066735545E+02 -0.10615099960E+04  0.14994444940E+04  0.90320691495E+02 0.  0.
          5    1    3    3  502    0  0.24087195596E+03 -0.20244206398E+02 -0.74004345639E+02  0.25283959388E+03  0.47000000000E+01 0. -1.
         -5    1    3    3    0  502  0.89987367674E+03 -0.23277251180E+03 -0.20294959216E+03  0.95140228258E+03  0.47000000000E+01 0.  1.
         11    1    5    5    0    0 -0.20614802966E+02  0.15727502981E+03 -0.12161996141E+03  0.19987951400E+03  0.00000000000E+00 0.  1.
        -11    1    5    5    0    0 -0.65765610756E+02  0.54674952843E+02 -0.35852683535E+02  0.92735543041E+02  0.00000000000E+00 0. -1.
          3    1    6    6  503    0 -0.45168828207E+03  0.49816302553E+02 -0.41262736801E+03  0.61381211538E+03  0.00000000000E+00 0. -1.
         -3    1    6    6    0  503 -0.60267693691E+03 -0.87495670083E+01 -0.64888262799E+03  0.88563237865E+03  0.00000000000E+00 0.  1.
<mgrwt>
<rscale>  0 0.12362917E+04</rscale>
<asrwt>0</asrwt>
<pdfrwt beam="1">  1        1 0.11541268E+00 0.12362917E+04</pdfrwt>
<pdfrwt beam="2">  1       -1 0.34555677E+00 0.12362917E+04</pdfrwt>
<totfact> 0.40152506E-01</totfact>
</mgrwt>
</event>
<event>
12    1  0.3147868E-008  0.8939806E+03  0.7818608E-02  0.9433137E-01
          2   -1    0    0  501    0  0.00000000000E+00  0.00000000000E+00  0.20663163337E+04  0.20663163337E+04  0.00000000000E+00 0.  1.
         -2   -1    0    0    0  501 -0.00000000000E+00 -0.00000000000E+00 -0.41453939337E+03  0.41453939337E+03  0.00000000000E+00 0. -1.
         23    2    1    2    0    0 -0.44622429054E+03  0.67461983550E+03  0.95521617204E+03  0.12557526235E+04  0.10123574500E+03 0.  0.
    5000000    2    1    2    0    0  0.44622429054E+03 -0.67461983550E+03  0.69656076832E+03  0.12251031036E+04  0.60120934016E+03 0.  0.
         23    2    4    4    0    0 -0.69960214456E+01 -0.47490150080E+03  0.46433044077E+03  0.67050804288E+03  0.91640043468E+02 0.  0.
         23    2    4    4    0    0  0.45322031198E+03 -0.19971833470E+03  0.23223032754E+03  0.55459506076E+03  0.91371176992E+02 0.  0.
          5    1    3    3  502    0 -0.27978689392E+03  0.33624045677E+03  0.53655581954E+03  0.69228071493E+03  0.47000000000E+01 0. -1.
         -5    1    3    3    0  502 -0.16643739661E+03  0.33837937872E+03  0.41866035251E+03  0.56347190852E+03  0.47000000000E+01 0.  1.
         13    1    5    5    0    0 -0.28263337355E+02 -0.19113519926E+03  0.13743510712E+03  0.23710733710E+03  0.00000000000E+00 0. -1.
        -13    1    5    5    0    0  0.21267315910E+02 -0.28376630153E+03  0.32689533365E+03  0.43340070579E+03  0.00000000000E+00 0.  1.
          4    1    6    6  503    0  0.13312239241E+03 -0.67837677786E+02  0.26095607636E+02  0.15167235288E+03  0.00000000000E+00 0. -1.
         -4    1    6    6    0  503  0.32009791957E+03 -0.13188065691E+03  0.20613471991E+03  0.40292270789E+03  0.00000000000E+00 0.  1.
<mgrwt>
<rscale>  0 0.89398056E+03</rscale>
<asrwt>0</asrwt>
<pdfrwt beam="1">  1        2 0.31789481E+00 0.89398056E+03</pdfrwt>
<pdfrwt beam="2">  1       -2 0.63775293E-01 0.89398056E+03</pdfrwt>
<totfact> 0.14186630E+01</totfact>
</mgrwt>
</event>
<event>
12    1  0.3147868E-008  0.9327078E+03  0.7818608E-02  0.9385594E-01
          1   -1    0    0  501    0  0.00000000000E+00  0.00000000000E+00  0.11576628588E+04  0.11576628588E+04  0.00000000000E+00 0. -1.
         -1   -1    0    0    0  501 -0.00000000000E+00 -0.00000000000E+00 -0.77534862897E+03  0.77534862897E+03  0.00000000000E+00 0.  1.
         23    2    1    2    0    0  0.35018762245E+03 -0.77328192618E+03  0.13440546244E+03  0.86432825888E+03  0.91663528625E+02 0.  0.
    5000000    2    1    2    0    0 -0.35018762245E+03  0.77328192618E+03  0.24790876741E+03  0.10686832289E+04  0.60002398162E+03 0.  0.
         23    2    4    4    0    0 -0.14002044263E+03  0.79092110313E+03  0.19796429997E+03  0.83185234659E+03  0.87330102116E+02 0.  0.
         23    2    4    4    0    0 -0.21016717982E+03 -0.17639176945E+02  0.49944467445E+02  0.23683088232E+03  0.95462206961E+02 0.  0.
          5    1    3    3  502    0  0.26871381898E+03 -0.64892172345E+03  0.84525794460E+02  0.70744131884E+03  0.47000000000E+01 0. -1.
         -5    1    3    3    0  502  0.81473803472E+02 -0.12436020273E+03  0.49879667975E+02  0.15688694003E+03  0.47000000000E+01 0.  1.
         13    1    5    5    0    0 -0.88152276557E+02  0.54133989393E+03  0.17589448880E+03  0.57598487464E+03  0.00000000000E+00 0. -1.
        -13    1    5    5    0    0 -0.51868166077E+02  0.24958120920E+03  0.22069811164E+02  0.25586747195E+03  0.00000000000E+00 0.  1.
          4    1    6    6  503    0 -0.10330995562E+03 -0.79233159001E+01  0.73427243680E+02  0.12699325170E+03  0.00000000000E+00 0. -1.
         -4    1    6    6    0  503 -0.10685722420E+03 -0.97158610449E+01 -0.23482776236E+02  0.10983763062E+03  0.00000000000E+00 0.  1.
<mgrwt>
<rscale>  0 0.93270783E+03</rscale>
<asrwt>0</asrwt>
<pdfrwt beam="1">  1        1 0.17810198E+00 0.93270783E+03</pdfrwt>
<pdfrwt beam="2">  1       -1 0.11928440E+00 0.93270783E+03</pdfrwt>
<totfact> 0.72909785E+00</totfact>
</mgrwt>
</event>
<event>
12    1  0.3147868E-008  0.1483137E+04  0.7818608E-02  0.8895744E-01
         -2   -1    0    0    0  501 -0.00000000000E+00  0.00000000000E+00  0.23698890687E+04  0.23698890687E+04  0.00000000000E+00 0.  1.
          2   -1    0    0  501    0  0.00000000000E+00 -0.00000000000E+00 -0.10620484460E+04  0.10620484460E+04  0.00000000000E+00 0. -1.
         23    2    1    2    0    0 -0.13106692740E+04  0.61663915503E+03  0.11583444627E+04  0.18570198913E+04  0.93076253770E+02 0.  0.
    5000000    2    1    2    0    0  0.13106692740E+04 -0.61663915503E+03  0.14949616005E+03  0.15749176234E+04  0.59993218384E+03 0.  0.
         23    2    4    4    0    0  0.29969623014E+03  0.29030613963E+02 -0.12702410436E+03  0.34055512806E+03  0.95823093510E+02 0.  0.
         23    2    4    4    0    0  0.10109730439E+04 -0.64566976899E+03  0.27652026441E+03  0.12343624953E+04  0.90726882449E+02 0.  0.
          5    1    3    3  502    0 -0.10470839725E+04  0.45078347436E+03  0.91130014690E+03  0.14594795764E+04  0.47000000000E+01 0. -1.
         -5    1    3    3    0  502 -0.26358530152E+03  0.16585568066E+03  0.24704431576E+03  0.39754031486E+03  0.47000000000E+01 0.  1.
         13    1    5    5    0    0  0.14928133200E+02  0.23831685280E+02  0.13323871060E+01  0.28152684410E+02  0.00000000000E+00 0.  1.
        -13    1    5    5    0    0  0.28476809694E+03  0.51989286831E+01 -0.12835649147E+03  0.31240244365E+03  0.00000000000E+00 0. -1.
          1    1    6    6  503    0  0.94633925403E+03 -0.62464703988E+03  0.24832023976E+03  0.11607776917E+04  0.00000000000E+00 0. -1.
         -1    1    6    6    0  503  0.64633789833E+02 -0.21022729105E+02  0.28200024652E+02  0.73584803577E+02  0.00000000000E+00 0.  1.
<mgrwt>
<rscale>  0 0.14831374E+04</rscale>
<asrwt>0</asrwt>
<pdfrwt beam="1">  1        2 0.16339207E+00 0.14831374E+04</pdfrwt>
<pdfrwt beam="2">  1       -2 0.36459832E+00 0.14831374E+04</pdfrwt>
<totfact> 0.27476122E-01</totfact>
</mgrwt>
</event>
<event>
12    1  0.3147868E-008  0.1061624E+04  0.7818608E-02  0.9243424E-01
          1   -1    0    0  501    0  0.00000000000E+00  0.00000000000E+00  0.24232672624E+04  0.24232672624E+04  0.00000000000E+00 0. -1.
         -1   -1    0    0    0  501 -0.00000000000E+00 -0.00000000000E+00 -0.49706560477E+03  0.49706560477E+03  0.00000000000E+00 0.  1.
         23    2    1    2    0    0  0.55181657304E+03  0.82722197507E+03  0.63320790322E+03  0.11823273272E+04  0.90265904480E+02 0.  0.
    5000000    2    1    2    0    0 -0.55181657304E+03 -0.82722197507E+03  0.12929937544E+04  0.17380055400E+04  0.60002723425E+03 0.  0.
         23    2    4    4    0    0 -0.25283296931E+03 -0.12677743495E+02  0.44982518651E+03  0.52471265316E+03  0.94315610677E+02 0.  0.
         23    2    4    4    0    0 -0.29898360373E+03 -0.81454423158E+03  0.84316856787E+03  0.12132928868E+04  0.90955455526E+02 0.  0.
          5    1    3    3  502    0  0.38516400272E+03  0.51308526772E+03  0.43551281391E+03  0.77543620113E+03  0.47000000000E+01 0.  1.
         -5    1    3    3    0  502  0.16665257031E+03  0.31413670735E+03  0.19769508931E+03  0.40689112602E+03  0.47000000000E+01 0. -1.
         11    1    5    5    0    0 -0.18586231665E+03  0.23829241361E+01  0.23764091801E+03  0.30170131751E+03  0.00000000000E+00 0. -1.
        -11    1    5    5    0    0 -0.66970652664E+02 -0.15060667631E+02  0.21218426851E+03  0.22301133565E+03  0.00000000000E+00 0.  1.
          1    1    6    6  503    0 -0.85875286063E+02 -0.35053267302E+03  0.37689368059E+03  0.52182043470E+03  0.00000000000E+00 0. -1.
         -1    1    6    6    0  503 -0.21310831766E+03 -0.46401155856E+03  0.46627488729E+03  0.69147245212E+03  0.00000000000E+00 0.  1.
<mgrwt>
<rscale>  0 0.10616243E+04</rscale>
<asrwt>0</asrwt>
<pdfrwt beam="1">  1        1 0.37281034E+00 0.10616243E+04</pdfrwt>
<pdfrwt beam="2">  1       -1 0.76471633E-01 0.10616243E+04</pdfrwt>
<totfact> 0.26512528E+00</totfact>
</mgrwt>
</event>
<event>
12    1  0.3147868E-008  0.6276628E+03  0.7818608E-02  0.9849620E-01
          1   -1    0    0  501    0  0.00000000000E+00  0.00000000000E+00  0.13109753373E+04  0.13109753373E+04  0.00000000000E+00 0. -1.
         -1   -1    0    0    0  501 -0.00000000000E+00 -0.00000000000E+00 -0.57076152379E+03  0.57076152379E+03  0.00000000000E+00 0.  1.
         23    2    1    2    0    0 -0.23698650455E+02 -0.57793530059E+03 -0.20612818755E+03  0.62079220131E+03  0.91232065636E+02 0.  0.
    5000000    2    1    2    0    0  0.23698650455E+02  0.57793530059E+03  0.94634200108E+03  0.12609446598E+04  0.59987283186E+03 0.  0.
         23    2    4    4    0    0 -0.54747060343E+01  0.47721217291E+01  0.54701525375E+03  0.55471327002E+03  0.91806201076E+02 0.  0.
         23    2    4    4    0    0  0.29173356489E+02  0.57316317886E+03  0.39932674734E+03  0.70623138979E+03  0.99668502835E+02 0.  0.
          5    1    3    3  502    0  0.52343213861E+01 -0.43872108266E+03 -0.12162843434E+03  0.45532312979E+03  0.47000000000E+01 0. -1.
         -5    1    3    3    0  502 -0.28932971841E+02 -0.13921421794E+03 -0.84499753208E+02  0.16546907151E+03  0.47000000000E+01 0. -1.
         13    1    5    5    0    0 -0.32430990025E+02  0.37498629238E+02  0.28088071687E+03  0.28522253315E+03  0.00000000000E+00 0. -1.
        -13    1    5    5    0    0  0.26956283991E+02 -0.32726507508E+02  0.26613453688E+03  0.26949073687E+03  0.00000000000E+00 0.  1.
          1    1    6    6  503    0 -0.35404876653E+02  0.27211352303E+03  0.17917940268E+03  0.32772630815E+03  0.00000000000E+00 0. -1.
         -1    1    6    6    0  503  0.64578233142E+02  0.30104965583E+03  0.22014734465E+03  0.37850508164E+03  0.00000000000E+00 0.  1.
<mgrwt>
<rscale>  0 0.62766283E+03</rscale>
<asrwt>0</asrwt>
<pdfrwt beam="1">  1        1 0.20168851E+00 0.62766283E+03</pdfrwt>
<pdfrwt beam="2">  1       -1 0.87809465E-01 0.62766283E+03</pdfrwt>
<totfact> 0.11952189E+01</totfact>
</mgrwt>
</event>
<event>
12    1  0.3147868E-008  0.4548676E+03  0.7818608E-02  0.1026280E+00
         -1   -1    0    0    0  501 -0.00000000000E+00  0.00000000000E+00  0.10712266100E+04  0.10712266100E+04  0.00000000000E+00 0.  1.
          1   -1    0    0  501    0  0.00000000000E+00 -0.00000000000E+00 -0.24736912924E+03  0.24736912924E+03  0.00000000000E+00 0. -1.
         23    2    1    2    0    0 -0.23918664445E+03 -0.20051844497E+03  0.13946200060E+03  0.35640892297E+03  0.10079569985E+03 0.  0.
    5000000    2    1    2    0    0  0.23918664445E+03  0.20051844497E+03  0.68439548014E+03  0.96218681625E+03  0.59999033198E+03 0.  0.
         23    2    4    4    0    0  0.28501366954E+03  0.33080475143E+03  0.65696394164E+03  0.79417871122E+03  0.91943620509E+02 0.  0.
         23    2    4    4    0    0 -0.45827025083E+02 -0.13028630647E+03  0.27431538504E+02  0.16800810503E+03  0.91649310799E+02 0.  0.
          5    1    3    3  502    0 -0.18090371677E+02  0.35503740575E+01 -0.87886204283E+01  0.20957016782E+02  0.47000000000E+01 0. -1.
         -5    1    3    3    0  502 -0.22109627278E+03 -0.20406881903E+03  0.14825062103E+03  0.33545190619E+03  0.47000000000E+01 0.  1.
         11    1    5    5    0    0  0.42240292179E+02  0.83275691706E+02  0.90525240936E+02  0.13005345962E+03  0.00000000000E+00 0.  1.
        -11    1    5    5    0    0  0.24277337736E+03  0.24752905973E+03  0.56643870070E+03  0.66412525160E+03  0.00000000000E+00 0. -1.
          4    1    6    6  503    0 -0.17603763634E+02 -0.12811984520E+01 -0.20926444787E+02  0.27376085457E+02  0.00000000000E+00 0.  1.
         -4    1    6    6    0  503 -0.28223261449E+02 -0.12900510801E+03  0.48357983292E+02  0.14063201957E+03  0.00000000000E+00 0. -1.
<mgrwt>
<rscale>  0 0.45486757E+03</rscale>
<asrwt>0</asrwt>
<pdfrwt beam="1">  1        1 0.38056790E-01 0.45486757E+03</pdfrwt>
<pdfrwt beam="2">  1       -1 0.16480409E+00 0.45486757E+03</pdfrwt>
<totfact> 0.32054598E+01</totfact>
</mgrwt>
</event>
<event>
12    1  0.3147868E-008  0.8073186E+03  0.7818608E-02  0.9549484E-01
          1   -1    0    0  501    0  0.00000000000E+00  0.00000000000E+00  0.95134923892E+03  0.95134923892E+03  0.00000000000E+00 0. -1.
         -1   -1    0    0    0  501 -0.00000000000E+00 -0.00000000000E+00 -0.70707533228E+03  0.70707533228E+03  0.00000000000E+00 0.  1.
         23    2    1    2    0    0 -0.37672678067E+03 -0.59243239595E+03  0.19176179911E+03  0.73344061182E+03  0.90902873522E+02 0.  0.
    5000000    2    1    2    0    0  0.37672678067E+03  0.59243239595E+03  0.52512107528E+02  0.92498395938E+03  0.59994882501E+03 0.  0.
         23    2    4    4    0    0  0.76220166090E+02  0.59917098773E+03  0.35327053770E+02  0.61158005210E+03  0.89256782016E+02 0.  0.
         23    2    4    4    0    0  0.30050661458E+03 -0.67385917826E+01  0.17185053758E+02  0.31340390729E+03  0.87046246348E+02 0.  0.
          5    1    3    3  502    0 -0.24322058009E+03 -0.32584458227E+03  0.14441340076E+03  0.43151855429E+03  0.47000000000E+01 0. -1.
         -5    1    3    3    0  502 -0.13350620058E+03 -0.26658781368E+03  0.47348398353E+02  0.30192205753E+03  0.47000000000E+01 0.  1.
         13    1    5    5    0    0  0.84994002704E+02  0.36791746749E+03  0.42899254761E+02  0.38003630016E+03  0.00000000000E+00 0. -1.
        -13    1    5    5    0    0 -0.87738366133E+01  0.23125352025E+03 -0.75722009913E+01  0.23154375194E+03  0.00000000000E+00 0.  1.
          2    1    6    6  503    0  0.56361862819E+02  0.30752815097E+01  0.38204784858E+02  0.68159537284E+02  0.00000000000E+00 0. -1.
         -2    1    6    6    0  503  0.24414475176E+03 -0.98138732923E+01 -0.21019731099E+02  0.24524437000E+03  0.00000000000E+00 0.  1.
<mgrwt>
<rscale>  0 0.80731865E+03</rscale>
<asrwt>0</asrwt>
<pdfrwt beam="1">  1        1 0.14636142E+00 0.80731865E+03</pdfrwt>
<pdfrwt beam="2">  1       -1 0.10878082E+00 0.80731865E+03</pdfrwt>
<totfact> 0.13258077E+01</totfact>
</mgrwt>
</event>
<event>
12    1  0.3147868E-008  0.6311878E+03  0.7818608E-02  0.9842734E-01
         -1   -1    0    0    0  501 -0.00000000000E+00  0.00000000000E+00  0.93319559317E+03  0.93319559317E+03  0.00000000000E+00 0.  1.
          1   -1    0    0  501    0  0.00000000000E+00 -0.00000000000E+00 -0.19112566990E+04  0.19112566990E+04  0.00000000000E+00 0. -1.
         23    2    1    2    0    0  0.50242406690E+03 -0.28780405338E+03  0.73397824533E+03  0.94000451561E+03  0.98098463740E+02 0.  0.
    5000000    2    1    2    0    0 -0.50242406690E+03  0.28780405338E+03 -0.17120393512E+04  0.19044477766E+04  0.60048436914E+03 0.  0.
         23    2    4    4    0    0 -0.40185819261E+03  0.36872965801E+03 -0.76343874075E+03  0.94273897649E+03  0.92013581778E+02 0.  0.
         23    2    4    4    0    0 -0.10056587429E+03 -0.80925604630E+02 -0.94860061043E+03  0.96170880009E+03  0.91532778391E+02 0.  0.
          5    1    3    3  502    0  0.35479531005E+03 -0.22434232234E+03  0.59059524814E+03  0.72459231762E+03  0.47000000000E+01 0. -1.
         -5    1    3    3    0  502  0.14762875685E+03 -0.63461731040E+02  0.14338299719E+03  0.21541219798E+03  0.47000000000E+01 0.  1.
         11    1    5    5    0    0 -0.12995341470E+03  0.65817829581E+02 -0.21686153775E+03  0.26124471906E+03  0.00000000000E+00 0. -1.
        -11    1    5    5    0    0 -0.27190477791E+03  0.30291182843E+03 -0.54657720301E+03  0.68149425743E+03  0.00000000000E+00 0.  1.
          2    1    6    6  503    0 -0.81136903606E+02 -0.66294475482E+02 -0.91048731886E+03  0.91649621517E+03  0.00000000000E+00 0. -1.
         -2    1    6    6    0  503 -0.19428970682E+02 -0.14631129148E+02 -0.38113291563E+02  0.45212584926E+02  0.00000000000E+00 0.  1.
<mgrwt>
<rscale>  0 0.63118781E+03</rscale>
<asrwt>0</asrwt>
<pdfrwt beam="1">  1        1 0.29403949E+00 0.63118781E+03</pdfrwt>
<pdfrwt beam="2">  1       -1 0.14356855E+00 0.63118781E+03</pdfrwt>
<totfact> 0.14551682E+00</totfact>
</mgrwt>
</event>
<event>
12    1  0.3147868E-008  0.7538409E+03  0.7818608E-02  0.9629344E-01
         -1   -1    0    0    0  501 -0.00000000000E+00  0.00000000000E+00  0.67059453400E+03  0.67059453400E+03  0.00000000000E+00 0.  1.
          1   -1    0    0  501    0  0.00000000000E+00 -0.00000000000E+00 -0.92680989955E+03  0.92680989955E+03  0.00000000000E+00 0. -1.
         23    2    1    2    0    0 -0.43791233525E+03 -0.48257901622E+03 -0.27093862709E+03  0.71157355943E+03  0.90991596189E+02 0.  0.
    5000000    2    1    2    0    0  0.43791233525E+03  0.48257901622E+03  0.14723261543E+02  0.88583087412E+03  0.59985818561E+03 0.  0.
         23    2    4    4    0    0  0.56097231271E+03  0.37992247916E+03 -0.62372514501E+02  0.68599009337E+03  0.87527434751E+02 0.  0.
         23    2    4    4    0    0 -0.12305997746E+03  0.10265653706E+03  0.77095776044E+02  0.19984078075E+03  0.91161704198E+02 0.  0.
          5    1    3    3  502    0 -0.22829256582E+03 -0.30289528593E+03 -0.12591100436E+03  0.39967326764E+03  0.47000000000E+01 0. -1.
         -5    1    3    3    0  502 -0.20961976943E+03 -0.17968373029E+03 -0.14502762273E+03  0.31190029179E+03  0.47000000000E+01 0.  1.
         13    1    5    5    0    0  0.44122625883E+03  0.31819235262E+03 -0.80994403023E+02  0.54998825266E+03  0.00000000000E+00 0. -1.
        -13    1    5    5    0    0  0.11974605389E+03  0.61730126541E+02  0.18621888522E+02  0.13600184071E+03  0.00000000000E+00 0.  1.
          2    1    6    6  503    0 -0.10658610216E+03  0.48856945536E+02  0.18669518781E+02  0.11872720511E+03  0.00000000000E+00 0. -1.
         -2    1    6    6    0  503 -0.16473875300E+02  0.53799591522E+02  0.58426257263E+02  0.81113575641E+02  0.00000000000E+00 0.  1.
<mgrwt>
<rscale>  0 0.75384093E+03</rscale>
<asrwt>0</asrwt>
<pdfrwt beam="1">  1        1 0.14258614E+00 0.75384093E+03</pdfrwt>
<pdfrwt beam="2">  1       -1 0.10316839E+00 0.75384093E+03</pdfrwt>
<totfact> 0.15794503E+01</totfact>
</mgrwt>
</event>
<event>
12    1  0.3147868E-008  0.1544318E+04  0.7818608E-02  0.8855506E-01
         -2   -1    0    0    0  501 -0.00000000000E+00  0.00000000000E+00  0.76089138625E+03  0.76089138625E+03  0.00000000000E+00 0.  1.
          2   -1    0    0  501    0  0.00000000000E+00 -0.00000000000E+00 -0.33712303535E+04  0.33712303535E+04  0.00000000000E+00 0. -1.
         23    2    1    2    0    0  0.15279143493E+04 -0.18359546333E+03 -0.10980610592E+04  0.18926755375E+04  0.90846284818E+02 0.  0.
    5000000    2    1    2    0    0 -0.15279143493E+04  0.18359546333E+03 -0.15122779081E+04  0.22394462023E+04  0.59992105210E+03 0.  0.
         23    2    4    4    0    0 -0.11056000562E+04  0.87459356704E+02 -0.70101851423E+03  0.13152746835E+04  0.92303371569E+02 0.  0.
         23    2    4    4    0    0 -0.42231429312E+03  0.96136106621E+02 -0.81125939384E+03  0.92417151881E+03  0.91431279751E+02 0.  0.
          5    1    3    3  502    0  0.89980943089E+03 -0.14083017469E+03 -0.61190409081E+03  0.10972414759E+04  0.47000000000E+01 0. -1.
         -5    1    3    3    0  502  0.62810491841E+03 -0.42765288638E+02 -0.48615696837E+03  0.79543406159E+03  0.47000000000E+01 0.  1.
         13    1    5    5    0    0 -0.78868704444E+03  0.90122282423E+02 -0.53729225223E+03  0.95855737656E+03  0.00000000000E+00 0. -1.
        -13    1    5    5    0    0 -0.31691301174E+03 -0.26629257193E+01 -0.16372626199E+03  0.35671730691E+03  0.00000000000E+00 0.  1.
          4    1    6    6  503    0 -0.15154285808E+03  0.65316109325E+02 -0.24025472555E+03  0.29146829179E+03  0.00000000000E+00 0. -1.
         -4    1    6    6    0  503 -0.27077143504E+03  0.30819997296E+02 -0.57100466829E+03  0.63270322702E+03  0.00000000000E+00 0.  1.
<mgrwt>
<rscale>  0 0.15443176E+04</rscale>
<asrwt>0</asrwt>
<pdfrwt beam="1">  1        2 0.51865082E+00 0.15443176E+04</pdfrwt>
<pdfrwt beam="2">  1       -2 0.11706022E+00 0.15443176E+04</pdfrwt>
<totfact> 0.53611508E-01</totfact>
</mgrwt>
</event>
<event>
12    1  0.3147868E-008  0.4404011E+03  0.7818608E-02  0.1030624E+00
          2   -1    0    0  501    0  0.00000000000E+00  0.00000000000E+00  0.14677429480E+04  0.14677429480E+04  0.00000000000E+00 0. -1.
         -2   -1    0    0    0  501 -0.00000000000E+00 -0.00000000000E+00 -0.14700269862E+03  0.14700269862E+03  0.00000000000E+00 0.  1.
         23    2    1    2    0    0  0.92022820333E+02  0.22653038747E+03  0.23817895759E+03  0.35314037554E+03  0.90524544148E+02 0.  0.
    5000000    2    1    2    0    0 -0.92022820333E+02 -0.22653038747E+03  0.10825612918E+04  0.12616052711E+04  0.59993724139E+03 0.  0.
         23    2    4    4    0    0  0.65891570167E+02 -0.37647968926E+03  0.53033248726E+03  0.66009811038E+03  0.91642309238E+02 0.  0.
         23    2    4    4    0    0 -0.15791439050E+03  0.14994930179E+03  0.55222880455E+03  0.60150716070E+03  0.97120873000E+02 0.  0.
          5    1    3    3  502    0  0.10496187314E+03  0.19921144465E+03  0.22901888813E+03  0.32120699808E+03  0.47000000000E+01 0. -1.
         -5    1    3    3    0  502 -0.12939052805E+02  0.27318942811E+02  0.91600694580E+01  0.31933377465E+02  0.47000000000E+01 0.  1.
         13    1    5    5    0    0 -0.13601199574E+02 -0.16695674743E+02  0.13664017691E+02  0.25503795098E+02  0.00000000000E+00 0.  1.
        -13    1    5    5    0    0  0.79492769741E+02 -0.35978401452E+03  0.51666846957E+03  0.63459431528E+03  0.00000000000E+00 0. -1.
          4    1    6    6  503    0 -0.58086290214E+02  0.11568628498E+03  0.25270125255E+03  0.28392825974E+03  0.00000000000E+00 0. -1.
         -4    1    6    6    0  503 -0.99828100286E+02  0.34263016815E+02  0.29952755200E+03  0.31757890096E+03  0.00000000000E+00 0.  1.
<mgrwt>
<rscale>  0 0.44040106E+03</rscale>
<asrwt>0</asrwt>
<pdfrwt beam="1">  1        2 0.22580660E+00 0.44040106E+03</pdfrwt>
<pdfrwt beam="2">  1       -2 0.22615801E-01 0.44040106E+03</pdfrwt>
<totfact> 0.23695073E+02</totfact>
</mgrwt>
</event>
<event>
12    1  0.3147868E-008  0.2135974E+04  0.7818608E-02  0.8545560E-01
          1   -1    0    0  501    0  0.00000000000E+00  0.00000000000E+00  0.34418789564E+04  0.34418789564E+04  0.00000000000E+00 0. -1.
         -1   -1    0    0    0  501 -0.00000000000E+00 -0.00000000000E+00 -0.17374729464E+04  0.17374729464E+04  0.00000000000E+00 0.  1.
         23    2    1    2    0    0 -0.67615739949E+03  0.19861273612E+04 -0.41118977680E+03  0.21399620205E+04  0.92030935499E+02 0.  0.
    5000000    2    1    2    0    0  0.67615739949E+03 -0.19861273612E+04  0.21155957868E+04  0.30393898823E+04  0.60021212888E+03 0.  0.
         23    2    4    4    0    0  0.11184796021E+03 -0.11571511862E+04  0.99600537389E+03  0.15334573060E+04  0.89195127006E+02 0.  0.
         23    2    4    4    0    0  0.56430943927E+03 -0.82897617498E+03  0.11195904129E+04  0.15059325762E+04  0.93293030751E+02 0.  0.
          5    1    3    3  502    0 -0.16821605216E+03  0.39376945902E+03 -0.66076662692E+02  0.43328886716E+03  0.47000000000E+01 0. -1.
         -5    1    3    3    0  502 -0.50794134733E+03  0.15923579021E+04 -0.34511311411E+03  0.17066731534E+04  0.47000000000E+01 0.  1.
         13    1    5    5    0    0  0.53106048645E+01 -0.46907014761E+03  0.37728700381E+03  0.60199708400E+03  0.00000000000E+00 0. -1.
        -13    1    5    5    0    0  0.10653735535E+03 -0.68808103857E+03  0.61871837008E+03  0.93146022202E+03  0.00000000000E+00 0.  1.
          1    1    6    6  503    0  0.37709171256E+03 -0.47489086397E+03  0.65887704285E+03  0.89545432601E+03  0.00000000000E+00 0. -1.
         -1    1    6    6    0  503  0.18721772671E+03 -0.35408531101E+03  0.46071337005E+03  0.61047825023E+03  0.00000000000E+00 0.  1.
<mgrwt>
<rscale>  0 0.21359743E+04</rscale>
<asrwt>0</asrwt>
<pdfrwt beam="1">  1        1 0.52951984E+00 0.21359743E+04</pdfrwt>
<pdfrwt beam="2">  1       -1 0.26730353E+00 0.21359743E+04</pdfrwt>
<totfact> 0.13051615E-02</totfact>
</mgrwt>
</event>
<event>
12    1  0.3147868E-008  0.6094873E+03  0.7818608E-02  0.9885916E-01
          1   -1    0    0  501    0  0.00000000000E+00  0.00000000000E+00  0.14986325868E+04  0.14986325868E+04  0.00000000000E+00 0. -1.
         -1   -1    0    0    0  501 -0.00000000000E+00 -0.00000000000E+00 -0.32611114628E+03  0.32611114628E+03  0.00000000000E+00 0.  1.
         23    2    1    2    0    0 -0.45772620083E+03 -0.10244303976E+03  0.89435561473E+03  0.10140129977E+04  0.91337520276E+02 0.  0.
    5000000    2    1    2    0    0  0.45772620083E+03  0.10244303976E+03  0.27816582581E+03  0.81073073539E+03  0.59991686702E+03 0.  0.
         23    2    4    4    0    0  0.15085481621E+03  0.32406520702E+03  0.17207377351E+03  0.40718658644E+03  0.91739297314E+02 0.  0.
         23    2    4    4    0    0  0.30687138462E+03 -0.22162216726E+03  0.10609205230E+03  0.40354414895E+03  0.91136846931E+02 0.  0.
          5    1    3    3  502    0 -0.27837967184E+03 -0.38632538537E+02  0.61181276449E+03  0.67329389090E+03  0.47000000000E+01 0.  1.
         -5    1    3    3    0  502 -0.17934652899E+03 -0.63810501220E+02  0.28254285024E+03  0.34071910681E+03  0.47000000000E+01 0. -1.
         13    1    5    5    0    0  0.31616305402E+02  0.15963974793E+03  0.10326297094E+03  0.19273733695E+03  0.00000000000E+00 0. -1.
        -13    1    5    5    0    0  0.11923851081E+03  0.16442545909E+03  0.68810802565E+02  0.21444924949E+03  0.00000000000E+00 0.  1.
          2    1    6    6  503    0  0.23730807926E+03 -0.14486545246E+03  0.11210484877E+03  0.29978095489E+03  0.00000000000E+00 0.  1.
         -2    1    6    6    0  503  0.69563305360E+02 -0.76756714803E+02 -0.60127964622E+01  0.10376319406E+03  0.00000000000E+00 0. -1.
<mgrwt>
<rscale>  0 0.60948733E+03</rscale>
<asrwt>0</asrwt>
<pdfrwt beam="1">  1        1 0.23055886E+00 0.60948733E+03</pdfrwt>
<pdfrwt beam="2">  1       -1 0.50170946E-01 0.60948733E+03</pdfrwt>
<totfact> 0.27526158E+01</totfact>
</mgrwt>
</event>
<event>
12    1  0.3147868E-008  0.1233712E+04  0.7818608E-02  0.9083849E-01
          1   -1    0    0  501    0  0.00000000000E+00  0.00000000000E+00  0.19242880406E+04  0.19242880406E+04  0.00000000000E+00 0. -1.
         -1   -1    0    0    0  501 -0.00000000000E+00 -0.00000000000E+00 -0.81727814447E+03  0.81727814447E+03  0.00000000000E+00 0.  1.
         23    2    1    2    0    0  0.11158698337E+04  0.35413095029E+03  0.35764280033E+03  0.12275715868E+04  0.91920685756E+02 0.  0.
    5000000    2    1    2    0    0 -0.11158698337E+04 -0.35413095029E+03  0.74936709579E+03  0.15139945982E+04  0.60004531795E+03 0.  0.
         23    2    4    4    0    0 -0.63224763373E+03  0.80486508532E+02  0.25674463774E+03  0.69323823639E+03  0.91903726656E+02 0.  0.
         23    2    4    4    0    0 -0.48362219994E+03 -0.43461745882E+03  0.49262245806E+03  0.82075636185E+03  0.90450823936E+02 0.  0.
          5    1    3    3  502    0  0.97025786055E+03  0.29180781997E+03  0.28037189125E+03  0.10512766559E+04  0.47000000000E+01 0. -1.
         -5    1    3    3    0  502  0.14561197312E+03  0.62323130315E+02  0.77270909082E+02  0.17629493095E+03  0.47000000000E+01 0.  1.
         11    1    5    5    0    0 -0.55848428701E+03  0.40590992533E+02  0.21869352878E+03  0.60114822385E+03  0.00000000000E+00 0. -1.
        -11    1    5    5    0    0 -0.73763346724E+02  0.39895515999E+02  0.38051108955E+02  0.92090012539E+02  0.00000000000E+00 0.  1.
          1    1    6    6  503    0 -0.40559918370E+03 -0.33957681762E+03  0.35977679097E+03  0.63973623643E+03  0.00000000000E+00 0. -1.
         -1    1    6    6    0  503 -0.78023016240E+02 -0.95040641200E+02  0.13284566709E+03  0.18102012542E+03  0.00000000000E+00 0.  1.
<mgrwt>
<rscale>  0 0.12337124E+04</rscale>
<asrwt>0</asrwt>
<pdfrwt beam="1">  1        1 0.29604431E+00 0.12337124E+04</pdfrwt>
<pdfrwt beam="2">  1       -1 0.12573510E+00 0.12337124E+04</pdfrwt>
<totfact> 0.18127163E+00</totfact>
</mgrwt>
</event>
<event>
12    1  0.3147868E-008  0.3649583E+03  0.7818608E-02  0.1056638E+00
         -2   -1    0    0    0  501 -0.00000000000E+00  0.00000000000E+00  0.62668607749E+03  0.62668607749E+03  0.00000000000E+00 0. -1.
          2   -1    0    0  501    0  0.00000000000E+00 -0.00000000000E+00 -0.43950772751E+03  0.43950772751E+03  0.00000000000E+00 0.  1.
         23    2    1    2    0    0  0.31163939603E+03 -0.11311050880E+03 -0.28960767579E+02  0.34741378804E+03  0.99722182636E+02 0.  0.
    5000000    2    1    2    0    0 -0.31163939603E+03  0.11311050880E+03  0.21613911756E+03  0.71878001696E+03  0.60001291176E+03 0.  0.
         23    2    4    4    0    0 -0.23792853977E+03 -0.16218866075E+01 -0.16543397702E+03  0.30341236979E+03  0.89877944108E+02 0.  0.
         23    2    4    4    0    0 -0.73710856261E+02  0.11473239540E+03  0.38157309458E+03  0.41536764717E+03  0.91298646848E+02 0.  0.
          5    1    3    3  502    0  0.26018455157E+03 -0.52252937116E+02 -0.33078044804E+02  0.26747451722E+03  0.47000000000E+01 0. -1.
         -5    1    3    3    0  502  0.51454844457E+02 -0.60857571679E+02  0.41172772256E+01  0.79939270828E+02  0.47000000000E+01 0.  1.
         13    1    5    5    0    0 -0.36561890950E+01 -0.11746674010E+01 -0.35131184575E+02  0.35340454041E+02  0.00000000000E+00 0.  1.
        -13    1    5    5    0    0 -0.23427235067E+03 -0.44721920655E+00 -0.13030279245E+03  0.26807191575E+03  0.00000000000E+00 0. -1.
          3    1    6    6  503    0 -0.21549708928E+02  0.82419561518E+02  0.12304422386E+03  0.14965712513E+03  0.00000000000E+00 0. -1.
         -3    1    6    6    0  503 -0.52161147333E+02  0.32312833884E+02  0.25852887073E+03  0.26571052204E+03  0.00000000000E+00 0.  1.
<mgrwt>
<rscale>  0 0.36495827E+03</rscale>
<asrwt>0</asrwt>
<pdfrwt beam="1">  1        2 0.67616573E-01 0.36495827E+03</pdfrwt>
<pdfrwt beam="2">  1       -2 0.96413243E-01 0.36495827E+03</pdfrwt>
<totfact> 0.67096145E+01</totfact>
</mgrwt>
</event>
<event>
12    1  0.3147868E-008  0.1356393E+04  0.7818608E-02  0.8986003E-01
          2   -1    0    0  501    0  0.00000000000E+00  0.00000000000E+00  0.17420329560E+04  0.17420329560E+04  0.00000000000E+00 0. -1.
         -2   -1    0    0    0  501 -0.00000000000E+00 -0.00000000000E+00 -0.13845943250E+04  0.13845943250E+04  0.00000000000E+00 0.  1.
         23    2    1    2    0    0  0.43322499108E+03 -0.12546098079E+04  0.86118657256E+03  0.15853549590E+04  0.99891793266E+02 0.  0.
    5000000    2    1    2    0    0 -0.43322499108E+03  0.12546098079E+04 -0.50374794155E+03  0.15412723221E+04  0.60002393223E+03 0.  0.
         23    2    4    4    0    0 -0.23124998789E+03  0.21938013620E+03 -0.33312938727E+03  0.46884875664E+03  0.85086819664E+02 0.  0.
         23    2    4    4    0    0 -0.20197500319E+03  0.10352296717E+04 -0.17061855427E+03  0.10724235654E+04  0.92126204652E+02 0.  0.
          5    1    3    3  502    0  0.24084600849E+03 -0.63271380529E+03  0.49258709454E+03  0.83725605098E+03  0.47000000000E+01 0. -1.
         -5    1    3    3    0  502  0.19237898259E+03 -0.62189600259E+03  0.36859947803E+03  0.74809890802E+03  0.47000000000E+01 0.  1.
         13    1    5    5    0    0 -0.58085511143E+02  0.10839643360E+03 -0.14477779844E+03  0.18995874380E+03  0.00000000000E+00 0. -1.
        -13    1    5    5    0    0 -0.17316447675E+03  0.11098370259E+03 -0.18835158883E+03  0.27889001285E+03  0.00000000000E+00 0.  1.
          2    1    6    6  503    0 -0.81649316695E+02  0.55874996785E+03 -0.53428389410E+02  0.56720607391E+03  0.00000000000E+00 0. -1.
         -2    1    6    6    0  503 -0.12032568649E+03  0.47647970384E+03 -0.11719016486E+03  0.50521749152E+03  0.00000000000E+00 0.  1.
<mgrwt>
<rscale>  0 0.13563933E+04</rscale>
<asrwt>0</asrwt>
<pdfrwt beam="1">  1        2 0.26800507E+00 0.13563933E+04</pdfrwt>
<pdfrwt beam="2">  1       -2 0.21301451E+00 0.13563933E+04</pdfrwt>
<totfact> 0.97023922E-01</totfact>
</mgrwt>
</event>
<event>
12    1  0.3147868E-008  0.6658034E+03  0.7818608E-02  0.9777569E-01
         -1   -1    0    0    0  501 -0.00000000000E+00  0.00000000000E+00  0.36673203378E+03  0.36673203378E+03  0.00000000000E+00 0.  1.
          1   -1    0    0  501    0  0.00000000000E+00 -0.00000000000E+00 -0.15738467238E+04  0.15738467238E+04  0.00000000000E+00 0. -1.
         23    2    1    2    0    0  0.40866577218E+03  0.47164445704E+03 -0.67831255676E+03  0.92604550399E+03  0.89421158517E+02 0.  0.
    5000000    2    1    2    0    0 -0.40866577218E+03 -0.47164445704E+03 -0.52880213328E+03  0.10145332536E+04  0.60015816192E+03 0.  0.
         23    2    4    4    0    0 -0.34720722548E+03 -0.18137198093E+03 -0.57400094450E+03  0.70112854695E+03  0.93034951364E+02 0.  0.
         23    2    4    4    0    0 -0.61458546697E+02 -0.29027247612E+03  0.45198811216E+02  0.31340470666E+03  0.90245854596E+02 0.  0.
          5    1    3    3  502    0  0.16179721308E+03  0.16016251489E+03 -0.19115608028E+03  0.29730978182E+03  0.47000000000E+01 0. -1.
         -5    1    3    3    0  502  0.24686855910E+03  0.31148194215E+03 -0.48715647647E+03  0.62873572217E+03  0.47000000000E+01 0.  1.
         11    1    5    5    0    0 -0.21804478042E+03 -0.14769063244E+03 -0.32220227395E+03  0.41613742263E+03  0.00000000000E+00 0. -1.
        -11    1    5    5    0    0 -0.12916244506E+03 -0.33681348489E+02 -0.25179867055E+03  0.28499112432E+03  0.00000000000E+00 0.  1.
          2    1    6    6  503    0 -0.59765274285E+02 -0.82870028368E+02  0.23686635771E+02  0.10488272654E+03  0.00000000000E+00 0.  1.
         -2    1    6    6    0  503 -0.16932724122E+01 -0.20740244775E+03  0.21512175444E+02  0.20852198013E+03  0.00000000000E+00 0. -1.
<mgrwt>
<rscale>  0 0.66580342E+03</rscale>
<asrwt>0</asrwt>
<pdfrwt beam="1">  1        1 0.24213027E+00 0.66580342E+03</pdfrwt>
<pdfrwt beam="2">  1       -1 0.56420312E-01 0.66580342E+03</pdfrwt>
<totfact> 0.19383889E+01</totfact>
</mgrwt>
</event>
<event>
12    1  0.3147868E-008  0.3939937E+03  0.7818608E-02  0.1045880E+00
         -2   -1    0    0    0  501 -0.00000000000E+00  0.00000000000E+00  0.23954040866E+03  0.23954040866E+03  0.00000000000E+00 0.  1.
          2   -1    0    0  501    0  0.00000000000E+00 -0.00000000000E+00 -0.14333313017E+04  0.14333313017E+04  0.00000000000E+00 0. -1.
         23    2    1    2    0    0 -0.36599244245E+03 -0.62435360493E+02 -0.74264709820E+03  0.83530834719E+03  0.91469559094E+02 0.  0.
    5000000    2    1    2    0    0  0.36599244245E+03  0.62435360493E+02 -0.45114379486E+03  0.83756336318E+03  0.60011084104E+03 0.  0.
         23    2    4    4    0    0  0.12622208786E+03  0.41189257291E+01 -0.53739273558E+03  0.55987984783E+03  0.93410442352E+02 0.  0.
         23    2    4    4    0    0  0.23977035460E+03  0.58316434764E+02  0.86248940725E+02  0.27768351535E+03  0.93694319010E+02 0.  0.
          5    1    3    3  502    0 -0.18337519906E+03 -0.38613028801E+02 -0.27626035210E+03  0.33385521078E+03  0.47000000000E+01 0. -1.
         -5    1    3    3    0  502 -0.18261724339E+03 -0.23822331692E+02 -0.46638674610E+03  0.50145313641E+03  0.47000000000E+01 0.  1.
         11    1    5    5    0    0  0.86116621778E+01 -0.32691725638E+02 -0.12080131285E+03  0.12544268347E+03  0.00000000000E+00 0.  1.
        -11    1    5    5    0    0  0.11761042568E+03  0.36810651367E+02 -0.41659142273E+03  0.43443716436E+03  0.00000000000E+00 0. -1.
          3    1    6    6  503    0  0.11406198189E+03  0.68656897836E+02  0.70282222057E+02  0.15054400044E+03  0.00000000000E+00 0. -1.
         -3    1    6    6    0  503  0.12570837271E+03 -0.10340463072E+02  0.15966718668E+02  0.12713951491E+03  0.00000000000E+00 0.  1.
<mgrwt>
<rscale>  0 0.39399370E+03</rscale>
<asrwt>0</asrwt>
<pdfrwt beam="1">  1        2 0.22051250E+00 0.39399370E+03</pdfrwt>
<pdfrwt beam="2">  1       -2 0.36852371E-01 0.39399370E+03</pdfrwt>
<totfact> 0.10203555E+02</totfact>
</mgrwt>
</event>
<event>
12    1  0.3147868E-008  0.9043664E+03  0.7818608E-02  0.9420140E-01
          2   -1    0    0  501    0  0.00000000000E+00  0.00000000000E+00  0.12404589831E+04  0.12404589831E+04  0.00000000000E+00 0.  1.
         -2   -1    0    0    0  501 -0.00000000000E+00 -0.00000000000E+00 -0.91462071224E+03  0.91462071224E+03  0.00000000000E+00 0. -1.
         23    2    1    2    0    0 -0.74095038409E+03 -0.49642305785E+03  0.55677200753E+03  0.10556469901E+04  0.94615935697E+02 0.  0.
    5000000    2    1    2    0    0  0.74095038409E+03  0.49642305785E+03 -0.23093373671E+03  0.10994327052E+04  0.59998213177E+03 0.  0.
         23    2    4    4    0    0  0.42437697944E+03  0.35327869822E+03  0.14539360399E+03  0.57921380464E+03  0.97199136385E+02 0.  0.
         23    2    4    4    0    0  0.31657340465E+03  0.14314435964E+03 -0.37632734070E+03  0.52021890055E+03  0.91084624956E+02 0.  0.
          5    1    3    3  502    0 -0.61880188466E+03 -0.45395415081E+03  0.47747288422E+03  0.90387642333E+03  0.47000000000E+01 0. -1.
         -5    1    3    3    0  502 -0.12214849943E+03 -0.42468907045E+02  0.79299123309E+02  0.15177056677E+03  0.47000000000E+01 0.  1.
         13    1    5    5    0    0  0.28696510385E+03  0.26311192759E+03  0.59757382893E+02  0.39388805780E+03  0.00000000000E+00 0. -1.
        -13    1    5    5    0    0  0.13741187559E+03  0.90166770630E+02  0.85636221100E+02  0.18532574684E+03  0.00000000000E+00 0.  1.
          1    1    6    6  503    0  0.12580422551E+02  0.32195571789E+02 -0.48678461823E+02  0.59702717859E+02  0.00000000000E+00 0. -1.
         -1    1    6    6    0  503  0.30399298210E+03  0.11094878785E+03 -0.32764887888E+03  0.46051618269E+03  0.00000000000E+00 0.  1.
<mgrwt>
<rscale>  0 0.90436635E+03</rscale>
<asrwt>0</asrwt>
<pdfrwt beam="1">  1        2 0.19083984E+00 0.90436635E+03</pdfrwt>
<pdfrwt beam="2">  1       -2 0.14071088E+00 0.90436635E+03</pdfrwt>
<totfact> 0.63638998E+00</totfact>
</mgrwt>
</event>
<event>
12    1  0.3147868E-008  0.1027320E+04  0.7818608E-02  0.9279078E-01
          2   -1    0    0  501    0  0.00000000000E+00  0.00000000000E+00  0.26523120842E+04  0.26523120842E+04  0.00000000000E+00 0. -1.
         -2   -1    0    0    0  501 -0.00000000000E+00 -0.00000000000E+00 -0.55878926464E+03  0.55878926464E+03  0.00000000000E+00 0.  1.
         23    2    1    2    0    0  0.26330355004E+03  0.90596103712E+03  0.18322900993E+04  0.20629230019E+04  0.90940329365E+02 0.  0.
    5000000    2    1    2    0    0 -0.26330355004E+03 -0.90596103712E+03  0.26123272033E+03  0.11481783470E+04  0.59998068480E+03 0.  0.
         23    2    4    4    0    0 -0.42137410272E+03 -0.43146478995E+03  0.14526790473E+03  0.62677914627E+03  0.89617713875E+02 0.  0.
         23    2    4    4    0    0  0.15807055268E+03 -0.47449624716E+03  0.11596481560E+03  0.52139920074E+03  0.90974171506E+02 0.  0.
          5    1    3    3  502    0  0.11315011936E+03  0.48953639228E+03  0.89665393885E+03  0.10278420136E+04  0.47000000000E+01 0. -1.
         -5    1    3    3    0  502  0.15015343068E+03  0.41642464484E+03  0.93563616041E+03  0.10350809883E+04  0.47000000000E+01 0.  1.
         13    1    5    5    0    0 -0.24607706962E+03 -0.18967301155E+03  0.63164330316E+02  0.31704811642E+03  0.00000000000E+00 0.  1.
        -13    1    5    5    0    0 -0.17529703310E+03 -0.24179177841E+03  0.82103574416E+02  0.30973102985E+03  0.00000000000E+00 0. -1.
          3    1    6    6  503    0  0.50904995877E+02 -0.15595627911E+03  0.82567835007E+02  0.18366035766E+03  0.00000000000E+00 0. -1.
         -3    1    6    6    0  503  0.10716555680E+03 -0.31853996805E+03  0.33396980594E+02  0.33773884308E+03  0.00000000000E+00 0.  1.
<mgrwt>
<rscale>  0 0.10273196E+04</rscale>
<asrwt>0</asrwt>
<pdfrwt beam="1">  1        2 0.40804801E+00 0.10273196E+04</pdfrwt>
<pdfrwt beam="2">  1       -2 0.85967581E-01 0.10273196E+04</pdfrwt>
<totfact> 0.33580018E+00</totfact>
</mgrwt>
</event>
<event>
12    1  0.3147868E-008  0.4944980E+03  0.7818608E-02  0.1015225E+00
          1   -1    0    0  501    0  0.00000000000E+00  0.00000000000E+00  0.44516524986E+03  0.44516524986E+03  0.00000000000E+00 0. -1.
         -1   -1    0    0    0  501 -0.00000000000E+00 -0.00000000000E+00 -0.90387849815E+03  0.90387849815E+03  0.00000000000E+00 0.  1.
         23    2    1    2    0    0  0.30295823761E+02  0.48064452586E+03 -0.10050709362E+03  0.50033696460E+03  0.91095582251E+02 0.  0.
    5000000    2    1    2    0    0 -0.30295823761E+02 -0.48064452586E+03 -0.35820615467E+03  0.84870678341E+03  0.60004546311E+03 0.  0.
         23    2    4    4    0    0 -0.80311558074E+01 -0.18636978448E+03  0.14935321614E+03  0.25563889190E+03  0.90811143858E+02 0.  0.
         23    2    4    4    0    0 -0.22264667953E+02 -0.29427474138E+03 -0.50755937081E+03  0.59306789152E+03  0.83783472108E+02 0.  0.
          5    1    3    3  502    0  0.60549223012E+02  0.37455404442E+03 -0.70848018128E+02  0.38600320241E+03  0.47000000000E+01 0. -1.
         -5    1    3    3    0  502 -0.30253399251E+02  0.10609048144E+03 -0.29659075490E+02  0.11433376219E+03  0.47000000000E+01 0.  1.
         13    1    5    5    0    0 -0.42205791100E+02 -0.90810774563E+02  0.10433594266E+03  0.14461643928E+03  0.00000000000E+00 0. -1.
        -13    1    5    5    0    0  0.34174635292E+02 -0.95559009918E+02  0.45017273477E+02  0.11102245262E+03  0.00000000000E+00 0.  1.
          3    1    6    6  503    0  0.10420109689E+02 -0.94680952352E+02 -0.10012574039E+03  0.13819632887E+03  0.00000000000E+00 0. -1.
         -3    1    6    6    0  503 -0.32684777643E+02 -0.19959378902E+03 -0.40743363042E+03  0.45487156265E+03  0.00000000000E+00 0.  1.
<mgrwt>
<rscale>  0 0.49449804E+03</rscale>
<asrwt>0</asrwt>
<pdfrwt beam="1">  1        1 0.68486962E-01 0.49449804E+03</pdfrwt>
<pdfrwt beam="2">  1       -1 0.13905823E+00 0.49449804E+03</pdfrwt>
<totfact> 0.23463906E+01</totfact>
</mgrwt>
</event>
<event>
12    1  0.3147868E-008  0.1585960E+04  0.7818608E-02  0.8829220E-01
         -2   -1    0    0    0  501 -0.00000000000E+00  0.00000000000E+00  0.20642652052E+04  0.20642652052E+04  0.00000000000E+00 0.  1.
          2   -1    0    0  501    0  0.00000000000E+00 -0.00000000000E+00 -0.13003202501E+04  0.13003202501E+04  0.00000000000E+00 0. -1.
         23    2    1    2    0    0 -0.87589083512E+03  0.13008949742E+04  0.15531879867E+03  0.15785569069E+04  0.90584161349E+02 0.  0.
    5000000    2    1    2    0    0  0.87589083512E+03 -0.13008949742E+04  0.60862615642E+03  0.17860285483E+04  0.59996640589E+03 0.  0.
         23    2    4    4    0    0  0.40366039274E+03 -0.87941165002E+03  0.60851626898E+03  0.11467055039E+04  0.91295674081E+02 0.  0.
         23    2    4    4    0    0  0.47223044238E+03 -0.42148332417E+03  0.10988744231E+00  0.63932304445E+03  0.89911956025E+02 0.  0.
          5    1    3    3  502    0 -0.15045096200E+03  0.19246196281E+03  0.51984276964E+02  0.24980303070E+03  0.47000000000E+01 0. -1.
         -5    1    3    3    0  502 -0.72543987312E+03  0.11084330114E+04  0.10333452171E+03  0.13287538762E+04  0.47000000000E+01 0.  1.
         13    1    5    5    0    0  0.29592423924E+01 -0.35827544879E+02  0.38036586192E+02  0.52336908360E+02  0.00000000000E+00 0. -1.
        -13    1    5    5    0    0  0.40070115034E+03 -0.84358410514E+03  0.57047968278E+03  0.10943685955E+04  0.00000000000E+00 0.  1.
          3    1    6    6  503    0  0.18687488071E+03 -0.16321833505E+03 -0.43790978633E+02  0.25195256646E+03  0.00000000000E+00 0. -1.
         -3    1    6    6    0  503  0.28535556167E+03 -0.25826498912E+03  0.43900866076E+02  0.38737047800E+03  0.00000000000E+00 0.  1.
<mgrwt>
<rscale>  0 0.15859601E+04</rscale>
<asrwt>0</asrwt>
<pdfrwt beam="1">  1        2 0.20004927E+00 0.15859601E+04</pdfrwt>
<pdfrwt beam="2">  1       -2 0.31757926E+00 0.15859601E+04</pdfrwt>
<totfact> 0.38304331E-01</totfact>
</mgrwt>
</event>
<event>
12    1  0.3147868E-008  0.8082722E+03  0.7818608E-02  0.9548120E-01
         -1   -1    0    0    0  501 -0.00000000000E+00  0.00000000000E+00  0.86880401965E+03  0.86880401965E+03  0.00000000000E+00 0.  1.
          1   -1    0    0  501    0  0.00000000000E+00 -0.00000000000E+00 -0.16593771794E+04  0.16593771794E+04  0.00000000000E+00 0. -1.
         23    2    1    2    0    0  0.69173193958E+03  0.26760323444E+03 -0.12606660174E+04  0.14646922654E+04  0.77071769785E+02 0.  0.
    5000000    2    1    2    0    0 -0.69173193958E+03 -0.26760323444E+03  0.47009285764E+03  0.10634889336E+04  0.59993070415E+03 0.  0.
         23    2    4    4    0    0 -0.33487343135E+03  0.10256772742E+03  0.39520374740E+03  0.53591551535E+03  0.91428025810E+02 0.  0.
         23    2    4    4    0    0 -0.35685850823E+03 -0.37017096186E+03  0.74889110243E+02  0.52757341826E+03  0.91382694849E+02 0.  0.
          5    1    3    3  502    0  0.18510545797E+03  0.10312300784E+03 -0.39485820126E+03  0.44814447940E+03  0.47000000000E+01 0. -1.
         -5    1    3    3    0  502  0.50662648161E+03  0.16448022660E+03 -0.86580781611E+03  0.10165477860E+04  0.47000000000E+01 0.  1.
         13    1    5    5    0    0 -0.87530111209E+02 -0.33716138729E+01  0.13948982182E+03  0.16471277589E+03  0.00000000000E+00 0.  1.
        -13    1    5    5    0    0 -0.24734332014E+03  0.10593934129E+03  0.25571392558E+03  0.37120273946E+03  0.00000000000E+00 0. -1.
          3    1    6    6  503    0 -0.30386417757E+03 -0.29698391440E+03  0.28102034227E+02  0.42581992456E+03  0.00000000000E+00 0. -1.
         -3    1    6    6    0  503 -0.52994330666E+02 -0.73187047459E+02  0.46787076017E+02  0.10175349370E+03  0.00000000000E+00 0.  1.
<mgrwt>
<rscale>  0 0.80827220E+03</rscale>
<asrwt>0</asrwt>
<pdfrwt beam="1">  1        1 0.25528880E+00 0.80827220E+03</pdfrwt>
<pdfrwt beam="2">  1       -1 0.13366216E+00 0.80827220E+03</pdfrwt>
<totfact> 0.24897372E+00</totfact>
</mgrwt>
</event>
<event>
12    1  0.3147868E-008  0.3286455E+03  0.7818608E-02  0.1071738E+00
          1   -1    0    0  501    0  0.00000000000E+00  0.00000000000E+00  0.35993545932E+04  0.35993545932E+04  0.00000000000E+00 0. -1.
         -1   -1    0    0    0  501 -0.00000000000E+00 -0.00000000000E+00 -0.65877714118E+02  0.65877714118E+02  0.00000000000E+00 0.  1.
         23    2    1    2    0    0  0.21152983186E+03  0.70800598279E+01  0.18725365309E+04  0.18866552249E+04  0.90993851496E+02 0.  0.
    5000000    2    1    2    0    0 -0.21152983186E+03 -0.70800598279E+01  0.16609403481E+04  0.17785770824E+04  0.59984881505E+03 0.  0.
         23    2    4    4    0    0 -0.29942633982E+02  0.14696427008E+03  0.11033055829E+03  0.20709228628E+03  0.90660492681E+02 0.  0.
         23    2    4    4    0    0 -0.18158719788E+03 -0.15404432991E+03  0.15506097898E+04  0.15714847961E+04  0.92033570203E+02 0.  0.
          5    1    3    3  502    0  0.11203220918E+03 -0.40318679968E+02  0.10557742630E+04  0.10624773863E+04  0.47000000000E+01 0. -1.
         -5    1    3    3    0  502  0.99497622678E+02  0.47398739796E+02  0.81676226792E+03  0.82417783867E+03  0.47000000000E+01 0.  1.
         13    1    5    5    0    0 -0.56266998949E+02  0.52320156707E+02  0.43715381010E+02  0.88399143126E+02  0.00000000000E+00 0.  1.
        -13    1    5    5    0    0  0.26324364967E+02  0.94644113371E+02  0.66615177281E+02  0.11869314315E+03  0.00000000000E+00 0. -1.
          4    1    6    6  503    0 -0.15715285101E+03 -0.83214890768E+02  0.11858953647E+04  0.11991536819E+04  0.00000000000E+00 0.  1.
         -4    1    6    6    0  503 -0.24434346866E+02 -0.70829439138E+02  0.36471442507E+03  0.37233111421E+03  0.00000000000E+00 0. -1.
<mgrwt>
<rscale>  0 0.32864550E+03</rscale>
<asrwt>0</asrwt>
<pdfrwt beam="1">  1        1 0.55374671E+00 0.32864550E+03</pdfrwt>
<pdfrwt beam="2">  1       -1 0.10135036E-01 0.32864550E+03</pdfrwt>
<totfact> 0.15380823E+01</totfact>
</mgrwt>
</event>
<event>
12    1  0.3147868E-008  0.5017332E+03  0.7818608E-02  0.1013328E+00
          1   -1    0    0  501    0  0.00000000000E+00  0.00000000000E+00  0.17927514634E+04  0.17927514634E+04  0.00000000000E+00 0. -1.
         -1   -1    0    0    0  501 -0.00000000000E+00 -0.00000000000E+00 -0.23018741704E+03  0.23018741704E+03  0.00000000000E+00 0.  1.
         23    2    1    2    0    0  0.31529476375E+03  0.37120869600E+03  0.77565894503E+03  0.92001670222E+03  0.87047397005E+02 0.  0.
    5000000    2    1    2    0    0 -0.31529476375E+03 -0.37120869600E+03  0.78690510130E+03  0.11029221782E+04  0.60000917380E+03 0.  0.
         23    2    4    4    0    0 -0.26100697662E+03 -0.20941271060E+03  0.83513100177E+03  0.90386627448E+03  0.86902973547E+02 0.  0.
         23    2    4    4    0    0 -0.54287787130E+02 -0.16179598539E+03 -0.48225900472E+02  0.19905590371E+03  0.90401386070E+02 0.  0.
          5    1    3    3  502    0  0.17593463403E+03  0.27047262968E+03  0.51171818991E+03  0.60496779645E+03  0.47000000000E+01 0. -1.
         -5    1    3    3    0  502  0.13936012972E+03  0.10073606631E+03  0.26394075512E+03  0.31504890577E+03  0.47000000000E+01 0.  1.
         11    1    5    5    0    0 -0.16697623797E+03 -0.14212819662E+03  0.43175042170E+03  0.48424158739E+03  0.00000000000E+00 0. -1.
        -11    1    5    5    0    0 -0.94030738651E+02 -0.67284513980E+02  0.40338058008E+03  0.41962468709E+03  0.00000000000E+00 0.  1.
          1    1    6    6  503    0 -0.41050475838E+02 -0.70319412432E+02 -0.66145335720E+02  0.10490551353E+03  0.00000000000E+00 0. -1.
         -1    1    6    6    0  503 -0.13237311292E+02 -0.91476572961E+02  0.17919435249E+02  0.94150390178E+02  0.00000000000E+00 0.  1.
<mgrwt>
<rscale>  0 0.50173322E+03</rscale>
<asrwt>0</asrwt>
<pdfrwt beam="1">  1        1 0.27580791E+00 0.50173322E+03</pdfrwt>
<pdfrwt beam="2">  1       -1 0.35413450E-01 0.50173322E+03</pdfrwt>
<totfact> 0.33638376E+01</totfact>
</mgrwt>
</event>
<event>
12    1  0.3147868E-008  0.4537656E+03  0.7818608E-02  0.1026605E+00
         -2   -1    0    0    0  501 -0.00000000000E+00  0.00000000000E+00  0.13264778320E+03  0.13264778320E+03  0.00000000000E+00 0. -1.
          2   -1    0    0  501    0  0.00000000000E+00 -0.00000000000E+00 -0.27160669798E+04  0.27160669798E+04  0.00000000000E+00 0.  1.
         23    2    1    2    0    0 -0.21254332100E+03 -0.31878453191E+03 -0.43941634059E+03  0.58960102339E+03  0.88002302970E+02 0.  0.
    5000000    2    1    2    0    0  0.21254332100E+03  0.31878453191E+03 -0.21440028560E+04  0.22591137396E+04  0.60004033262E+03 0.  0.
         23    2    4    4    0    0 -0.77562134419E+02  0.38420233257E+02 -0.69943923356E+02  0.14416981284E+03  0.91655788149E+02 0.  0.
         23    2    4    4    0    0  0.29010545542E+03  0.28036429865E+03 -0.20740589327E+04  0.21149439268E+04  0.92206518049E+02 0.  0.
          5    1    3    3  502    0 -0.78475871757E+02 -0.19216121126E+03 -0.25386948126E+03  0.32795761476E+03  0.47000000000E+01 0. -1.
         -5    1    3    3    0  502 -0.13406744924E+03 -0.12662332064E+03 -0.18554685933E+03  0.26164340864E+03  0.47000000000E+01 0.  1.
         13    1    5    5    0    0 -0.56898961681E+02 -0.10478550404E+02 -0.70347721881E+02  0.91082895391E+02  0.00000000000E+00 0.  1.
        -13    1    5    5    0    0 -0.20663172738E+02  0.48898783661E+02  0.40379852544E+00  0.53086917450E+02  0.00000000000E+00 0. -1.
          4    1    6    6  503    0  0.24602785709E+03  0.22217331664E+03 -0.14956359622E+04  0.15319326423E+04  0.00000000000E+00 0. -1.
         -4    1    6    6    0  503  0.44077598323E+02  0.58190982010E+02 -0.57842297046E+03  0.58301128447E+03  0.00000000000E+00 0.  1.
<mgrwt>
<rscale>  0 0.45376561E+03</rscale>
<asrwt>0</asrwt>
<pdfrwt beam="1">  1        2 0.41785645E+00 0.45376561E+03</pdfrwt>
<pdfrwt beam="2">  1       -2 0.20407352E-01 0.45376561E+03</pdfrwt>
<totfact> 0.58936684E+01</totfact>
</mgrwt>
</event>
<event>
12    1  0.3147868E-008  0.5875201E+03  0.7818608E-02  0.9931642E-01
         -1   -1    0    0    0  501 -0.00000000000E+00  0.00000000000E+00  0.61617184247E+03  0.61617184247E+03  0.00000000000E+00 0.  1.
          1   -1    0    0  501    0  0.00000000000E+00 -0.00000000000E+00 -0.12064447235E+04  0.12064447235E+04  0.00000000000E+00 0. -1.
         23    2    1    2    0    0 -0.24515271511E+03  0.38659969621E+03 -0.89446342535E+03  0.10089600794E+04  0.91522913223E+02 0.  0.
    5000000    2    1    2    0    0  0.24515271511E+03 -0.38659969621E+03  0.30419054434E+03  0.81365648658E+03  0.59995484168E+03 0.  0.
         23    2    4    4    0    0 -0.48919650162E+02  0.11202024661E+03 -0.27414675528E+01  0.15212457142E+03  0.90513544638E+02 0.  0.
         23    2    4    4    0    0  0.29407236528E+03 -0.49861994282E+03  0.30693201189E+03  0.66153191516E+03  0.91196553964E+02 0.  0.
          5    1    3    3  502    0 -0.27594144105E+02  0.11678185338E+03 -0.22060910364E+03  0.25117703851E+03  0.47000000000E+01 0. -1.
         -5    1    3    3    0  502 -0.21755857101E+03  0.26981784283E+03 -0.67385432171E+03  0.75778304086E+03  0.47000000000E+01 0.  1.
         13    1    5    5    0    0 -0.22119801656E+02  0.56590655542E+02  0.43836141897E+02  0.74922595099E+02  0.00000000000E+00 0. -1.
        -13    1    5    5    0    0 -0.26799848506E+02  0.55429591068E+02 -0.46577609449E+02  0.77201976322E+02  0.00000000000E+00 0.  1.
          4    1    6    6  503    0  0.12575604396E+03 -0.30216339551E+03  0.16807212885E+03  0.36792056299E+03  0.00000000000E+00 0.  1.
         -4    1    6    6    0  503  0.16831632131E+03 -0.19645654731E+03  0.13885988304E+03  0.29361135217E+03  0.00000000000E+00 0. -1.
<mgrwt>
<rscale>  0 0.58752012E+03</rscale>
<asrwt>0</asrwt>
<pdfrwt beam="1">  1        1 0.18560688E+00 0.58752012E+03</pdfrwt>
<pdfrwt beam="2">  1       -1 0.94795669E-01 0.58752012E+03</pdfrwt>
<totfact> 0.12063431E+01</totfact>
</mgrwt>
</event>
<event>
12    1  0.3147868E-008  0.1046129E+04  0.7818608E-02  0.9259350E-01
          2   -1    0    0  501    0  0.00000000000E+00  0.00000000000E+00  0.55080610515E+03  0.55080610515E+03  0.00000000000E+00 0. -1.
         -2   -1    0    0    0  501 -0.00000000000E+00 -0.00000000000E+00 -0.28756977226E+04  0.28756977226E+04  0.00000000000E+00 0.  1.
         23    2    1    2    0    0  0.64007432985E+03 -0.80878697827E+03 -0.30303487548E+03  0.10787712284E+04  0.89920539807E+02 0.  0.
    5000000    2    1    2    0    0 -0.64007432985E+03  0.80878697827E+03 -0.20218567420E+04  0.23477325994E+04  0.60009345031E+03 0.  0.
         23    2    4    4    0    0 -0.34108780154E+03  0.59238213727E+03 -0.17484743968E+04  0.18795512127E+04  0.91063492691E+02 0.  0.
         23    2    4    4    0    0 -0.29898652831E+03  0.21640484100E+03 -0.27338234515E+03  0.46818138672E+03  0.90729845737E+02 0.  0.
          5    1    3    3  502    0  0.21432291987E+03 -0.32085652954E+03 -0.14463803506E+03  0.41209886886E+03  0.47000000000E+01 0. -1.
         -5    1    3    3    0  502  0.42575140998E+03 -0.48793044874E+03 -0.15839684042E+03  0.66667235953E+03  0.47000000000E+01 0.  1.
         11    1    5    5    0    0 -0.18579672669E+03  0.40922101617E+03 -0.11497930610E+04  0.12345065196E+04  0.00000000000E+00 0. -1.
        -11    1    5    5    0    0 -0.15529107485E+03  0.18316112110E+03 -0.59868133583E+03  0.64504469309E+03  0.00000000000E+00 0.  1.
          1    1    6    6  503    0 -0.20842251723E+03  0.14479839303E+03 -0.13332959466E+03  0.28667630025E+03  0.00000000000E+00 0. -1.
         -1    1    6    6    0  503 -0.90564011082E+02  0.71606447972E+02 -0.14005275048E+03  0.18150508646E+03  0.00000000000E+00 0.  1.
<mgrwt>
<rscale>  0 0.10461289E+04</rscale>
<asrwt>0</asrwt>
<pdfrwt beam="1">  1        2 0.84739402E-01 0.10461289E+04</pdfrwt>
<pdfrwt beam="2">  1       -2 0.44241503E+00 0.10461289E+04</pdfrwt>
<totfact> 0.21700385E-01</totfact>
</mgrwt>
</event>
<event>
12    1  0.3147868E-008  0.7474096E+03  0.7818608E-02  0.9639423E-01
         -2   -1    0    0    0  501 -0.00000000000E+00  0.00000000000E+00  0.44326861619E+03  0.44326861619E+03  0.00000000000E+00 0.  1.
          2   -1    0    0  501    0  0.00000000000E+00 -0.00000000000E+00 -0.13485827432E+04  0.13485827432E+04  0.00000000000E+00 0. -1.
         23    2    1    2    0    0 -0.55767149891E+03 -0.30439285767E+03 -0.56318112548E+03  0.85339376994E+03  0.86344854924E+02 0.  0.
    5000000    2    1    2    0    0  0.55767149891E+03  0.30439285767E+03 -0.34213300149E+03  0.93845758941E+03  0.59999595326E+03 0.  0.
         23    2    4    4    0    0  0.53927424404E+03  0.44430027969E+03 -0.29114471322E+03  0.76262348480E+03  0.92789475220E+02 0.  0.
         23    2    4    4    0    0  0.18397254866E+02 -0.13990742201E+03 -0.50988288271E+02  0.17583410462E+03  0.91680320055E+02 0.  0.
          5    1    3    3  502    0 -0.29604601812E+03 -0.16301426539E+03 -0.24226951216E+03  0.41585274087E+03  0.47000000000E+01 0. -1.
         -5    1    3    3    0  502 -0.26162548079E+03 -0.14137859229E+03 -0.32091161333E+03  0.43754102907E+03  0.47000000000E+01 0.  1.
         11    1    5    5    0    0  0.33708150357E+03  0.25140752679E+03 -0.13050592446E+03  0.44029703712E+03  0.00000000000E+00 0. -1.
        -11    1    5    5    0    0  0.20219274047E+03  0.19289275290E+03 -0.16063878876E+03  0.32232644768E+03  0.00000000000E+00 0.  1.
          3    1    6    6  503    0  0.36260418213E+02 -0.27176668518E+02 -0.41257636348E+02  0.61282801811E+02  0.00000000000E+00 0.  1.
         -3    1    6    6    0  503 -0.17863163347E+02 -0.11273075349E+03 -0.97306519226E+01  0.11455130281E+03  0.00000000000E+00 0. -1.
<mgrwt>
<rscale>  0 0.74740957E+03</rscale>
<asrwt>0</asrwt>
<pdfrwt beam="1">  1        2 0.20747426E+00 0.74740957E+03</pdfrwt>
<pdfrwt beam="2">  1       -2 0.68195173E-01 0.74740957E+03</pdfrwt>
<totfact> 0.31126642E+01</totfact>
</mgrwt>
</event>
<event>
12    1  0.3147868E-008  0.8009160E+03  0.7818608E-02  0.9558692E-01
          2   -1    0    0  501    0  0.00000000000E+00  0.00000000000E+00  0.48100104808E+03  0.48100104808E+03  0.00000000000E+00 0.  1.
         -2   -1    0    0    0  501 -0.00000000000E+00 -0.00000000000E+00 -0.16302107813E+04  0.16302107813E+04  0.00000000000E+00 0. -1.
         23    2    1    2    0    0 -0.34901251633E+03 -0.59917213860E+03 -0.93792994364E+03  0.11702896232E+04  0.95122209076E+02 0.  0.
    5000000    2    1    2    0    0  0.34901251633E+03  0.59917213860E+03 -0.21127978954E+03  0.94092220618E+03  0.59989870843E+03 0.  0.
         23    2    4    4    0    0  0.29390191391E+03  0.76298383795E+01 -0.11800537292E+02  0.30756012919E+03  0.89540108096E+02 0.  0.
         23    2    4    4    0    0  0.55110602427E+02  0.59154230022E+03 -0.19947925224E+03  0.63336207698E+03  0.91630109881E+02 0.  0.
          5    1    3    3  502    0 -0.13816874306E+03 -0.26354720390E+03 -0.32820626031E+03  0.44304533577E+03  0.47000000000E+01 0. -1.
         -5    1    3    3    0  502 -0.21084377327E+03 -0.33562493470E+03 -0.60972368333E+03  0.72724428739E+03  0.47000000000E+01 0.  1.
         13    1    5    5    0    0  0.20928596204E+03  0.45504848786E+02 -0.15886641343E+02  0.21476426738E+03  0.00000000000E+00 0.  1.
        -13    1    5    5    0    0  0.84615951869E+02 -0.37875010406E+02  0.40861040516E+01  0.92795861817E+02  0.00000000000E+00 0. -1.
          3    1    6    6  503    0 -0.14715904638E+02  0.32776425521E+03 -0.11640922329E+03  0.34813369862E+03  0.00000000000E+00 0. -1.
         -3    1    6    6    0  503  0.69826507065E+02  0.26377804501E+03 -0.83070028950E+02  0.28522837837E+03  0.00000000000E+00 0.  1.
<mgrwt>
<rscale>  0 0.80091598E+03</rscale>
<asrwt>0</asrwt>
<pdfrwt beam="1">  1        2 0.74000160E-01 0.80091598E+03</pdfrwt>
<pdfrwt beam="2">  1       -2 0.25080166E+00 0.80091598E+03</pdfrwt>
<totfact> 0.41847931E+00</totfact>
</mgrwt>
</event>
<event>
12    1  0.3147868E-008  0.5325792E+03  0.7818608E-02  0.1005609E+00
          1   -1    0    0  501    0  0.00000000000E+00  0.00000000000E+00  0.19093322920E+04  0.19093322920E+04  0.00000000000E+00 0. -1.
         -1   -1    0    0    0  501 -0.00000000000E+00 -0.00000000000E+00 -0.23133169150E+03  0.23133169150E+03  0.00000000000E+00 0.  1.
         23    2    1    2    0    0  0.37105356521E+03 -0.75607338015E+02  0.12557899431E+04  0.13150917910E+04  0.95188338208E+02 0.  0.
    5000000    2    1    2    0    0 -0.37105356521E+03  0.75607338015E+02  0.42221065743E+03  0.82557219253E+03  0.59992531870E+03 0.  0.
         23    2    4    4    0    0 -0.38752164762E+03 -0.17638393863E+03  0.21337850487E+03  0.48571972370E+03  0.95440779911E+02 0.  0.
         23    2    4    4    0    0  0.16468082405E+02  0.25199127664E+03  0.20883215256E+03  0.33985246883E+03  0.90100118679E+02 0.  0.
          5    1    3    3  502    0  0.24685776842E+03 -0.80287666894E+02  0.95352019020E+03  0.98823464339E+03  0.47000000000E+01 0. -1.
         -5    1    3    3    0  502  0.12419579679E+03  0.46803288792E+01  0.30226975289E+03  0.32685714759E+03  0.47000000000E+01 0.  1.
         13    1    5    5    0    0 -0.75625498167E+02 -0.34209710188E+02  0.87392109865E+02  0.12052759481E+03  0.00000000000E+00 0. -1.
        -13    1    5    5    0    0 -0.31189614945E+03 -0.14217422844E+03  0.12598639501E+03  0.36519212889E+03  0.00000000000E+00 0.  1.
          4    1    6    6  503    0 -0.98089779331E+01  0.14024988665E+03  0.16550255811E+03  0.21715741639E+03  0.00000000000E+00 0. -1.
         -4    1    6    6    0  503  0.26277060338E+02  0.11174138999E+03  0.43329594445E+02  0.12269505244E+03  0.00000000000E+00 0.  1.
<mgrwt>
<rscale>  0 0.53257924E+03</rscale>
<asrwt>0</asrwt>
<pdfrwt beam="1">  1        1 0.29374342E+00 0.53257924E+03</pdfrwt>
<pdfrwt beam="2">  1       -1 0.35589492E-01 0.53257924E+03</pdfrwt>
<totfact> 0.27750400E+01</totfact>
</mgrwt>
</event>
<event>
12    1  0.3147868E-008  0.1157176E+04  0.7818608E-02  0.9151189E-01
          2   -1    0    0  501    0  0.00000000000E+00  0.00000000000E+00  0.10319204526E+04  0.10319204526E+04  0.00000000000E+00 0. -1.
         -2   -1    0    0    0  501 -0.00000000000E+00 -0.00000000000E+00 -0.16554438828E+04  0.16554438828E+04  0.00000000000E+00 0.  1.
         23    2    1    2    0    0  0.50811756806E+03  0.10169829519E+04 -0.79564727357E+03  0.13904322613E+04  0.88371386187E+02 0.  0.
    5000000    2    1    2    0    0 -0.50811756806E+03 -0.10169829519E+04  0.17212384342E+03  0.12969320741E+04  0.59997366593E+03 0.  0.
         23    2    4    4    0    0 -0.23057285521E+03 -0.72833885749E+03  0.35495389088E+03  0.84726445988E+03  0.90683335961E+02 0.  0.
         23    2    4    4    0    0 -0.27754471285E+03 -0.28864409442E+03 -0.18283004746E+03  0.44966761419E+03  0.91802266439E+02 0.  0.
          5    1    3    3  502    0  0.24363543762E+03  0.43279163369E+03 -0.39140669589E+03  0.63236707397E+03  0.47000000000E+01 0. -1.
         -5    1    3    3    0  502  0.26448213043E+03  0.58419131823E+03 -0.40424057768E+03  0.75806518734E+03  0.47000000000E+01 0.  1.
         11    1    5    5    0    0 -0.68340930194E+02 -0.33700294133E+03  0.13004095101E+03  0.36763040428E+03  0.00000000000E+00 0.  1.
        -11    1    5    5    0    0 -0.16223192502E+03 -0.39133591616E+03  0.22491293987E+03  0.47963405560E+03  0.00000000000E+00 0. -1.
          1    1    6    6  503    0 -0.18185720159E+03 -0.12971272105E+03 -0.78123201171E+02  0.23664459921E+03  0.00000000000E+00 0. -1.
         -1    1    6    6    0  503 -0.95687511254E+02 -0.15893137338E+03 -0.10470684629E+03  0.21302301498E+03  0.00000000000E+00 0.  1.
<mgrwt>
<rscale>  0 0.11571758E+04</rscale>
<asrwt>0</asrwt>
<pdfrwt beam="1">  1        2 0.15875699E+00 0.11571758E+04</pdfrwt>
<pdfrwt beam="2">  1       -2 0.25468367E+00 0.11571758E+04</pdfrwt>
<totfact> 0.14146782E+00</totfact>
</mgrwt>
</event>
<event>
12    1  0.3147868E-008  0.1034722E+04  0.7818608E-02  0.9271262E-01
          1   -1    0    0  501    0  0.00000000000E+00  0.00000000000E+00  0.25113157915E+04  0.25113157915E+04  0.00000000000E+00 0. -1.
         -1   -1    0    0    0  501 -0.00000000000E+00 -0.00000000000E+00 -0.48144658127E+03  0.48144658127E+03  0.00000000000E+00 0.  1.
         23    2    1    2    0    0  0.99880796452E+03  0.15263925873E+03  0.80123100351E+03  0.12926467158E+04  0.89712416098E+02 0.  0.
    5000000    2    1    2    0    0 -0.99880796452E+03 -0.15263925873E+03  0.12286382067E+04  0.17001156570E+04  0.59993775575E+03 0.  0.
         23    2    4    4    0    0 -0.27035165764E+03  0.69389160696E+02  0.56908747628E+02  0.29977180665E+03  0.93379098798E+02 0.  0.
         23    2    4    4    0    0 -0.72845630688E+03 -0.22202841943E+03  0.11717294591E+04  0.14003438503E+04  0.89820731293E+02 0.  0.
          5    1    3    3  502    0  0.43654950995E+03  0.98600978513E+02  0.31470231498E+03  0.54713550850E+03  0.47000000000E+01 0. -1.
         -5    1    3    3    0  502  0.56225845457E+03  0.54038280222E+02  0.48652868853E+03  0.74551120731E+03  0.47000000000E+01 0.  1.
         13    1    5    5    0    0 -0.34567601027E+02 -0.21660666112E+02  0.15552186394E+02  0.43657462121E+02  0.00000000000E+00 0.  1.
        -13    1    5    5    0    0 -0.23578405661E+03  0.91049826808E+02  0.41356561234E+02  0.25611434453E+03  0.00000000000E+00 0. -1.
          3    1    6    6  503    0 -0.49956414324E+03 -0.12580362746E+03  0.72745092602E+03  0.89138977763E+03  0.00000000000E+00 0. -1.
         -3    1    6    6    0  503 -0.22889216364E+03 -0.96224791968E+02  0.44427853308E+03  0.50895407270E+03  0.00000000000E+00 0.  1.
<mgrwt>
<rscale>  0 0.10347216E+04</rscale>
<asrwt>0</asrwt>
<pdfrwt beam="1">  1        1 0.38635627E+00 0.10347216E+04</pdfrwt>
<pdfrwt beam="2">  1       -1 0.74068706E-01 0.10347216E+04</pdfrwt>
<totfact> 0.24758369E+00</totfact>
</mgrwt>
</event>
<event>
12    1  0.3147868E-008  0.5703282E+03  0.7818608E-02  0.9968953E-01
          1   -1    0    0  501    0  0.00000000000E+00  0.00000000000E+00  0.82947084343E+03  0.82947084343E+03  0.00000000000E+00 0. -1.
         -1   -1    0    0    0  501 -0.00000000000E+00 -0.00000000000E+00 -0.47358101362E+03  0.47358101362E+03  0.00000000000E+00 0.  1.
         23    2    1    2    0    0 -0.34340845306E+03  0.31593885483E+03  0.24837080827E+03  0.53530344637E+03  0.84350433732E+02 0.  0.
    5000000    2    1    2    0    0  0.34340845306E+03 -0.31593885483E+03  0.10751902153E+03  0.76774841067E+03  0.60010878720E+03 0.  0.
         23    2    4    4    0    0  0.28261601057E+03 -0.42822785642E+03 -0.73779983356E+02  0.52657563317E+03  0.92668792239E+02 0.  0.
         23    2    4    4    0    0  0.60792442493E+02  0.11228900160E+03  0.18129900489E+03  0.24117277751E+03  0.94817922847E+02 0.  0.
          5    1    3    3  502    0 -0.21270560863E+03  0.16786102990E+03  0.18380011819E+03  0.32745316421E+03  0.47000000000E+01 0. -1.
         -5    1    3    3    0  502 -0.13070284443E+03  0.14807782493E+03  0.64570690081E+02  0.20785028216E+03  0.47000000000E+01 0.  1.
         11    1    5    5    0    0  0.21296366094E+03 -0.28085711646E+03 -0.86973350822E+02  0.36304077526E+03  0.00000000000E+00 0. -1.
        -11    1    5    5    0    0  0.69652349627E+02 -0.14737073996E+03  0.13193367466E+02  0.16353485791E+03  0.00000000000E+00 0.  1.
          4    1    6    6  503    0  0.37474487809E+02  0.12469413302E+03  0.16480816313E+03  0.21003498442E+03  0.00000000000E+00 0. -1.
         -4    1    6    6    0  503  0.23317954684E+02 -0.12405131426E+02  0.16490841762E+02  0.31137793088E+02  0.00000000000E+00 0.  1.
<mgrwt>
<rscale>  0 0.57032824E+03</rscale>
<asrwt>0</asrwt>
<pdfrwt beam="1">  1        1 0.12761090E+00 0.57032824E+03</pdfrwt>
<pdfrwt beam="2">  1       -1 0.72858618E-01 0.57032824E+03</pdfrwt>
<totfact> 0.41390127E+01</totfact>
</mgrwt>
</event>
<event>
12    1  0.3147868E-008  0.4120063E+03  0.7818608E-02  0.1039700E+00
         -2   -1    0    0    0  501 -0.00000000000E+00  0.00000000000E+00  0.17726281383E+03  0.17726281383E+03  0.00000000000E+00 0.  1.
          2   -1    0    0  501    0  0.00000000000E+00 -0.00000000000E+00 -0.16391738516E+04  0.16391738516E+04  0.00000000000E+00 0. -1.
         23    2    1    2    0    0 -0.17283781534E+03  0.10974343042E+03 -0.17099564556E+01  0.22454842709E+03  0.92209225281E+02 0.  0.
    5000000    2    1    2    0    0  0.17283781534E+03 -0.10974343042E+03 -0.14602010813E+04  0.15918882384E+04  0.60000369545E+03 0.  0.
         23    2    4    4    0    0 -0.11708595092E+03  0.16207452490E+03 -0.41553095984E+03  0.47031252035E+03  0.92469544626E+02 0.  0.
         23    2    4    4    0    0  0.28992376626E+03 -0.27181795532E+03 -0.10446701215E+04  0.11215757180E+04  0.93035678173E+02 0.  0.
          5    1    3    3  502    0 -0.15553911537E+03  0.83859353228E+02  0.30642512459E+02  0.17940418363E+03  0.47000000000E+01 0. -1.
         -5    1    3    3    0  502 -0.17298699962E+02  0.25884077189E+02 -0.32352468915E+02  0.45144243455E+02  0.47000000000E+01 0.  1.
         13    1    5    5    0    0 -0.10754702035E+03  0.10591983406E+03 -0.36172916178E+03  0.39196091555E+03  0.00000000000E+00 0.  1.
        -13    1    5    5    0    0 -0.95389305667E+01  0.56154690843E+02 -0.53801798058E+02  0.78351604797E+02  0.00000000000E+00 0. -1.
          1    1    6    6  503    0  0.27991934462E+03 -0.22263143323E+03 -0.90113154624E+03  0.96951413511E+03  0.00000000000E+00 0. -1.
         -1    1    6    6    0  503  0.10004421641E+02 -0.49186522089E+02 -0.14353857526E+03  0.15206158290E+03  0.00000000000E+00 0.  1.
<mgrwt>
<rscale>  0 0.41200633E+03</rscale>
<asrwt>0</asrwt>
<pdfrwt beam="1">  1        2 0.25218058E+00 0.41200633E+03</pdfrwt>
<pdfrwt beam="2">  1       -2 0.27271203E-01 0.41200633E+03</pdfrwt>
<totfact> 0.13746230E+02</totfact>
</mgrwt>
</event>
<event>
12    1  0.3147868E-008  0.1631864E+04  0.7818608E-02  0.8801209E-01
          1   -1    0    0  501    0  0.00000000000E+00  0.00000000000E+00  0.40558067404E+04  0.40558067404E+04  0.00000000000E+00 0. -1.
         -1   -1    0    0    0  501 -0.00000000000E+00 -0.00000000000E+00 -0.96080264770E+03  0.96080264770E+03  0.00000000000E+00 0.  1.
         23    2    1    2    0    0 -0.13745282558E+04 -0.85661377374E+03  0.28400839325E+04  0.32707519879E+04  0.92880239249E+02 0.  0.
    5000000    2    1    2    0    0  0.13745282558E+04  0.85661377374E+03  0.25492016016E+03  0.17458574002E+04  0.59993223818E+03 0.  0.
         23    2    4    4    0    0  0.28416787376E+03  0.31215521966E+03 -0.15128376870E+03  0.45796475525E+03  0.93019765368E+02 0.  0.
         23    2    4    4    0    0  0.10903603821E+04  0.54445855408E+03  0.40620392885E+03  0.12878926450E+04  0.91350715519E+02 0.  0.
          5    1    3    3  502    0 -0.48367308635E+02 -0.35416516202E+02  0.14230630514E+03  0.15448916029E+03  0.47000000000E+01 0. -1.
         -5    1    3    3    0  502 -0.13261609472E+04 -0.82119725753E+03  0.26977776274E+04  0.31162628276E+04  0.47000000000E+01 0.  1.
         11    1    5    5    0    0  0.93626247467E+02  0.13825215188E+03 -0.18981670469E+02  0.16804712294E+03  0.00000000000E+00 0. -1.
        -11    1    5    5    0    0  0.19054162629E+03  0.17390306777E+03 -0.13230209823E+03  0.28991763231E+03  0.00000000000E+00 0.  1.
          1    1    6    6  503    0  0.31496569982E+03  0.16438248025E+03  0.16212518549E+03  0.39052473372E+03  0.00000000000E+00 0. -1.
         -1    1    6    6    0  503  0.77539468228E+03  0.38007607383E+03  0.24407874336E+03  0.89736791126E+03  0.00000000000E+00 0.  1.
<mgrwt>
<rscale>  0 0.16318636E+04</rscale>
<asrwt>0</asrwt>
<pdfrwt beam="1">  1        1 0.62397026E+00 0.16318636E+04</pdfrwt>
<pdfrwt beam="2">  1       -1 0.14781579E+00 0.16318636E+04</pdfrwt>
<totfact> 0.29388245E-02</totfact>
</mgrwt>
</event>
<event>
12    1  0.3147868E-008  0.9009219E+03  0.7818608E-02  0.9424430E-01
          2   -1    0    0  501    0  0.00000000000E+00  0.00000000000E+00  0.67518576990E+03  0.67518576990E+03  0.00000000000E+00 0. -1.
         -2   -1    0    0    0  501 -0.00000000000E+00 -0.00000000000E+00 -0.13716186616E+04  0.13716186616E+04  0.00000000000E+00 0.  1.
         23    2    1    2    0    0 -0.32365468884E+03 -0.75495965609E+03 -0.60738590547E+03  0.10257005775E+04  0.91801942205E+02 0.  0.
    5000000    2    1    2    0    0  0.32365468884E+03  0.75495965609E+03 -0.89046986226E+02  0.10211038540E+04  0.60000606244E+03 0.  0.
         23    2    4    4    0    0  0.34816819476E+03  0.81556240736E+03 -0.13130904729E+03  0.90086122134E+03  0.89138892015E+02 0.  0.
         23    2    4    4    0    0 -0.24513505917E+02 -0.60602751280E+02  0.42262061064E+02  0.12024263266E+03  0.91643894873E+02 0.  0.
          5    1    3    3  502    0 -0.30776091485E+03 -0.68808888260E+03 -0.52654885153E+03  0.91948837628E+03  0.47000000000E+01 0. -1.
         -5    1    3    3    0  502 -0.15893773995E+02 -0.66870773486E+02 -0.80837053939E+02  0.10621220122E+03  0.47000000000E+01 0.  1.
         13    1    5    5    0    0  0.24574021253E+03  0.66052958114E+03 -0.11800807966E+03  0.71457224021E+03  0.00000000000E+00 0.  1.
        -13    1    5    5    0    0  0.10242798223E+03  0.15503282623E+03 -0.13300967629E+02  0.18628898113E+03  0.00000000000E+00 0. -1.
          4    1    6    6  503    0  0.19925218331E+02 -0.22394775397E+02  0.52782131194E+02  0.60700030181E+02  0.00000000000E+00 0. -1.
         -4    1    6    6    0  503 -0.44438724248E+02 -0.38207975883E+02 -0.10520070130E+02  0.59542602474E+02  0.00000000000E+00 0.  1.
<mgrwt>
<rscale>  0 0.90092186E+03</rscale>
<asrwt>0</asrwt>
<pdfrwt beam="1">  1        2 0.10387473E+00 0.90092186E+03</pdfrwt>
<pdfrwt beam="2">  1       -2 0.21101826E+00 0.90092186E+03</pdfrwt>
<totfact> 0.48585720E+00</totfact>
</mgrwt>
</event>
<event>
12    1  0.3147868E-008  0.8609198E+03  0.7818608E-02  0.9475797E-01
          1   -1    0    0  501    0  0.00000000000E+00  0.00000000000E+00  0.10798961111E+04  0.10798961111E+04  0.00000000000E+00 0. -1.
         -1   -1    0    0    0  501 -0.00000000000E+00 -0.00000000000E+00 -0.78889717493E+03  0.78889717493E+03  0.00000000000E+00 0.  1.
         23    2    1    2    0    0 -0.67706608372E+03  0.44359099966E+03 -0.17215190804E+02  0.81508894685E+03  0.94245274570E+02 0.  0.
    5000000    2    1    2    0    0  0.67706608372E+03 -0.44359099966E+03  0.30821412702E+03  0.10537043392E+04  0.60008785165E+03 0.  0.
         23    2    4    4    0    0  0.37096290587E+03 -0.24236428490E+02  0.35958612529E+03  0.52436324763E+03  0.86335114365E+02 0.  0.
         23    2    4    4    0    0  0.30610317786E+03 -0.41935457117E+03 -0.51371998269E+02  0.52934109159E+03  0.89473444038E+02 0.  0.
          5    1    3    3  502    0 -0.28058594372E+03  0.23890390975E+03 -0.31216887684E+00  0.36854543459E+03  0.47000000000E+01 0. -1.
         -5    1    3    3    0  502 -0.39648014001E+03  0.20468708990E+03 -0.16903021927E+02  0.44654351226E+03  0.47000000000E+01 0.  1.
         11    1    5    5    0    0  0.31552916576E+02  0.21295901902E+02  0.24662933891E+02  0.45358155721E+02  0.00000000000E+00 0.  1.
        -11    1    5    5    0    0  0.33940998929E+03 -0.45532330392E+02  0.33492319139E+03  0.47900509191E+03  0.00000000000E+00 0. -1.
          3    1    6    6  503    0  0.18097422816E+02 -0.77332939464E+02 -0.14896748941E+01  0.79436259794E+02  0.00000000000E+00 0.  1.
         -3    1    6    6    0  503  0.28800575504E+03 -0.34202163170E+03 -0.49882323374E+02  0.44990483180E+03  0.00000000000E+00 0. -1.
<mgrwt>
<rscale>  0 0.86091980E+03</rscale>
<asrwt>0</asrwt>
<pdfrwt beam="1">  1        1 0.16613786E+00 0.86091980E+03</pdfrwt>
<pdfrwt beam="2">  1       -1 0.12136880E+00 0.86091980E+03</pdfrwt>
<totfact> 0.80556296E+00</totfact>
</mgrwt>
</event>
<event>
12    1  0.3147868E-008  0.1152451E+04  0.7818608E-02  0.9155525E-01
         -2   -1    0    0    0  501 -0.00000000000E+00  0.00000000000E+00  0.84990895662E+03  0.84990895662E+03  0.00000000000E+00 0.  1.
          2   -1    0    0  501    0  0.00000000000E+00 -0.00000000000E+00 -0.23350020467E+04  0.23350020467E+04  0.00000000000E+00 0. -1.
         23    2    1    2    0    0 -0.13146816029E+03 -0.10922210727E+04 -0.15808614831E+04  0.19281921151E+04  0.92579993517E+02 0.  0.
    5000000    2    1    2    0    0  0.13146816029E+03  0.10922210727E+04  0.95768392980E+02  0.12567188882E+04  0.59995002302E+03 0.  0.
         23    2    4    4    0    0  0.17320116304E+03  0.12258639661E+03 -0.11495078835E+03  0.25942604065E+03  0.95195164315E+02 0.  0.
         23    2    4    4    0    0 -0.41733002749E+02  0.96963467610E+03  0.21071918133E+03  0.99729284760E+03  0.90870247450E+02 0.  0.
          5    1    3    3  502    0 -0.70108044262E+00 -0.26782853050E+03 -0.42690833027E+03  0.50398950953E+03  0.47000000000E+01 0. -1.
         -5    1    3    3    0  502 -0.13076707985E+03 -0.82439254221E+03 -0.11539531528E+04  0.14242026056E+04  0.47000000000E+01 0.  1.
         11    1    5    5    0    0  0.85295126058E+01  0.51749194614E+02 -0.35592511282E+02  0.63384214027E+02  0.00000000000E+00 0.  1.
        -11    1    5    5    0    0  0.16467165044E+03  0.70837201998E+02 -0.79358277070E+02  0.19604182662E+03  0.00000000000E+00 0. -1.
          2    1    6    6  503    0 -0.90066375864E+01  0.34596528430E+03  0.11953193749E+03  0.36614338931E+03  0.00000000000E+00 0. -1.
         -2    1    6    6    0  503 -0.32726365163E+02  0.62366939181E+03  0.91187243842E+02  0.63114945828E+03  0.00000000000E+00 0.  1.
<mgrwt>
<rscale>  0 0.11524511E+04</rscale>
<asrwt>0</asrwt>
<pdfrwt beam="1">  1        2 0.35923107E+00 0.11524511E+04</pdfrwt>
<pdfrwt beam="2">  1       -2 0.13075523E+00 0.11524511E+04</pdfrwt>
<totfact> 0.18225671E+00</totfact>
</mgrwt>
</event>
<event>
12    1  0.3147868E-008  0.1628759E+04  0.7818608E-02  0.8803072E-01
         -1   -1    0    0    0  501 -0.00000000000E+00  0.00000000000E+00  0.12217785479E+04  0.12217785479E+04  0.00000000000E+00 0.  1.
          1   -1    0    0  501    0  0.00000000000E+00 -0.00000000000E+00 -0.23514371413E+04  0.23514371413E+04  0.00000000000E+00 0. -1.
         23    2    1    2    0    0 -0.14751478823E+04  0.60521927254E+03 -0.95316947603E+03  0.18604462890E+04  0.10186609639E+03 0.  0.
    5000000    2    1    2    0    0  0.14751478823E+04 -0.60521927254E+03 -0.17648911743E+03  0.17127694003E+04  0.60006580262E+03 0.  0.
         23    2    4    4    0    0  0.67647059753E+03 -0.51303432464E+03 -0.27565225630E+03  0.89750346014E+03  0.93335989729E+02 0.  0.
         23    2    4    4    0    0  0.79867728476E+03 -0.92184947899E+02  0.99163138870E+02  0.81526594014E+03  0.91879024940E+02 0.  0.
          5    1    3    3  502    0 -0.36497326839E+03  0.14355146882E+03 -0.18502372119E+03  0.43366851193E+03  0.47000000000E+01 0. -1.
         -5    1    3    3    0  502 -0.11101746139E+04  0.46166780372E+03 -0.76814575484E+03  0.14267777770E+04  0.47000000000E+01 0.  1.
         13    1    5    5    0    0  0.61851151480E+03 -0.43226712554E+03 -0.23871874001E+03  0.79145309311E+03  0.00000000000E+00 0.  1.
        -13    1    5    5    0    0  0.57959082727E+02 -0.80767199100E+02 -0.36933516290E+02  0.10605036703E+03  0.00000000000E+00 0. -1.
          4    1    6    6  503    0  0.92886363855E+02  0.17973460207E+02  0.18362680823E+02  0.96374840643E+02  0.00000000000E+00 0. -1.
         -4    1    6    6    0  503  0.70579092091E+03 -0.11015840811E+03  0.80800458047E+02  0.71889109950E+03  0.00000000000E+00 0.  1.
<mgrwt>
<rscale>  0 0.16287590E+04</rscale>
<asrwt>0</asrwt>
<pdfrwt beam="1">  1        1 0.36175956E+00 0.16287590E+04</pdfrwt>
<pdfrwt beam="2">  1       -1 0.18796593E+00 0.16287590E+04</pdfrwt>
<totfact> 0.29224040E-01</totfact>
</mgrwt>
</event>
<event>
12    1  0.3147868E-008  0.6749881E+03  0.7818608E-02  0.9760989E-01
         -1   -1    0    0    0  501 -0.00000000000E+00  0.00000000000E+00  0.81268842788E+03  0.81268842788E+03  0.00000000000E+00 0.  1.
          1   -1    0    0  501    0  0.00000000000E+00 -0.00000000000E+00 -0.78020720077E+03  0.78020720077E+03  0.00000000000E+00 0. -1.
         23    2    1    2    0    0  0.45404524002E+03 -0.44167604534E+03 -0.23286659805E+03  0.68097380491E+03  0.90904683452E+02 0.  0.
    5000000    2    1    2    0    0 -0.45404524002E+03  0.44167604534E+03  0.26534782517E+03  0.91192182375E+03  0.59996427835E+03 0.  0.
         23    2    4    4    0    0 -0.19017556636E+03 -0.22547054562E+00 -0.13725278902E+03  0.25198326317E+03  0.92143583331E+02 0.  0.
         23    2    4    4    0    0 -0.26386967366E+03  0.44190151588E+03  0.40260061418E+03  0.65993856057E+03  0.92344435510E+02 0.  0.
          5    1    3    3  502    0  0.34111749386E+03 -0.27728555888E+03 -0.17583050473E+03  0.47348377182E+03  0.47000000000E+01 0. -1.
         -5    1    3    3    0  502  0.11292774616E+03 -0.16439048646E+03 -0.57036093321E+02  0.20749003309E+03  0.47000000000E+01 0.  1.
         13    1    5    5    0    0 -0.11338463684E+03  0.55342353166E+01 -0.13300027386E+03  0.17485930482E+03  0.00000000000E+00 0. -1.
        -13    1    5    5    0    0 -0.76790929518E+02 -0.57597058623E+01 -0.42525151547E+01  0.77123958359E+02  0.00000000000E+00 0.  1.
          2    1    6    6  503    0  0.21046641814E+01  0.29634751337E+02  0.92820959371E+01  0.31125639000E+02  0.00000000000E+00 0. -1.
         -2    1    6    6    0  503 -0.26597433784E+03  0.41226676455E+03  0.39331851825E+03  0.62881292157E+03  0.00000000000E+00 0.  1.
<mgrwt>
<rscale>  0 0.67498807E+03</rscale>
<asrwt>0</asrwt>
<pdfrwt beam="1">  1        1 0.12003188E+00 0.67498807E+03</pdfrwt>
<pdfrwt beam="2">  1       -1 0.12502899E+00 0.67498807E+03</pdfrwt>
<totfact> 0.13383527E+01</totfact>
</mgrwt>
</event>
<event>
12    1  0.3147868E-008  0.1118163E+04  0.7818608E-02  0.9187668E-01
         -1   -1    0    0    0  501 -0.00000000000E+00  0.00000000000E+00  0.13995758956E+04  0.13995758956E+04  0.00000000000E+00 0.  1.
          1   -1    0    0  501    0  0.00000000000E+00 -0.00000000000E+00 -0.17711367682E+04  0.17711367682E+04  0.00000000000E+00 0. -1.
         23    2    1    2    0    0 -0.55149100771E+03 -0.89697511499E+03 -0.12771517028E+04  0.16577771166E+04  0.91661374799E+02 0.  0.
    5000000    2    1    2    0    0  0.55149100771E+03  0.89697511499E+03  0.90559083018E+03  0.15129355473E+04  0.60014375773E+03 0.  0.
         23    2    4    4    0    0  0.23081921304E+03  0.22356745252E+02  0.33281856112E+03  0.41591151573E+03  0.91852387686E+02 0.  0.
         23    2    4    4    0    0  0.32067179467E+03  0.87461836974E+03  0.57277226906E+03  0.10970240315E+04  0.87212160588E+02 0.  0.
          5    1    3    3  502    0 -0.25332184144E+03 -0.32824082615E+03 -0.48949246401E+03  0.64151302218E+03  0.47000000000E+01 0. -1.
         -5    1    3    3    0  502 -0.29816916627E+03 -0.56873428884E+03 -0.78765923881E+03  0.10162640944E+04  0.47000000000E+01 0.  1.
         13    1    5    5    0    0  0.19823764840E+03  0.48741115877E+02  0.24733052428E+03  0.32069650740E+03  0.00000000000E+00 0.  1.
        -13    1    5    5    0    0  0.32581564639E+02 -0.26384370625E+02  0.85488036844E+02  0.95215008328E+02  0.00000000000E+00 0. -1.
          1    1    6    6  503    0  0.20223345104E+03  0.62977552076E+03  0.37121155660E+03  0.75849429465E+03  0.00000000000E+00 0. -1.
         -1    1    6    6    0  503  0.11843834363E+03  0.24484284898E+03  0.20156071246E+03  0.33852973687E+03  0.00000000000E+00 0.  1.
<mgrwt>
<rscale>  0 0.11181626E+04</rscale>
<asrwt>0</asrwt>
<pdfrwt beam="1">  1        1 0.27248258E+00 0.11181626E+04</pdfrwt>
<pdfrwt beam="2">  1       -1 0.21531937E+00 0.11181626E+04</pdfrwt>
<totfact> 0.50044496E-01</totfact>
</mgrwt>
</event>
<event>
12    1  0.3147868E-008  0.7720075E+03  0.7818608E-02  0.9601443E-01
         -2   -1    0    0    0  501 -0.00000000000E+00  0.00000000000E+00  0.15514466826E+04  0.15514466826E+04  0.00000000000E+00 0.  1.
          2   -1    0    0  501    0  0.00000000000E+00 -0.00000000000E+00 -0.11046550354E+04  0.11046550354E+04  0.00000000000E+00 0. -1.
         23    2    1    2    0    0  0.23173460540E+03 -0.69547159585E+03  0.12248307324E+04  0.14302012773E+04  0.88790217713E+02 0.  0.
    5000000    2    1    2    0    0 -0.23173460540E+03  0.69547159585E+03 -0.77803908524E+03  0.12259004407E+04  0.60008783048E+03 0.  0.
         23    2    4    4    0    0 -0.31894175903E+03  0.55699085658E+03 -0.30145271702E+03  0.71469325954E+03  0.89163079085E+02 0.  0.
         23    2    4    4    0    0  0.87207153627E+02  0.13848073928E+03 -0.47658636822E+03  0.51120718113E+03  0.86117436506E+02 0.  0.
          5    1    3    3  502    0  0.28305188666E+02 -0.26261844766E+02  0.68755682203E+02  0.78995582352E+02  0.47000000000E+01 0. -1.
         -5    1    3    3    0  502  0.20342941673E+03 -0.66920975109E+03  0.11560750502E+04  0.13512056950E+04  0.47000000000E+01 0.  1.
         11    1    5    5    0    0 -0.13562579319E+03  0.25068093481E+03 -0.18241870518E+03  0.33839602665E+03  0.00000000000E+00 0.  1.
        -11    1    5    5    0    0 -0.18331596584E+03  0.30630992176E+03 -0.11903401184E+03  0.37629723289E+03  0.00000000000E+00 0. -1.
          4    1    6    6  503    0  0.49357906475E+02  0.76545547716E+02 -0.14098220095E+03  0.16784339365E+03  0.00000000000E+00 0.  1.
         -4    1    6    6    0  503  0.37849247152E+02  0.61935191560E+02 -0.33560416727E+03  0.34336378748E+03  0.00000000000E+00 0. -1.
<mgrwt>
<rscale>  0 0.77200748E+03</rscale>
<asrwt>0</asrwt>
<pdfrwt beam="1">  1        2 0.16994693E+00 0.77200748E+03</pdfrwt>
<pdfrwt beam="2">  1       -2 0.23868411E+00 0.77200748E+03</pdfrwt>
<totfact> 0.16811317E+00</totfact>
</mgrwt>
</event>
<event>
12    1  0.3147868E-008  0.7888987E+03  0.7818608E-02  0.9576226E-01
          2   -1    0    0  501    0  0.00000000000E+00  0.00000000000E+00  0.31587291468E+04  0.31587291468E+04  0.00000000000E+00 0.  1.
         -2   -1    0    0    0  501 -0.00000000000E+00 -0.00000000000E+00 -0.21417729214E+03  0.21417729214E+03  0.00000000000E+00 0. -1.
         23    2    1    2    0    0  0.70430724260E+03 -0.73387802564E+02  0.13931696508E+04  0.15654415999E+04  0.90836475127E+02 0.  0.
    5000000    2    1    2    0    0 -0.70430724260E+03  0.73387802564E+02  0.15513822039E+04  0.18074648391E+04  0.59892231586E+03 0.  0.
         23    2    4    4    0    0 -0.65819132511E+03  0.23042685794E+03  0.14000239123E+04  0.15667143621E+04  0.90634321458E+02 0.  0.
         23    2    4    4    0    0 -0.46115917483E+02 -0.15703905537E+03  0.15135829158E+03  0.24075047693E+03  0.90903888553E+02 0.  0.
          5    1    3    3  502    0  0.67812470006E+03 -0.87553166966E+02  0.13322422090E+04  0.14974678825E+04  0.47000000000E+01 0. -1.
         -5    1    3    3    0  502  0.26182542542E+02  0.14165364401E+02  0.60927441887E+02  0.67973717402E+02  0.47000000000E+01 0.  1.
         11    1    5    5    0    0 -0.52609971741E+03  0.17225433151E+03  0.11824565059E+04  0.13056246994E+04  0.00000000000E+00 0. -1.
        -11    1    5    5    0    0 -0.13209160770E+03  0.58172526424E+02  0.21756740641E+03  0.26108966274E+03  0.00000000000E+00 0.  1.
          3    1    6    6  503    0 -0.34095602405E+02 -0.67395311004E+02  0.12585230710E+03  0.14677684167E+03  0.00000000000E+00 0. -1.
         -3    1    6    6    0  503 -0.12020315078E+02 -0.89643744369E+02  0.25505984477E+02  0.93973635256E+02  0.00000000000E+00 0.  1.
<mgrwt>
<rscale>  0 0.78889873E+03</rscale>
<asrwt>0</asrwt>
<pdfrwt beam="1">  1        2 0.48595829E+00 0.78889873E+03</pdfrwt>
<pdfrwt beam="2">  1       -2 0.32950355E-01 0.78889873E+03</pdfrwt>
<totfact> 0.12561136E+01</totfact>
</mgrwt>
</event>
<event>
12    1  0.3147868E-008  0.1006174E+04  0.7818608E-02  0.9301799E-01
         -2   -1    0    0    0  501 -0.00000000000E+00  0.00000000000E+00  0.90155580100E+03  0.90155580100E+03  0.00000000000E+00 0.  1.
          2   -1    0    0  501    0  0.00000000000E+00 -0.00000000000E+00 -0.11956930867E+04  0.11956930867E+04  0.00000000000E+00 0. -1.
         23    2    1    2    0    0 -0.84760353112E+03  0.38809719101E+03 -0.31639858434E+03  0.98845691977E+03  0.88813526142E+02 0.  0.
    5000000    2    1    2    0    0  0.84760353112E+03 -0.38809719101E+03  0.22261298672E+02  0.11087919679E+04  0.59989406316E+03 0.  0.
         23    2    4    4    0    0  0.57980875105E+03 -0.50856857916E+03 -0.87372287195E+02  0.78174080980E+03  0.93083777495E+02 0.  0.
         23    2    4    4    0    0  0.26779478007E+03  0.12047138815E+03  0.10963358587E+03  0.32705115810E+03  0.93357041858E+02 0.  0.
          5    1    3    3  502    0 -0.68304086860E+03  0.34340563716E+03 -0.23795931766E+03  0.80069906124E+03  0.47000000000E+01 0. -1.
         -5    1    3    3    0  502 -0.16456266253E+03  0.44691553852E+02 -0.78439266677E+02  0.18775785853E+03  0.47000000000E+01 0.  1.
         13    1    5    5    0    0  0.22867000944E+03 -0.16715528429E+03 -0.69529277166E+02  0.29165936067E+03  0.00000000000E+00 0. -1.
        -13    1    5    5    0    0  0.35113874161E+03 -0.34141329487E+03 -0.17843010029E+02  0.49008144913E+03  0.00000000000E+00 0.  1.
          2    1    6    6  503    0  0.23663658798E+03  0.13205309758E+03  0.80083201800E+02  0.28257426380E+03  0.00000000000E+00 0. -1.
         -2    1    6    6    0  503  0.31158192091E+02 -0.11581709427E+02  0.29550384068E+02  0.44476894296E+02  0.00000000000E+00 0.  1.
<mgrwt>
<rscale>  0 0.10061736E+04</rscale>
<asrwt>0</asrwt>
<pdfrwt beam="1">  1        2 0.18395278E+00 0.10061736E+04</pdfrwt>
<pdfrwt beam="2">  1       -2 0.13870089E+00 0.10061736E+04</pdfrwt>
<totfact> 0.69486952E+00</totfact>
</mgrwt>
</event>
<event>
12    1  0.3147868E-008  0.1515442E+04  0.7818608E-02  0.8874249E-01
         -1   -1    0    0    0  501 -0.00000000000E+00  0.00000000000E+00  0.10307901695E+04  0.10307901695E+04  0.00000000000E+00 0.  1.
          1   -1    0    0  501    0  0.00000000000E+00 -0.00000000000E+00 -0.33704163422E+04  0.33704163422E+04  0.00000000000E+00 0. -1.
         23    2    1    2    0    0  0.37445154469E+03  0.14293658077E+04 -0.23835245367E+04  0.28058515699E+04  0.91176992043E+02 0.  0.
    5000000    2    1    2    0    0 -0.37445154469E+03 -0.14293658077E+04  0.43898363948E+02  0.15953549417E+04  0.59994145725E+03 0.  0.
         23    2    4    4    0    0 -0.42322875029E+03 -0.14136253234E+04  0.90905540566E+02  0.14809326951E+04  0.86247899222E+02 0.  0.
         23    2    4    4    0    0  0.48777205598E+02 -0.15740484354E+02 -0.47007176618E+02  0.11442224665E+03  0.90861417775E+02 0.  0.
          5    1    3    3  502    0  0.18670999866E+03  0.56925061185E+03 -0.91681047703E+03  0.10952033708E+04  0.47000000000E+01 0. -1.
         -5    1    3    3    0  502  0.18774154603E+03  0.86011519587E+03 -0.14667140597E+04  0.17106481991E+04  0.47000000000E+01 0.  1.
         13    1    5    5    0    0 -0.13907269271E+03 -0.57174867363E+03  0.72466134879E+01  0.58846433457E+03  0.00000000000E+00 0. -1.
        -13    1    5    5    0    0 -0.28415605758E+03 -0.84187664973E+03  0.83658927078E+02  0.89246836051E+03  0.00000000000E+00 0.  1.
          2    1    6    6  503    0  0.12885104209E+02 -0.32400957364E+02  0.17293057323E+02  0.38921687787E+02  0.00000000000E+00 0.  1.
         -2    1    6    6    0  503  0.35892101390E+02  0.16660473010E+02 -0.64300233942E+02  0.75500558859E+02  0.00000000000E+00 0. -1.
<mgrwt>
<rscale>  0 0.15154418E+04</rscale>
<asrwt>0</asrwt>
<pdfrwt beam="1">  1        1 0.51852558E+00 0.15154418E+04</pdfrwt>
<pdfrwt beam="2">  1       -1 0.15858311E+00 0.15154418E+04</pdfrwt>
<totfact> 0.89935907E-02</totfact>
</mgrwt>
</event>
<event>
12    1  0.3147868E-008  0.5915576E+03  0.7818608E-02  0.9923078E-01
          2   -1    0    0  501    0  0.00000000000E+00  0.00000000000E+00  0.62656101845E+03  0.62656101845E+03  0.00000000000E+00 0. -1.
         -2   -1    0    0    0  501 -0.00000000000E+00 -0.00000000000E+00 -0.69764991087E+03  0.69764991087E+03  0.00000000000E+00 0.  1.
         23    2    1    2    0    0 -0.37344235013E+02 -0.49947135068E+03 -0.16796490911E+03  0.53664367216E+03  0.94382191889E+02 0.  0.
    5000000    2    1    2    0    0  0.37344235013E+02  0.49947135068E+03  0.96876016686E+02  0.78756725715E+03  0.60000916651E+03 0.  0.
         23    2    4    4    0    0 -0.19041653529E+03  0.12159020266E+03 -0.13805378117E+03  0.27954431962E+03  0.89685817400E+02 0.  0.
         23    2    4    4    0    0  0.22776077030E+03  0.37788114801E+03  0.23492979786E+03  0.50802293753E+03  0.90698206303E+02 0.  0.
          5    1    3    3  502    0 -0.61226745177E+02 -0.37350053147E+03 -0.14972996643E+03  0.40705345372E+03  0.47000000000E+01 0. -1.
         -5    1    3    3    0  502  0.23882510164E+02 -0.12597081920E+03 -0.18234942679E+02  0.12959021845E+03  0.47000000000E+01 0.  1.
         13    1    5    5    0    0 -0.10356540169E+03  0.38660130058E+02 -0.22340435582E+02  0.11278073038E+03  0.00000000000E+00 0. -1.
        -13    1    5    5    0    0 -0.86851133599E+02  0.82930072604E+02 -0.11571334559E+03  0.16676358924E+03  0.00000000000E+00 0.  1.
          4    1    6    6  503    0  0.10516647179E+03  0.23462555342E+03  0.17159842325E+03  0.30911997019E+03  0.00000000000E+00 0. -1.
         -4    1    6    6    0  503  0.12259429851E+03  0.14325559459E+03  0.63331374608E+02  0.19890296734E+03  0.00000000000E+00 0.  1.
<mgrwt>
<rscale>  0 0.59155756E+03</rscale>
<asrwt>0</asrwt>
<pdfrwt beam="1">  1        2 0.96394003E-01 0.59155756E+03</pdfrwt>
<pdfrwt beam="2">  1       -2 0.10733076E+00 0.59155756E+03</pdfrwt>
<totfact> 0.33699717E+01</totfact>
</mgrwt>
</event>
<event>
12    1  0.3147868E-008  0.1222802E+04  0.7818608E-02  0.9093129E-01
          2   -1    0    0  501    0  0.00000000000E+00  0.00000000000E+00  0.35154148673E+04  0.35154148673E+04  0.00000000000E+00 0. -1.
         -2   -1    0    0    0  501 -0.00000000000E+00 -0.00000000000E+00 -0.43595188708E+03  0.43595188708E+03  0.00000000000E+00 0.  1.
         23    2    1    2    0    0 -0.46261113597E+02 -0.11624593822E+04  0.14549657974E+04  0.18651281969E+04  0.91245895443E+02 0.  0.
    5000000    2    1    2    0    0  0.46261113597E+02  0.11624593822E+04  0.16244971828E+04  0.20862385575E+04  0.59995692842E+03 0.  0.
         23    2    4    4    0    0 -0.12663858125E+03  0.10313465783E+04  0.11285388105E+04  0.15366404115E+04  0.89167328865E+02 0.  0.
         23    2    4    4    0    0  0.17289969485E+03  0.13111280383E+03  0.49595837239E+03  0.54959814605E+03  0.94860651431E+02 0.  0.
          5    1    3    3  502    0  0.22365370746E+01 -0.87481295602E+03  0.10702523612E+04  0.13823042056E+04  0.47000000000E+01 0. -1.
         -5    1    3    3    0  502 -0.48497650671E+02 -0.28764642613E+03  0.38471343614E+03  0.48282399126E+03  0.47000000000E+01 0.  1.
         13    1    5    5    0    0 -0.10266312663E+03  0.50486170218E+03  0.58574217339E+03  0.78007624601E+03  0.00000000000E+00 0. -1.
        -13    1    5    5    0    0 -0.23975454620E+02  0.52648487614E+03  0.54279663706E+03  0.75656416545E+03  0.00000000000E+00 0.  1.
          2    1    6    6  503    0  0.15513050674E+03  0.14644665984E+03  0.44850655611E+03  0.49665906734E+03  0.00000000000E+00 0. -1.
         -2    1    6    6    0  503  0.17769188116E+02 -0.15333856007E+02  0.47451816276E+02  0.52939078706E+02  0.00000000000E+00 0.  1.
<mgrwt>
<rscale>  0 0.12228017E+04</rscale>
<asrwt>0</asrwt>
<pdfrwt beam="1">  1        2 0.54083304E+00 0.12228017E+04</pdfrwt>
<pdfrwt beam="2">  1       -2 0.67069523E-01 0.12228017E+04</pdfrwt>
<totfact> 0.16222112E+00</totfact>
</mgrwt>
</event>
<event>
12    1  0.3147868E-008  0.6151858E+03  0.7818608E-02  0.9874392E-01
         -2   -1    0    0    0  501 -0.00000000000E+00  0.00000000000E+00  0.19432491171E+03  0.19432491171E+03  0.00000000000E+00 0.  1.
          2   -1    0    0  501    0  0.00000000000E+00 -0.00000000000E+00 -0.22277428806E+04  0.22277428806E+04  0.00000000000E+00 0. -1.
         23    2    1    2    0    0  0.38749118800E+03  0.29252956637E+03 -0.11337851690E+04  0.12368661014E+04  0.92983738017E+02 0.  0.
    5000000    2    1    2    0    0 -0.38749118800E+03 -0.29252956637E+03 -0.89963279997E+03  0.11852016909E+04  0.59970067985E+03 0.  0.
         23    2    4    4    0    0 -0.34732956706E+03  0.81848972851E+02 -0.54742692058E+03  0.65978349690E+03  0.91109532347E+02 0.  0.
         23    2    4    4    0    0 -0.40161620937E+02 -0.37437853922E+03 -0.35220587939E+03  0.52541819403E+03  0.10120795779E+03 0.  0.
          5    1    3    3  502    0  0.47953041125E+02  0.35753402921E+02 -0.23212149115E+03  0.23975044657E+03  0.47000000000E+01 0.  1.
         -5    1    3    3    0  502  0.33953814687E+03  0.25677616344E+03 -0.90166367780E+03  0.99711565486E+03  0.47000000000E+01 0. -1.
         11    1    5    5    0    0 -0.51033835839E+02  0.67233223421E+01 -0.32231807055E+02  0.60733391555E+02  0.00000000000E+00 0.  1.
        -11    1    5    5    0    0 -0.29629573122E+03  0.75125650509E+02 -0.51519511353E+03  0.59905010534E+03  0.00000000000E+00 0. -1.
          3    1    6    6  503    0  0.42028729031E+00 -0.31818650211E+03 -0.31018227764E+03  0.44436007035E+03  0.00000000000E+00 0. -1.
         -3    1    6    6    0  503 -0.40581908227E+02 -0.56192037107E+02 -0.42023601753E+02  0.81058123676E+02  0.00000000000E+00 0.  1.
<mgrwt>
<rscale>  0 0.61518584E+03</rscale>
<asrwt>0</asrwt>
<pdfrwt beam="1">  1        2 0.34272969E+00 0.61518584E+03</pdfrwt>
<pdfrwt beam="2">  1       -2 0.29896139E-01 0.61518584E+03</pdfrwt>
<totfact> 0.54145542E+01</totfact>
</mgrwt>
</event>
<event>
12    1  0.3147868E-008  0.5880791E+03  0.7818608E-02  0.9930451E-01
         -2   -1    0    0    0  501 -0.00000000000E+00  0.00000000000E+00  0.27394146553E+03  0.27394146553E+03  0.00000000000E+00 0.  1.
          2   -1    0    0  501    0  0.00000000000E+00 -0.00000000000E+00 -0.13753476058E+04  0.13753476058E+04  0.00000000000E+00 0. -1.
         23    2    1    2    0    0 -0.36816873464E+03  0.25724691033E+03 -0.56433406842E+03  0.72725311903E+03  0.93273620649E+02 0.  0.
    5000000    2    1    2    0    0  0.36816873464E+03 -0.25724691033E+03 -0.53707207187E+03  0.92203595234E+03  0.59998308057E+03 0.  0.
         23    2    4    4    0    0  0.34346257785E+02  0.16903921068E+03 -0.18690948626E+03  0.27074404580E+03  0.92807661928E+02 0.  0.
         23    2    4    4    0    0  0.33382247686E+03 -0.42628612100E+03 -0.35016258561E+03  0.65129190653E+03  0.91706096520E+02 0.  0.
          5    1    3    3  502    0 -0.24006639283E+03  0.20983430294E+03 -0.35434058627E+03  0.47669869807E+03  0.47000000000E+01 0. -1.
         -5    1    3    3    0  502 -0.12810234181E+03  0.47412607385E+02 -0.20999348215E+03  0.25055442096E+03  0.47000000000E+01 0.  1.
         11    1    5    5    0    0  0.62204669843E+01  0.88556539843E+02 -0.32830852287E+02  0.94651042362E+02  0.00000000000E+00 0. -1.
        -11    1    5    5    0    0  0.28125790800E+02  0.80482670833E+02 -0.15407863398E+03  0.17609300344E+03  0.00000000000E+00 0.  1.
          3    1    6    6  503    0  0.22901103663E+03 -0.23303584485E+03 -0.17807716403E+03  0.37210648507E+03  0.00000000000E+00 0. -1.
         -3    1    6    6    0  503  0.10481144022E+03 -0.19325027615E+03 -0.17208542158E+03  0.27918542146E+03  0.00000000000E+00 0.  1.
<mgrwt>
<rscale>  0 0.58807913E+03</rscale>
<asrwt>0</asrwt>
<pdfrwt beam="1">  1        2 0.21159194E+00 0.58807913E+03</pdfrwt>
<pdfrwt beam="2">  1       -2 0.42144840E-01 0.58807913E+03</pdfrwt>
<totfact> 0.82557843E+01</totfact>
</mgrwt>
</event>
<event>
12    1  0.3147868E-008  0.2088375E+04  0.7818608E-02  0.8566382E-01
          1   -1    0    0  501    0  0.00000000000E+00  0.00000000000E+00  0.27294359576E+04  0.27294359576E+04  0.00000000000E+00 0. -1.
         -1   -1    0    0    0  501 -0.00000000000E+00 -0.00000000000E+00 -0.17321596641E+04  0.17321596641E+04  0.00000000000E+00 0.  1.
         23    2    1    2    0    0 -0.19393382059E+04 -0.74874625946E+03  0.23552116044E+01  0.20800836687E+04  0.71336412494E+02 0.  0.
    5000000    2    1    2    0    0  0.19393382059E+04  0.74874625946E+03  0.99492108185E+03  0.23815119530E+04  0.60006465083E+03 0.  0.
         23    2    4    4    0    0  0.24953401977E+03  0.19322016032E+03  0.36799323636E+03  0.49334606165E+03  0.91488016532E+02 0.  0.
         23    2    4    4    0    0  0.16898041862E+04  0.55552609914E+03  0.62692784549E+03  0.18881658913E+04  0.89913711004E+02 0.  0.
          5    1    3    3  502    0 -0.86991165537E+03 -0.35616347377E+03  0.30723759254E+02  0.94051302361E+03  0.47000000000E+01 0. -1.
         -5    1    3    3    0  502 -0.10694265505E+04 -0.39258278569E+03 -0.28368547650E+02  0.11395706451E+04  0.47000000000E+01 0.  1.
         11    1    5    5    0    0  0.22120237771E+03  0.18544606355E+03  0.28641016243E+03  0.40663437574E+03  0.00000000000E+00 0. -1.
        -11    1    5    5    0    0  0.28331642057E+02  0.77740967676E+01  0.81583073928E+02  0.86711685912E+02  0.00000000000E+00 0.  1.
          4    1    6    6  503    0  0.10445425250E+04  0.36909241852E+03  0.42844509419E+03  0.11877977516E+04  0.00000000000E+00 0. -1.
         -4    1    6    6    0  503  0.64526166119E+03  0.18643368062E+03  0.19848275131E+03  0.70036813979E+03  0.00000000000E+00 0.  1.
<mgrwt>
<rscale>  0 0.20883752E+04</rscale>
<asrwt>0</asrwt>
<pdfrwt beam="1">  1        1 0.41991322E+00 0.20883752E+04</pdfrwt>
<pdfrwt beam="2">  1       -1 0.26648610E+00 0.20883752E+04</pdfrwt>
<totfact> 0.44881152E-02</totfact>
</mgrwt>
</event>
<event>
12    1  0.3147868E-008  0.5288690E+03  0.7818608E-02  0.1006507E+00
          1   -1    0    0  501    0  0.00000000000E+00  0.00000000000E+00  0.98524533283E+03  0.98524533283E+03  0.00000000000E+00 0. -1.
         -1   -1    0    0    0  501 -0.00000000000E+00 -0.00000000000E+00 -0.32692669619E+03  0.32692669619E+03  0.00000000000E+00 0.  1.
         23    2    1    2    0    0  0.39377756693E+03 -0.83353710885E+01  0.14035775131E+03  0.42855830422E+03  0.93976971296E+02 0.  0.
    5000000    2    1    2    0    0 -0.39377756693E+03  0.83353710885E+01  0.51796088533E+03  0.88361372480E+03  0.59779552131E+03 0.  0.
         23    2    4    4    0    0 -0.28054362431E+03  0.24938849629E+03  0.13696455794E+03  0.40978691119E+03  0.90921258409E+02 0.  0.
         23    2    4    4    0    0 -0.11323394262E+03 -0.24105312520E+03  0.38099632739E+03  0.47382681361E+03  0.91788413632E+02 0.  0.
          5    1    3    3  502    0  0.17890717241E+03 -0.44490409812E+02  0.88400423772E+02  0.20450891870E+03  0.47000000000E+01 0. -1.
         -5    1    3    3    0  502  0.21487039452E+03  0.36155038724E+02  0.51957327534E+02  0.22404938552E+03  0.47000000000E+01 0.  1.
         13    1    5    5    0    0 -0.11445471995E+03  0.14296107309E+03  0.30587544852E+02  0.18567000091E+03  0.00000000000E+00 0.  1.
        -13    1    5    5    0    0 -0.16608890436E+03  0.10642742320E+03  0.10637701309E+03  0.22411691028E+03  0.00000000000E+00 0. -1.
          2    1    6    6  503    0 -0.11280158650E+03 -0.17053708716E+03  0.32415033741E+03  0.38324996706E+03  0.00000000000E+00 0. -1.
         -2    1    6    6    0  503 -0.43235612675E+00 -0.70516038040E+02  0.56845989986E+02  0.90576846546E+02  0.00000000000E+00 0.  1.
<mgrwt>
<rscale>  0 0.52886903E+03</rscale>
<asrwt>0</asrwt>
<pdfrwt beam="1">  1        1 0.15157620E+00 0.52886903E+03</pdfrwt>
<pdfrwt beam="2">  1       -1 0.50296415E-01 0.52886903E+03</pdfrwt>
<totfact> 0.64600302E+01</totfact>
</mgrwt>
</event>
<event>
12    1  0.3147868E-008  0.6138782E+03  0.7818608E-02  0.9877024E-01
         -1   -1    0    0    0  501 -0.00000000000E+00  0.00000000000E+00  0.38331890070E+03  0.38331890070E+03  0.00000000000E+00 0. -1.
          1   -1    0    0  501    0  0.00000000000E+00 -0.00000000000E+00 -0.23579796723E+04  0.23579796723E+04  0.00000000000E+00 0.  1.
         23    2    1    2    0    0 -0.42005821623E+03  0.30233804340E+03 -0.18695909973E+04  0.19420386631E+04  0.91030072967E+02 0.  0.
    5000000    2    1    2    0    0  0.42005821623E+03 -0.30233804340E+03 -0.10506977432E+03  0.79925990995E+03  0.59993295348E+03 0.  0.
         23    2    4    4    0    0  0.49908911651E+03 -0.15348313231E+03 -0.22255083529E+03  0.57482598721E+03  0.90824133130E+02 0.  0.
         23    2    4    4    0    0 -0.79030900279E+02 -0.14885491109E+03  0.11748106097E+03  0.22443392274E+03  0.90361043804E+02 0.  0.
          5    1    3    3  502    0 -0.10589473545E+03  0.12556375158E+03 -0.54118855160E+03  0.56558561605E+03  0.47000000000E+01 0. -1.
         -5    1    3    3    0  502 -0.31416348078E+03  0.17677429181E+03 -0.13284024457E+04  0.13764530470E+04  0.47000000000E+01 0.  1.
         13    1    5    5    0    0  0.13829252734E+03 -0.83894656437E+02 -0.53607065476E+02  0.17040203627E+03  0.00000000000E+00 0. -1.
        -13    1    5    5    0    0  0.36079658917E+03 -0.69588475871E+02 -0.16894376982E+03  0.40442395094E+03  0.00000000000E+00 0.  1.
          2    1    6    6  503    0 -0.17720892864E+02 -0.78172076538E+02  0.10178695565E+03  0.12955882037E+03  0.00000000000E+00 0. -1.
         -2    1    6    6    0  503 -0.61310007414E+02 -0.70682834549E+02  0.15694105319E+02  0.94875102376E+02  0.00000000000E+00 0.  1.
<mgrwt>
<rscale>  0 0.61387821E+03</rscale>
<asrwt>0</asrwt>
<pdfrwt beam="1">  1        1 0.36276609E+00 0.61387821E+03</pdfrwt>
<pdfrwt beam="2">  1       -1 0.58972140E-01 0.61387821E+03</pdfrwt>
<totfact> 0.53685545E+00</totfact>
</mgrwt>
</event>
<event>
12    1  0.3147868E-008  0.2806391E+03  0.7818608E-02  0.1095340E+00
          2   -1    0    0  501    0  0.00000000000E+00  0.00000000000E+00  0.30382870160E+04  0.30382870160E+04  0.00000000000E+00 0. -1.
         -2   -1    0    0    0  501 -0.00000000000E+00 -0.00000000000E+00 -0.76716700827E+02  0.76716700827E+02  0.00000000000E+00 0.  1.
         23    2    1    2    0    0  0.17353530824E+03  0.15438927353E+03  0.14612138082E+04  0.14825006844E+04  0.93337746049E+02 0.  0.
    5000000    2    1    2    0    0 -0.17353530824E+03 -0.15438927353E+03  0.15003565070E+04  0.16325030325E+04  0.60003829215E+03 0.  0.
         23    2    4    4    0    0  0.12214089438E+02 -0.24168997011E+02 -0.18649422340E+02  0.94001361972E+02  0.88063219915E+02 0.  0.
         23    2    4    4    0    0 -0.18574939767E+03 -0.13022027652E+03  0.15190059293E+04  0.15385016705E+04  0.90267478663E+02 0.  0.
          5    1    3    3  502    0  0.91280077147E+02  0.11544417406E+03  0.66605834569E+03  0.68214017597E+03  0.47000000000E+01 0. -1.
         -5    1    3    3    0  502  0.82255231089E+02  0.38945099467E+02  0.79515546255E+03  0.80036050842E+03  0.47000000000E+01 0.  1.
         11    1    5    5    0    0  0.21582200748E+02  0.28672685324E+02  0.32607037066E+01  0.36035350165E+02  0.00000000000E+00 0. -1.
        -11    1    5    5    0    0 -0.93681113098E+01 -0.52841682335E+02 -0.21910126047E+02  0.57966011808E+02  0.00000000000E+00 0.  1.
          1    1    6    6  503    0 -0.17396229987E+03 -0.99415680500E+02  0.14218869787E+04  0.14359348660E+04  0.00000000000E+00 0. -1.
         -1    1    6    6    0  503 -0.11787097801E+02 -0.30804596019E+02  0.97118950627E+02  0.10256680448E+03  0.00000000000E+00 0.  1.
<mgrwt>
<rscale>  0 0.28063909E+03</rscale>
<asrwt>0</asrwt>
<pdfrwt beam="1">  1        2 0.46742868E+00 0.28063909E+03</pdfrwt>
<pdfrwt beam="2">  1       -2 0.11802572E-01 0.28063909E+03</pdfrwt>
<totfact> 0.10039185E+02</totfact>
</mgrwt>
</event>
<event>
12    1  0.3147868E-008  0.1224818E+04  0.7818608E-02  0.9091407E-01
          1   -1    0    0  501    0  0.00000000000E+00  0.00000000000E+00  0.10253454726E+04  0.10253454726E+04  0.00000000000E+00 0. -1.
         -1   -1    0    0    0  501 -0.00000000000E+00 -0.00000000000E+00 -0.15036323223E+04  0.15036323223E+04  0.00000000000E+00 0.  1.
         23    2    1    2    0    0  0.92925374520E+03 -0.68914795145E+03 -0.69555525827E+02  0.11631722607E+04  0.98459712694E+02 0.  0.
    5000000    2    1    2    0    0 -0.92925374520E+03  0.68914795145E+03 -0.40873132380E+03  0.13658055342E+04  0.59993836364E+03 0.  0.
         23    2    4    4    0    0 -0.19255197957E+03 -0.85994929537E+02 -0.82637143782E+02  0.24412986996E+03  0.91099413457E+02 0.  0.
         23    2    4    4    0    0 -0.73670176563E+03  0.77514288098E+03 -0.32609418002E+03  0.11216756642E+04  0.90790440141E+02 0.  0.
          5    1    3    3  502    0  0.72365508565E+03 -0.57187098732E+03 -0.82785776883E+02  0.92606084249E+03  0.47000000000E+01 0. -1.
         -5    1    3    3    0  502  0.20559865955E+03 -0.11727696412E+03  0.13230251056E+02  0.23711141825E+03  0.47000000000E+01 0.  1.
         11    1    5    5    0    0 -0.14394211492E+03 -0.90187430940E+02 -0.30237672042E+02  0.17253237945E+03  0.00000000000E+00 0. -1.
        -11    1    5    5    0    0 -0.48609864651E+02  0.41925014021E+01 -0.52399471739E+02  0.71597490514E+02  0.00000000000E+00 0.  1.
          4    1    6    6  503    0 -0.54698193258E+03  0.62014037008E+03 -0.27488202478E+03  0.87139166895E+03  0.00000000000E+00 0.  1.
         -4    1    6    6    0  503 -0.18971983305E+03  0.15500251090E+03 -0.51212155241E+02  0.25028399526E+03  0.00000000000E+00 0. -1.
<mgrwt>
<rscale>  0 0.12248179E+04</rscale>
<asrwt>0</asrwt>
<pdfrwt beam="1">  1        1 0.15774546E+00 0.12248179E+04</pdfrwt>
<pdfrwt beam="2">  1       -1 0.23132805E+00 0.12248179E+04</pdfrwt>
<totfact> 0.13087687E+00</totfact>
</mgrwt>
</event>
<event>
12    1  0.3147868E-008  0.5846521E+03  0.7818608E-02  0.9937770E-01
         -2   -1    0    0    0  501 -0.00000000000E+00  0.00000000000E+00  0.24351305017E+03  0.24351305017E+03  0.00000000000E+00 0.  1.
          2   -1    0    0  501    0  0.00000000000E+00 -0.00000000000E+00 -0.15354720674E+04  0.15354720674E+04  0.00000000000E+00 0. -1.
         23    2    1    2    0    0 -0.13741989090E+03  0.42446659267E+03 -0.33575368813E+03  0.56511076967E+03  0.86968547181E+02 0.  0.
    5000000    2    1    2    0    0  0.13741989090E+03 -0.42446659267E+03 -0.95620532910E+03  0.12138743479E+04  0.60008848210E+03 0.  0.
         23    2    4    4    0    0 -0.16200359078E+03 -0.38671645847E+03 -0.62221147472E+03  0.75472331592E+03  0.81641788518E+02 0.  0.
         23    2    4    4    0    0  0.29942348168E+03 -0.37750134202E+02 -0.33399385438E+03  0.45915103197E+03  0.90489123010E+02 0.  0.
          5    1    3    3  502    0 -0.17038295074E+02  0.10243983312E+03 -0.12189745316E+03  0.16020393877E+03  0.47000000000E+01 0. -1.
         -5    1    3    3    0  502 -0.12038159583E+03  0.32202675955E+03 -0.21385623497E+03  0.40490683091E+03  0.47000000000E+01 0.  1.
         11    1    5    5    0    0 -0.16172293786E+02 -0.29206646061E+02 -0.98941864548E+02  0.10442252545E+03  0.00000000000E+00 0. -1.
        -11    1    5    5    0    0 -0.14583129700E+03 -0.35750981241E+03 -0.52326961018E+03  0.65030079047E+03  0.00000000000E+00 0.  1.
          4    1    6    6  503    0  0.22553866481E+03 -0.33639736011E+02 -0.18825337341E+03  0.29570027691E+03  0.00000000000E+00 0. -1.
         -4    1    6    6    0  503  0.73884816872E+02 -0.41103981919E+01 -0.14574048097E+03  0.16345075507E+03  0.00000000000E+00 0.  1.
<mgrwt>
<rscale>  0 0.58465213E+03</rscale>
<asrwt>0</asrwt>
<pdfrwt beam="1">  1        2 0.23622647E+00 0.58465213E+03</pdfrwt>
<pdfrwt beam="2">  1       -2 0.37463547E-01 0.58465213E+03</pdfrwt>
<totfact> 0.84558501E+01</totfact>
</mgrwt>
</event>
<event>
12    1  0.3147868E-008  0.3973892E+03  0.7818608E-02  0.1044687E+00
         -1   -1    0    0    0  501 -0.00000000000E+00  0.00000000000E+00  0.69943517605E+02  0.69943517605E+02  0.00000000000E+00 0.  1.
          1   -1    0    0  501    0  0.00000000000E+00 -0.00000000000E+00 -0.24771485188E+04  0.24771485188E+04  0.00000000000E+00 0. -1.
         23    2    1    2    0    0  0.13659990232E+03  0.83704105881E+02 -0.32379774987E+03  0.37307583735E+03  0.93137999443E+02 0.  0.
    5000000    2    1    2    0    0 -0.13659990232E+03 -0.83704105881E+02 -0.20834072513E+04  0.21740161990E+04  0.60007895165E+03 0.  0.
         23    2    4    4    0    0  0.26514698012E+02  0.23386975673E+03 -0.87414007804E+03  0.90984022171E+03  0.91050868684E+02 0.  0.
         23    2    4    4    0    0 -0.16311460033E+03 -0.31757386261E+03 -0.12092671733E+04  0.12641759773E+04  0.91401719010E+02 0.  0.
          5    1    3    3  502    0  0.69365647953E+02 -0.37444086273E+01 -0.84159906984E+02  0.10922725693E+03  0.47000000000E+01 0. -1.
         -5    1    3    3    0  502  0.67234254363E+02  0.87448514508E+02 -0.23963784289E+03  0.26384858043E+03  0.47000000000E+01 0.  1.
         11    1    5    5    0    0  0.55813341942E+02  0.10232818046E+03 -0.44683559280E+03  0.46178808197E+03  0.00000000000E+00 0. -1.
        -11    1    5    5    0    0 -0.29298643930E+02  0.13154157628E+03 -0.42730448524E+03  0.44805213974E+03  0.00000000000E+00 0.  1.
          1    1    6    6  503    0 -0.90288551078E+02 -0.10375263264E+03 -0.35987618390E+03  0.38526289592E+03  0.00000000000E+00 0. -1.
         -1    1    6    6    0  503 -0.72826049250E+02 -0.21382122998E+03 -0.84939098935E+03  0.87891308139E+03  0.00000000000E+00 0.  1.
<mgrwt>
<rscale>  0 0.39738917E+03</rscale>
<asrwt>0</asrwt>
<pdfrwt beam="1">  1        1 0.38109978E+00 0.39738917E+03</pdfrwt>
<pdfrwt beam="2">  1       -1 0.10760541E-01 0.39738917E+03</pdfrwt>
<totfact> 0.86685526E+01</totfact>
</mgrwt>
</event>
<event>
12    1  0.3147868E-008  0.1003041E+04  0.7818608E-02  0.9305216E-01
          2   -1    0    0  501    0  0.00000000000E+00  0.00000000000E+00  0.33697921370E+04  0.33697921370E+04  0.00000000000E+00 0. -1.
         -2   -1    0    0    0  501 -0.00000000000E+00 -0.00000000000E+00 -0.32503481506E+03  0.32503481506E+03  0.00000000000E+00 0.  1.
         23    2    1    2    0    0  0.10889446022E+03 -0.94348078611E+03  0.11679580823E+04  0.15074706496E+04  0.79546716830E+02 0.  0.
    5000000    2    1    2    0    0 -0.10889446022E+03  0.94348078611E+03  0.18767992396E+04  0.21873563025E+04  0.60011516466E+03 0.  0.
         23    2    4    4    0    0  0.12807313757E+03  0.68429337642E+03  0.87531202305E+03  0.11220339622E+04  0.90160529197E+02 0.  0.
         23    2    4    4    0    0 -0.23696759778E+03  0.25918740969E+03  0.10014872166E+04  0.10653223403E+04  0.92753910929E+02 0.  0.
          5    1    3    3  502    0  0.70579767345E+02 -0.72532641170E+03  0.94239199655E+03  0.11913037699E+04  0.47000000000E+01 0. -1.
         -5    1    3    3    0  502  0.38314692873E+02 -0.21815437441E+03  0.22556608579E+03  0.31616687971E+03  0.47000000000E+01 0.  1.
         11    1    5    5    0    0  0.73586431997E+02  0.56905527321E+03  0.73531623185E+03  0.93269975221E+03  0.00000000000E+00 0. -1.
        -11    1    5    5    0    0  0.54486705569E+02  0.11523810321E+03  0.13999579120E+03  0.18933420998E+03  0.00000000000E+00 0.  1.
          3    1    6    6  503    0 -0.67705804883E+02  0.10847956860E+03  0.25621285601E+03  0.28635104400E+03  0.00000000000E+00 0. -1.
         -3    1    6    6    0  503 -0.16926179290E+03  0.15070784109E+03  0.74527436057E+03  0.77897129628E+03  0.00000000000E+00 0.  1.
<mgrwt>
<rscale>  0 0.10030408E+04</rscale>
<asrwt>0</asrwt>
<pdfrwt beam="1">  1        2 0.51842953E+00 0.10030408E+04</pdfrwt>
<pdfrwt beam="2">  1       -2 0.50005359E-01 0.10030408E+04</pdfrwt>
<totfact> 0.39057975E+00</totfact>
</mgrwt>
</event>
<event>
12    1  0.3147868E-008  0.5042859E+03  0.7818608E-02  0.1012666E+00
          1   -1    0    0  501    0  0.00000000000E+00  0.00000000000E+00  0.48241400843E+03  0.48241400843E+03  0.00000000000E+00 0. -1.
         -1   -1    0    0    0  501 -0.00000000000E+00 -0.00000000000E+00 -0.15940799912E+04  0.15940799912E+04  0.00000000000E+00 0.  1.
         23    2    1    2    0    0 -0.16049040838E+03  0.31370528626E+03 -0.13047319124E+04  0.13544120877E+04  0.89098609207E+02 0.  0.
    5000000    2    1    2    0    0  0.16049040838E+03 -0.31370528626E+03  0.19306592962E+03  0.72208191198E+03  0.59996637958E+03 0.  0.
         23    2    4    4    0    0 -0.19346405154E+03 -0.17358290697E+03 -0.24632266924E+02  0.27416161984E+03  0.83656920765E+02 0.  0.
         23    2    4    4    0    0  0.35395445992E+03 -0.14012237929E+03  0.21769819655E+03  0.44792029214E+03  0.91225229250E+02 0.  0.
          5    1    3    3  502    0 -0.26571647765E+02  0.10076173734E+03 -0.26793039353E+03  0.28752002704E+03  0.47000000000E+01 0. -1.
         -5    1    3    3    0  502 -0.13391876062E+03  0.21294354892E+03 -0.10368015189E+04  0.10668920606E+04  0.47000000000E+01 0.  1.
         13    1    5    5    0    0 -0.10043171033E+03 -0.13923573481E+03  0.12021046690E+01  0.17168157544E+03  0.00000000000E+00 0.  1.
        -13    1    5    5    0    0 -0.93032341210E+02 -0.34347172153E+02 -0.25834371592E+02  0.10248004441E+03  0.00000000000E+00 0. -1.
          1    1    6    6  503    0  0.85969103316E+02 -0.20711858472E+02  0.11168676763E+02  0.89131403820E+02  0.00000000000E+00 0. -1.
         -1    1    6    6    0  503  0.26798535661E+03 -0.11941052082E+03  0.20652951978E+03  0.35878888832E+03  0.00000000000E+00 0.  1.
<mgrwt>
<rscale>  0 0.50428591E+03</rscale>
<asrwt>0</asrwt>
<pdfrwt beam="1">  1        1 0.74217540E-01 0.50428591E+03</pdfrwt>
<pdfrwt beam="2">  1       -1 0.24524307E+00 0.50428591E+03</pdfrwt>
<totfact> 0.38017560E+00</totfact>
</mgrwt>
</event>
<event>
12    1  0.3147868E-008  0.5000818E+03  0.7818608E-02  0.1013758E+00
          2   -1    0    0  501    0  0.00000000000E+00  0.00000000000E+00  0.49473707450E+03  0.49473707450E+03  0.00000000000E+00 0. -1.
         -2   -1    0    0    0  501 -0.00000000000E+00 -0.00000000000E+00 -0.13478910685E+04  0.13478910685E+04  0.00000000000E+00 0.  1.
         23    2    1    2    0    0  0.13629415151E+03 -0.38415002586E+03  0.27330794075E+03  0.50286104594E+03  0.10965702415E+03 0.  0.
    5000000    2    1    2    0    0 -0.13629415151E+03  0.38415002586E+03 -0.11264619348E+04  0.13397670971E+04  0.59992670037E+03 0.  0.
         23    2    4    4    0    0 -0.27997342114E+03  0.24843411079E+03 -0.10333086416E+04  0.11030624948E+04  0.94421897541E+02 0.  0.
         23    2    4    4    0    0  0.14367926964E+03  0.13571591507E+03 -0.93153293175E+02  0.23670460225E+03  0.91043893651E+02 0.  0.
          5    1    3    3  502    0  0.87443521624E+02 -0.13392434769E+03  0.15116061603E+03  0.22012206209E+03  0.47000000000E+01 0. -1.
         -5    1    3    3    0  502  0.48850629882E+02 -0.25022567817E+03  0.12214732472E+03  0.28273898386E+03  0.47000000000E+01 0.  1.
         13    1    5    5    0    0 -0.55871730630E+02  0.71001041725E+01 -0.16871972174E+03  0.17787188161E+03  0.00000000000E+00 0.  1.
        -13    1    5    5    0    0 -0.22410169051E+03  0.24133400662E+03 -0.86458891985E+03  0.92519061320E+03  0.00000000000E+00 0. -1.
          2    1    6    6  503    0  0.93744598153E+02  0.70166173480E+02 -0.10004486118E+03  0.15401401180E+03  0.00000000000E+00 0. -1.
         -2    1    6    6    0  503  0.49934671485E+02  0.65549741594E+02  0.68915680051E+01  0.82690590450E+02  0.00000000000E+00 0.  1.
<mgrwt>
<rscale>  0 0.50008180E+03</rscale>
<asrwt>0</asrwt>
<pdfrwt beam="1">  1        2 0.76113396E-01 0.50008180E+03</pdfrwt>
<pdfrwt beam="2">  1       -2 0.20736786E+00 0.50008180E+03</pdfrwt>
<totfact> 0.78428385E+00</totfact>
</mgrwt>
</event>
<event>
12    1  0.3147868E-008  0.1270844E+04  0.7818608E-02  0.9053011E-01
         -1   -1    0    0    0  501 -0.00000000000E+00  0.00000000000E+00  0.23868412970E+04  0.23868412970E+04  0.00000000000E+00 0.  1.
          1   -1    0    0  501    0  0.00000000000E+00 -0.00000000000E+00 -0.71419861337E+03  0.71419861337E+03  0.00000000000E+00 0. -1.
         23    2    1    2    0    0  0.11868208229E+04 -0.31729258783E+03  0.94168076394E+03  0.15507578437E+04  0.94175243391E+02 0.  0.
    5000000    2    1    2    0    0 -0.11868208229E+04  0.31729258783E+03  0.73096191969E+03  0.15502820667E+04  0.59987574238E+03 0.  0.
         23    2    4    4    0    0 -0.28152435554E+03 -0.10986893652E+03  0.36380675209E+03  0.48013393326E+03  0.82741132631E+02 0.  0.
         23    2    4    4    0    0 -0.90529646740E+03  0.42716152435E+03  0.36715516760E+03  0.10701481335E+04  0.91572095502E+02 0.  0.
          5    1    3    3  502    0  0.47632943693E+03 -0.16778726651E+03  0.35569171688E+03  0.61772241885E+03  0.47000000000E+01 0. -1.
         -5    1    3    3    0  502  0.71049138601E+03 -0.14950532132E+03  0.58598904706E+03  0.93303542482E+03  0.47000000000E+01 0.  1.
         11    1    5    5    0    0 -0.60808496409E+01 -0.17917141634E+02  0.45462302867E+02  0.49242478397E+02  0.00000000000E+00 0. -1.
        -11    1    5    5    0    0 -0.27544350590E+03 -0.91951794884E+02  0.31834444923E+03  0.43089145487E+03  0.00000000000E+00 0.  1.
          1    1    6    6  503    0 -0.36069474965E+03  0.18262844742E+03  0.19484204891E+03  0.44879536122E+03  0.00000000000E+00 0. -1.
         -1    1    6    6    0  503 -0.54460171775E+03  0.24453307693E+03  0.17231311868E+03  0.62135277223E+03  0.00000000000E+00 0.  1.
<mgrwt>
<rscale>  0 0.12708443E+04</rscale>
<asrwt>0</asrwt>
<pdfrwt beam="1">  1        1 0.10987671E+00 0.12708443E+04</pdfrwt>
<pdfrwt beam="2">  1       -1 0.36720635E+00 0.12708443E+04</pdfrwt>
<totfact> 0.31008982E-01</totfact>
</mgrwt>
</event>
<event>
12    1  0.3147868E-008  0.4859697E+03  0.7818608E-02  0.1017507E+00
         -2   -1    0    0    0  501 -0.00000000000E+00  0.00000000000E+00  0.37209949119E+03  0.37209949119E+03  0.00000000000E+00 0.  1.
          2   -1    0    0  501    0  0.00000000000E+00 -0.00000000000E+00 -0.76081901530E+03  0.76081901530E+03  0.00000000000E+00 0. -1.
         23    2    1    2    0    0  0.28429659414E+03  0.16192289683E+03  0.13377936746E+02  0.34064926064E+03  0.93911509553E+02 0.  0.
    5000000    2    1    2    0    0 -0.28429659414E+03 -0.16192289683E+03 -0.40209746085E+03  0.79226924585E+03  0.59913655534E+03 0.  0.
         23    2    4    4    0    0 -0.26610295735E+03  0.16701837374E+03 -0.12457928563E+03  0.35025635606E+03  0.91943436298E+02 0.  0.
         23    2    4    4    0    0 -0.18193636786E+02 -0.32894127057E+03 -0.27751817522E+03  0.44201288979E+03  0.99124614824E+02 0.  0.
          5    1    3    3  502    0  0.10336544859E+03  0.67711207852E+02  0.49928511481E+02  0.13335730160E+03  0.47000000000E+01 0. -1.
         -5    1    3    3    0  502  0.18093114555E+03  0.94211688977E+02 -0.36550574735E+02  0.20729195904E+03  0.47000000000E+01 0.  1.
         13    1    5    5    0    0 -0.12759094244E+03  0.69565316122E+02 -0.10601320587E+03  0.17988213257E+03  0.00000000000E+00 0.  1.
        -13    1    5    5    0    0 -0.13851201491E+03  0.97453057616E+02 -0.18566079765E+02  0.17037422350E+03  0.00000000000E+00 0. -1.
          3    1    6    6  503    0 -0.60776160917E+01 -0.52978605475E+02 -0.43153827468E+01  0.53500397977E+02  0.00000000000E+00 0. -1.
         -3    1    6    6    0  503 -0.12116020694E+02 -0.27596266509E+03 -0.27320279247E+03  0.38851249181E+03  0.00000000000E+00 0.  1.
<mgrwt>
<rscale>  0 0.48596971E+03</rscale>
<asrwt>0</asrwt>
<pdfrwt beam="1">  1        2 0.11704908E+00 0.48596971E+03</pdfrwt>
<pdfrwt beam="2">  1       -2 0.57246076E-01 0.48596971E+03</pdfrwt>
<totfact> 0.10868942E+02</totfact>
</mgrwt>
</event>
<event>
12    1  0.3147868E-008  0.1232142E+04  0.7818608E-02  0.9085178E-01
          2   -1    0    0  501    0  0.00000000000E+00  0.00000000000E+00  0.68429433989E+03  0.68429433989E+03  0.00000000000E+00 0.  1.
         -2   -1    0    0    0  501 -0.00000000000E+00 -0.00000000000E+00 -0.24229985156E+04  0.24229985156E+04  0.00000000000E+00 0. -1.
         23    2    1    2    0    0  0.89245663131E+02 -0.12059519721E+04 -0.97767453054E+03  0.15576285001E+04  0.89856047991E+02 0.  0.
    5000000    2    1    2    0    0 -0.89245663131E+02  0.12059519721E+04 -0.76102964513E+03  0.15496643553E+04  0.60000712174E+03 0.  0.
         23    2    4    4    0    0 -0.17144449008E+03  0.10131559331E+04 -0.81555140948E+03  0.13156241476E+04  0.99320884603E+02 0.  0.
         23    2    4    4    0    0  0.82198826947E+02  0.19279603893E+03  0.54521764347E+02  0.23404020779E+03  0.88742528098E+02 0.  0.
          5    1    3    3  502    0  0.10486062155E+03 -0.98654766481E+03 -0.78347756978E+03  0.12641721549E+04  0.47000000000E+01 0. -1.
         -5    1    3    3    0  502 -0.15614958422E+02 -0.21940430725E+03 -0.19419696077E+03  0.29345634520E+03  0.47000000000E+01 0.  1.
         11    1    5    5    0    0 -0.12279704689E+03  0.68727347252E+03 -0.49418793356E+03  0.85536287880E+03  0.00000000000E+00 0. -1.
        -11    1    5    5    0    0 -0.48647443183E+02  0.32588246061E+03 -0.32136347592E+03  0.46026126875E+03  0.00000000000E+00 0.  1.
          2    1    6    6  503    0  0.50606292886E+02  0.30330082719E+02  0.31667093959E+02  0.66960552844E+02  0.00000000000E+00 0.  1.
         -2    1    6    6    0  503  0.31592534061E+02  0.16246595621E+03  0.22854670389E+02  0.16707965494E+03  0.00000000000E+00 0. -1.
<mgrwt>
<rscale>  0 0.12321424E+04</rscale>
<asrwt>0</asrwt>
<pdfrwt beam="1">  1        2 0.10527605E+00 0.12321424E+04</pdfrwt>
<pdfrwt beam="2">  1       -2 0.37276900E+00 0.12321424E+04</pdfrwt>
<totfact> 0.46286553E-01</totfact>
</mgrwt>
</event>
<event>
12    1  0.3147868E-008  0.6537012E+03  0.7818608E-02  0.9799859E-01
          4   -1    0    0  501    0  0.00000000000E+00  0.00000000000E+00  0.74333283989E+03  0.74333283989E+03  0.00000000000E+00 0.  1.
         -4   -1    0    0    0  501 -0.00000000000E+00 -0.00000000000E+00 -0.58646037192E+03  0.58646037192E+03  0.00000000000E+00 0. -1.
         23    2    1    2    0    0  0.36707040786E+03 -0.36025781717E+03  0.13298880082E+03  0.53913636522E+03  0.91954445252E+02 0.  0.
    5000000    2    1    2    0    0 -0.36707040786E+03  0.36025781717E+03  0.23883667152E+02  0.79065684659E+03  0.60003453263E+03 0.  0.
         23    2    4    4    0    0 -0.46079530395E+03  0.42913504786E+03 -0.72711496933E+01  0.63796869411E+03  0.10228383842E+03 0.  0.
         23    2    4    4    0    0  0.93724896093E+02 -0.68877230692E+02  0.31154816846E+02  0.15268815248E+03  0.93886208995E+02 0.  0.
          5    1    3    3  502    0  0.27473303102E+03 -0.31272741835E+03  0.86146594530E+02  0.42511175269E+03  0.47000000000E+01 0.  1.
         -5    1    3    3    0  502  0.92337376837E+02 -0.47530398816E+02  0.46842206294E+02  0.11402461253E+03  0.47000000000E+01 0. -1.
         11    1    5    5    0    0 -0.24276080888E+03  0.29393255373E+03 -0.11241228586E+02  0.38138631555E+03  0.00000000000E+00 0. -1.
        -11    1    5    5    0    0 -0.21803449507E+03  0.13520249413E+03  0.39700788930E+01  0.25658237856E+03  0.00000000000E+00 0.  1.
          1    1    6    6  503    0  0.72798832236E+02  0.46358993618E+01  0.12477551779E+02  0.74005748670E+02  0.00000000000E+00 0. -1.
         -1    1    6    6    0  503  0.20926063857E+02 -0.73513130054E+02  0.18677265067E+02  0.78682403809E+02  0.00000000000E+00 0.  1.
<mgrwt>
<rscale>  0 0.65370125E+03</rscale>
<asrwt>0</asrwt>
<pdfrwt beam="1">  1        4 0.11435890E+00 0.65370125E+03</pdfrwt>
<pdfrwt beam="2">  1       -4 0.90224672E-01 0.65370125E+03</pdfrwt>
<totfact> 0.12276361E+00</totfact>
</mgrwt>
</event>
<event>
12    1  0.3147868E-008  0.4403277E+03  0.7818608E-02  0.1030646E+00
         -1   -1    0    0    0  501 -0.00000000000E+00  0.00000000000E+00  0.16400653799E+04  0.16400653799E+04  0.00000000000E+00 0.  1.
          1   -1    0    0  501    0  0.00000000000E+00 -0.00000000000E+00 -0.15443879369E+03  0.15443879369E+03  0.00000000000E+00 0. -1.
         23    2    1    2    0    0  0.30263196059E+03 -0.73518430145E+02  0.39266235634E+03  0.50939409890E+03  0.91145810480E+02 0.  0.
    5000000    2    1    2    0    0 -0.30263196059E+03  0.73518430145E+02  0.10929642299E+04  0.12851100747E+04  0.59995502597E+03 0.  0.
         23    2    4    4    0    0 -0.11632322775E+03  0.25120114875E+03  0.20469988963E+03  0.35582993345E+03  0.89887631363E+02 0.  0.
         23    2    4    4    0    0 -0.18630873283E+03 -0.17768271860E+03  0.88826434029E+03  0.92928014130E+03  0.90917272103E+02 0.  0.
          5    1    3    3  502    0  0.24438609962E+03 -0.87595679189E+02  0.34949541037E+03  0.43539258213E+03  0.47000000000E+01 0. -1.
         -5    1    3    3    0  502  0.58245860965E+02  0.14077249044E+02  0.43166945961E+02  0.74001516766E+02  0.47000000000E+01 0.  1.
         13    1    5    5    0    0 -0.78611940320E+02  0.71141876733E+02  0.89693872797E+02  0.13887402422E+03  0.00000000000E+00 0. -1.
        -13    1    5    5    0    0 -0.37711287434E+02  0.18005927202E+03  0.11500601683E+03  0.21695590922E+03  0.00000000000E+00 0.  1.
          1    1    6    6  503    0 -0.16625230727E+03 -0.10765840798E+03  0.59478401401E+03  0.62689567378E+03  0.00000000000E+00 0. -1.
         -1    1    6    6    0  503 -0.20056425558E+02 -0.70024310629E+02  0.29348032627E+03  0.30238446752E+03  0.00000000000E+00 0.  1.
<mgrwt>
<rscale>  0 0.44032774E+03</rscale>
<asrwt>0</asrwt>
<pdfrwt beam="1">  1        1 0.23759816E-01 0.44032774E+03</pdfrwt>
<pdfrwt beam="2">  1       -1 0.25231774E+00 0.44032774E+03</pdfrwt>
<totfact> 0.15168234E+01</totfact>
</mgrwt>
</event>
<event>
12    1  0.3147868E-008  0.1311966E+03  0.7818608E-02  0.1225691E+00
          1   -1    0    0  501    0  0.00000000000E+00  0.00000000000E+00  0.11765099298E+04  0.11765099298E+04  0.00000000000E+00 0. -1.
         -1   -1    0    0    0  501 -0.00000000000E+00 -0.00000000000E+00 -0.12229114739E+03  0.12229114739E+03  0.00000000000E+00 0.  1.
         23    2    1    2    0    0 -0.65414177565E+01  0.90564124777E+01  0.82725250318E+01  0.92975254183E+02  0.91930160811E+02 0.  0.
    5000000    2    1    2    0    0  0.65414177565E+01 -0.90564124777E+01  0.10459462574E+04  0.12058258230E+04  0.59990627046E+03 0.  0.
         23    2    4    4    0    0  0.31872687675E+02 -0.65236674577E+02  0.10834536943E+04  0.10897453613E+04  0.91658893972E+02 0.  0.
         23    2    4    4    0    0 -0.25331269919E+02  0.56180262099E+02 -0.37507436903E+02  0.11608046173E+03  0.90939379183E+02 0.  0.
          5    1    3    3  502    0  0.14273924686E+02 -0.29359521076E+02  0.29429084198E+02  0.44202798559E+02  0.47000000000E+01 0. -1.
         -5    1    3    3    0  502 -0.20815342442E+02  0.38415933554E+02 -0.21156559166E+02  0.48772455624E+02  0.47000000000E+01 0.  1.
         11    1    5    5    0    0  0.20336620156E+02 -0.18520028174E+02  0.88902734541E+03  0.88945274774E+03  0.00000000000E+00 0.  1.
        -11    1    5    5    0    0  0.11536067520E+02 -0.46716646403E+02  0.19442634887E+03  0.20029261354E+03  0.00000000000E+00 0. -1.
          4    1    6    6  503    0  0.23699008900E+02  0.56001893727E+02 -0.19868402529E+02  0.63973498755E+02  0.00000000000E+00 0. -1.
         -4    1    6    6    0  503 -0.49030278819E+02  0.17836837156E+00 -0.17639034373E+02  0.52106962970E+02  0.00000000000E+00 0.  1.
<mgrwt>
<rscale>  0 0.13119663E+03</rscale>
<asrwt>0</asrwt>
<pdfrwt beam="1">  1        1 0.18100152E+00 0.13119663E+03</pdfrwt>
<pdfrwt beam="2">  1       -1 0.18814023E-01 0.13119663E+03</pdfrwt>
<totfact> 0.27498361E+02</totfact>
</mgrwt>
</event>
<event>
12    1  0.3147868E-008  0.6295537E+03  0.7818608E-02  0.9845920E-01
          1   -1    0    0  501    0  0.00000000000E+00  0.00000000000E+00  0.58455355375E+03  0.58455355375E+03  0.00000000000E+00 0. -1.
         -1   -1    0    0    0  501 -0.00000000000E+00 -0.00000000000E+00 -0.15153018481E+04  0.15153018481E+04  0.00000000000E+00 0.  1.
         23    2    1    2    0    0 -0.10644642208E+03 -0.50676846709E+03 -0.11611265655E+04  0.12746049719E+04  0.90872511044E+02 0.  0.
    5000000    2    1    2    0    0  0.10644642208E+03  0.50676846709E+03  0.23037827114E+03  0.82525042996E+03  0.59984915131E+03 0.  0.
         23    2    4    4    0    0 -0.18624414141E+03  0.36026115636E+03  0.22131027759E+01  0.41558799395E+03  0.90738646111E+02 0.  0.
         23    2    4    4    0    0  0.29269056349E+03  0.14650731073E+03  0.22816516837E+03  0.40966243601E+03  0.92907531278E+02 0.  0.
          5    1    3    3  502    0 -0.78570673519E+02 -0.16510243953E+03 -0.40236954506E+03  0.44199039251E+03  0.47000000000E+01 0. -1.
         -5    1    3    3    0  502 -0.27875748559E+02 -0.34166602756E+03 -0.75875702043E+03  0.83261457938E+03  0.47000000000E+01 0.  1.
         13    1    5    5    0    0 -0.10316707963E+03  0.22099423189E+03 -0.42059984726E+02  0.24748927081E+03  0.00000000000E+00 0.  1.
        -13    1    5    5    0    0 -0.83077061786E+02  0.13926692447E+03  0.44273087501E+02  0.16809872314E+03  0.00000000000E+00 0. -1.
          3    1    6    6  503    0  0.19180457829E+03  0.95005364616E+02  0.93176658963E+02  0.23344572246E+03  0.00000000000E+00 0.  1.
         -3    1    6    6    0  503  0.10088598520E+03  0.51501946116E+02  0.13498850941E+03  0.17621671355E+03  0.00000000000E+00 0. -1.
<mgrwt>
<rscale>  0 0.62955366E+03</rscale>
<asrwt>0</asrwt>
<pdfrwt beam="1">  1        1 0.89931316E-01 0.62955366E+03</pdfrwt>
<pdfrwt beam="2">  1       -1 0.23312336E+00 0.62955366E+03</pdfrwt>
<totfact> 0.34012585E+00</totfact>
</mgrwt>
</event>
<event>
12    1  0.3147868E-008  0.4935650E+03  0.7818608E-02  0.1015472E+00
         -2   -1    0    0    0  501 -0.00000000000E+00  0.00000000000E+00  0.28543396453E+03  0.28543396453E+03  0.00000000000E+00 0.  1.
          2   -1    0    0  501    0  0.00000000000E+00 -0.00000000000E+00 -0.14113558599E+04  0.14113558599E+04  0.00000000000E+00 0. -1.
         23    2    1    2    0    0 -0.48203891847E+03 -0.50776188800E+02 -0.36782439768E+03  0.61529745634E+03  0.91413521876E+02 0.  0.
    5000000    2    1    2    0    0  0.48203891847E+03  0.50776188800E+02 -0.75809749765E+03  0.10814923681E+04  0.59997848791E+03 0.  0.
         23    2    4    4    0    0  0.17305689765E+03 -0.24960338811E+02 -0.72249229059E+03  0.74869032253E+03  0.89276988988E+02 0.  0.
         23    2    4    4    0    0  0.30898202082E+03  0.75736527612E+02 -0.35605207062E+02  0.33280204552E+03  0.91014064439E+02 0.  0.
          5    1    3    3  502    0 -0.18379858738E+03 -0.15205600650E+01 -0.90000600831E+02  0.20471060299E+03  0.47000000000E+01 0. -1.
         -5    1    3    3    0  502 -0.29824033109E+03 -0.49255628735E+02 -0.27782379684E+03  0.41058685335E+03  0.47000000000E+01 0.  1.
         11    1    5    5    0    0  0.14824052758E+03 -0.18381231739E+02 -0.43260231100E+03  0.45766568932E+03  0.00000000000E+00 0. -1.
        -11    1    5    5    0    0  0.24816370066E+02 -0.65791070726E+01 -0.28988997959E+03  0.29102463322E+03  0.00000000000E+00 0.  1.
          1    1    6    6  503    0  0.13136252741E+03 -0.34945577349E+01  0.13810621777E+02  0.13213273181E+03  0.00000000000E+00 0. -1.
         -1    1    6    6    0  503  0.17761949341E+03  0.79231085347E+02 -0.49415828839E+02  0.20066931371E+03  0.00000000000E+00 0.  1.
<mgrwt>
<rscale>  0 0.49356500E+03</rscale>
<asrwt>0</asrwt>
<pdfrwt beam="1">  1        2 0.21713167E+00 0.49356500E+03</pdfrwt>
<pdfrwt beam="2">  1       -2 0.43912919E-01 0.49356500E+03</pdfrwt>
<totfact> 0.73585973E+01</totfact>
</mgrwt>
</event>
<event>
12    1  0.3147868E-008  0.1755927E+04  0.7818608E-02  0.8730095E-01
         -1   -1    0    0    0  501 -0.00000000000E+00  0.00000000000E+00  0.10778135171E+04  0.10778135171E+04  0.00000000000E+00 0.  1.
          1   -1    0    0  501    0  0.00000000000E+00 -0.00000000000E+00 -0.29058364111E+04  0.29058364111E+04  0.00000000000E+00 0. -1.
         23    2    1    2    0    0  0.16358186002E+04 -0.49403070550E+03 -0.10843365850E+04  0.20258276437E+04  0.90680659013E+02 0.  0.
    5000000    2    1    2    0    0 -0.16358186002E+04  0.49403070550E+03 -0.74368630900E+03  0.19578222845E+04  0.60002494998E+03 0.  0.
         23    2    4    4    0    0 -0.14577942787E+04  0.60604176908E+03 -0.66587958712E+03  0.17154549237E+04  0.83301774723E+02 0.  0.
         23    2    4    4    0    0 -0.17802432148E+03 -0.11201106358E+03 -0.77806721878E+02  0.24236736079E+03  0.91917975408E+02 0.  0.
          5    1    3    3  502    0  0.72016166561E+03 -0.26419742441E+03 -0.49033246532E+03  0.91042908578E+03  0.47000000000E+01 0. -1.
         -5    1    3    3    0  502  0.91565693458E+03 -0.22983328109E+03 -0.59400411963E+03  0.11153985580E+04  0.47000000000E+01 0.  1.
         11    1    5    5    0    0 -0.20985407281E+03  0.58542035601E+02 -0.10379344280E+03  0.24132753795E+03  0.00000000000E+00 0. -1.
        -11    1    5    5    0    0 -0.12479402059E+04  0.54749973348E+03 -0.56208614432E+03  0.14741273857E+04  0.00000000000E+00 0.  1.
          3    1    6    6  503    0 -0.11389561027E+03 -0.33593016835E+02 -0.73501364816E+01  0.11897363290E+03  0.00000000000E+00 0. -1.
         -3    1    6    6    0  503 -0.64128711214E+02 -0.78418046746E+02 -0.70456585397E+02  0.12339372789E+03  0.00000000000E+00 0.  1.
<mgrwt>
<rscale>  0 0.17559267E+04</rscale>
<asrwt>0</asrwt>
<pdfrwt beam="1">  1        1 0.44705175E+00 0.17559267E+04</pdfrwt>
<pdfrwt beam="2">  1       -1 0.16581747E+00 0.17559267E+04</pdfrwt>
<totfact> 0.17052935E-01</totfact>
</mgrwt>
</event>
<event>
12    1  0.3147868E-008  0.1000142E+04  0.7818608E-02  0.9308389E-01
          2   -1    0    0  501    0  0.00000000000E+00  0.00000000000E+00  0.11312566001E+04  0.11312566001E+04  0.00000000000E+00 0. -1.
         -2   -1    0    0    0  501 -0.00000000000E+00 -0.00000000000E+00 -0.14914802753E+04  0.14914802753E+04  0.00000000000E+00 0.  1.
         23    2    1    2    0    0 -0.97478590369E+03 -0.19237442328E+03  0.55765480098E+03  0.11429706713E+04  0.90485367383E+02 0.  0.
    5000000    2    1    2    0    0  0.97478590369E+03  0.19237442328E+03 -0.91787847619E+03  0.14797662040E+04  0.59999303723E+03 0.  0.
         23    2    4    4    0    0  0.41879514616E+03  0.71752149568E+02 -0.48973465003E+02  0.43719745566E+03  0.90584046848E+02 0.  0.
         23    2    4    4    0    0  0.55599075753E+03  0.12062227372E+03 -0.86890501119E+03  0.10425687484E+04  0.90984730634E+02 0.  0.
          5    1    3    3  502    0 -0.59181968325E+03 -0.15518989947E+03  0.36781303492E+03  0.71389282182E+03  0.47000000000E+01 0. -1.
         -5    1    3    3    0  502 -0.38296622044E+03 -0.37184523809E+02  0.18984176606E+03  0.42907784952E+03  0.47000000000E+01 0.  1.
         11    1    5    5    0    0  0.28333379813E+03  0.63842430920E+01 -0.20754815510E+02  0.28416467424E+03  0.00000000000E+00 0. -1.
        -11    1    5    5    0    0  0.13546134804E+03  0.65367906476E+02 -0.28218649493E+02  0.15303278142E+03  0.00000000000E+00 0.  1.
          4    1    6    6  503    0  0.27239267688E+03  0.42700634867E+02 -0.49773877464E+03  0.56900351705E+03  0.00000000000E+00 0. -1.
         -4    1    6    6    0  503  0.28359808065E+03  0.77921638850E+02 -0.37116623655E+03  0.47356523131E+03  0.00000000000E+00 0.  1.
<mgrwt>
<rscale>  0 0.10001423E+04</rscale>
<asrwt>0</asrwt>
<pdfrwt beam="1">  1        2 0.17403948E+00 0.10001423E+04</pdfrwt>
<pdfrwt beam="2">  1       -2 0.22945850E+00 0.10001423E+04</pdfrwt>
<totfact> 0.17861830E+00</totfact>
</mgrwt>
</event>
<event>
12    1  0.3147868E-008  0.2087410E+04  0.7818608E-02  0.8566810E-01
         -1   -1    0    0    0  501 -0.00000000000E+00  0.00000000000E+00  0.13808567277E+04  0.13808567277E+04  0.00000000000E+00 0.  1.
          1   -1    0    0  501    0  0.00000000000E+00 -0.00000000000E+00 -0.32991578382E+04  0.32991578382E+04  0.00000000000E+00 0. -1.
         23    2    1    2    0    0 -0.64290842306E+03 -0.19528408534E+04 -0.13602829247E+04  0.24668208669E+04  0.88977046306E+02 0.  0.
    5000000    2    1    2    0    0  0.64290842306E+03  0.19528408534E+04 -0.55801818577E+03  0.22131936991E+04  0.59993617574E+03 0.  0.
         23    2    4    4    0    0  0.71979723190E+03  0.16079167733E+04 -0.37399201973E+03  0.18031844232E+04  0.89997934927E+02 0.  0.
         23    2    4    4    0    0 -0.76888808840E+02  0.34492408006E+03 -0.18402616604E+03  0.41000927588E+03  0.96733999168E+02 0.  0.
          5    1    3    3  502    0 -0.17491242808E+03 -0.42789798008E+03 -0.28466433503E+03  0.54290598863E+03  0.47000000000E+01 0. -1.
         -5    1    3    3    0  502 -0.46799599498E+03 -0.15249428733E+04 -0.10756185897E+04  0.19239148782E+04  0.47000000000E+01 0.  1.
         11    1    5    5    0    0  0.48750048194E+03  0.98285979447E+03 -0.22767328781E+03  0.11204932938E+04  0.00000000000E+00 0. -1.
        -11    1    5    5    0    0  0.23229674995E+03  0.62505697885E+03 -0.14631873192E+03  0.68269112939E+03  0.00000000000E+00 0.  1.
          2    1    6    6  503    0 -0.43848443279E+02  0.18355953657E+03 -0.15174382521E+03  0.24216312257E+03  0.00000000000E+00 0. -1.
         -2    1    6    6    0  503 -0.33040365561E+02  0.16136454349E+03 -0.32282340823E+02  0.16784615331E+03  0.00000000000E+00 0.  1.
<mgrwt>
<rscale>  0 0.20874101E+04</rscale>
<asrwt>0</asrwt>
<pdfrwt beam="1">  1        1 0.50756274E+00 0.20874101E+04</pdfrwt>
<pdfrwt beam="2">  1       -1 0.21243950E+00 0.20874101E+04</pdfrwt>
<totfact> 0.39166087E-02</totfact>
</mgrwt>
</event>
<event>
12    1  0.3147868E-008  0.6259680E+03  0.7818608E-02  0.9852949E-01
          1   -1    0    0  501    0  0.00000000000E+00  0.00000000000E+00  0.15308814727E+04  0.15308814727E+04  0.00000000000E+00 0. -1.
         -1   -1    0    0    0  501 -0.00000000000E+00 -0.00000000000E+00 -0.53012301933E+03  0.53012301933E+03  0.00000000000E+00 0.  1.
         23    2    1    2    0    0 -0.58590441954E+03  0.69864743755E+02  0.10613098087E+04  0.12177617694E+04  0.91652309215E+02 0.  0.
    5000000    2    1    2    0    0  0.58590441954E+03 -0.69864743755E+02 -0.60551355276E+02  0.84324272266E+03  0.59935527981E+03 0.  0.
         23    2    4    4    0    0  0.32188680302E+03 -0.17801386998E+03  0.21524735139E+03  0.43538861848E+03  0.89060512906E+02 0.  0.
         23    2    4    4    0    0  0.26401761651E+03  0.10814912623E+03 -0.27579870666E+03  0.40785410418E+03  0.94225837019E+02 0.  0.
          5    1    3    3  502    0 -0.46908532261E+03  0.88114903123E+02  0.88321526092E+03  0.10039405177E+04  0.47000000000E+01 0. -1.
         -5    1    3    3    0  502 -0.11681909693E+03 -0.18250159368E+02  0.17809454777E+03  0.21382125168E+03  0.47000000000E+01 0.  1.
         13    1    5    5    0    0  0.17203566567E+03 -0.85061430380E+02  0.61764730534E+02  0.20161001746E+03  0.00000000000E+00 0. -1.
        -13    1    5    5    0    0  0.14985113735E+03 -0.92952439601E+02  0.15348262086E+03  0.23377860103E+03  0.00000000000E+00 0.  1.
          1    1    6    6  503    0  0.20441969192E+01 -0.28605618085E+01  0.62834192181E+01  0.72002022177E+01  0.00000000000E+00 0. -1.
         -1    1    6    6    0  503  0.26197341959E+03  0.11100968803E+03 -0.28208212588E+03  0.40065390196E+03  0.00000000000E+00 0.  1.
<mgrwt>
<rscale>  0 0.62596797E+03</rscale>
<asrwt>0</asrwt>
<pdfrwt beam="1">  1        1 0.23552022E+00 0.62596797E+03</pdfrwt>
<pdfrwt beam="2">  1       -1 0.81557388E-01 0.62596797E+03</pdfrwt>
<totfact> 0.98861905E+00</totfact>
</mgrwt>
</event>
<event>
12    1  0.3147868E-008  0.5402428E+03  0.7818608E-02  0.1003778E+00
         -2   -1    0    0    0  501 -0.00000000000E+00  0.00000000000E+00  0.21557627114E+03  0.21557627114E+03  0.00000000000E+00 0.  1.
          2   -1    0    0  501    0  0.00000000000E+00 -0.00000000000E+00 -0.16397996412E+04  0.16397996412E+04  0.00000000000E+00 0. -1.
         23    2    1    2    0    0  0.18142136394E+03 -0.36112941581E+03 -0.79661090310E+03  0.89765701879E+03  0.88718804012E+02 0.  0.
    5000000    2    1    2    0    0 -0.18142136394E+03  0.36112941581E+03 -0.62761246695E+03  0.95771889355E+03  0.59999992011E+03 0.  0.
         23    2    4    4    0    0 -0.33539396792E+03  0.34806673699E+03 -0.60178376344E+03  0.77734520199E+03  0.92099391993E+02 0.  0.
         23    2    4    4    0    0  0.15397260398E+03  0.13062678823E+02 -0.25828703515E+02  0.18037369156E+03  0.89383165792E+02 0.  0.
          5    1    3    3  502    0  0.16689883248E+02 -0.10587813847E+03 -0.25490632667E+03  0.27656474429E+03  0.47000000000E+01 0. -1.
         -5    1    3    3    0  502  0.16473148069E+03 -0.25525127734E+03 -0.54170457643E+03  0.62109227450E+03  0.47000000000E+01 0.  1.
         11    1    5    5    0    0 -0.60833542264E+02  0.12057511136E+03 -0.18032799400E+03  0.22529372553E+03  0.00000000000E+00 0.  1.
        -11    1    5    5    0    0 -0.27456042566E+03  0.22749162562E+03 -0.42145576944E+03  0.55205147646E+03  0.00000000000E+00 0. -1.
          4    1    6    6  503    0  0.85832821030E+02  0.50924962640E+02 -0.22736109509E+02  0.10235993191E+03  0.00000000000E+00 0. -1.
         -4    1    6    6    0  503  0.68139782953E+02 -0.37862283817E+02 -0.30925940059E+01  0.78013759648E+02  0.00000000000E+00 0.  1.
<mgrwt>
<rscale>  0 0.54024284E+03</rscale>
<asrwt>0</asrwt>
<pdfrwt beam="1">  1        2 0.25227687E+00 0.54024284E+03</pdfrwt>
<pdfrwt beam="2">  1       -2 0.33165579E-01 0.54024284E+03</pdfrwt>
<totfact> 0.93990410E+01</totfact>
</mgrwt>
</event>
<event>
12    1  0.3147868E-008  0.1367692E+04  0.7818608E-02  0.8977542E-01
          1   -1    0    0  501    0  0.00000000000E+00  0.00000000000E+00  0.13311996837E+04  0.13311996837E+04  0.00000000000E+00 0. -1.
         -1   -1    0    0    0  501 -0.00000000000E+00 -0.00000000000E+00 -0.16048784849E+04  0.16048784849E+04  0.00000000000E+00 0.  1.
         23    2    1    2    0    0 -0.13175200636E+04 -0.30360571404E+03 -0.48758123205E+03  0.14414943061E+04  0.11015819950E+03 0.  0.
    5000000    2    1    2    0    0  0.13175200636E+04  0.30360571404E+03  0.21390243082E+03  0.14945838625E+04  0.59999260360E+03 0.  0.
         23    2    4    4    0    0  0.30428359193E+03  0.18371675599E+03  0.28978631499E+03  0.46725485843E+03  0.89502199025E+02 0.  0.
         23    2    4    4    0    0  0.10132364717E+04  0.11988895805E+03 -0.75883884163E+02  0.10273290040E+04  0.92870925435E+02 0.  0.
          5    1    3    3  502    0 -0.12032723539E+04 -0.28492339968E+03 -0.41298505407E+03  0.13036964548E+04  0.47000000000E+01 0. -1.
         -5    1    3    3    0  502 -0.11424770976E+03 -0.18682314356E+02 -0.74596177985E+02  0.13779785131E+03  0.47000000000E+01 0.  1.
         11    1    5    5    0    0  0.25016785215E+03  0.11603086539E+03  0.18891048450E+03  0.33426679034E+03  0.00000000000E+00 0.  1.
        -11    1    5    5    0    0  0.54115739773E+02  0.67685890602E+02  0.10087583049E+03  0.13298806809E+03  0.00000000000E+00 0. -1.
          3    1    6    6  503    0  0.82934187423E+03  0.89547722549E+02 -0.96879917966E+02  0.83976928823E+03  0.00000000000E+00 0. -1.
         -3    1    6    6    0  503  0.18389459750E+03  0.30341235501E+02  0.20996033803E+02  0.18755971581E+03  0.00000000000E+00 0.  1.
<mgrwt>
<rscale>  0 0.13676923E+04</rscale>
<asrwt>0</asrwt>
<pdfrwt beam="1">  1        1 0.20479995E+00 0.13676923E+04</pdfrwt>
<pdfrwt beam="2">  1       -1 0.24690438E+00 0.13676923E+04</pdfrwt>
<totfact> 0.60331632E-01</totfact>
</mgrwt>
</event>
<event>
12    1  0.3147868E-008  0.7522742E+03  0.7818608E-02  0.9631789E-01
         -1   -1    0    0    0  501 -0.00000000000E+00  0.00000000000E+00  0.21409476939E+03  0.21409476939E+03  0.00000000000E+00 0.  1.
          1   -1    0    0  501    0  0.00000000000E+00 -0.00000000000E+00 -0.27990366446E+04  0.27990366446E+04  0.00000000000E+00 0. -1.
         23    2    1    2    0    0  0.40699508831E+03 -0.48731560833E+03 -0.14084092610E+04  0.15477553606E+04  0.93853641316E+02 0.  0.
    5000000    2    1    2    0    0 -0.40699508831E+03  0.48731560833E+03 -0.11765326143E+04  0.14653760534E+04  0.59998040077E+03 0.  0.
         23    2    4    4    0    0 -0.54793303580E+03  0.39548853901E+03 -0.89440734489E+03  0.11246470768E+04  0.90690421901E+02 0.  0.
         23    2    4    4    0    0  0.14093794749E+03  0.91827069328E+02 -0.28212526938E+03  0.34072897654E+03  0.90586158582E+02 0.  0.
          5    1    3    3  502    0  0.21545459767E+03 -0.32139028100E+03 -0.80031484820E+03  0.88895350982E+03  0.47000000000E+01 0. -1.
         -5    1    3    3    0  502  0.19154049064E+03 -0.16592532734E+03 -0.60809441276E+03  0.65880185081E+03  0.47000000000E+01 0.  1.
         11    1    5    5    0    0 -0.49654311916E+03  0.34530277987E+03 -0.75099938034E+03  0.96425574836E+03  0.00000000000E+00 0.  1.
        -11    1    5    5    0    0 -0.51389916637E+02  0.50185759136E+02 -0.14340796456E+03  0.16039132848E+03  0.00000000000E+00 0. -1.
          3    1    6    6  503    0  0.23093050251E+02  0.61678201634E+02 -0.13192533645E+03  0.14745095430E+03  0.00000000000E+00 0. -1.
         -3    1    6    6    0  503  0.11784489723E+03  0.30148867695E+02 -0.15019993293E+03  0.19327802223E+03  0.00000000000E+00 0.  1.
<mgrwt>
<rscale>  0 0.75227424E+03</rscale>
<asrwt>0</asrwt>
<pdfrwt beam="1">  1        1 0.43062099E+00 0.75227424E+03</pdfrwt>
<pdfrwt beam="2">  1       -1 0.32937659E-01 0.75227424E+03</pdfrwt>
<totfact> 0.76540344E+00</totfact>
</mgrwt>
</event>
<event>
12    1  0.3147868E-008  0.5240896E+03  0.7818608E-02  0.1007676E+00
         -2   -1    0    0    0  501 -0.00000000000E+00  0.00000000000E+00  0.89562655534E+03  0.89562655534E+03  0.00000000000E+00 0.  1.
          2   -1    0    0  501    0  0.00000000000E+00 -0.00000000000E+00 -0.45531142854E+03  0.45531142854E+03  0.00000000000E+00 0. -1.
         23    2    1    2    0    0  0.37077721369E+03 -0.84307977003E+02 -0.15980151321E+03  0.42098682441E+03  0.84319662735E+02 0.  0.
    5000000    2    1    2    0    0 -0.37077721369E+03  0.84307977003E+02  0.60011664002E+03  0.92995115947E+03  0.60007132925E+03 0.  0.
         23    2    4    4    0    0 -0.67390477032E+02  0.28238893946E+03  0.13261127913E+03  0.33171497016E+03  0.90355301719E+02 0.  0.
         23    2    4    4    0    0 -0.30338673666E+03 -0.19808096246E+03  0.46750536089E+03  0.59823618931E+03  0.89697804175E+02 0.  0.
          5    1    3    3  502    0  0.59191865133E+02 -0.27607735781E+01 -0.58296952646E+02  0.83258173512E+02  0.47000000000E+01 0. -1.
         -5    1    3    3    0  502  0.31158534856E+03 -0.81547203425E+02 -0.10150456057E+03  0.33772865090E+03  0.47000000000E+01 0.  1.
         13    1    5    5    0    0  0.91972740628E+01  0.99381370136E+02  0.75880562497E+02  0.12537586030E+03  0.00000000000E+00 0. -1.
        -13    1    5    5    0    0 -0.76587751095E+02  0.18300756933E+03  0.56730716637E+02  0.20633910986E+03  0.00000000000E+00 0.  1.
          1    1    6    6  503    0 -0.11799725339E+03 -0.11672017087E+03  0.16345033829E+03  0.23294412030E+03  0.00000000000E+00 0. -1.
         -1    1    6    6    0  503 -0.18538948327E+03 -0.81360791587E+02  0.30405502260E+03  0.36529206901E+03  0.00000000000E+00 0.  1.
<mgrwt>
<rscale>  0 0.52408965E+03</rscale>
<asrwt>0</asrwt>
<pdfrwt beam="1">  1        2 0.70047912E-01 0.52408965E+03</pdfrwt>
<pdfrwt beam="2">  1       -2 0.13778870E+00 0.52408965E+03</pdfrwt>
<totfact> 0.26563534E+01</totfact>
</mgrwt>
</event>
<event>
12    1  0.3147868E-008  0.9570828E+03  0.7818608E-02  0.9356910E-01
          2   -1    0    0  501    0  0.00000000000E+00  0.00000000000E+00  0.20397253663E+04  0.20397253663E+04  0.00000000000E+00 0. -1.
         -2   -1    0    0    0  501 -0.00000000000E+00 -0.00000000000E+00 -0.49968612510E+03  0.49968612510E+03  0.00000000000E+00 0.  1.
         23    2    1    2    0    0  0.82857593526E+03  0.37347772017E+03  0.54238658707E+03  0.10624622306E+04  0.92839074164E+02 0.  0.
    5000000    2    1    2    0    0 -0.82857593526E+03 -0.37347772017E+03  0.99765265410E+03  0.14769492607E+04  0.60003717604E+03 0.  0.
         23    2    4    4    0    0 -0.57074234975E+03 -0.44453997209E+03  0.93835718126E+03  0.11885616755E+04  0.93819189010E+02 0.  0.
         23    2    4    4    0    0 -0.25783358551E+03  0.71062251915E+02  0.59295472833E+02  0.28838758526E+03  0.90130154597E+02 0.  0.
          5    1    3    3  502    0  0.48780249001E+03  0.25513529734E+03  0.29049228972E+03  0.62245734761E+03  0.47000000000E+01 0.  1.
         -5    1    3    3    0  502  0.34077344526E+03  0.11834242283E+03  0.25189429735E+03  0.44000488301E+03  0.47000000000E+01 0.  1.
         11    1    5    5    0    0 -0.47216740000E+02 -0.86560952055E+01  0.69984286803E+02  0.84865475429E+02  0.00000000000E+00 0.  1.
        -11    1    5    5    0    0 -0.52352560975E+03 -0.43588387688E+03  0.86837289446E+03  0.11036962001E+04  0.00000000000E+00 0. -1.
          1    1    6    6  503    0 -0.19953002283E+03  0.28707499696E+02  0.11496184682E+02  0.20191214132E+03  0.00000000000E+00 0. -1.
         -1    1    6    6    0  503 -0.58303562681E+02  0.42354752219E+02  0.47799288151E+02  0.86475443939E+02  0.00000000000E+00 0.  1.
<mgrwt>
<rscale>  0 0.95708275E+03</rscale>
<asrwt>0</asrwt>
<pdfrwt beam="1">  1        2 0.31380390E+00 0.95708275E+03</pdfrwt>
<pdfrwt beam="2">  1       -2 0.76874789E-01 0.95708275E+03</pdfrwt>
<totfact> 0.96729836E+00</totfact>
</mgrwt>
</event>
<event>
12    1  0.3147868E-008  0.3901101E+03  0.7818608E-02  0.1047259E+00
          2   -1    0    0  501    0  0.00000000000E+00  0.00000000000E+00  0.61366879443E+03  0.61366879443E+03  0.00000000000E+00 0.  1.
         -2   -1    0    0    0  501 -0.00000000000E+00 -0.00000000000E+00 -0.14701573398E+04  0.14701573398E+04  0.00000000000E+00 0. -1.
         23    2    1    2    0    0 -0.17219805380E+03 -0.31979871648E+03 -0.12321380042E+04  0.12879865296E+04  0.93924704982E+02 0.  0.
    5000000    2    1    2    0    0  0.17219805380E+03  0.31979871648E+03  0.37564945882E+03  0.79583960466E+03  0.60027058202E+03 0.  0.
         23    2    4    4    0    0  0.13167838396E+03  0.18311768987E+03 -0.12039766984E+03  0.27146666446E+03  0.91253853976E+02 0.  0.
         23    2    4    4    0    0  0.40519669839E+02  0.13668102661E+03  0.49604712865E+03  0.52437294020E+03  0.92631959320E+02 0.  0.
          5    1    3    3  502    0 -0.44004569362E+02 -0.18019060114E+03 -0.61610643762E+03  0.64343942010E+03  0.47000000000E+01 0. -1.
         -5    1    3    3    0  502 -0.12819348444E+03 -0.13960811534E+03 -0.61603156657E+03  0.64454710947E+03  0.47000000000E+01 0.  1.
         11    1    5    5    0    0  0.80049991180E+02  0.16659316701E+03 -0.70585675521E+02  0.19784747148E+03  0.00000000000E+00 0. -1.
        -11    1    5    5    0    0  0.51628392783E+02  0.16524522853E+02 -0.49811994314E+02  0.73619192976E+02  0.00000000000E+00 0.  1.
          2    1    6    6  503    0  0.66976844046E+02  0.87421626551E+02  0.27189102162E+03  0.29334819935E+03  0.00000000000E+00 0.  1.
         -2    1    6    6    0  503 -0.26457174207E+02  0.49259400061E+02  0.22415610704E+03  0.23102474085E+03  0.00000000000E+00 0. -1.
<mgrwt>
<rscale>  0 0.39011011E+03</rscale>
<asrwt>0</asrwt>
<pdfrwt beam="1">  1        2 0.94410585E-01 0.39011011E+03</pdfrwt>
<pdfrwt beam="2">  1       -2 0.22617805E+00 0.39011011E+03</pdfrwt>
<totfact> 0.47710261E+00</totfact>
</mgrwt>
</event>
<event>
12    1  0.3147868E-008  0.5710015E+03  0.7818608E-02  0.9967465E-01
         -1   -1    0    0    0  501 -0.00000000000E+00  0.00000000000E+00  0.30055306367E+03  0.30055306367E+03  0.00000000000E+00 0.  1.
          1   -1    0    0  501    0  0.00000000000E+00 -0.00000000000E+00 -0.15646496515E+04  0.15646496515E+04  0.00000000000E+00 0. -1.
         23    2    1    2    0    0  0.70717305291E+02 -0.49670336435E+03 -0.20665900166E+03  0.54993151701E+03  0.89451445024E+02 0.  0.
    5000000    2    1    2    0    0 -0.70717305291E+02  0.49670336435E+03 -0.10574375862E+04  0.13152711982E+04  0.60004075413E+03 0.  0.
         23    2    4    4    0    0 -0.36230290570E+02 -0.26079998184E+02  0.28921916144E+02  0.10573712443E+03  0.91384145175E+02 0.  0.
         23    2    4    4    0    0 -0.34487014721E+02  0.52278336253E+03 -0.10863595023E+04  0.12095340737E+04  0.91125786099E+02 0.  0.
          5    1    3    3  502    0 -0.13436017789E+02 -0.21533303909E+03 -0.92868664725E+02  0.23493727500E+03  0.47000000000E+01 0. -1.
         -5    1    3    3    0  502  0.84153323080E+02 -0.28137032526E+03 -0.11379033693E+03  0.31499424201E+03  0.47000000000E+01 0.  1.
         11    1    5    5    0    0 -0.65560871992E+02 -0.53326693968E+01  0.18877706449E+02  0.68432690288E+02  0.00000000000E+00 0. -1.
        -11    1    5    5    0    0  0.29330581422E+02 -0.20747328787E+02  0.10044209695E+02  0.37304434143E+02  0.00000000000E+00 0.  1.
          4    1    6    6  503    0 -0.54803926121E+02  0.20065738859E+03 -0.38976266771E+03  0.44179383773E+03  0.00000000000E+00 0. -1.
         -4    1    6    6    0  503  0.20316911400E+02  0.32212597394E+03 -0.69659683463E+03  0.76774023601E+03  0.00000000000E+00 0.  1.
<mgrwt>
<rscale>  0 0.57100149E+03</rscale>
<asrwt>0</asrwt>
<pdfrwt beam="1">  1        1 0.24071533E+00 0.57100149E+03</pdfrwt>
<pdfrwt beam="2">  1       -1 0.46238933E-01 0.57100149E+03</pdfrwt>
<totfact> 0.29109322E+01</totfact>
</mgrwt>
</event>
<event>
12    1  0.3147868E-008  0.5780371E+03  0.7818608E-02  0.9952050E-01
          2   -1    0    0  501    0  0.00000000000E+00  0.00000000000E+00  0.77175366112E+03  0.77175366112E+03  0.00000000000E+00 0. -1.
         -2   -1    0    0    0  501 -0.00000000000E+00 -0.00000000000E+00 -0.67260189515E+03  0.67260189515E+03  0.00000000000E+00 0.  1.
         23    2    1    2    0    0  0.45592279509E+03 -0.24283896531E+03  0.33063861372E+03  0.61997906907E+03  0.90641023005E+02 0.  0.
    5000000    2    1    2    0    0 -0.45592279509E+03  0.24283896531E+03 -0.23148684775E+03  0.82437648720E+03  0.59931133295E+03 0.  0.
         23    2    4    4    0    0 -0.35946141018E+03  0.33782655520E+03 -0.35571947128E+03  0.61453450481E+03  0.88187462491E+02 0.  0.
         23    2    4    4    0    0 -0.96461384910E+02 -0.94987589895E+02  0.12423262353E+03  0.20984198239E+03  0.10135320326E+03 0.  0.
          5    1    3    3  502    0  0.25938642122E+03 -0.88116792619E+02  0.16245876719E+03  0.31852915988E+03  0.47000000000E+01 0. -1.
         -5    1    3    3    0  502  0.19653637387E+03 -0.15472217269E+03  0.16817984653E+03  0.30144990920E+03  0.47000000000E+01 0.  1.
         13    1    5    5    0    0 -0.17227626928E+03  0.19677267490E+03 -0.14329882621E+03  0.29821661949E+03  0.00000000000E+00 0.  1.
        -13    1    5    5    0    0 -0.18718514090E+03  0.14105388031E+03 -0.21242064507E+03  0.31631788532E+03  0.00000000000E+00 0. -1.
          1    1    6    6  503    0 -0.70003916185E+02 -0.76673256662E+02  0.26790551339E+02  0.10722439186E+03  0.00000000000E+00 0. -1.
         -1    1    6    6    0  503 -0.26457468726E+02 -0.18314333233E+02  0.97442072194E+02  0.10261759053E+03  0.00000000000E+00 0.  1.
<mgrwt>
<rscale>  0 0.57803709E+03</rscale>
<asrwt>0</asrwt>
<pdfrwt beam="1">  1        2 0.11873133E+00 0.57803709E+03</pdfrwt>
<pdfrwt beam="2">  1       -2 0.10347721E+00 0.57803709E+03</pdfrwt>
<totfact> 0.28378595E+01</totfact>
</mgrwt>
</event>
<event>
12    1  0.3147868E-008  0.1144617E+04  0.7818608E-02  0.9162764E-01
         -2   -1    0    0    0  501 -0.00000000000E+00  0.00000000000E+00  0.20237340512E+04  0.20237340512E+04  0.00000000000E+00 0. -1.
          2   -1    0    0  501    0  0.00000000000E+00 -0.00000000000E+00 -0.10346981839E+04  0.10346981839E+04  0.00000000000E+00 0.  1.
         23    2    1    2    0    0 -0.10719724890E+04 -0.35715777634E+03  0.13171260115E+04  0.17379418081E+04  0.94520386929E+02 0.  0.
    5000000    2    1    2    0    0  0.10719724890E+04  0.35715777634E+03 -0.32809014418E+03  0.13204904270E+04  0.59947070869E+03 0.  0.
         23    2    4    4    0    0  0.86835718904E+03  0.37304465535E+03 -0.46695467576E+03  0.10581115399E+04  0.91361036544E+02 0.  0.
         23    2    4    4    0    0  0.20361530000E+03 -0.15886879009E+02  0.13886453158E+03  0.26237888709E+03  0.88587464905E+02 0.  0.
          5    1    3    3  502    0 -0.89770033234E+03 -0.29908866214E+03  0.11530339591E+04  0.14915861743E+04  0.47000000000E+01 0. -1.
         -5    1    3    3    0  502 -0.17427215670E+03 -0.58069114198E+02  0.16409205242E+03  0.24635563378E+03  0.47000000000E+01 0.  1.
         11    1    5    5    0    0  0.21342769811E+03  0.55755365463E+02 -0.13113879912E+03  0.25662702066E+03  0.00000000000E+00 0. -1.
        -11    1    5    5    0    0  0.65492949093E+03  0.31728928988E+03 -0.33581587664E+03  0.80148451923E+03  0.00000000000E+00 0.  1.
          2    1    6    6  503    0  0.68145346926E+02  0.19559422536E+02  0.88884540789E+02  0.11369617807E+03  0.00000000000E+00 0.  1.
         -2    1    6    6    0  503  0.13546995308E+03 -0.35446301545E+02  0.49979990792E+02  0.14868270901E+03  0.00000000000E+00 0. -1.
<mgrwt>
<rscale>  0 0.11446174E+04</rscale>
<asrwt>0</asrwt>
<pdfrwt beam="1">  1        2 0.15918434E+00 0.11446174E+04</pdfrwt>
<pdfrwt beam="2">  1       -2 0.31134370E+00 0.11446174E+04</pdfrwt>
<totfact> 0.63880937E-01</totfact>
</mgrwt>
</event>
<event>
12    1  0.3147868E-008  0.9663886E+03  0.7818608E-02  0.9346197E-01
          1   -1    0    0  501    0  0.00000000000E+00  0.00000000000E+00  0.10677334799E+04  0.10677334799E+04  0.00000000000E+00 0. -1.
         -1   -1    0    0    0  501 -0.00000000000E+00 -0.00000000000E+00 -0.11977102525E+04  0.11977102525E+04  0.00000000000E+00 0.  1.
         23    2    1    2    0    0  0.78546116960E+03 -0.44877047822E+03  0.47193359225E+03  0.10243200172E+04  0.90365873900E+02 0.  0.
    5000000    2    1    2    0    0 -0.78546116960E+03  0.44877047822E+03 -0.60191036491E+03  0.12411237152E+04  0.59978979477E+03 0.  0.
         23    2    4    4    0    0 -0.81653139059E+03  0.36842075751E+03 -0.64613100618E+03  0.11081779798E+04  0.90087687044E+02 0.  0.
         23    2    4    4    0    0  0.31070220992E+02  0.80349720712E+02  0.44220641274E+02  0.13294573538E+03  0.91091531936E+02 0.  0.
          5    1    3    3  502    0  0.32591251565E+03 -0.23003042164E+03  0.23366586527E+03  0.46233622974E+03  0.47000000000E+01 0. -1.
         -5    1    3    3    0  502  0.45954865395E+03 -0.21874005658E+03  0.23826772698E+03  0.56198378751E+03  0.47000000000E+01 0.  1.
         13    1    5    5    0    0 -0.63389883946E+03  0.32229930776E+03 -0.52976441270E+03  0.88676655068E+03  0.00000000000E+00 0.  1.
        -13    1    5    5    0    0 -0.18263255113E+03  0.46121449751E+02 -0.11636659349E+03  0.22141142911E+03  0.00000000000E+00 0. -1.
          2    1    6    6  503    0  0.26418417991E+02 -0.14679380086E+02  0.99381146281E+01  0.31814825651E+02  0.00000000000E+00 0. -1.
         -2    1    6    6    0  503  0.46518030011E+01  0.95029100798E+02  0.34282526646E+02  0.10113090973E+03  0.00000000000E+00 0.  1.
<mgrwt>
<rscale>  0 0.96638858E+03</rscale>
<asrwt>0</asrwt>
<pdfrwt beam="1">  1        1 0.16426669E+00 0.96638858E+03</pdfrwt>
<pdfrwt beam="2">  1       -1 0.18426311E+00 0.96638858E+03</pdfrwt>
<totfact> 0.26234132E+00</totfact>
</mgrwt>
</event>
<event>
12    1  0.3147868E-008  0.9492204E+03  0.7818608E-02  0.9366062E-01
          1   -1    0    0  501    0  0.00000000000E+00  0.00000000000E+00  0.54303352599E+03  0.54303352599E+03  0.00000000000E+00 0. -1.
         -1   -1    0    0    0  501 -0.00000000000E+00 -0.00000000000E+00 -0.21641900116E+04  0.21641900116E+04  0.00000000000E+00 0.  1.
         23    2    1    2    0    0 -0.38604837540E+03 -0.78788764323E+03 -0.13454152530E+04  0.16091180282E+04  0.96531544592E+02 0.  0.
    5000000    2    1    2    0    0  0.38604837540E+03  0.78788764323E+03 -0.27574123261E+03  0.10981055094E+04  0.60000182996E+03 0.  0.
         23    2    4    4    0    0  0.47790809389E+02 -0.50965186911E+02 -0.13516984317E+03  0.17806571659E+03  0.92493789971E+02 0.  0.
         23    2    4    4    0    0  0.33825756601E+03  0.83885283014E+03 -0.14057138945E+03  0.92003979283E+03  0.92847473136E+02 0.  0.
          5    1    3    3  502    0 -0.82869743407E+02 -0.11132450952E+03 -0.25819773561E+03  0.29317008965E+03  0.47000000000E+01 0. -1.
         -5    1    3    3    0  502 -0.30317863199E+03 -0.67656313371E+03 -0.10872175174E+04  0.13159479385E+04  0.47000000000E+01 0.  1.
         13    1    5    5    0    0 -0.25031365545E+02 -0.11964018254E+01 -0.15732020069E+02  0.29588800142E+02  0.00000000000E+00 0. -1.
        -13    1    5    5    0    0  0.72822174934E+02 -0.49768785085E+02 -0.11943782310E+03  0.14847691645E+03  0.00000000000E+00 0.  1.
          4    1    6    6  503    0  0.11615933981E+03  0.25370013070E+03 -0.21746159787E+01  0.27903669561E+03  0.00000000000E+00 0. -1.
         -4    1    6    6    0  503  0.22209822620E+03  0.58515269944E+03 -0.13839677347E+03  0.64100309722E+03  0.00000000000E+00 0.  1.
<mgrwt>
<rscale>  0 0.94922044E+03</rscale>
<asrwt>0</asrwt>
<pdfrwt beam="1">  1        1 0.83543622E-01 0.94922044E+03</pdfrwt>
<pdfrwt beam="2">  1       -1 0.33295230E+00 0.94922044E+03</pdfrwt>
<totfact> 0.81600434E-01</totfact>
</mgrwt>
</event>
<event>
12    1  0.3147868E-008  0.6574642E+03  0.7818608E-02  0.9792873E-01
         -1   -1    0    0    0  501 -0.00000000000E+00  0.00000000000E+00  0.29740006320E+03  0.29740006320E+03  0.00000000000E+00 0.  1.
          1   -1    0    0  501    0  0.00000000000E+00 -0.00000000000E+00 -0.18811422517E+04  0.18811422517E+04  0.00000000000E+00 0. -1.
         23    2    1    2    0    0 -0.22475666804E+03 -0.58129225035E+03 -0.70811268433E+03  0.94767858292E+03  0.90856384864E+02 0.  0.
    5000000    2    1    2    0    0  0.22475666804E+03  0.58129225035E+03 -0.87562950412E+03  0.12308637319E+04  0.59990187363E+03 0.  0.
         23    2    4    4    0    0  0.20170355113E+03  0.55429759955E+03 -0.93894928716E+03  0.11126239019E+04  0.91520663153E+02 0.  0.
         23    2    4    4    0    0  0.23053116906E+02  0.26994650802E+02  0.63319783040E+02  0.11823983006E+03  0.93333301221E+02 0.  0.
          5    1    3    3  502    0 -0.17584662008E+03 -0.43156795504E+03 -0.58355859431E+03  0.74681701682E+03  0.47000000000E+01 0. -1.
         -5    1    3    3    0  502 -0.48910047955E+02 -0.14972429531E+03 -0.12455409002E+03  0.20086156610E+03  0.47000000000E+01 0.  1.
         11    1    5    5    0    0  0.16395280590E+03  0.32734222897E+03 -0.54946972232E+03  0.66026542631E+03  0.00000000000E+00 0. -1.
        -11    1    5    5    0    0  0.37750745232E+02  0.22695537057E+03 -0.38947956484E+03  0.45235847558E+03  0.00000000000E+00 0.  1.
          1    1    6    6  503    0  0.18171148896E+02  0.59522474952E+02  0.23336725840E+02  0.66465919459E+02  0.00000000000E+00 0.  1.
         -1    1    6    6    0  503  0.48819680106E+01 -0.32527824150E+02  0.39983057200E+02  0.51773910598E+02  0.00000000000E+00 0. -1.
<mgrwt>
<rscale>  0 0.65746419E+03</rscale>
<asrwt>0</asrwt>
<pdfrwt beam="1">  1        1 0.28940649E+00 0.65746419E+03</pdfrwt>
<pdfrwt beam="2">  1       -1 0.45753857E-01 0.65746419E+03</pdfrwt>
<totfact> 0.17971194E+01</totfact>
</mgrwt>
</event>
<event>
12    1  0.3147868E-008  0.8628037E+03  0.7818608E-02  0.9473312E-01
          1   -1    0    0  501    0  0.00000000000E+00  0.00000000000E+00  0.28878030697E+04  0.28878030697E+04  0.00000000000E+00 0. -1.
         -1   -1    0    0    0  501 -0.00000000000E+00 -0.00000000000E+00 -0.32486973340E+03  0.32486973340E+03  0.00000000000E+00 0.  1.
         23    2    1    2    0    0 -0.49435202292E+03 -0.62182131673E+03  0.56111056365E+03  0.97637417640E+03  0.86115011387E+02 0.  0.
    5000000    2    1    2    0    0  0.49435202292E+03  0.62182131673E+03  0.20018227726E+04  0.22362986267E+04  0.60223870866E+03 0.  0.
         23    2    4    4    0    0  0.57271126376E+03  0.52149562173E+03  0.18876570358E+04  0.20424214058E+04  0.90995818685E+02 0.  0.
         23    2    4    4    0    0 -0.78359240842E+02  0.10032569500E+03  0.11416573687E+03  0.19387722091E+03  0.91373659280E+02 0.  0.
          5    1    3    3  502    0 -0.12548542146E+03 -0.10655173003E+03  0.13183623620E+03  0.21095673809E+03  0.47000000000E+01 0. -1.
         -5    1    3    3    0  502 -0.36886660146E+03 -0.51526958670E+03  0.42927432746E+03  0.76541743831E+03  0.47000000000E+01 0.  1.
         13    1    5    5    0    0  0.12355932177E+03  0.15520459590E+03  0.54643352435E+03  0.58133034423E+03  0.00000000000E+00 0.  1.
        -13    1    5    5    0    0  0.44915194199E+03  0.36629102584E+03  0.13412235114E+04  0.14610910615E+04  0.00000000000E+00 0. -1.
          2    1    6    6  503    0 -0.23903071780E+02 -0.10241194136E+02  0.46492065143E+02  0.53270545511E+02  0.00000000000E+00 0. -1.
         -2    1    6    6    0  503 -0.54456169062E+02  0.11056688913E+03  0.67673671729E+02  0.14060667540E+03  0.00000000000E+00 0.  1.
<mgrwt>
<rscale>  0 0.86280372E+03</rscale>
<asrwt>0</asrwt>
<pdfrwt beam="1">  1        1 0.44427738E+00 0.86280372E+03</pdfrwt>
<pdfrwt beam="2">  1       -1 0.49979961E-01 0.86280372E+03</pdfrwt>
<totfact> 0.30337923E+00</totfact>
</mgrwt>
</event>
<event>
12    1  0.3147868E-008  0.6727727E+03  0.7818608E-02  0.9764962E-01
         -1   -1    0    0    0  501 -0.00000000000E+00  0.00000000000E+00  0.11231181727E+04  0.11231181727E+04  0.00000000000E+00 0.  1.
          1   -1    0    0  501    0  0.00000000000E+00 -0.00000000000E+00 -0.69737027175E+03  0.69737027175E+03  0.00000000000E+00 0. -1.
         23    2    1    2    0    0 -0.14887099031E+03  0.62226843695E+03 -0.27041882035E+03  0.70055540303E+03  0.90944790565E+02 0.  0.
    5000000    2    1    2    0    0  0.14887099031E+03 -0.62226843695E+03  0.69616672133E+03  0.11199330414E+04  0.60018441671E+03 0.  0.
         23    2    4    4    0    0  0.20837527102E+03 -0.53368575361E+03  0.21367946404E+03  0.61803603145E+03  0.89826976145E+02 0.  0.
         23    2    4    4    0    0 -0.59504280702E+02 -0.88582683339E+02  0.48248725729E+03  0.50189701000E+03  0.87857862419E+02 0.  0.
          5    1    3    3  502    0 -0.56624544148E+02  0.14535832362E+03 -0.10186948564E+03  0.18637291475E+03  0.47000000000E+01 0. -1.
         -5    1    3    3    0  502 -0.92246446166E+02  0.47691011333E+03 -0.16854933471E+03  0.51418248828E+03  0.47000000000E+01 0.  1.
         13    1    5    5    0    0  0.10689299641E+03 -0.37459943621E+03  0.12174241604E+03  0.40813241253E+03  0.00000000000E+00 0.  1.
        -13    1    5    5    0    0  0.10148227461E+03 -0.15908631740E+03  0.91937047998E+02  0.20990361893E+03  0.00000000000E+00 0. -1.
          4    1    6    6  503    0  0.68494869929E+01 -0.46231398982E+02  0.88082506460E+02  0.99713517981E+02  0.00000000000E+00 0. -1.
         -4    1    6    6    0  503 -0.66353767695E+02 -0.42351284357E+02  0.39440475083E+03  0.40218349201E+03  0.00000000000E+00 0.  1.
<mgrwt>
<rscale>  0 0.67277265E+03</rscale>
<asrwt>0</asrwt>
<pdfrwt beam="1">  1        1 0.10728773E+00 0.67277265E+03</pdfrwt>
<pdfrwt beam="2">  1       -1 0.17278741E+00 0.67277265E+03</pdfrwt>
<totfact> 0.67252536E+00</totfact>
</mgrwt>
</event>
<event>
12    1  0.3147868E-008  0.2518667E+03  0.7818608E-02  0.1112131E+00
         -1   -1    0    0    0  501 -0.00000000000E+00  0.00000000000E+00  0.73247096753E+03  0.73247096753E+03  0.00000000000E+00 0.  1.
          1   -1    0    0  501    0  0.00000000000E+00 -0.00000000000E+00 -0.56121898656E+03  0.56121898656E+03  0.00000000000E+00 0. -1.
         23    2    1    2    0    0  0.19689149005E+03 -0.83320824277E+02 -0.38400807215E+03  0.44855250364E+03  0.89602067124E+02 0.  0.
    5000000    2    1    2    0    0 -0.19689149005E+03  0.83320824277E+02  0.55526005312E+03  0.84513745045E+03  0.60019577218E+03 0.  0.
         23    2    4    4    0    0 -0.97422915257E+02  0.65204371179E+02 -0.97730123101E+02  0.17816396673E+03  0.91915111055E+02 0.  0.
         23    2    4    4    0    0 -0.99468574789E+02  0.18116453097E+02  0.65299017622E+03  0.66697348372E+03  0.90748303029E+02 0.  0.
          5    1    3    3  502    0  0.78726798690E+02 -0.79308814923E+02 -0.21328796978E+03  0.24083530681E+03  0.47000000000E+01 0. -1.
         -5    1    3    3    0  502  0.11816469136E+03 -0.40120093539E+01 -0.17072010237E+03  0.20771719683E+03  0.47000000000E+01 0.  1.
         13    1    5    5    0    0 -0.52139318895E+02 -0.85555244626E+01 -0.69130383675E+02  0.87009858756E+02  0.00000000000E+00 0. -1.
        -13    1    5    5    0    0 -0.45283596362E+02  0.73759895642E+02 -0.28599739426E+02  0.91154107970E+02  0.00000000000E+00 0.  1.
          3    1    6    6  503    0 -0.96248044854E+02 -0.17995907291E+02  0.51951604565E+03  0.52866289874E+03  0.00000000000E+00 0. -1.
         -3    1    6    6    0  503 -0.32205299355E+01  0.36112360389E+02  0.13347413057E+03  0.13831058498E+03  0.00000000000E+00 0.  1.
<mgrwt>
<rscale>  0 0.25186666E+03</rscale>
<asrwt>0</asrwt>
<pdfrwt beam="1">  1        1 0.86341383E-01 0.25186666E+03</pdfrwt>
<pdfrwt beam="2">  1       -1 0.11268784E+00 0.25186666E+03</pdfrwt>
<totfact> 0.30240026E+01</totfact>
</mgrwt>
</event>
<event>
12    1  0.3147868E-008  0.4670735E+03  0.7818608E-02  0.1022749E+00
          2   -1    0    0  501    0  0.00000000000E+00  0.00000000000E+00  0.20305914124E+04  0.20305914124E+04  0.00000000000E+00 0. -1.
         -2   -1    0    0    0  501 -0.00000000000E+00 -0.00000000000E+00 -0.18588208103E+03  0.18588208103E+03  0.00000000000E+00 0.  1.
         23    2    1    2    0    0 -0.15556019235E+03  0.41156026589E+03  0.96331192721E+03  0.10630484737E+04  0.92311226399E+02 0.  0.
    5000000    2    1    2    0    0  0.15556019235E+03 -0.41156026589E+03  0.88139740414E+03  0.11534250197E+04  0.59995588678E+03 0.  0.
         23    2    4    4    0    0  0.18221612735E+03 -0.25019032941E+03  0.83577494453E+02  0.33335973997E+03  0.91354259111E+02 0.  0.
         23    2    4    4    0    0 -0.26655935004E+02 -0.16136993647E+03  0.79781990969E+03  0.82006527970E+03  0.96123147073E+02 0.  0.
          5    1    3    3  502    0 -0.11437859526E+03  0.21196601493E+03  0.44370706756E+03  0.50488623109E+03  0.47000000000E+01 0. -1.
         -5    1    3    3    0  502 -0.41181597090E+02  0.19959425096E+03  0.51960485965E+03  0.55816224265E+03  0.47000000000E+01 0.  1.
         13    1    5    5    0    0  0.68602498764E+02 -0.30157184153E+02  0.23587204953E+02  0.78562808187E+02  0.00000000000E+00 0.  1.
        -13    1    5    5    0    0  0.11361362859E+03 -0.22003314526E+03  0.59990289500E+02  0.25479693179E+03  0.00000000000E+00 0. -1.
          2    1    6    6  503    0 -0.31674684549E+02 -0.92621497798E+02  0.25947589893E+03  0.27732610700E+03  0.00000000000E+00 0. -1.
         -2    1    6    6    0  503  0.50187495448E+01 -0.68748438675E+02  0.53834401076E+03  0.54273917270E+03  0.00000000000E+00 0.  1.
<mgrwt>
<rscale>  0 0.46707351E+03</rscale>
<asrwt>0</asrwt>
<pdfrwt beam="1">  1        2 0.31239866E+00 0.46707351E+03</pdfrwt>
<pdfrwt beam="2">  1       -2 0.28597245E-01 0.46707351E+03</pdfrwt>
<totfact> 0.77053926E+01</totfact>
</mgrwt>
</event>
<event>
12    1  0.3147868E-008  0.4699435E+03  0.7818608E-02  0.1021936E+00
          2   -1    0    0  501    0  0.00000000000E+00  0.00000000000E+00  0.16522458902E+04  0.16522458902E+04  0.00000000000E+00 0. -1.
         -2   -1    0    0    0  501 -0.00000000000E+00 -0.00000000000E+00 -0.16551830370E+03  0.16551830370E+03  0.00000000000E+00 0.  1.
         23    2    1    2    0    0  0.30488566755E+03  0.12690541673E+03  0.66458789821E+03  0.74770844020E+03  0.91272022163E+02 0.  0.
    5000000    2    1    2    0    0 -0.30488566755E+03 -0.12690541673E+03  0.82213968827E+03  0.10700557537E+04  0.60003782703E+03 0.  0.
         23    2    4    4    0    0  0.13421537214E+03 -0.62652212742E+02  0.59888349739E+02  0.18344494216E+03  0.90146361488E+02 0.  0.
         23    2    4    4    0    0 -0.43910103969E+03 -0.64253203983E+02  0.76225133853E+03  0.88661081151E+03  0.90074584218E+02 0.  0.
          5    1    3    3  502    0  0.13185753208E+03  0.43530922440E+02  0.37758038211E+03  0.40233118811E+03  0.47000000000E+01 0. -1.
         -5    1    3    3    0  502  0.17302813547E+03  0.83374494286E+02  0.28700751610E+03  0.34537725209E+03  0.47000000000E+01 0.  1.
         13    1    5    5    0    0  0.11941306590E+03 -0.72220808132E+02  0.76567194971E+02  0.15917870706E+03  0.00000000000E+00 0.  1.
        -13    1    5    5    0    0  0.14802306242E+02  0.95685953901E+01 -0.16678845232E+02  0.24266235103E+02  0.00000000000E+00 0. -1.
          3    1    6    6  503    0 -0.12616334377E+03  0.19578185331E+02  0.18750552853E+03  0.22684536116E+03  0.00000000000E+00 0. -1.
         -3    1    6    6    0  503 -0.31293769592E+03 -0.83831389314E+02  0.57474581000E+03  0.65976545035E+03  0.00000000000E+00 0.  1.
<mgrwt>
<rscale>  0 0.46994351E+03</rscale>
<asrwt>0</asrwt>
<pdfrwt beam="1">  1        2 0.25419166E+00 0.46994351E+03</pdfrwt>
<pdfrwt beam="2">  1       -2 0.25464356E-01 0.46994351E+03</pdfrwt>
<totfact> 0.15172427E+02</totfact>
</mgrwt>
</event>
<event>
12    1  0.3147868E-008  0.1043399E+04  0.7818608E-02  0.9262185E-01
          2   -1    0    0  501    0  0.00000000000E+00  0.00000000000E+00  0.13980871899E+04  0.13980871899E+04  0.00000000000E+00 0. -1.
         -2   -1    0    0    0  501 -0.00000000000E+00 -0.00000000000E+00 -0.87344428007E+03  0.87344428007E+03  0.00000000000E+00 0.  1.
         23    2    1    2    0    0  0.68463285653E+03 -0.74722458648E+03  0.37408420905E+03  0.10841808804E+04  0.91882833631E+02 0.  0.
    5000000    2    1    2    0    0 -0.68463285653E+03  0.74722458648E+03  0.15055870074E+03  0.11873505895E+04  0.60005563842E+03 0.  0.
         23    2    4    4    0    0 -0.56078566245E+03  0.39272630407E+03 -0.13878419186E+03  0.70423845740E+03  0.89309819504E+02 0.  0.
         23    2    4    4    0    0 -0.12384719408E+03  0.35449828241E+03  0.28934289259E+03  0.48311213212E+03  0.93117468794E+02 0.  0.
          5    1    3    3  502    0  0.65704310288E+03 -0.68946133901E+03  0.36188776817E+03  0.10188461237E+04  0.47000000000E+01 0. -1.
         -5    1    3    3    0  502  0.27589753653E+02 -0.57763247470E+02  0.12196440883E+02  0.65334756716E+02  0.47000000000E+01 0.  1.
         11    1    5    5    0    0 -0.54723989608E+03  0.37576501725E+03 -0.14884623712E+03  0.68031320313E+03  0.00000000000E+00 0. -1.
        -11    1    5    5    0    0 -0.13545766374E+02  0.16961286820E+02  0.10062045264E+02  0.23925254276E+02  0.00000000000E+00 0.  1.
          1    1    6    6  503    0 -0.71943480027E+02  0.30346175669E+03  0.25386296871E+03  0.40213344672E+03  0.00000000000E+00 0. -1.
         -1    1    6    6    0  503 -0.51903714051E+02  0.51036525722E+02  0.35479923886E+02  0.80978685400E+02  0.00000000000E+00 0.  1.
<mgrwt>
<rscale>  0 0.10433993E+04</rscale>
<asrwt>0</asrwt>
<pdfrwt beam="1">  1        2 0.21509034E+00 0.10433993E+04</pdfrwt>
<pdfrwt beam="2">  1       -2 0.13437604E+00 0.10433993E+04</pdfrwt>
<totfact> 0.57226767E+00</totfact>
</mgrwt>
</event>
<event>
12    1  0.3147868E-008  0.5452682E+03  0.7818608E-02  0.1002595E+00
          1   -1    0    0  501    0  0.00000000000E+00  0.00000000000E+00  0.91564064484E+03  0.91564064484E+03  0.00000000000E+00 0. -1.
         -1   -1    0    0    0  501 -0.00000000000E+00 -0.00000000000E+00 -0.54988534595E+03  0.54988534595E+03  0.00000000000E+00 0.  1.
         23    2    1    2    0    0  0.52063242877E+03 -0.39375785201E+02 -0.10645862708E+03  0.54026598376E+03  0.89136499729E+02 0.  0.
    5000000    2    1    2    0    0 -0.52063242877E+03  0.39375785201E+02  0.47221392597E+03  0.92526000702E+03  0.60042610733E+03 0.  0.
         23    2    4    4    0    0 -0.44133941715E+03  0.34715132441E+02  0.14812312417E+02  0.45219316119E+03  0.90959490349E+02 0.  0.
         23    2    4    4    0    0 -0.79293011624E+02  0.46606527605E+01  0.45740161355E+03  0.47306684583E+03  0.90922500873E+02 0.  0.
          5    1    3    3  502    0  0.35516129771E+03  0.13515161007E+02 -0.81832454362E+02  0.36474764914E+03  0.47000000000E+01 0. -1.
         -5    1    3    3    0  502  0.16547113106E+03 -0.52890946208E+02 -0.24626172717E+02  0.17551833462E+03  0.47000000000E+01 0.  1.
         11    1    5    5    0    0 -0.13565352908E+03 -0.40640882036E+01 -0.34760224156E+02  0.14009521744E+03  0.00000000000E+00 0.  1.
        -11    1    5    5    0    0 -0.30568588806E+03  0.38779220644E+02  0.49572536573E+02  0.31209794375E+03  0.00000000000E+00 0. -1.
          3    1    6    6  503    0 -0.29581627713E+00 -0.30844014713E+02  0.77390514835E+02  0.83311058914E+02  0.00000000000E+00 0.  1.
         -3    1    6    6    0  503 -0.78997195347E+02  0.35504667473E+02  0.38001109872E+03  0.38975578691E+03  0.00000000000E+00 0. -1.
<mgrwt>
<rscale>  0 0.54526818E+03</rscale>
<asrwt>0</asrwt>
<pdfrwt beam="1">  1        1 0.14086779E+00 0.54526818E+03</pdfrwt>
<pdfrwt beam="2">  1       -1 0.84597745E-01 0.54526818E+03</pdfrwt>
<totfact> 0.25797698E+01</totfact>
</mgrwt>
</event>
<event>
12    1  0.3147868E-008  0.1761324E+04  0.7818608E-02  0.8727142E-01
         -2   -1    0    0    0  501 -0.00000000000E+00  0.00000000000E+00  0.10031937424E+04  0.10031937424E+04  0.00000000000E+00 0. -1.
          2   -1    0    0  501    0  0.00000000000E+00 -0.00000000000E+00 -0.38390345873E+04  0.38390345873E+04  0.00000000000E+00 0.  1.
         23    2    1    2    0    0  0.14354686362E+03 -0.17428017880E+04 -0.42175551498E+03  0.18015533543E+04  0.98757276004E+02 0.  0.
    5000000    2    1    2    0    0 -0.14354686362E+03  0.17428017880E+04 -0.24140853300E+04  0.30406749755E+04  0.59994379036E+03 0.  0.
         23    2    4    4    0    0  0.81468196319E+02  0.58203064636E+03 -0.12241166742E+04  0.13607332769E+04  0.87958391707E+02 0.  0.
         23    2    4    4    0    0 -0.22501505994E+03  0.11607711417E+04 -0.11899686558E+04  0.16799416985E+04  0.90317706471E+02 0.  0.
          5    1    3    3  502    0  0.83300331286E+02 -0.14389846749E+04 -0.33396038664E+03  0.14795835460E+04  0.47000000000E+01 0. -1.
         -5    1    3    3    0  502  0.60246532333E+02 -0.30381711313E+03 -0.87795128338E+02  0.32196980829E+03  0.47000000000E+01 0.  1.
         13    1    5    5    0    0  0.85490911892E+02  0.53123862606E+03 -0.11609317143E+04  0.12795646209E+04  0.00000000000E+00 0. -1.
        -13    1    5    5    0    0 -0.40227155739E+01  0.50792020299E+02 -0.63184959880E+02  0.81168656029E+02  0.00000000000E+00 0.  1.
          4    1    6    6  503    0 -0.23990111486E+02  0.14670751053E+03 -0.11001172041E+03  0.18493565833E+03  0.00000000000E+00 0. -1.
         -4    1    6    6    0  503 -0.20102494845E+03  0.10140636311E+04 -0.10799569354E+04  0.14950060402E+04  0.00000000000E+00 0.  1.
<mgrwt>
<rscale>  0 0.17613238E+04</rscale>
<asrwt>0</asrwt>
<pdfrwt beam="1">  1        2 0.59062069E+00 0.17613238E+04</pdfrwt>
<pdfrwt beam="2">  1       -2 0.15433750E+00 0.17613238E+04</pdfrwt>
<totfact> 0.11799790E-01</totfact>
</mgrwt>
</event>
<event>
12    1  0.3147868E-008  0.9705953E+03  0.7818608E-02  0.9341397E-01
          2   -1    0    0  501    0  0.00000000000E+00  0.00000000000E+00  0.25829621914E+04  0.25829621914E+04  0.00000000000E+00 0. -1.
         -2   -1    0    0    0  501 -0.00000000000E+00 -0.00000000000E+00 -0.42641992073E+03  0.42641992073E+03  0.00000000000E+00 0.  1.
         23    2    1    2    0    0 -0.48238498748E+03 -0.83082054082E+03  0.94050825461E+03  0.13475344968E+04  0.91298389191E+02 0.  0.
    5000000    2    1    2    0    0  0.48238498748E+03  0.83082054082E+03  0.12160340161E+04  0.16618476154E+04  0.60003393339E+03 0.  0.
         23    2    4    4    0    0  0.14204653082E+03  0.33358562073E+03  0.95372933950E+02  0.38603099455E+03  0.92018198993E+02 0.  0.
         23    2    4    4    0    0  0.34033845666E+03  0.49723492009E+03  0.11206610822E+04  0.12758166208E+04  0.93562589182E+02 0.  0.
          5    1    3    3  502    0 -0.13339817578E+02 -0.48244047612E+01  0.18150128076E+02  0.23510481992E+02  0.47000000000E+01 0. -1.
         -5    1    3    3    0  502 -0.46904516990E+03 -0.82599613606E+03  0.92235812654E+03  0.13240240148E+04  0.47000000000E+01 0.  1.
         11    1    5    5    0    0  0.36413326103E+02  0.20101911039E+03  0.44849004478E+02  0.20915555518E+03  0.00000000000E+00 0.  1.
        -11    1    5    5    0    0  0.10563320471E+03  0.13256651034E+03  0.50523929473E+02  0.17687543936E+03  0.00000000000E+00 0. -1.
          1    1    6    6  503    0  0.28771433910E+03  0.42156577294E+03  0.86887407459E+03  0.10076901306E+04  0.00000000000E+00 0. -1.
         -1    1    6    6    0  503  0.52624117567E+02  0.75669147149E+02  0.25178700756E+03  0.26812649021E+03  0.00000000000E+00 0.  1.
<mgrwt>
<rscale>  0 0.97059529E+03</rscale>
<asrwt>0</asrwt>
<pdfrwt beam="1">  1        2 0.39737879E+00 0.97059529E+03</pdfrwt>
<pdfrwt beam="2">  1       -2 0.65603066E-01 0.97059529E+03</pdfrwt>
<totfact> 0.67778366E+00</totfact>
</mgrwt>
</event>
<event>
12    1  0.3147868E-008  0.1228953E+04  0.7818608E-02  0.9087885E-01
         -1   -1    0    0    0  501 -0.00000000000E+00  0.00000000000E+00  0.66512941299E+03  0.66512941299E+03  0.00000000000E+00 0.  1.
          1   -1    0    0  501    0  0.00000000000E+00 -0.00000000000E+00 -0.24941481695E+04  0.24941481695E+04  0.00000000000E+00 0. -1.
         23    2    1    2    0    0 -0.47442477847E+03 -0.11135745641E+04 -0.71906114891E+03  0.14108813834E+04  0.91706935374E+02 0.  0.
    5000000    2    1    2    0    0  0.47442477847E+03  0.11135745641E+04 -0.11099576076E+04  0.17483961990E+04  0.59979679717E+03 0.  0.
         23    2    4    4    0    0  0.46073031317E+03  0.77726394776E+03 -0.10608934836E+04  0.13964980946E+04  0.91105864933E+02 0.  0.
         23    2    4    4    0    0  0.13694465305E+02  0.33631061637E+03 -0.49064123951E+02  0.35189810445E+03  0.90181032344E+02 0.  0.
          5    1    3    3  502    0 -0.11873986656E+03 -0.26829655388E+03 -0.22048167890E+03  0.36703740608E+03  0.47000000000E+01 0. -1.
         -5    1    3    3    0  502 -0.35568491191E+03 -0.84527801024E+03 -0.49857947001E+03  0.10438439774E+04  0.47000000000E+01 0.  1.
         13    1    5    5    0    0  0.21168793258E+03  0.42355012363E+03 -0.50755811940E+03  0.69413380021E+03  0.00000000000E+00 0. -1.
        -13    1    5    5    0    0  0.24904238059E+03  0.35371382413E+03 -0.55333536425E+03  0.70236429439E+03  0.00000000000E+00 0.  1.
          2    1    6    6  503    0  0.35255777318E+02  0.17180254635E+03 -0.60664108885E+02  0.18557806679E+03  0.00000000000E+00 0. -1.
         -2    1    6    6    0  503 -0.21561312013E+02  0.16450807002E+03  0.11599984934E+02  0.16632003766E+03  0.00000000000E+00 0.  1.
<mgrwt>
<rscale>  0 0.12289527E+04</rscale>
<asrwt>0</asrwt>
<pdfrwt beam="1">  1        1 0.38371510E+00 0.12289527E+04</pdfrwt>
<pdfrwt beam="2">  1       -1 0.10232760E+00 0.12289527E+04</pdfrwt>
<totfact> 0.12190958E+00</totfact>
</mgrwt>
</event>
<event>
12    1  0.3147868E-008  0.6269818E+03  0.7818608E-02  0.9850956E-01
          2   -1    0    0  501    0  0.00000000000E+00  0.00000000000E+00  0.17306513332E+04  0.17306513332E+04  0.00000000000E+00 0. -1.
         -2   -1    0    0    0  501 -0.00000000000E+00 -0.00000000000E+00 -0.31146192316E+03  0.31146192316E+03  0.00000000000E+00 0.  1.
         23    2    1    2    0    0  0.53180992803E+03  0.24033824092E+03  0.35892741575E+03  0.69117549029E+03  0.91161389873E+02 0.  0.
    5000000    2    1    2    0    0 -0.53180992803E+03 -0.24033824092E+03  0.10602619943E+04  0.13509377661E+04  0.60024418505E+03 0.  0.
         23    2    4    4    0    0 -0.52642784388E+03 -0.18029893383E+03  0.42520275387E+03  0.70661316433E+03  0.94184933811E+02 0.  0.
         23    2    4    4    0    0 -0.53820841486E+01 -0.60039307087E+02  0.63505924047E+03  0.64432460179E+03  0.90665695490E+02 0.  0.
          5    1    3    3  502    0  0.20781994763E+03  0.10201248222E+03  0.19439182986E+03  0.30233417055E+03  0.47000000000E+01 0. -1.
         -5    1    3    3    0  502  0.32398998040E+03  0.13832575870E+03  0.16453558589E+03  0.38884131974E+03  0.47000000000E+01 0.  1.
         11    1    5    5    0    0 -0.38174857759E+03 -0.91964436420E+02  0.32482723759E+03  0.50960981970E+03  0.00000000000E+00 0. -1.
        -11    1    5    5    0    0 -0.14467926629E+03 -0.88334497408E+02  0.10037551629E+03  0.19700334463E+03  0.00000000000E+00 0.  1.
          2    1    6    6  503    0 -0.66031608573E+01  0.23475367889E+02  0.18254070050E+03  0.18416243365E+03  0.00000000000E+00 0. -1.
         -2    1    6    6    0  503  0.12210767087E+01 -0.83514674976E+02  0.45251853997E+03  0.46016216813E+03  0.00000000000E+00 0.  1.
<mgrwt>
<rscale>  0 0.62698179E+03</rscale>
<asrwt>0</asrwt>
<pdfrwt beam="1">  1        2 0.26625405E+00 0.62698179E+03</pdfrwt>
<pdfrwt beam="2">  1       -2 0.47917220E-01 0.62698179E+03</pdfrwt>
<totfact> 0.40563630E+01</totfact>
</mgrwt>
</event>
<event>
12    1  0.3147868E-008  0.9571922E+03  0.7818608E-02  0.9356783E-01
         -1   -1    0    0    0  501 -0.00000000000E+00  0.00000000000E+00  0.12120727622E+04  0.12120727622E+04  0.00000000000E+00 0.  1.
          1   -1    0    0  501    0  0.00000000000E+00 -0.00000000000E+00 -0.95738601829E+03  0.95738601829E+03  0.00000000000E+00 0. -1.
         23    2    1    2    0    0  0.62758541073E+03  0.66506922374E+03  0.50338770473E+03  0.10478128649E+04  0.91280329270E+02 0.  0.
    5000000    2    1    2    0    0 -0.62758541073E+03 -0.66506922374E+03 -0.24870096083E+03  0.11216459156E+04  0.60004739134E+03 0.  0.
         23    2    4    4    0    0 -0.67734899644E+03 -0.57808948507E+03 -0.70869354570E+02  0.89802866304E+03  0.91890687794E+02 0.  0.
         23    2    4    4    0    0  0.49763585714E+02 -0.86979738670E+02 -0.17783160626E+03  0.22361725252E+03  0.91316515691E+02 0.  0.
          5    1    3    3  502    0  0.49975696769E+03  0.47251174855E+03  0.37392518597E+03  0.78285791430E+03  0.47000000000E+01 0. -1.
         -5    1    3    3    0  502  0.12782844304E+03  0.19255747519E+03  0.12946251876E+03  0.26495495063E+03  0.47000000000E+01 0.  1.
         13    1    5    5    0    0 -0.11463408001E+03 -0.56306465754E+02 -0.15042285186E+02  0.12859883642E+03  0.00000000000E+00 0.  1.
        -13    1    5    5    0    0 -0.56271491643E+03 -0.52178301932E+03 -0.55827069383E+02  0.76942982663E+03  0.00000000000E+00 0. -1.
          1    1    6    6  503    0  0.37704081572E+02 -0.61835882646E+02 -0.39485573016E+02  0.82488693930E+02  0.00000000000E+00 0. -1.
         -1    1    6    6    0  503  0.12059504141E+02 -0.25143856024E+02 -0.13834603324E+03  0.14112855859E+03  0.00000000000E+00 0.  1.
<mgrwt>
<rscale>  0 0.95719219E+03</rscale>
<asrwt>0</asrwt>
<pdfrwt beam="1">  1        1 0.14729016E+00 0.95719219E+03</pdfrwt>
<pdfrwt beam="2">  1       -1 0.18647273E+00 0.95719219E+03</pdfrwt>
<totfact> 0.30868831E+00</totfact>
</mgrwt>
</event>
<event>
12    1  0.3147868E-008  0.7483806E+03  0.7818608E-02  0.9637894E-01
          2   -1    0    0  501    0  0.00000000000E+00  0.00000000000E+00  0.12417427816E+04  0.12417427816E+04  0.00000000000E+00 0. -1.
         -2   -1    0    0    0  501 -0.00000000000E+00 -0.00000000000E+00 -0.46381646633E+03  0.46381646633E+03  0.00000000000E+00 0.  1.
         23    2    1    2    0    0  0.58629957620E+03 -0.24708288908E+03  0.34424896915E+03  0.72938359474E+03  0.93251961838E+02 0.  0.
    5000000    2    1    2    0    0 -0.58629957620E+03  0.24708288908E+03  0.43367734609E+03  0.97617565316E+03  0.60003809729E+03 0.  0.
         23    2    4    4    0    0 -0.34436078309E+03 -0.15826349556E+03  0.15913862001E+03  0.42239536923E+03  0.97268004067E+02 0.  0.
         23    2    4    4    0    0 -0.24193879311E+03  0.40534638464E+03  0.27453872608E+03  0.55378028393E+03  0.91983800790E+02 0.  0.
          5    1    3    3  502    0  0.44521183506E+03 -0.17245481949E+03  0.29921340182E+03  0.56347581374E+03  0.47000000000E+01 0. -1.
         -5    1    3    3    0  502  0.14108774114E+03 -0.74628069591E+02  0.45035567324E+02  0.16590778099E+03  0.47000000000E+01 0.  1.
         11    1    5    5    0    0 -0.15493044038E+03 -0.61642350611E+02  0.19228437912E+02  0.16784800734E+03  0.00000000000E+00 0. -1.
        -11    1    5    5    0    0 -0.18943034271E+03 -0.96621144945E+02  0.13991018210E+03  0.25454736189E+03  0.00000000000E+00 0.  1.
          1    1    6    6  503    0 -0.12991870475E+03  0.13389602777E+03  0.92031115444E+02  0.20803062829E+03  0.00000000000E+00 0. -1.
         -1    1    6    6    0  503 -0.11202008836E+03  0.27145035687E+03  0.18250761063E+03  0.34574965565E+03  0.00000000000E+00 0.  1.
<mgrwt>
<rscale>  0 0.74838056E+03</rscale>
<asrwt>0</asrwt>
<pdfrwt beam="1">  1        2 0.19103735E+00 0.74838056E+03</pdfrwt>
<pdfrwt beam="2">  1       -2 0.71356380E-01 0.74838056E+03</pdfrwt>
<totfact> 0.32498158E+01</totfact>
</mgrwt>
</event>
<event>
12    1  0.3147868E-008  0.6676778E+03  0.7818608E-02  0.9774162E-01
          2   -1    0    0  501    0  0.00000000000E+00  0.00000000000E+00  0.88724701026E+03  0.88724701026E+03  0.00000000000E+00 0. -1.
         -2   -1    0    0    0  501 -0.00000000000E+00 -0.00000000000E+00 -0.54211608607E+03  0.54211608607E+03  0.00000000000E+00 0.  1.
         23    2    1    2    0    0  0.50759873178E+03  0.22711344675E+03  0.78629197156E+02  0.56895066642E+03  0.91023733040E+02 0.  0.
    5000000    2    1    2    0    0 -0.50759873178E+03 -0.22711344675E+03  0.26650172703E+03  0.86041242991E+03  0.60004115595E+03 0.  0.
         23    2    4    4    0    0  0.34538872167E+02 -0.22576258166E+03 -0.98088949346E+01  0.24585938291E+03  0.90492788536E+02 0.  0.
         23    2    4    4    0    0 -0.54213760395E+03 -0.13508650916E+01  0.27631062197E+03  0.61455304700E+03  0.86098091250E+02 0.  0.
          5    1    3    3  502    0  0.14394978785E+03  0.99920319969E+02 -0.20904485031E+01  0.17530565233E+03  0.47000000000E+01 0.  1.
         -5    1    3    3    0  502  0.36364894393E+03  0.12719312678E+03  0.80719645659E+02  0.39364501409E+03  0.47000000000E+01 0. -1.
         11    1    5    5    0    0  0.37760398447E+02 -0.16450617445E+03 -0.45605965020E+02  0.17483716186E+03  0.00000000000E+00 0. -1.
        -11    1    5    5    0    0 -0.32215262803E+01 -0.61256407215E+02  0.35797070085E+02  0.71022221052E+02  0.00000000000E+00 0.  1.
          1    1    6    6  503    0 -0.47571623025E+03 -0.18436785278E+02  0.21426423485E+03  0.52206801196E+03  0.00000000000E+00 0. -1.
         -1    1    6    6    0  503 -0.66421373695E+02  0.17085920186E+02  0.62046387120E+02  0.92485035042E+02  0.00000000000E+00 0.  1.
<mgrwt>
<rscale>  0 0.66767784E+03</rscale>
<asrwt>0</asrwt>
<pdfrwt beam="1">  1        2 0.13649954E+00 0.66767784E+03</pdfrwt>
<pdfrwt beam="2">  1       -2 0.83402475E-01 0.66767784E+03</pdfrwt>
<totfact> 0.38479238E+01</totfact>
</mgrwt>
</event>
<event>
12    1  0.3147868E-008  0.5947198E+03  0.7818608E-02  0.9916422E-01
          2   -1    0    0  501    0  0.00000000000E+00  0.00000000000E+00  0.79348784965E+03  0.79348784965E+03  0.00000000000E+00 0. -1.
         -2   -1    0    0    0  501 -0.00000000000E+00 -0.00000000000E+00 -0.47976958259E+03  0.47976958259E+03  0.00000000000E+00 0.  1.
         23    2    1    2    0    0 -0.37988874844E+02  0.45970688579E+03  0.18646482529E+03  0.50580525622E+03  0.91083756494E+02 0.  0.
    5000000    2    1    2    0    0  0.37988874844E+02 -0.45970688579E+03  0.12725344177E+03  0.76745217603E+03  0.60001319035E+03 0.  0.
         23    2    4    4    0    0  0.14664352506E+03 -0.55052661664E+03  0.44465764463E+02  0.57907898296E+03  0.93655673754E+02 0.  0.
         23    2    4    4    0    0 -0.10865465022E+03  0.90819730856E+02  0.82787677310E+02  0.18837319306E+03  0.92609955317E+02 0.  0.
          5    1    3    3  502    0  0.96288022408E+01  0.13973284484E+03  0.18766747386E+02  0.14139399764E+03  0.47000000000E+01 0. -1.
         -5    1    3    3    0  502 -0.47617677084E+02  0.31997404095E+03  0.16769807790E+03  0.36441125858E+03  0.47000000000E+01 0.  1.
         11    1    5    5    0    0  0.10224312094E+03 -0.25771359557E+03 -0.12302689068E+02  0.27752713251E+03  0.00000000000E+00 0. -1.
        -11    1    5    5    0    0  0.44400404124E+02 -0.29281302107E+03  0.56768453531E+02  0.30155185046E+03  0.00000000000E+00 0.  1.
          1    1    6    6  503    0  0.49323992339E+01  0.14981428108E+02 -0.13909628354E+02  0.21029729226E+02  0.00000000000E+00 0. -1.
         -1    1    6    6    0  503 -0.11358704945E+03  0.75838302748E+02  0.96697305664E+02  0.16734346384E+03  0.00000000000E+00 0.  1.
<mgrwt>
<rscale>  0 0.59471984E+03</rscale>
<asrwt>0</asrwt>
<pdfrwt beam="1">  1        2 0.12207505E+00 0.59471984E+03</pdfrwt>
<pdfrwt beam="2">  1       -2 0.73810705E-01 0.59471984E+03</pdfrwt>
<totfact> 0.59156772E+01</totfact>
</mgrwt>
</event>
<event>
12    1  0.3147868E-008  0.4988542E+03  0.7818608E-02  0.1014078E+00
         -1   -1    0    0    0  501 -0.00000000000E+00  0.00000000000E+00  0.10991591873E+04  0.10991591873E+04  0.00000000000E+00 0.  1.
          1   -1    0    0  501    0  0.00000000000E+00 -0.00000000000E+00 -0.67063956397E+03  0.67063956397E+03  0.00000000000E+00 0. -1.
         23    2    1    2    0    0 -0.38182084392E+03 -0.18586138381E+03  0.82638019514E+03  0.93385884656E+03  0.94109019448E+02 0.  0.
    5000000    2    1    2    0    0  0.38182084392E+03  0.18586138381E+03 -0.39786057184E+03  0.83593990468E+03  0.60014238208E+03 0.  0.
         23    2    4    4    0    0  0.91147131115E+02  0.24539653709E+03 -0.44219998960E+03  0.52184181530E+03  0.90833856388E+02 0.  0.
         23    2    4    4    0    0  0.29067371280E+03 -0.59535153276E+02  0.44339417757E+02  0.31409808938E+03  0.93037540793E+02 0.  0.
          5    1    3    3  502    0 -0.27416875629E+03 -0.12603714619E+03  0.48850236574E+03  0.57420424979E+03  0.47000000000E+01 0. -1.
         -5    1    3    3    0  502 -0.10765208762E+03 -0.59824237616E+02  0.33787782940E+03  0.35965459677E+03  0.47000000000E+01 0.  1.
         13    1    5    5    0    0  0.52636200896E+02  0.11665776684E+03 -0.13235245607E+03  0.18411077328E+03  0.00000000000E+00 0.  1.
        -13    1    5    5    0    0  0.38510930220E+02  0.12873877025E+03 -0.30984753352E+03  0.33773104202E+03  0.00000000000E+00 0. -1.
          1    1    6    6  503    0  0.16023092144E+03 -0.78625299182E+02  0.15545117644E+02  0.17915785369E+03  0.00000000000E+00 0. -1.
         -1    1    6    6    0  503  0.13044279137E+03  0.19090145906E+02  0.28794300114E+02  0.13494023569E+03  0.00000000000E+00 0.  1.
<mgrwt>
<rscale>  0 0.49885421E+03</rscale>
<asrwt>0</asrwt>
<pdfrwt beam="1">  1        1 0.10317532E+00 0.49885421E+03</pdfrwt>
<pdfrwt beam="2">  1       -1 0.16910141E+00 0.49885421E+03</pdfrwt>
<totfact> 0.78228178E+00</totfact>
</mgrwt>
</event>
<event>
12    1  0.3228709E-008  0.1478493E+04  0.7818608E-02  0.8898882E-01
         -2   -1    0    0    0  501 -0.00000000000E+00  0.00000000000E+00  0.16862471778E+04  0.16862471778E+04  0.00000000000E+00 0.  1.
          2   -1    0    0  501    0  0.00000000000E+00 -0.00000000000E+00 -0.18770341038E+04  0.18770341038E+04  0.00000000000E+00 0. -1.
         23    2    1    2    0    0 -0.54265465867E+03  0.13628799767E+04  0.82039374113E+03  0.16832513544E+04  0.91505857792E+02 0.  0.
    5000000    2    1    2    0    0  0.54265465867E+03 -0.13628799767E+04 -0.10111806671E+04  0.18800299273E+04  0.60009189010E+03 0.  0.
         23    2    4    4    0    0  0.45657578837E+03 -0.12147014203E+04 -0.10621089950E+04  0.16794612318E+04  0.92485245159E+02 0.  0.
         23    2    4    4    0    0  0.86078870300E+02 -0.14817855636E+03  0.50928327913E+02  0.20056869555E+03  0.90926621911E+02 0.  0.
          5    1    3    3  502    0 -0.33218973134E+03  0.82944907063E+03  0.55015904350E+03  0.10493011205E+04  0.47000000000E+01 0. -1.
         -5    1    3    3    0  502 -0.21046492733E+03  0.53343090607E+03  0.27023469763E+03  0.63395023384E+03  0.47000000000E+01 0.  1.
         11    1    5    5    0    0  0.18012274455E+03 -0.36283661856E+03 -0.34701987023E+03  0.53340172966E+03  0.00000000000E+00 0.  1.
        -11    1    5    5    0    0  0.27645304382E+03 -0.85186480178E+03 -0.71508912479E+03  0.11460595021E+04  0.00000000000E+00 0. -1.
          4    1    6    6  503    0  0.16588346812E+02 -0.10755873218E+03  0.50738477321E+02  0.12007683873E+03  0.00000000000E+00 0. -1.
         -4    1    6    6    0  503  0.69490523489E+02 -0.40619824186E+02  0.18985059207E+00  0.80491856823E+02  0.00000000000E+00 0.  1.
<mgrwt>
<rscale>  0 0.14784928E+04</rscale>
<asrwt>0</asrwt>
<pdfrwt beam="1">  1        2 0.28877448E+00 0.14784928E+04</pdfrwt>
<pdfrwt beam="2">  1       -2 0.25942264E+00 0.14784928E+04</pdfrwt>
<totfact> 0.41351615E-01</totfact>
</mgrwt>
</event>
<event>
12    1  0.3147868E-008  0.3648172E+03  0.7818608E-02  0.1056693E+00
          2   -1    0    0  501    0  0.00000000000E+00  0.00000000000E+00  0.14309610561E+04  0.14309610561E+04  0.00000000000E+00 0.  1.
         -2   -1    0    0    0  501 -0.00000000000E+00 -0.00000000000E+00 -0.22085819575E+03  0.22085819575E+03  0.00000000000E+00 0. -1.
         23    2    1    2    0    0 -0.15772864100E+03  0.29533158361E+03  0.12826355339E+03  0.37015712645E+03  0.92009187949E+02 0.  0.
    5000000    2    1    2    0    0  0.15772864100E+03 -0.29533158361E+03  0.10818393069E+04  0.12816621254E+04  0.60015202165E+03 0.  0.
         23    2    4    4    0    0  0.62698502416E+02 -0.46806535772E+01  0.91430001235E+03  0.92095076468E+03  0.90844854809E+02 0.  0.
         23    2    4    4    0    0  0.95030138585E+02 -0.29065093003E+03  0.16753929457E+03  0.36071136068E+03  0.92382791303E+02 0.  0.
          5    1    3    3  502    0 -0.12511207649E+03  0.19510993453E+03  0.45928422140E+02  0.23633118329E+03  0.47000000000E+01 0. -1.
         -5    1    3    3    0  502 -0.32616564507E+02  0.10022164908E+03  0.82335131254E+02  0.13382594316E+03  0.47000000000E+01 0.  1.
         13    1    5    5    0    0  0.45312143001E+02  0.18343403583E+02  0.19369523502E+03  0.19976865326E+03  0.00000000000E+00 0. -1.
        -13    1    5    5    0    0  0.17386359414E+02 -0.23024057160E+02  0.72060477734E+03  0.72118211141E+03  0.00000000000E+00 0.  1.
          2    1    6    6  503    0  0.29520773926E+02 -0.20306127305E+03  0.78589488561E+02  0.21973089091E+03  0.00000000000E+00 0. -1.
         -2    1    6    6    0  503  0.65509364658E+02 -0.87589656981E+02  0.88949806005E+02  0.14098046977E+03  0.00000000000E+00 0.  1.
<mgrwt>
<rscale>  0 0.36481724E+03</rscale>
<asrwt>0</asrwt>
<pdfrwt beam="1">  1        2 0.22014785E+00 0.36481724E+03</pdfrwt>
<pdfrwt beam="2">  1       -2 0.33978185E-01 0.36481724E+03</pdfrwt>
<totfact> 0.11988063E+02</totfact>
</mgrwt>
</event>
<event>
12    1  0.3147868E-008  0.4453455E+03  0.7818608E-02  0.1029119E+00
         -2   -1    0    0    0  501 -0.00000000000E+00  0.00000000000E+00  0.81574772720E+03  0.81574772720E+03  0.00000000000E+00 0.  1.
          2   -1    0    0  501    0  0.00000000000E+00 -0.00000000000E+00 -0.37863955919E+03  0.37863955919E+03  0.00000000000E+00 0. -1.
         23    2    1    2    0    0 -0.23279550255E+03  0.10672802628E+03  0.46827853233E+03  0.54134748493E+03  0.90485899441E+02 0.  0.
    5000000    2    1    2    0    0  0.23279550255E+03 -0.10672802628E+03 -0.31170364323E+02  0.65303980145E+03  0.59992063898E+03 0.  0.
         23    2    4    4    0    0  0.19291098544E+03 -0.33178515569E+03 -0.77834354890E+02  0.40252823600E+03  0.93138370919E+02 0.  0.
         23    2    4    4    0    0  0.39884517109E+02  0.22505712941E+03  0.46663990566E+02  0.25051156546E+03  0.91307339304E+02 0.  0.
          5    1    3    3  502    0 -0.12778290433E+03  0.32587206947E+02  0.16057278087E+03  0.20783672595E+03  0.47000000000E+01 0.  1.
         -5    1    3    3    0  502 -0.10501259822E+03  0.74140819336E+02  0.30770575146E+03  0.33351075898E+03  0.47000000000E+01 0. -1.
         11    1    5    5    0    0  0.84883320948E+02 -0.12202561573E+03  0.14087976425E+02  0.14931142002E+03  0.00000000000E+00 0. -1.
        -11    1    5    5    0    0  0.10802766449E+03 -0.20975953996E+03 -0.91922331315E+02  0.25321681598E+03  0.00000000000E+00 0.  1.
          2    1    6    6  503    0  0.55064643652E+02  0.22357999803E+03  0.47967320449E+02  0.23520415458E+03  0.00000000000E+00 0. -1.
         -2    1    6    6    0  503 -0.15180126543E+02  0.14771313723E+01 -0.13033298821E+01  0.15307410876E+02  0.00000000000E+00 0.  1.
<mgrwt>
<rscale>  0 0.44534549E+03</rscale>
<asrwt>0</asrwt>
<pdfrwt beam="1">  1        2 0.58252240E-01 0.44534549E+03</pdfrwt>
<pdfrwt beam="2">  1       -2 0.12549965E+00 0.44534549E+03</pdfrwt>
<totfact> 0.41663459E+01</totfact>
</mgrwt>
</event>
<event>
12    1  0.3147868E-008  0.5538946E+03  0.7818608E-02  0.1000596E+00
          1   -1    0    0  501    0  0.00000000000E+00  0.00000000000E+00  0.19207202070E+04  0.19207202070E+04  0.00000000000E+00 0. -1.
         -1   -1    0    0    0  501 -0.00000000000E+00 -0.00000000000E+00 -0.17692507680E+03  0.17692507680E+03  0.00000000000E+00 0.  1.
         23    2    1    2    0    0 -0.26433918135E+03  0.32578853215E+03  0.75654956489E+03  0.86855961345E+03  0.77557639942E+02 0.  0.
    5000000    2    1    2    0    0  0.26433918135E+03 -0.32578853215E+03  0.98724556534E+03  0.12290856704E+04  0.59998700680E+03 0.  0.
         23    2    4    4    0    0  0.10164033306E+03 -0.45038683351E+03  0.46887601900E+03  0.66455022096E+03  0.92753532973E+02 0.  0.
         23    2    4    4    0    0  0.16269884830E+03  0.12459830136E+03  0.51836954634E+03  0.56453544941E+03  0.89429498040E+02 0.  0.
          5    1    3    3  502    0 -0.15407252184E+03  0.20508221141E+03  0.38554357324E+03  0.46310149243E+03  0.47000000000E+01 0. -1.
         -5    1    3    3    0  502 -0.11026665951E+03  0.12070632074E+03  0.37100599165E+03  0.40545812103E+03  0.47000000000E+01 0.  1.
         11    1    5    5    0    0  0.70933992229E+01 -0.23220107376E+03  0.21190092157E+03  0.31443545526E+03  0.00000000000E+00 0. -1.
        -11    1    5    5    0    0  0.94546933833E+02 -0.21818575976E+03  0.25697509743E+03  0.35011476570E+03  0.00000000000E+00 0.  1.
          1    1    6    6  503    0  0.69065532483E+02  0.10305049639E+02  0.23222617899E+03  0.24249791759E+03  0.00000000000E+00 0. -1.
         -1    1    6    6    0  503  0.93633315815E+02  0.11429325173E+03  0.28614336735E+03  0.32203753182E+03  0.00000000000E+00 0.  1.
<mgrwt>
<rscale>  0 0.55389459E+03</rscale>
<asrwt>0</asrwt>
<pdfrwt beam="1">  1        1 0.29549540E+00 0.55389459E+03</pdfrwt>
<pdfrwt beam="2">  1       -1 0.27219244E-01 0.55389459E+03</pdfrwt>
<totfact> 0.43344531E+01</totfact>
</mgrwt>
</event>
<event>
12    1  0.3147868E-008  0.7641998E+03  0.7818608E-02  0.9613333E-01
          2   -1    0    0  501    0  0.00000000000E+00  0.00000000000E+00  0.11840963787E+04  0.11840963787E+04  0.00000000000E+00 0. -1.
         -2   -1    0    0    0  501 -0.00000000000E+00 -0.00000000000E+00 -0.13895639231E+04  0.13895639231E+04  0.00000000000E+00 0.  1.
         23    2    1    2    0    0  0.67446901476E+03  0.13995131771E+03 -0.10961770524E+04  0.12978163377E+04  0.90709938205E+02 0.  0.
    5000000    2    1    2    0    0 -0.67446901476E+03 -0.13995131771E+03  0.89070950803E+03  0.12758439641E+04  0.59993297118E+03 0.  0.
         23    2    4    4    0    0 -0.74278143628E+03 -0.15042915280E+03  0.87170003181E+03  0.11587565746E+04  0.92209878281E+02 0.  0.
         23    2    4    4    0    0  0.68312421519E+02  0.10477835098E+02  0.19009476216E+02  0.11708738951E+03  0.92583608891E+02 0.  0.
          5    1    3    3  502    0  0.43824390112E+03  0.92989748722E+02 -0.79040949866E+03  0.90855603890E+03  0.47000000000E+01 0. -1.
         -5    1    3    3    0  502  0.23622511364E+03  0.46961568983E+02 -0.30576755373E+03  0.38926029876E+03  0.47000000000E+01 0.  1.
         11    1    5    5    0    0 -0.43325550245E+03 -0.47556251613E+02  0.46341237059E+03  0.63617839690E+03  0.00000000000E+00 0.  1.
        -11    1    5    5    0    0 -0.30952593384E+03 -0.10287290119E+03  0.40828766122E+03  0.52257817771E+03  0.00000000000E+00 0. -1.
          1    1    6    6  503    0  0.28141055229E+02 -0.12914889667E+02 -0.34399040624E+02  0.46281825379E+02  0.00000000000E+00 0. -1.
         -1    1    6    6    0  503  0.40171366289E+02  0.23392724765E+02  0.53408516841E+02  0.70805564136E+02  0.00000000000E+00 0.  1.
<mgrwt>
<rscale>  0 0.76419982E+03</rscale>
<asrwt>0</asrwt>
<pdfrwt beam="1">  1        2 0.18216867E+00 0.76419982E+03</pdfrwt>
<pdfrwt beam="2">  1       -2 0.21377906E+00 0.76419982E+03</pdfrwt>
<totfact> 0.21526170E+00</totfact>
</mgrwt>
</event>
<event>
12    1  0.3147868E-008  0.7094225E+03  0.7818608E-02  0.9701253E-01
         -2   -1    0    0    0  501 -0.00000000000E+00  0.00000000000E+00  0.38911843681E+03  0.38911843681E+03  0.00000000000E+00 0.  1.
          2   -1    0    0  501    0  0.00000000000E+00 -0.00000000000E+00 -0.27639322870E+04  0.27639322870E+04  0.00000000000E+00 0. -1.
         23    2    1    2    0    0 -0.31664826515E+02  0.68549118050E+03 -0.20836379210E+04  0.21956610748E+04  0.92085557159E+02 0.  0.
    5000000    2    1    2    0    0  0.31664826515E+02 -0.68549118050E+03 -0.29117592923E+03  0.95738964903E+03  0.60075843609E+03 0.  0.
         23    2    4    4    0    0  0.12074899579E+03 -0.49297619616E+03 -0.44293606777E+03  0.67978739650E+03  0.91173978390E+02 0.  0.
         23    2    4    4    0    0 -0.89084169279E+02 -0.19251498433E+03  0.15176013854E+03  0.27760225253E+03  0.95046633571E+02 0.  0.
          5    1    3    3  502    0 -0.53884898481E+02  0.31130534422E+03 -0.10260407446E+04  0.10735903778E+04  0.47000000000E+01 0.  1.
         -5    1    3    3    0  502  0.22220071967E+02  0.37418583627E+03 -0.10575971764E+04  0.11220706970E+04  0.47000000000E+01 0. -1.
         11    1    5    5    0    0  0.33896141656E+02 -0.32075561553E+03 -0.28736030777E+03  0.43198270775E+03  0.00000000000E+00 0.  1.
        -11    1    5    5    0    0  0.86852854137E+02 -0.17222058064E+03 -0.15557576000E+03  0.24780468875E+03  0.00000000000E+00 0. -1.
          1    1    6    6  503    0 -0.38054917084E+01 -0.17277405213E+02  0.59323387530E+02  0.61905208230E+02  0.00000000000E+00 0. -1.
         -1    1    6    6    0  503 -0.85278677570E+02 -0.17523757912E+03  0.92436751010E+02  0.21569704430E+03  0.00000000000E+00 0.  1.
<mgrwt>
<rscale>  0 0.70942253E+03</rscale>
<asrwt>0</asrwt>
<pdfrwt beam="1">  1        2 0.42522036E+00 0.70942253E+03</pdfrwt>
<pdfrwt beam="2">  1       -2 0.59864374E-01 0.70942253E+03</pdfrwt>
<totfact> 0.67416348E+00</totfact>
</mgrwt>
</event>
<event>
12    1  0.3147868E-008  0.1022488E+04  0.7818608E-02  0.9284218E-01
         -2   -1    0    0    0  501 -0.00000000000E+00  0.00000000000E+00  0.11457282071E+04  0.11457282071E+04  0.00000000000E+00 0.  1.
          2   -1    0    0  501    0  0.00000000000E+00 -0.00000000000E+00 -0.93617638111E+03  0.93617638111E+03  0.00000000000E+00 0. -1.
         23    2    1    2    0    0 -0.93626701743E+03 -0.11311967660E+03  0.12858920025E+02  0.94754881735E+03  0.91057236248E+02 0.  0.
    5000000    2    1    2    0    0  0.93626701743E+03  0.11311967660E+03  0.19669290593E+03  0.11343557708E+04  0.59890143296E+03 0.  0.
         23    2    4    4    0    0  0.74481154856E+03  0.32247352839E+03  0.11278583415E+03  0.82452319773E+03  0.91566586899E+02 0.  0.
         23    2    4    4    0    0  0.19145546887E+03 -0.20935385179E+03  0.83907071777E+02  0.30983257310E+03  0.92041267037E+02 0.  0.
          5    1    3    3  502    0 -0.27482754677E+03  0.62767240527E+01 -0.83901462385E+01  0.27506737772E+03  0.47000000000E+01 0. -1.
         -5    1    3    3    0  502 -0.66143947066E+03 -0.11939640066E+03  0.21249066264E+02  0.67248143963E+03  0.47000000000E+01 0.  1.
         13    1    5    5    0    0  0.40172650681E+03  0.16299295999E+03  0.10516559070E+03  0.44610614516E+03  0.00000000000E+00 0.  1.
        -13    1    5    5    0    0  0.34308504175E+03  0.15948056840E+03  0.76202434453E+01  0.37841705258E+03  0.00000000000E+00 0. -1.
          2    1    6    6  503    0  0.78962546614E+02 -0.60694803262E+02 -0.11774525294E+02  0.10028749851E+03  0.00000000000E+00 0. -1.
         -2    1    6    6    0  503  0.11249292226E+03 -0.14865904852E+03  0.95681597071E+02  0.20954507459E+03  0.00000000000E+00 0.  1.
<mgrwt>
<rscale>  0 0.10224885E+04</rscale>
<asrwt>0</asrwt>
<pdfrwt beam="1">  1        2 0.14402714E+00 0.10224885E+04</pdfrwt>
<pdfrwt beam="2">  1       -2 0.17626588E+00 0.10224885E+04</pdfrwt>
<totfact> 0.52801308E+00</totfact>
</mgrwt>
</event>
<event>
12    1  0.3147868E-008  0.5857665E+03  0.7818608E-02  0.9935384E-01
          2   -1    0    0  501    0  0.00000000000E+00  0.00000000000E+00  0.20735276260E+04  0.20735276260E+04  0.00000000000E+00 0. -1.
         -2   -1    0    0    0  501 -0.00000000000E+00 -0.00000000000E+00 -0.17846169175E+03  0.17846169175E+03  0.00000000000E+00 0.  1.
         23    2    1    2    0    0  0.91849819632E+02  0.43356661862E+03  0.91200882448E+03  0.10179226930E+04  0.89387420362E+02 0.  0.
    5000000    2    1    2    0    0 -0.91849819632E+02 -0.43356661862E+03  0.98305710980E+03  0.12340666247E+04  0.60008561976E+03 0.  0.
         23    2    4    4    0    0  0.18159003121E+03 -0.40245040685E+03  0.52887657628E+03  0.69510876336E+03  0.92328167711E+02 0.  0.
         23    2    4    4    0    0 -0.27343985084E+03 -0.31116211766E+02  0.45418053352E+03  0.53895786139E+03  0.91967650078E+02 0.  0.
          5    1    3    3  502    0  0.27898375866E+02  0.31044281761E+03  0.66886521994E+03  0.73794026508E+03  0.47000000000E+01 0. -1.
         -5    1    3    3    0  502  0.63951443766E+02  0.12312380100E+03  0.24314360454E+03  0.27998242795E+03  0.47000000000E+01 0.  1.
         13    1    5    5    0    0  0.15921493415E+03 -0.37671941924E+03  0.51653795325E+03  0.65884624400E+03  0.00000000000E+00 0. -1.
        -13    1    5    5    0    0  0.22375097060E+02 -0.25730987608E+02  0.12338623030E+02  0.36262519355E+02  0.00000000000E+00 0.  1.
          4    1    6    6  503    0 -0.17018632328E+03 -0.38143201939E+02  0.20507898565E+03  0.26921307331E+03  0.00000000000E+00 0.  1.
         -4    1    6    6    0  503 -0.10325352756E+03  0.70269901729E+01  0.24910154787E+03  0.26974478808E+03  0.00000000000E+00 0. -1.
<mgrwt>
<rscale>  0 0.58576646E+03</rscale>
<asrwt>0</asrwt>
<pdfrwt beam="1">  1        2 0.31900423E+00 0.58576646E+03</pdfrwt>
<pdfrwt beam="2">  1       -2 0.27455646E-01 0.58576646E+03</pdfrwt>
<totfact> 0.77181019E+01</totfact>
</mgrwt>
</event>
<event>
12    1  0.3147868E-008  0.1105719E+04  0.7818608E-02  0.9199636E-01
          2   -1    0    0  501    0  0.00000000000E+00  0.00000000000E+00  0.10390978360E+04  0.10390978360E+04  0.00000000000E+00 0. -1.
         -2   -1    0    0    0  501 -0.00000000000E+00 -0.00000000000E+00 -0.21361471856E+04  0.21361471856E+04  0.00000000000E+00 0.  1.
         23    2    1    2    0    0 -0.73708282165E+03  0.81085600897E+03 -0.15025216010E+04  0.18617936418E+04  0.89027242561E+02 0.  0.
    5000000    2    1    2    0    0  0.73708282165E+03 -0.81085600897E+03  0.40547225136E+03  0.13134513798E+04  0.59997352215E+03 0.  0.
         23    2    4    4    0    0  0.53778420130E+03 -0.64229327340E+03  0.54703331772E+03  0.10046529585E+04  0.91266752569E+02 0.  0.
         23    2    4    4    0    0  0.19929862035E+03 -0.16856273557E+03 -0.14156106635E+03  0.30879842132E+03  0.84756082990E+02 0.  0.
          5    1    3    3  502    0 -0.40670637631E+03  0.39641727606E+03 -0.82445441186E+03  0.10011512875E+04  0.47000000000E+01 0. -1.
         -5    1    3    3    0  502 -0.33037644534E+03  0.41443873291E+03 -0.67806718914E+03  0.86064235426E+03  0.47000000000E+01 0.  1.
         11    1    5    5    0    0  0.48974656175E+03 -0.61867708743E+03  0.50893412294E+03  0.93894993197E+03  0.00000000000E+00 0. -1.
        -11    1    5    5    0    0  0.48037639547E+02 -0.23616185964E+02  0.38099194778E+02  0.65703026532E+02  0.00000000000E+00 0.  1.
          1    1    6    6  503    0  0.10572168949E+03 -0.13494961718E+03 -0.11308747957E+03  0.20537101266E+03  0.00000000000E+00 0. -1.
         -1    1    6    6    0  503  0.93576930858E+02 -0.33613118387E+02 -0.28473586788E+02  0.10342740866E+03  0.00000000000E+00 0.  1.
<mgrwt>
<rscale>  0 0.11057187E+04</rscale>
<asrwt>0</asrwt>
<pdfrwt beam="1">  1        2 0.15986121E+00 0.11057187E+04</pdfrwt>
<pdfrwt beam="2">  1       -2 0.32863802E+00 0.11057187E+04</pdfrwt>
<totfact> 0.49978146E-01</totfact>
</mgrwt>
</event>
<event>
12    1  0.3147868E-008  0.1850953E+04  0.7818608E-02  0.8679663E-01
         -1   -1    0    0    0  501 -0.00000000000E+00  0.00000000000E+00  0.12070070062E+04  0.12070070062E+04  0.00000000000E+00 0.  1.
          1   -1    0    0  501    0  0.00000000000E+00 -0.00000000000E+00 -0.29007567530E+04  0.29007567530E+04  0.00000000000E+00 0. -1.
         23    2    1    2    0    0 -0.11019853351E+04  0.14504660545E+04 -0.79398942224E+03  0.19892585352E+04  0.92232658727E+02 0.  0.
    5000000    2    1    2    0    0  0.11019853351E+04 -0.14504660545E+04 -0.89976032457E+03  0.21185052241E+04  0.60022686449E+03 0.  0.
         23    2    4    4    0    0  0.56915444147E+03 -0.11083478235E+04 -0.76709982640E+03  0.14659258640E+04  0.90137776753E+02 0.  0.
         23    2    4    4    0    0  0.53283089360E+03 -0.34211823095E+03 -0.13266049817E+03  0.65257936011E+03  0.85483146574E+02 0.  0.
          5    1    3    3  502    0 -0.90663609180E+03  0.11528507638E+04 -0.60940036061E+03  0.15882206320E+04  0.47000000000E+01 0. -1.
         -5    1    3    3    0  502 -0.19534924327E+03  0.29761529069E+03 -0.18458906163E+03  0.40103790316E+03  0.47000000000E+01 0.  1.
         13    1    5    5    0    0  0.51057285795E+02 -0.10733303965E+03 -0.10569130819E+03  0.15905307435E+03  0.00000000000E+00 0.  1.
        -13    1    5    5    0    0  0.51809715567E+03 -0.10010147839E+04 -0.66140851821E+03  0.13068727896E+04  0.00000000000E+00 0. -1.
          2    1    6    6  503    0  0.33965351309E+03 -0.21996547178E+03 -0.42516229416E+02  0.40688689767E+03  0.00000000000E+00 0. -1.
         -2    1    6    6    0  503  0.19317738050E+03 -0.12215275916E+03 -0.90144268749E+02  0.24569246243E+03  0.00000000000E+00 0.  1.
<mgrwt>
<rscale>  0 0.18509532E+04</rscale>
<asrwt>0</asrwt>
<pdfrwt beam="1">  1        1 0.44627026E+00 0.18509532E+04</pdfrwt>
<pdfrwt beam="2">  1       -1 0.18569339E+00 0.18509532E+04</pdfrwt>
<totfact> 0.12174951E-01</totfact>
</mgrwt>
</event>
<event>
12    1  0.3147868E-008  0.4909847E+03  0.7818608E-02  0.1016159E+00
         -2   -1    0    0    0  501 -0.00000000000E+00  0.00000000000E+00  0.35480981491E+03  0.35480981491E+03  0.00000000000E+00 0.  1.
          2   -1    0    0  501    0  0.00000000000E+00 -0.00000000000E+00 -0.20584873295E+04  0.20584873295E+04  0.00000000000E+00 0. -1.
         23    2    1    2    0    0 -0.11699795828E+03 -0.30406778890E+03 -0.16971295279E+04  0.17307374391E+04  0.95171981830E+02 0.  0.
    5000000    2    1    2    0    0  0.11699795828E+03  0.30406778890E+03 -0.65479866948E+01  0.68255970532E+03  0.59974922485E+03 0.  0.
         23    2    4    4    0    0  0.63686740389E+02  0.45353242094E+03 -0.98950610189E+02  0.47690125579E+03  0.88859027526E+02 0.  0.
         23    2    4    4    0    0  0.53311217887E+02 -0.14946463204E+03  0.92402623495E+02  0.20565844953E+03  0.92603406268E+02 0.  0.
          5    1    3    3  502    0 -0.10664126706E+03 -0.14634886892E+03 -0.88076937227E+03  0.89920360787E+03  0.47000000000E+01 0. -1.
         -5    1    3    3    0  502 -0.10356691213E+02 -0.15771891999E+03 -0.81636015560E+03  0.83153383119E+03  0.47000000000E+01 0.  1.
         13    1    5    5    0    0  0.34494389417E+02  0.10947616734E+03 -0.59716724716E+02  0.12938694419E+03  0.00000000000E+00 0. -1.
        -13    1    5    5    0    0  0.29192350972E+02  0.34405625360E+03 -0.39233885474E+02  0.34751431159E+03  0.00000000000E+00 0.  1.
          2    1    6    6  503    0  0.74541949879E+02 -0.14152871348E+03  0.73028239768E+02  0.17584084518E+03  0.00000000000E+00 0. -1.
         -2    1    6    6    0  503 -0.21230731993E+02 -0.79359185565E+01  0.19374383726E+02  0.29817604348E+02  0.00000000000E+00 0.  1.
<mgrwt>
<rscale>  0 0.49098469E+03</rscale>
<asrwt>0</asrwt>
<pdfrwt beam="1">  1        2 0.31669037E+00 0.49098469E+03</pdfrwt>
<pdfrwt beam="2">  1       -2 0.54586124E-01 0.49098469E+03</pdfrwt>
<totfact> 0.21194079E+01</totfact>
</mgrwt>
</event>
<event>
12    1  0.3147868E-008  0.1181094E+04  0.7818608E-02  0.9129568E-01
         -2   -1    0    0    0  501 -0.00000000000E+00  0.00000000000E+00  0.75962378314E+03  0.75962378314E+03  0.00000000000E+00 0.  1.
          2   -1    0    0  501    0  0.00000000000E+00 -0.00000000000E+00 -0.26564254422E+04  0.26564254422E+04  0.00000000000E+00 0. -1.
         23    2    1    2    0    0  0.10620760345E+04  0.49704722890E+03 -0.17246608939E+04  0.20876069402E+04  0.92661140610E+02 0.  0.
    5000000    2    1    2    0    0 -0.10620760345E+04 -0.49704722890E+03 -0.17214076519E+03  0.13284422852E+04  0.60005417345E+03 0.  0.
         23    2    4    4    0    0 -0.80684087625E+03 -0.32568199048E+03  0.13438806891E+03  0.88507548937E+03  0.90760731138E+02 0.  0.
         23    2    4    4    0    0 -0.25523515829E+03 -0.17136523843E+03 -0.30652883409E+03  0.44336679579E+03  0.90017545563E+02 0.  0.
          5    1    3    3  502    0  0.64971302073E+03  0.30487192695E+03 -0.97464545871E+03  0.12103841379E+04  0.47000000000E+01 0. -1.
         -5    1    3    3    0  502  0.41236301381E+03  0.19217530195E+03 -0.75001543519E+03  0.87722280229E+03  0.47000000000E+01 0.  1.
         13    1    5    5    0    0 -0.58927316210E+03 -0.25750322779E+03  0.62985445124E+02  0.64615628000E+03  0.00000000000E+00 0.  1.
        -13    1    5    5    0    0 -0.21756771415E+03 -0.68178762690E+02  0.71402623784E+02  0.23891920937E+03  0.00000000000E+00 0. -1.
          2    1    6    6  503    0 -0.13797040026E+03 -0.14106968409E+03 -0.21290384882E+03  0.29028354407E+03  0.00000000000E+00 0. -1.
         -2    1    6    6    0  503 -0.11726475803E+03 -0.30295554333E+02 -0.93624985279E+02  0.15308325172E+03  0.00000000000E+00 0.  1.
<mgrwt>
<rscale>  0 0.11810942E+04</rscale>
<asrwt>0</asrwt>
<pdfrwt beam="1">  1        2 0.40868084E+00 0.11810942E+04</pdfrwt>
<pdfrwt beam="2">  1       -2 0.11686520E+00 0.11810942E+04</pdfrwt>
<totfact> 0.15745874E+00</totfact>
</mgrwt>
</event>
<event>
12    1  0.3147868E-008  0.5651894E+03  0.7818608E-02  0.9980381E-01
          2   -1    0    0  501    0  0.00000000000E+00  0.00000000000E+00  0.11944643274E+04  0.11944643274E+04  0.00000000000E+00 0. -1.
         -2   -1    0    0    0  501 -0.00000000000E+00 -0.00000000000E+00 -0.37798253370E+03  0.37798253370E+03  0.00000000000E+00 0.  1.
         23    2    1    2    0    0  0.49289819187E+03 -0.10264901485E+03  0.53414373635E+03  0.73988761276E+03  0.92944610516E+02 0.  0.
    5000000    2    1    2    0    0 -0.49289819187E+03  0.10264901485E+03  0.28233805733E+03  0.83255924834E+03  0.59996222845E+03 0.  0.
         23    2    4    4    0    0 -0.47905269343E+03  0.19608158380E+03  0.55513682013E+01  0.52681461769E+03  0.97792398157E+02 0.  0.
         23    2    4    4    0    0 -0.13845498442E+02 -0.93432568949E+02  0.27678668913E+03  0.30574463064E+03  0.89149117326E+02 0.  0.
          5    1    3    3  502    0  0.15765290897E+03 -0.14716769801E+02  0.11371103411E+03  0.19499567251E+03  0.47000000000E+01 0. -1.
         -5    1    3    3    0  502  0.33524528291E+03 -0.87932245046E+02  0.42043270225E+03  0.54489194025E+03  0.47000000000E+01 0.  1.
         11    1    5    5    0    0 -0.24097323523E+03  0.98302881436E+02  0.51687808441E+02  0.26533598726E+03  0.00000000000E+00 0. -1.
        -11    1    5    5    0    0 -0.23807945820E+03  0.97778702361E+02 -0.46136440240E+02  0.26147863043E+03  0.00000000000E+00 0.  1.
          1    1    6    6  503    0 -0.32497799806E+02 -0.42618982139E+02  0.52522692176E+02  0.75040774411E+02  0.00000000000E+00 0. -1.
         -1    1    6    6    0  503  0.18652301364E+02 -0.50813586810E+02  0.22426399695E+03  0.23070385623E+03  0.00000000000E+00 0.  1.
<mgrwt>
<rscale>  0 0.56518941E+03</rscale>
<asrwt>0</asrwt>
<pdfrwt beam="1">  1        2 0.18376374E+00 0.56518941E+03</pdfrwt>
<pdfrwt beam="2">  1       -2 0.58151160E-01 0.56518941E+03</pdfrwt>
<totfact> 0.54796105E+01</totfact>
</mgrwt>
</event>
<event>
12    1  0.3147868E-008  0.1642654E+04  0.7818608E-02  0.8794764E-01
         -1   -1    0    0    0  501 -0.00000000000E+00  0.00000000000E+00  0.12767680791E+04  0.12767680791E+04  0.00000000000E+00 0.  1.
          1   -1    0    0  501    0  0.00000000000E+00 -0.00000000000E+00 -0.27599495754E+04  0.27599495754E+04  0.00000000000E+00 0. -1.
         23    2    1    2    0    0  0.15547923864E+04 -0.52256337182E+03 -0.15909943673E+04  0.22868537651E+04  0.89360079737E+02 0.  0.
    5000000    2    1    2    0    0 -0.15547923864E+04  0.52256337182E+03  0.10781287099E+03  0.17498638894E+04  0.59995681000E+03 0.  0.
         23    2    4    4    0    0 -0.15143890645E+03  0.88197297493E+02  0.19254345589E+03  0.27561840313E+03  0.90443441253E+02 0.  0.
         23    2    4    4    0    0 -0.14033534799E+04  0.43436607433E+03 -0.84730584897E+02  0.14742454862E+04  0.90253008485E+02 0.  0.
          5    1    3    3  502    0  0.85866510503E+03 -0.29971242630E+03 -0.82212772821E+03  0.12259891486E+04  0.47000000000E+01 0. -1.
         -5    1    3    3    0  502  0.69612728133E+03 -0.22285094552E+03 -0.76886663912E+03  0.10608646165E+04  0.47000000000E+01 0.  1.
         13    1    5    5    0    0 -0.36800354126E+02  0.22791721168E+02  0.11421203192E+03  0.12213974313E+03  0.00000000000E+00 0. -1.
        -13    1    5    5    0    0 -0.11463855232E+03  0.65405576325E+02  0.78331423972E+02  0.15347866000E+03  0.00000000000E+00 0.  1.
          2    1    6    6  503    0 -0.56887550015E+03  0.15501756358E+03 -0.73483862850E+02  0.59417981941E+03  0.00000000000E+00 0. -1.
         -2    1    6    6    0  503 -0.83447797976E+03  0.27934851074E+03 -0.11246722046E+02  0.88006566682E+03  0.00000000000E+00 0.  1.
<mgrwt>
<rscale>  0 0.16426535E+04</rscale>
<asrwt>0</asrwt>
<pdfrwt beam="1">  1        1 0.42460762E+00 0.16426535E+04</pdfrwt>
<pdfrwt beam="2">  1       -1 0.19642586E+00 0.16426535E+04</pdfrwt>
<totfact> 0.13192468E-01</totfact>
</mgrwt>
</event>
<event>
12    1  0.3147868E-008  0.4681551E+03  0.7818608E-02  0.1022442E+00
          2   -1    0    0  501    0  0.00000000000E+00  0.00000000000E+00  0.70252767274E+03  0.70252767274E+03  0.00000000000E+00 0. -1.
         -2   -1    0    0    0  501 -0.00000000000E+00 -0.00000000000E+00 -0.53944445411E+03  0.53944445411E+03  0.00000000000E+00 0.  1.
         23    2    1    2    0    0  0.35908743510E+03  0.29266389996E+03  0.85469560098E+02  0.47998056840E+03  0.92088848130E+02 0.  0.
    5000000    2    1    2    0    0 -0.35908743510E+03 -0.29266389996E+03  0.77613658532E+02  0.76199155845E+03  0.60000942557E+03 0.  0.
         23    2    4    4    0    0 -0.15511553844E+03 -0.16908895212E+03 -0.24661386908E+03  0.34929386652E+03  0.92389938712E+02 0.  0.
         23    2    4    4    0    0 -0.20397189666E+03 -0.12357494785E+03  0.32422752761E+03  0.41269769192E+03  0.91217283985E+02 0.  0.
          5    1    3    3  502    0  0.32004429914E+03  0.25849154187E+03  0.10454975736E+03  0.42449849516E+03  0.47000000000E+01 0. -1.
         -5    1    3    3    0  502  0.39043135960E+02  0.34172358092E+02 -0.19080197263E+02  0.55482073238E+02  0.47000000000E+01 0.  1.
         13    1    5    5    0    0 -0.76219049905E+02 -0.68634545548E+02 -0.48220497300E+02  0.11333693472E+03  0.00000000000E+00 0.  1.
        -13    1    5    5    0    0 -0.78896488540E+02 -0.10045440657E+03 -0.19839337178E+03  0.23595693181E+03  0.00000000000E+00 0. -1.
          3    1    6    6  503    0 -0.12850940476E+03 -0.52481398346E+02  0.11928888618E+03  0.18302678124E+03  0.00000000000E+00 0. -1.
         -3    1    6    6    0  503 -0.75462491897E+02 -0.71093549501E+02  0.20493864143E+03  0.22967091069E+03  0.00000000000E+00 0.  1.
<mgrwt>
<rscale>  0 0.46815511E+03</rscale>
<asrwt>0</asrwt>
<pdfrwt beam="1">  1        2 0.10808118E+00 0.46815511E+03</pdfrwt>
<pdfrwt beam="2">  1       -2 0.82991454E-01 0.46815511E+03</pdfrwt>
<totfact> 0.53946236E+01</totfact>
</mgrwt>
</event>
<event>
12    1  0.3147868E-008  0.4544903E+03  0.7818608E-02  0.1026391E+00
         -1   -1    0    0    0  501 -0.00000000000E+00  0.00000000000E+00  0.22786760058E+03  0.22786760058E+03  0.00000000000E+00 0.  1.
          1   -1    0    0  501    0  0.00000000000E+00 -0.00000000000E+00 -0.15276859984E+04  0.15276859984E+04  0.00000000000E+00 0. -1.
         23    2    1    2    0    0 -0.18523727646E+03  0.29681054138E+03 -0.10606936186E+03  0.37444361799E+03  0.80919512262E+02 0.  0.
    5000000    2    1    2    0    0  0.18523727646E+03 -0.29681054138E+03 -0.11937490360E+04  0.13811099810E+04  0.60001556038E+03 0.  0.
         23    2    4    4    0    0  0.26815130213E+02 -0.36229366467E+03 -0.33852193843E+03  0.50485351057E+03  0.91127458343E+02 0.  0.
         23    2    4    4    0    0  0.15842214625E+03  0.65483123296E+02 -0.85522709756E+03  0.87625647045E+03  0.83823610973E+02 0.  0.
          5    1    3    3  502    0 -0.78274457399E+01  0.66976527670E+02 -0.31882485003E+02  0.74737587702E+02  0.47000000000E+01 0. -1.
         -5    1    3    3    0  502 -0.17740983072E+03  0.22983401371E+03 -0.74186876858E+02  0.29970603029E+03  0.47000000000E+01 0.  1.
         11    1    5    5    0    0  0.30787251697E+02 -0.27621413039E+03 -0.30434986345E+03  0.41215402470E+03  0.00000000000E+00 0.  1.
        -11    1    5    5    0    0 -0.39721214841E+01 -0.86079534287E+02 -0.34172074977E+02  0.92699485869E+02  0.00000000000E+00 0. -1.
          4    1    6    6  503    0 -0.33165807586E+01 -0.84474902713E+01 -0.98364693898E+02  0.98782451911E+02  0.00000000000E+00 0.  1.
         -4    1    6    6    0  503  0.16173872701E+03  0.73930613567E+02 -0.75686240366E+03  0.77747401854E+03  0.00000000000E+00 0. -1.
<mgrwt>
<rscale>  0 0.45449033E+03</rscale>
<asrwt>0</asrwt>
<pdfrwt beam="1">  1        1 0.23502862E+00 0.45449033E+03</pdfrwt>
<pdfrwt beam="2">  1       -1 0.35056554E-01 0.45449033E+03</pdfrwt>
<totfact> 0.51903462E+01</totfact>
</mgrwt>
</event>
<event>
12    1  0.3147868E-008  0.1044306E+04  0.7818608E-02  0.9261243E-01
         -1   -1    0    0    0  501 -0.00000000000E+00  0.00000000000E+00  0.11078826887E+04  0.11078826887E+04  0.00000000000E+00 0.  1.
          1   -1    0    0  501    0  0.00000000000E+00 -0.00000000000E+00 -0.10381561153E+04  0.10381561153E+04  0.00000000000E+00 0. -1.
         23    2    1    2    0    0 -0.56450930528E+03 -0.78987652086E+03 -0.14150744700E+03  0.98536554536E+03  0.91352211078E+02 0.  0.
    5000000    2    1    2    0    0  0.56450930528E+03  0.78987652086E+03  0.21123402048E+03  0.11606732586E+04  0.59997243931E+03 0.  0.
         23    2    4    4    0    0  0.13150044857E+02  0.48595529744E+03  0.17324973029E+03  0.52351399096E+03  0.87897411200E+02 0.  0.
         23    2    4    4    0    0  0.55135926042E+03  0.30392122342E+03  0.37984290184E+02  0.63715926767E+03  0.90354756235E+02 0.  0.
          5    1    3    3  502    0 -0.23597422306E+03 -0.32469029231E+03 -0.13509431893E+02  0.40163691890E+03  0.47000000000E+01 0. -1.
         -5    1    3    3    0  502 -0.32853508222E+03 -0.46518622855E+03 -0.12799801510E+03  0.58372862646E+03  0.47000000000E+01 0.  1.
         13    1    5    5    0    0  0.11308933847E+02  0.44357011658E+03  0.12871588982E+03  0.46200662398E+03  0.00000000000E+00 0.  1.
        -13    1    5    5    0    0  0.18411110101E+01  0.42385180863E+02  0.44533840467E+02  0.61507366984E+02  0.00000000000E+00 0. -1.
          2    1    6    6  503    0  0.10455736714E+03  0.36081869050E+02 -0.22034351017E+02  0.11278145647E+03  0.00000000000E+00 0. -1.
         -2    1    6    6    0  503  0.44680189328E+03  0.26783935437E+03  0.60018641201E+02  0.52437781120E+03  0.00000000000E+00 0.  1.
<mgrwt>
<rscale>  0 0.10443056E+04</rscale>
<asrwt>0</asrwt>
<pdfrwt beam="1">  1        1 0.15971633E+00 0.10443056E+04</pdfrwt>
<pdfrwt beam="2">  1       -1 0.17044349E+00 0.10443056E+04</pdfrwt>
<totfact> 0.34440499E+00</totfact>
</mgrwt>
</event>
<event>
12    1  0.3147868E-008  0.7266691E+03  0.7818608E-02  0.9672681E-01
         -1   -1    0    0    0  501 -0.00000000000E+00  0.00000000000E+00  0.84479974561E+03  0.84479974561E+03  0.00000000000E+00 0.  1.
          1   -1    0    0  501    0  0.00000000000E+00 -0.00000000000E+00 -0.64121305163E+03  0.64121305163E+03  0.00000000000E+00 0. -1.
         23    2    1    2    0    0 -0.47859287894E+03 -0.37447967545E+03  0.35615035272E+02  0.61560068475E+03  0.91703877951E+02 0.  0.
    5000000    2    1    2    0    0  0.47859287894E+03  0.37447967545E+03  0.16797165871E+03  0.87041211248E+03  0.60009715574E+03 0.  0.
         23    2    4    4    0    0  0.45683917387E+03 -0.12103938584E+01  0.11166503738E+03  0.47898409170E+03  0.90847034568E+02 0.  0.
         23    2    4    4    0    0  0.21753705068E+02  0.37569006931E+03  0.56306621324E+02  0.39142802078E+03  0.91810718238E+02 0.  0.
          5    1    3    3  502    0 -0.38900690364E+03 -0.29590259657E+03  0.64164575370E+02  0.49297454343E+03  0.47000000000E+01 0. -1.
         -5    1    3    3    0  502 -0.89585975303E+02 -0.78577078884E+02 -0.28549540098E+02  0.12262614133E+03  0.47000000000E+01 0.  1.
         11    1    5    5    0    0  0.12357458210E+03  0.28871718592E+02  0.22233285478E+01  0.12692201016E+03  0.00000000000E+00 0. -1.
        -11    1    5    5    0    0  0.33326459178E+03 -0.30082112450E+02  0.10944170883E+03  0.35206208154E+03  0.00000000000E+00 0.  1.
          4    1    6    6  503    0  0.50064038106E+02  0.23814865179E+03  0.99788195106E+01  0.24355854552E+03  0.00000000000E+00 0. -1.
         -4    1    6    6    0  503 -0.28310333038E+02  0.13754141752E+03  0.46327801814E+02  0.14786947525E+03  0.00000000000E+00 0.  1.
<mgrwt>
<rscale>  0 0.72666911E+03</rscale>
<asrwt>0</asrwt>
<pdfrwt beam="1">  1        1 0.98648162E-01 0.72666911E+03</pdfrwt>
<pdfrwt beam="2">  1       -1 0.12996919E+00 0.72666911E+03</pdfrwt>
<totfact> 0.16251376E+01</totfact>
</mgrwt>
</event>
<event>
12    1  0.3147868E-008  0.5521538E+03  0.7818608E-02  0.1000997E+00
          2   -1    0    0  501    0  0.00000000000E+00  0.00000000000E+00  0.67758774791E+03  0.67758774791E+03  0.00000000000E+00 0. -1.
         -2   -1    0    0    0  501 -0.00000000000E+00 -0.00000000000E+00 -0.69588018734E+03  0.69588018734E+03  0.00000000000E+00 0.  1.
         23    2    1    2    0    0  0.54144401498E+03  0.34618707283E+02  0.89108159314E+02  0.55756602320E+03  0.92625751902E+02 0.  0.
    5000000    2    1    2    0    0 -0.54144401498E+03 -0.34618707283E+02 -0.10740059874E+03  0.81590191206E+03  0.59983411476E+03 0.  0.
         23    2    4    4    0    0 -0.17232519839E+03 -0.65589862885E+02  0.22826603807E+03  0.30760908765E+03  0.92303643218E+02 0.  0.
         23    2    4    4    0    0 -0.36911881659E+03  0.30971155602E+02 -0.33566663682E+03  0.50829282441E+03  0.92095553807E+02 0.  0.
          5    1    3    3  502    0  0.42692790024E+03  0.45957603262E+01  0.38434848800E+02  0.42870488756E+03  0.47000000000E+01 0. -1.
         -5    1    3    3    0  502  0.11451611475E+03  0.30022946957E+02  0.50673310513E+02  0.12886113564E+03  0.47000000000E+01 0.  1.
         13    1    5    5    0    0 -0.19512743150E+02 -0.85578768172E+01  0.93889409666E+02  0.96276713946E+02  0.00000000000E+00 0. -1.
        -13    1    5    5    0    0 -0.15281245524E+03 -0.57031986068E+02  0.13437662841E+03  0.21133237370E+03  0.00000000000E+00 0.  1.
          1    1    6    6  503    0 -0.21498245525E+03 -0.90987258558E+01 -0.14315679675E+03  0.25844556745E+03  0.00000000000E+00 0. -1.
         -1    1    6    6    0  503 -0.15413636134E+03  0.40069881458E+02 -0.19250984007E+03  0.24984725696E+03  0.00000000000E+00 0.  1.
<mgrwt>
<rscale>  0 0.55215385E+03</rscale>
<asrwt>0</asrwt>
<pdfrwt beam="1">  1        2 0.10424427E+00 0.55215385E+03</pdfrwt>
<pdfrwt beam="2">  1       -2 0.10705849E+00 0.55215385E+03</pdfrwt>
<totfact> 0.30936370E+01</totfact>
</mgrwt>
</event>
<event>
12    1  0.3147868E-008  0.1359155E+04  0.7818608E-02  0.8983927E-01
          1   -1    0    0  501    0  0.00000000000E+00  0.00000000000E+00  0.21283886019E+04  0.21283886019E+04  0.00000000000E+00 0.  1.
         -1   -1    0    0    0  501 -0.00000000000E+00 -0.00000000000E+00 -0.94876668655E+03  0.94876668655E+03  0.00000000000E+00 0. -1.
         23    2    1    2    0    0  0.67562846014E+03 -0.11691482974E+04  0.42855317621E+03  0.14196085843E+04  0.90824832418E+02 0.  0.
    5000000    2    1    2    0    0 -0.67562846014E+03  0.11691482974E+04  0.75106873913E+03  0.16575467042E+04  0.59997938976E+03 0.  0.
         23    2    4    4    0    0 -0.13066020530E+03  0.21480423458E+03  0.43453040007E+03  0.51026097381E+03  0.91305226417E+02 0.  0.
         23    2    4    4    0    0 -0.54496825485E+03  0.95434406283E+03  0.31653833907E+03  0.11472857304E+04  0.91131980999E+02 0.  0.
          5    1    3    3  502    0  0.10510741043E+03 -0.21331037416E+03  0.10790939553E+03  0.26118080154E+03  0.47000000000E+01 0. -1.
         -5    1    3    3    0  502  0.57052104971E+03 -0.95583792325E+03  0.32064378068E+03  0.11584277827E+04  0.47000000000E+01 0.  1.
         11    1    5    5    0    0  0.28064471318E+01  0.60642764371E+02  0.13368225993E+03  0.14682086922E+03  0.00000000000E+00 0.  1.
        -11    1    5    5    0    0 -0.13346665243E+03  0.15416147021E+03  0.30084814013E+03  0.36344010460E+03  0.00000000000E+00 0. -1.
          3    1    6    6  503    0 -0.47507170253E+03  0.76129607402E+03  0.26287003382E+03  0.93507512508E+03  0.00000000000E+00 0. -1.
         -3    1    6    6    0  503 -0.69896552318E+02  0.19304798881E+03  0.53668305246E+02  0.21221060529E+03  0.00000000000E+00 0.  1.
<mgrwt>
<rscale>  0 0.13591546E+04</rscale>
<asrwt>0</asrwt>
<pdfrwt beam="1">  1        1 0.32744440E+00 0.13591546E+04</pdfrwt>
<pdfrwt beam="2">  1       -1 0.14596411E+00 0.13591546E+04</pdfrwt>
<totfact> 0.88293245E-01</totfact>
</mgrwt>
</event>
<event>
12    1  0.3147868E-008  0.1626794E+04  0.7818608E-02  0.8804254E-01
          1   -1    0    0  501    0  0.00000000000E+00  0.00000000000E+00  0.12743503681E+04  0.12743503681E+04  0.00000000000E+00 0. -1.
         -1   -1    0    0    0  501 -0.00000000000E+00 -0.00000000000E+00 -0.22037492994E+04  0.22037492994E+04  0.00000000000E+00 0.  1.
         23    2    1    2    0    0  0.91609641377E+03 -0.12879441848E+04 -0.82433132545E+03  0.17842879903E+04  0.78285602545E+02 0.  0.
    5000000    2    1    2    0    0 -0.91609641377E+03  0.12879441848E+04 -0.10506760581E+03  0.16938116772E+04  0.59993827474E+03 0.  0.
         23    2    4    4    0    0 -0.64190701751E+03  0.44819847976E+03 -0.15907138264E+03  0.80433861491E+03  0.93436643101E+02 0.  0.
         23    2    4    4    0    0 -0.27418939625E+03  0.83974570506E+03  0.54003776830E+02  0.88947306229E+03  0.88843944289E+02 0.  0.
          5    1    3    3  502    0  0.85345880841E+03 -0.12081458027E+04 -0.79094544090E+03  0.16773863594E+04  0.47000000000E+01 0. -1.
         -5    1    3    3    0  502  0.62637605359E+02 -0.79798382161E+02 -0.33385884551E+02  0.10690163089E+03  0.47000000000E+01 0.  1.
         13    1    5    5    0    0 -0.33723849891E+03  0.19266124232E+03 -0.47156459426E+02  0.39124403012E+03  0.00000000000E+00 0. -1.
        -13    1    5    5    0    0 -0.30466851860E+03  0.25553723744E+03 -0.11191492322E+03  0.41309458479E+03  0.00000000000E+00 0.  1.
          4    1    6    6  503    0 -0.18710673211E+03  0.44826640669E+03  0.50951723308E+02  0.48841353245E+03  0.00000000000E+00 0. -1.
         -4    1    6    6    0  503 -0.87082664150E+02  0.39147929837E+03  0.30520535220E+01  0.40105952984E+03  0.00000000000E+00 0.  1.
<mgrwt>
<rscale>  0 0.16267940E+04</rscale>
<asrwt>0</asrwt>
<pdfrwt beam="1">  1        1 0.19605391E+00 0.16267940E+04</pdfrwt>
<pdfrwt beam="2">  1       -1 0.33903835E+00 0.16267940E+04</pdfrwt>
<totfact> 0.16200119E-01</totfact>
</mgrwt>
</event>
<event>
12    1  0.3147868E-008  0.3116046E+03  0.7818608E-02  0.1079579E+00
         -1   -1    0    0    0  501 -0.00000000000E+00  0.00000000000E+00  0.81334042283E+02  0.81334042283E+02  0.00000000000E+00 0.  1.
          1   -1    0    0  501    0  0.00000000000E+00 -0.00000000000E+00 -0.21427617494E+04  0.21427617494E+04  0.00000000000E+00 0. -1.
         23    2    1    2    0    0  0.15770008947E+03 -0.55779851138E+02 -0.68838258429E+03  0.71639244399E+03  0.10661539032E+03 0.  0.
    5000000    2    1    2    0    0 -0.15770008947E+03  0.55779851138E+02 -0.13730451229E+04  0.15077033477E+04  0.59994646870E+03 0.  0.
         23    2    4    4    0    0 -0.18618502638E+03 -0.12100784163E+03 -0.18067226576E+03  0.29823264617E+03  0.83621060995E+02 0.  0.
         23    2    4    4    0    0  0.28484936911E+02  0.17678769277E+03 -0.11923728571E+04  0.12094707016E+04  0.94873956440E+02 0.  0.
          5    1    3    3  502    0  0.10370257573E+03 -0.84154083225E+02 -0.53044980278E+03  0.54702396401E+03  0.47000000000E+01 0. -1.
         -5    1    3    3    0  502  0.53997513740E+02  0.28374232087E+02 -0.15793278151E+03  0.16936847998E+03  0.47000000000E+01 0.  1.
         13    1    5    5    0    0 -0.67732044736E+02 -0.93862253547E+02 -0.87225964491E+02  0.14493488678E+03  0.00000000000E+00 0. -1.
        -13    1    5    5    0    0 -0.11845298164E+03 -0.27145588088E+02 -0.93446301270E+02  0.15329775939E+03  0.00000000000E+00 0.  1.
          2    1    6    6  503    0  0.49608130464E+02  0.14209165883E+03 -0.73215437406E+03  0.74746306503E+03  0.00000000000E+00 0. -1.
         -2    1    6    6    0  503 -0.21123193553E+02  0.34696033938E+02 -0.46021848304E+03  0.46200763653E+03  0.00000000000E+00 0.  1.
<mgrwt>
<rscale>  0 0.31160455E+03</rscale>
<asrwt>0</asrwt>
<pdfrwt beam="1">  1        1 0.32965567E+00 0.31160455E+03</pdfrwt>
<pdfrwt beam="2">  1       -1 0.12512929E-01 0.31160455E+03</pdfrwt>
<totfact> 0.11603157E+02</totfact>
</mgrwt>
</event>
<event>
12    1  0.3147868E-008  0.8488516E+03  0.7818608E-02  0.9491880E-01
          2   -1    0    0  501    0  0.00000000000E+00  0.00000000000E+00  0.14535011079E+04  0.14535011079E+04  0.00000000000E+00 0. -1.
         -2   -1    0    0    0  501 -0.00000000000E+00 -0.00000000000E+00 -0.59443763519E+03  0.59443763519E+03  0.00000000000E+00 0.  1.
         23    2    1    2    0    0  0.78350815812E+03 -0.12027573723E+02  0.84855337894E+02  0.79357021959E+03  0.92323175223E+02 0.  0.
    5000000    2    1    2    0    0 -0.78350815812E+03  0.12027573723E+02  0.77420813477E+03  0.12543685235E+04  0.60001038352E+03 0.  0.
         23    2    4    4    0    0 -0.52647947693E+03 -0.21055968123E+03  0.67942605521E+03  0.89018410059E+03  0.96394758414E+02 0.  0.
         23    2    4    4    0    0 -0.25702868119E+03  0.22258725496E+03  0.94782079552E+02  0.36418442287E+03  0.89653902478E+02 0.  0.
          5    1    3    3  502    0  0.70900319834E+03 -0.37841735983E+02  0.76942029613E+02  0.71418463871E+03  0.47000000000E+01 0. -1.
         -5    1    3    3    0  502  0.74504959779E+02  0.25814162260E+02  0.79133082816E+01  0.79385580887E+02  0.47000000000E+01 0.  1.
         13    1    5    5    0    0 -0.21267455633E+03 -0.66460502894E+02  0.33605040832E+03  0.40320880731E+03  0.00000000000E+00 0.  1.
        -13    1    5    5    0    0 -0.31380492060E+03 -0.14409917834E+03  0.34337564689E+03  0.48697529328E+03  0.00000000000E+00 0. -1.
          2    1    6    6  503    0 -0.11299884569E+03  0.85286907324E+02 -0.48352960367E+01  0.14165442378E+03  0.00000000000E+00 0. -1.
         -2    1    6    6    0  503 -0.14402983550E+03  0.13730034763E+03  0.99617375589E+02  0.22252999909E+03  0.00000000000E+00 0.  1.
<mgrwt>
<rscale>  0 0.84885158E+03</rscale>
<asrwt>0</asrwt>
<pdfrwt beam="1">  1        2 0.22361556E+00 0.84885158E+03</pdfrwt>
<pdfrwt beam="2">  1       -2 0.91451944E-01 0.84885158E+03</pdfrwt>
<totfact> 0.13893896E+01</totfact>
</mgrwt>
</event>
<event>
12    1  0.3147868E-008  0.6732382E+03  0.7818608E-02  0.9764126E-01
         -2   -1    0    0    0  501 -0.00000000000E+00  0.00000000000E+00  0.15600921214E+04  0.15600921214E+04  0.00000000000E+00 0.  1.
          2   -1    0    0  501    0  0.00000000000E+00 -0.00000000000E+00 -0.84241766714E+03  0.84241766714E+03  0.00000000000E+00 0. -1.
         23    2    1    2    0    0 -0.45064749805E+03 -0.38651894888E+03  0.12624314900E+04  0.13978948864E+04  0.88863834001E+02 0.  0.
    5000000    2    1    2    0    0  0.45064749805E+03  0.38651894888E+03 -0.54475703572E+03  0.10046149022E+04  0.60000900696E+03 0.  0.
         23    2    4    4    0    0  0.13559165553E+03 -0.97031823574E+02 -0.33467559762E+03  0.38377535064E+03  0.86460929239E+02 0.  0.
         23    2    4    4    0    0  0.31505584252E+03  0.48355077245E+03 -0.21008143810E+03  0.62083955156E+03  0.90697324723E+02 0.  0.
          5    1    3    3  502    0 -0.34948143043E+03 -0.33097950304E+03  0.10730183349E+04  0.11760421500E+04  0.47000000000E+01 0. -1.
         -5    1    3    3    0  502 -0.10116606762E+03 -0.55539445834E+02  0.18941315516E+03  0.22185273635E+03  0.47000000000E+01 0.  1.
         13    1    5    5    0    0  0.59073056486E+02 -0.59566276465E+02 -0.24981704593E+03  0.26352670402E+03  0.00000000000E+00 0. -1.
        -13    1    5    5    0    0  0.76518599048E+02 -0.37465547109E+02 -0.84858551687E+02  0.12024864662E+03  0.00000000000E+00 0.  1.
          2    1    6    6  503    0  0.67423537199E+01  0.38650427458E+02 -0.33161544961E+02  0.51371226777E+02  0.00000000000E+00 0. -1.
         -2    1    6    6    0  503  0.30831348880E+03  0.44490034499E+03 -0.17691989314E+03  0.56946832479E+03  0.00000000000E+00 0.  1.
<mgrwt>
<rscale>  0 0.67323824E+03</rscale>
<asrwt>0</asrwt>
<pdfrwt beam="1">  1        2 0.12960272E+00 0.67323824E+03</pdfrwt>
<pdfrwt beam="2">  1       -2 0.24001417E+00 0.67323824E+03</pdfrwt>
<totfact> 0.24819625E+00</totfact>
</mgrwt>
</event>
<event>
12    1  0.3147868E-008  0.5467312E+03  0.7818608E-02  0.1002253E+00
          2   -1    0    0  501    0  0.00000000000E+00  0.00000000000E+00  0.14651826160E+04  0.14651826160E+04  0.00000000000E+00 0. -1.
         -2   -1    0    0    0  501 -0.00000000000E+00 -0.00000000000E+00 -0.34516106761E+03  0.34516106761E+03  0.00000000000E+00 0.  1.
         23    2    1    2    0    0  0.25996702799E+01  0.39682084418E+03  0.10016025107E+04  0.10812541272E+04  0.91811532070E+02 0.  0.
    5000000    2    1    2    0    0 -0.25996702799E+01 -0.39682084418E+03  0.11841903766E+03  0.72908955641E+03  0.60006247352E+03 0.  0.
         23    2    4    4    0    0 -0.13161618056E+03  0.10018956160E+03  0.89360865996E+02  0.20672579228E+03  0.85961744885E+02 0.  0.
         23    2    4    4    0    0  0.12901651028E+03 -0.49701040578E+03  0.29058171666E+02  0.52236376413E+03  0.91405258897E+02 0.  0.
          5    1    3    3  502    0 -0.17172187765E+02  0.19484646287E+03  0.38110630074E+03  0.42839716454E+03  0.47000000000E+01 0. -1.
         -5    1    3    3    0  502  0.19771858044E+02  0.20197438131E+03  0.62049620995E+03  0.65285696262E+03  0.47000000000E+01 0.  1.
         13    1    5    5    0    0 -0.17675544759E+02  0.55439549623E+02  0.57265805535E+01  0.58470182741E+02  0.00000000000E+00 0. -1.
        -13    1    5    5    0    0 -0.11394063580E+03  0.44750011979E+02  0.83634285443E+02  0.14825560954E+03  0.00000000000E+00 0.  1.
          4    1    6    6  503    0  0.22118792253E+02 -0.13295662196E+03 -0.30771673157E+02  0.13825194452E+03  0.00000000000E+00 0. -1.
         -4    1    6    6    0  503  0.10689771803E+03 -0.36405378382E+03  0.59829844823E+02  0.38411181961E+03  0.00000000000E+00 0.  1.
<mgrwt>
<rscale>  0 0.54673120E+03</rscale>
<asrwt>0</asrwt>
<pdfrwt beam="1">  1        2 0.22541271E+00 0.54673120E+03</pdfrwt>
<pdfrwt beam="2">  1       -2 0.53101704E-01 0.54673120E+03</pdfrwt>
<totfact> 0.46528073E+01</totfact>
</mgrwt>
</event>
<event>
12    1  0.3147868E-008  0.7771548E+03  0.7818608E-02  0.9593686E-01
          2   -1    0    0  501    0  0.00000000000E+00  0.00000000000E+00  0.11680287062E+04  0.11680287062E+04  0.00000000000E+00 0. -1.
         -2   -1    0    0    0  501 -0.00000000000E+00 -0.00000000000E+00 -0.66282772787E+03  0.66282772787E+03  0.00000000000E+00 0.  1.
         23    2    1    2    0    0  0.39894227842E+03  0.57358268391E+03 -0.12370109779E+03  0.71565828618E+03  0.93342295835E+02 0.  0.
    5000000    2    1    2    0    0 -0.39894227842E+03 -0.57358268391E+03  0.62890207611E+03  0.11151981479E+04  0.59999754241E+03 0.  0.
         23    2    4    4    0    0  0.29211931861E+02  0.39374738013E+02  0.25386940108E+03  0.27356634611E+03  0.89359755823E+02 0.  0.
         23    2    4    4    0    0 -0.42815421028E+03 -0.61295742192E+03  0.37503267503E+03  0.84163180177E+03  0.93068542118E+02 0.  0.
          5    1    3    3  502    0  0.29975818683E+03  0.38455095863E+03 -0.11977447752E+03  0.50209802411E+03  0.47000000000E+01 0. -1.
         -5    1    3    3    0  502  0.99184091592E+02  0.18903172528E+03 -0.39266202736E+01  0.21356026207E+03  0.47000000000E+01 0.  1.
         11    1    5    5    0    0  0.14120425803E+02 -0.28655517191E+02  0.70395115868E+02  0.77304575727E+02  0.00000000000E+00 0. -1.
        -11    1    5    5    0    0  0.15091506058E+02  0.68030255204E+02  0.18347428521E+03  0.19626177038E+03  0.00000000000E+00 0.  1.
          2    1    6    6  503    0 -0.29380202477E+03 -0.47833443026E+03  0.25365035742E+03  0.61600483825E+03  0.00000000000E+00 0. -1.
         -2    1    6    6    0  503 -0.13435218551E+03 -0.13462299166E+03  0.12138231761E+03  0.22562696351E+03  0.00000000000E+00 0.  1.
<mgrwt>
<rscale>  0 0.77715477E+03</rscale>
<asrwt>0</asrwt>
<pdfrwt beam="1">  1        2 0.17969672E+00 0.77715477E+03</pdfrwt>
<pdfrwt beam="2">  1       -2 0.10197350E+00 0.77715477E+03</pdfrwt>
<totfact> 0.15855366E+01</totfact>
</mgrwt>
</event>
<event>
12    1  0.3147868E-008  0.1883957E+04  0.7818608E-02  0.8662883E-01
          2   -1    0    0  501    0  0.00000000000E+00  0.00000000000E+00  0.28512976035E+04  0.28512976035E+04  0.00000000000E+00 0.  1.
         -2   -1    0    0    0  501 -0.00000000000E+00 -0.00000000000E+00 -0.13760045845E+04  0.13760045845E+04  0.00000000000E+00 0. -1.
         23    2    1    2    0    0 -0.47772475996E+03 -0.17912114831E+04  0.13114494615E+04  0.22719321747E+04  0.71530364810E+02 0.  0.
    5000000    2    1    2    0    0  0.47772475996E+03  0.17912114831E+04  0.16384355747E+03  0.19553700133E+04  0.59997304454E+03 0.  0.
         23    2    4    4    0    0 -0.85488797531E+02  0.29111928649E+03 -0.92355367273E+02  0.33020764449E+03  0.91917360399E+02 0.  0.
         23    2    4    4    0    0  0.56321355750E+03  0.15000921966E+04  0.25619892474E+03  0.16251623688E+04  0.89603160341E+02 0.  0.
          5    1    3    3  502    0 -0.67736220582E+02 -0.33487818225E+03  0.22023187506E+03  0.40651661874E+03  0.47000000000E+01 0. -1.
         -5    1    3    3    0  502 -0.40998853938E+03 -0.14563333008E+04  0.10912175865E+04  0.18654155560E+04  0.47000000000E+01 0.  1.
         11    1    5    5    0    0 -0.43791825325E+02  0.23685463050E+03 -0.10108167194E+03  0.26121895864E+03  0.00000000000E+00 0.  1.
        -11    1    5    5    0    0 -0.41696972206E+02  0.54264655994E+02  0.87263046628E+01  0.68988685844E+02  0.00000000000E+00 0. -1.
          4    1    6    6  503    0  0.20118355237E+03  0.63723254322E+03  0.13319050820E+03  0.68138083871E+03  0.00000000000E+00 0. -1.
         -4    1    6    6    0  503  0.36203000512E+03  0.86285965334E+03  0.12300841655E+03  0.94378153008E+03  0.00000000000E+00 0.  1.
<mgrwt>
<rscale>  0 0.18839570E+04</rscale>
<asrwt>0</asrwt>
<pdfrwt beam="1">  1        2 0.43866117E+00 0.18839570E+04</pdfrwt>
<pdfrwt beam="2">  1       -2 0.21169301E+00 0.18839570E+04</pdfrwt>
<totfact> 0.21685500E-01</totfact>
</mgrwt>
</event>
<event>
12    1  0.3147868E-008  0.4800596E+03  0.7818608E-02  0.1019119E+00
         -1   -1    0    0    0  501 -0.00000000000E+00  0.00000000000E+00  0.75367313540E+03  0.75367313540E+03  0.00000000000E+00 0.  1.
          1   -1    0    0  501    0  0.00000000000E+00 -0.00000000000E+00 -0.10240972268E+04  0.10240972268E+04  0.00000000000E+00 0. -1.
         23    2    1    2    0    0 -0.14446141891E+02 -0.30414588702E+03 -0.83934490693E+03  0.89672141798E+03  0.83042260760E+02 0.  0.
    5000000    2    1    2    0    0  0.14446141891E+02  0.30414588702E+03  0.56892081554E+03  0.88104894422E+03  0.59988576925E+03 0.  0.
         23    2    4    4    0    0  0.27725845026E+03  0.86751076535E+02  0.17320903737E+03  0.35067553538E+03  0.92595696248E+02 0.  0.
         23    2    4    4    0    0 -0.26281230837E+03  0.21739481048E+03  0.39571177816E+03  0.53037340884E+03  0.91527746456E+02 0.  0.
          5    1    3    3  502    0  0.29305583527E+02 -0.54682722860E+02 -0.17351246508E+03  0.18433036359E+03  0.47000000000E+01 0. -1.
         -5    1    3    3    0  502 -0.43751725418E+02 -0.24946316416E+03 -0.66583244185E+03  0.71239105439E+03  0.47000000000E+01 0.  1.
         13    1    5    5    0    0  0.15454724278E+03  0.61865979448E+02  0.47189539968E+02  0.17302919507E+03  0.00000000000E+00 0. -1.
        -13    1    5    5    0    0  0.12271120748E+03  0.24885097087E+02  0.12601949740E+03  0.17764634030E+03  0.00000000000E+00 0.  1.
          4    1    6    6  503    0 -0.85748671931E+02  0.20612867629E+02  0.90680372279E+02  0.12649369536E+03  0.00000000000E+00 0. -1.
         -4    1    6    6    0  503 -0.17706363644E+03  0.19678194285E+03  0.30503140589E+03  0.40387971348E+03  0.00000000000E+00 0.  1.
<mgrwt>
<rscale>  0 0.48005962E+03</rscale>
<asrwt>0</asrwt>
<pdfrwt beam="1">  1        1 0.15755342E+00 0.48005962E+03</pdfrwt>
<pdfrwt beam="2">  1       -1 0.11594971E+00 0.48005962E+03</pdfrwt>
<totfact> 0.10554296E+01</totfact>
</mgrwt>
</event>
<event>
12    1  0.3147868E-008  0.1370633E+04  0.7818608E-02  0.8975354E-01
         -2   -1    0    0    0  501 -0.00000000000E+00  0.00000000000E+00  0.18052158316E+04  0.18052158316E+04  0.00000000000E+00 0.  1.
          2   -1    0    0  501    0  0.00000000000E+00 -0.00000000000E+00 -0.10623140531E+04  0.10623140531E+04  0.00000000000E+00 0. -1.
         23    2    1    2    0    0  0.34817121947E+03  0.12707265822E+04  0.29083715764E+03  0.13508228929E+04  0.64552234133E+02 0.  0.
    5000000    2    1    2    0    0 -0.34817121947E+03 -0.12707265822E+04  0.45206462085E+03  0.15167069918E+04  0.60005702448E+03 0.  0.
         23    2    4    4    0    0  0.11775623847E+03 -0.12160759312E+03 -0.55144659269E+01  0.19179942209E+03  0.90009280520E+02 0.  0.
         23    2    4    4    0    0 -0.46592745793E+03 -0.11491189891E+04  0.45757908678E+03  0.13249075697E+04  0.91861854712E+02 0.  0.
          5    1    3    3  502    0  0.19693470995E+02  0.47833032160E+02  0.21670707847E+02  0.56280914563E+02  0.47000000000E+01 0. -1.
         -5    1    3    3    0  502  0.32847774847E+03  0.12228935501E+04  0.26916644979E+03  0.12945419784E+04  0.47000000000E+01 0.  1.
         13    1    5    5    0    0  0.57095710315E+02 -0.10285220679E+03  0.26658013623E+02  0.12061984193E+03  0.00000000000E+00 0. -1.
        -13    1    5    5    0    0  0.60660528150E+02 -0.18755386334E+02 -0.32172479550E+02  0.71179580164E+02  0.00000000000E+00 0.  1.
          4    1    6    6  503    0 -0.16238784908E+03 -0.31661621039E+03  0.10251209135E+03  0.37030307463E+03  0.00000000000E+00 0. -1.
         -4    1    6    6    0  503 -0.30353960885E+03 -0.83250277874E+03  0.35506699543E+03  0.95460449506E+03  0.00000000000E+00 0.  1.
<mgrwt>
<rscale>  0 0.13706333E+04</rscale>
<asrwt>0</asrwt>
<pdfrwt beam="1">  1        2 0.16343293E+00 0.13706333E+04</pdfrwt>
<pdfrwt beam="2">  1       -2 0.27772551E+00 0.13706333E+04</pdfrwt>
<totfact> 0.95793827E-01</totfact>
</mgrwt>
</event>
<event>
12    1  0.3147868E-008  0.1054575E+04  0.7818608E-02  0.9250633E-01
         -2   -1    0    0    0  501 -0.00000000000E+00  0.00000000000E+00  0.86291260416E+03  0.86291260416E+03  0.00000000000E+00 0.  1.
          2   -1    0    0  501    0  0.00000000000E+00 -0.00000000000E+00 -0.20796645595E+04  0.20796645595E+04  0.00000000000E+00 0. -1.
         23    2    1    2    0    0  0.22190692732E+03  0.10008393636E+04  0.24625643917E+03  0.10580217380E+04  0.88575663628E+02 0.  0.
    5000000    2    1    2    0    0 -0.22190692732E+03 -0.10008393636E+04 -0.14630083945E+04  0.18845554256E+04  0.60019452999E+03 0.  0.
         23    2    4    4    0    0 -0.25566507681E+02 -0.79295119147E+03 -0.13400388885E+04  0.15596514401E+04  0.85925278526E+02 0.  0.
         23    2    4    4    0    0 -0.19634041964E+03 -0.20788817211E+03 -0.12296950599E+03  0.32490398555E+03  0.93134568951E+02 0.  0.
          5    1    3    3  502    0  0.41822812106E+02  0.29343181209E+03  0.37654791267E+02  0.29881658131E+03  0.47000000000E+01 0. -1.
         -5    1    3    3    0  502  0.18008411522E+03  0.70740755149E+03  0.20860164790E+03  0.75920515670E+03  0.47000000000E+01 0.  1.
         13    1    5    5    0    0  0.19088310076E+02 -0.27141440357E+03 -0.51784875565E+03  0.58497647454E+03  0.00000000000E+00 0. -1.
        -13    1    5    5    0    0 -0.44654817757E+02 -0.52153678790E+03 -0.82219013282E+03  0.97467496551E+03  0.00000000000E+00 0.  1.
          2    1    6    6  503    0 -0.68051716251E+02 -0.91130614700E+02 -0.25985683424E+01  0.11376544984E+03  0.00000000000E+00 0. -1.
         -2    1    6    6    0  503 -0.12828870339E+03 -0.11675755741E+03 -0.12037093765E+03  0.21113853571E+03  0.00000000000E+00 0.  1.
<mgrwt>
<rscale>  0 0.10545753E+04</rscale>
<asrwt>0</asrwt>
<pdfrwt beam="1">  1        2 0.31994839E+00 0.10545753E+04</pdfrwt>
<pdfrwt beam="2">  1       -2 0.13275579E+00 0.10545753E+04</pdfrwt>
<totfact> 0.24644447E+00</totfact>
</mgrwt>
</event>
<event>
12    1  0.3147868E-008  0.1049739E+04  0.7818608E-02  0.9255614E-01
          2   -1    0    0  501    0  0.00000000000E+00  0.00000000000E+00  0.16220736754E+04  0.16220736754E+04  0.00000000000E+00 0.  1.
         -2   -1    0    0    0  501 -0.00000000000E+00 -0.00000000000E+00 -0.94395317215E+03  0.94395317215E+03  0.00000000000E+00 0. -1.
         23    2    1    2    0    0  0.28006837025E+02 -0.97182335211E+03  0.98092071871E+03  0.13840967042E+04  0.91067115131E+02 0.  0.
    5000000    2    1    2    0    0 -0.28006837025E+02  0.97182335211E+03 -0.30280021547E+03  0.11819301434E+04  0.60003823435E+03 0.  0.
         23    2    4    4    0    0  0.21859299326E+03  0.76753386430E+03 -0.15438368214E+03  0.81800076555E+03  0.91650431472E+02 0.  0.
         23    2    4    4    0    0 -0.24659983029E+03  0.20428948781E+03 -0.14841653333E+03  0.36392937781E+03  0.88721212463E+02 0.  0.
          5    1    3    3  502    0  0.11156250089E+02 -0.25117715052E+03  0.19977709712E+03  0.32116569149E+03  0.47000000000E+01 0. -1.
         -5    1    3    3    0  502  0.16850586937E+02 -0.72064620159E+03  0.78114362159E+03  0.10629310127E+04  0.47000000000E+01 0.  1.
         13    1    5    5    0    0  0.84747934420E+02  0.16185515233E+03 -0.44667278931E+02  0.18808101587E+03  0.00000000000E+00 0. -1.
        -13    1    5    5    0    0  0.13384505884E+03  0.60567871196E+03 -0.10971640321E+03  0.62991974968E+03  0.00000000000E+00 0.  1.
          4    1    6    6  503    0 -0.26004594990E+02  0.42098372394E+01 -0.38138595751E+02  0.46352067656E+02  0.00000000000E+00 0. -1.
         -4    1    6    6    0  503 -0.22059523530E+03  0.20007965058E+03 -0.11027793758E+03  0.31757731016E+03  0.00000000000E+00 0.  1.
<mgrwt>
<rscale>  0 0.10497386E+04</rscale>
<asrwt>0</asrwt>
<pdfrwt beam="1">  1        2 0.24954980E+00 0.10497386E+04</pdfrwt>
<pdfrwt beam="2">  1       -2 0.14522356E+00 0.10497386E+04</pdfrwt>
<totfact> 0.34948743E+00</totfact>
</mgrwt>
</event>
<event>
12    1  0.3147868E-008  0.1686357E+04  0.7818608E-02  0.8769184E-01
          1   -1    0    0  501    0  0.00000000000E+00  0.00000000000E+00  0.23394091468E+04  0.23394091468E+04  0.00000000000E+00 0. -1.
         -1   -1    0    0    0  501 -0.00000000000E+00 -0.00000000000E+00 -0.12983091990E+04  0.12983091990E+04  0.00000000000E+00 0.  1.
         23    2    1    2    0    0  0.16172010154E+04  0.23258535065E+03  0.55188934878E+02  0.16373842136E+04  0.92445524102E+02 0.  0.
    5000000    2    1    2    0    0 -0.16172010154E+04 -0.23258535065E+03  0.98591101289E+03  0.20003341323E+04  0.59990086347E+03 0.  0.
         23    2    4    4    0    0 -0.15492992353E+04 -0.89358600076E+02  0.83887316986E+03  0.17664781705E+04  0.91781544265E+02 0.  0.
         23    2    4    4    0    0 -0.67901780052E+02 -0.14322675058E+03  0.14703784302E+03  0.23385596176E+03  0.89128725744E+02 0.  0.
          5    1    3    3  502    0  0.68155780784E+03  0.53282738450E+02  0.13278085524E+02  0.68378248969E+03  0.47000000000E+01 0. -1.
         -5    1    3    3    0  502  0.93564320752E+03  0.17930261220E+03  0.41910849354E+02  0.95360172389E+03  0.47000000000E+01 0.  1.
         13    1    5    5    0    0 -0.76078782065E+03  0.20438936199E+01  0.40855881664E+03  0.86355231006E+03  0.00000000000E+00 0. -1.
        -13    1    5    5    0    0 -0.78851141465E+03 -0.91402493695E+02  0.43031435322E+03  0.90292586046E+03  0.00000000000E+00 0.  1.
          3    1    6    6  503    0  0.51470211583E+01  0.10447056416E+02  0.81224816714E+01  0.14198856400E+02  0.00000000000E+00 0. -1.
         -3    1    6    6    0  503 -0.73048801210E+02 -0.15367380699E+03  0.13891536135E+03  0.21965710536E+03  0.00000000000E+00 0.  1.
<mgrwt>
<rscale>  0 0.16863570E+04</rscale>
<asrwt>0</asrwt>
<pdfrwt beam="1">  1        1 0.35990910E+00 0.16863570E+04</pdfrwt>
<pdfrwt beam="2">  1       -1 0.19973988E+00 0.16863570E+04</pdfrwt>
<totfact> 0.24469744E-01</totfact>
</mgrwt>
</event>
<event>
12    1  0.3147868E-008  0.5704778E+03  0.7818608E-02  0.9968622E-01
         -2   -1    0    0    0  501 -0.00000000000E+00  0.00000000000E+00  0.90098769214E+03  0.90098769214E+03  0.00000000000E+00 0.  1.
          2   -1    0    0  501    0  0.00000000000E+00 -0.00000000000E+00 -0.22008310236E+04  0.22008310236E+04  0.00000000000E+00 0. -1.
         23    2    1    2    0    0  0.38158830791E+03 -0.34054498602E+03 -0.19882876485E+04  0.20550199052E+04  0.90766255678E+02 0.  0.
    5000000    2    1    2    0    0 -0.38158830791E+03  0.34054498602E+03  0.68844431703E+03  0.10467988106E+04  0.60020967003E+03 0.  0.
         23    2    4    4    0    0 -0.32731791375E+02  0.23296841505E+03  0.61256717724E+03  0.66277155788E+03  0.93176921660E+02 0.  0.
         23    2    4    4    0    0 -0.34885651654E+03  0.10757657097E+03  0.75877139790E+02  0.38402725273E+03  0.91902136760E+02 0.  0.
          5    1    3    3  502    0  0.20897895392E+03 -0.20114603800E+03 -0.12944098208E+04  0.13265183021E+04  0.47000000000E+01 0. -1.
         -5    1    3    3    0  502  0.17260935399E+03 -0.13939894802E+03 -0.69387782777E+03  0.72850160306E+03  0.47000000000E+01 0.  1.
         13    1    5    5    0    0 -0.63956072758E+02  0.12243227799E+03  0.34063841737E+03  0.36757934290E+03  0.00000000000E+00 0. -1.
        -13    1    5    5    0    0  0.31224281383E+02  0.11053613706E+03  0.27192875987E+03  0.29519221499E+03  0.00000000000E+00 0.  1.
          3    1    6    6  503    0 -0.31640496962E+03  0.66010621201E+02  0.58241442127E+02  0.32842285623E+03  0.00000000000E+00 0. -1.
         -3    1    6    6    0  503 -0.32451546915E+02  0.41565949773E+02  0.17635697663E+02  0.55604396497E+02  0.00000000000E+00 0.  1.
<mgrwt>
<rscale>  0 0.57047776E+03</rscale>
<asrwt>0</asrwt>
<pdfrwt beam="1">  1        2 0.33858938E+00 0.57047776E+03</pdfrwt>
<pdfrwt beam="2">  1       -2 0.13861349E+00 0.57047776E+03</pdfrwt>
<totfact> 0.20620486E+00</totfact>
</mgrwt>
</event>
<event>
12    1  0.3147868E-008  0.3458048E+03  0.7818608E-02  0.1064350E+00
         -2   -1    0    0    0  501 -0.00000000000E+00  0.00000000000E+00  0.23102882655E+03  0.23102882655E+03  0.00000000000E+00 0.  1.
          2   -1    0    0  501    0  0.00000000000E+00 -0.00000000000E+00 -0.11365186295E+04  0.11365186295E+04  0.00000000000E+00 0. -1.
         23    2    1    2    0    0 -0.52258324580E+02  0.32197089963E+03 -0.25368921125E+03  0.42315808419E+03  0.91150181691E+02 0.  0.
    5000000    2    1    2    0    0  0.52258324580E+02 -0.32197089963E+03 -0.65180059166E+03  0.94438937182E+03  0.60052567108E+03 0.  0.
         23    2    4    4    0    0  0.90032381941E+02 -0.14584350085E+03 -0.71029913118E+03  0.73579461770E+03  0.86560424799E+02 0.  0.
         23    2    4    4    0    0 -0.37774057361E+02 -0.17612739877E+03  0.58498539513E+02  0.20859475413E+03  0.87418260770E+02 0.  0.
          5    1    3    3  502    0 -0.56941584829E+02  0.28666384309E+03 -0.25398399961E+03  0.38723179761E+03  0.47000000000E+01 0. -1.
         -5    1    3    3    0  502  0.46832602484E+01  0.35307056535E+02  0.29478836786E+00  0.35926286587E+02  0.47000000000E+01 0.  1.
         11    1    5    5    0    0  0.20291763842E+01 -0.14476138380E+02 -0.96278935383E+01  0.17503498884E+02  0.00000000000E+00 0.  1.
        -11    1    5    5    0    0  0.88003205557E+02 -0.13136736247E+03 -0.70067123764E+03  0.71829111881E+03  0.00000000000E+00 0. -1.
          1    1    6    6  503    0 -0.17967467755E+02 -0.16844470941E+03  0.71297503430E+02  0.18379277467E+03  0.00000000000E+00 0. -1.
         -1    1    6    6    0  503 -0.19806589607E+02 -0.76826893654E+01 -0.12798963917E+02  0.24801979459E+02  0.00000000000E+00 0.  1.
<mgrwt>
<rscale>  0 0.34580484E+03</rscale>
<asrwt>0</asrwt>
<pdfrwt beam="1">  1        2 0.17484902E+00 0.34580484E+03</pdfrwt>
<pdfrwt beam="2">  1       -2 0.35542897E-01 0.34580484E+03</pdfrwt>
<totfact> 0.16204525E+02</totfact>
</mgrwt>
</event>
<event>
12    1  0.3147868E-008  0.7277421E+03  0.7818608E-02  0.9670931E-01
         -2   -1    0    0    0  501 -0.00000000000E+00  0.00000000000E+00  0.66502180125E+03  0.66502180125E+03  0.00000000000E+00 0. -1.
          2   -1    0    0  501    0  0.00000000000E+00 -0.00000000000E+00 -0.98382340299E+03  0.98382340299E+03  0.00000000000E+00 0.  1.
         23    2    1    2    0    0 -0.59281430567E+03  0.24720049518E+03 -0.40663334156E+03  0.76564969731E+03  0.91279234806E+02 0.  0.
    5000000    2    1    2    0    0  0.59281430567E+03 -0.24720049518E+03  0.87831739818E+02  0.88319550693E+03  0.59981914200E+03 0.  0.
         23    2    4    4    0    0  0.47654050418E+03  0.54731348674E+02 -0.98878095912E+02  0.49836308475E+03  0.92209076250E+02 0.  0.
         23    2    4    4    0    0  0.11627380150E+03 -0.30193184385E+03  0.18670983573E+03  0.38483242218E+03  0.92482404562E+02 0.  0.
          5    1    3    3  502    0 -0.22606185882E+03  0.59367500054E+02 -0.11298853958E+03  0.25964776939E+03  0.47000000000E+01 0. -1.
         -5    1    3    3    0  502 -0.36675244685E+03  0.18783299512E+03 -0.29364480198E+03  0.50600192792E+03  0.47000000000E+01 0.  1.
         13    1    5    5    0    0  0.35443801495E+03  0.47369015282E+02 -0.11349579005E+03  0.37516852801E+03  0.00000000000E+00 0.  1.
        -13    1    5    5    0    0  0.12210248923E+03  0.73623333915E+01  0.14617694141E+02  0.12319455674E+03  0.00000000000E+00 0. -1.
          1    1    6    6  503    0  0.34097888915E+02 -0.29265228041E+02  0.55132604367E+02  0.71124705026E+02  0.00000000000E+00 0. -1.
         -1    1    6    6    0  503  0.82175912581E+02 -0.27266661581E+03  0.13157723136E+03  0.31370771715E+03  0.00000000000E+00 0.  1.
<mgrwt>
<rscale>  0 0.72774212E+03</rscale>
<asrwt>0</asrwt>
<pdfrwt beam="1">  1        2 0.15135745E+00 0.72774212E+03</pdfrwt>
<pdfrwt beam="2">  1       -2 0.10231105E+00 0.72774212E+03</pdfrwt>
<totfact> 0.20560296E+01</totfact>
</mgrwt>
</event>
<event>
12    1  0.3147868E-008  0.9192902E+03  0.7818608E-02  0.9401784E-01
         -2   -1    0    0    0  501 -0.00000000000E+00  0.00000000000E+00  0.46790490012E+03  0.46790490012E+03  0.00000000000E+00 0.  1.
          2   -1    0    0  501    0  0.00000000000E+00 -0.00000000000E+00 -0.21551473945E+04  0.21551473945E+04  0.00000000000E+00 0. -1.
         23    2    1    2    0    0  0.79815400007E+03 -0.39698387259E+03 -0.10218486725E+04  0.13591559271E+04  0.92109292082E+02 0.  0.
    5000000    2    1    2    0    0 -0.79815400007E+03  0.39698387259E+03 -0.66539382187E+03  0.12638963675E+04  0.60003257141E+03 0.  0.
         23    2    4    4    0    0 -0.38863014283E+03  0.51453434217E+02  0.17747838881E+01  0.40357281971E+03  0.95848980894E+02 0.  0.
         23    2    4    4    0    0 -0.40952385724E+03  0.34553043837E+03 -0.66716860576E+03  0.86032354783E+03  0.89115570687E+02 0.  0.
          5    1    3    3  502    0  0.38351561041E+03 -0.24178243440E+03 -0.51195950727E+03  0.68386226398E+03  0.47000000000E+01 0. -1.
         -5    1    3    3    0  502  0.41463838966E+03 -0.15520143819E+03 -0.50988916522E+03  0.67529366308E+03  0.47000000000E+01 0.  1.
         13    1    5    5    0    0  0.58093238356E+01  0.19707438642E+00  0.94340314491E-01  0.58134311586E+01  0.00000000000E+00 0. -1.
        -13    1    5    5    0    0 -0.39443946667E+03  0.51256359830E+02  0.16804435736E+01  0.39775938855E+03  0.00000000000E+00 0.  1.
          3    1    6    6  503    0  0.19866691682E+01  0.16334673552E+01 -0.18473900337E+02  0.18652079338E+02  0.00000000000E+00 0. -1.
         -3    1    6    6    0  503 -0.41151052641E+03  0.34389697102E+03 -0.64869470542E+03  0.84167146849E+03  0.00000000000E+00 0.  1.
<mgrwt>
<rscale>  0 0.91929018E+03</rscale>
<asrwt>0</asrwt>
<pdfrwt beam="1">  1        2 0.33156114E+00 0.91929018E+03</pdfrwt>
<pdfrwt beam="2">  1       -2 0.71985370E-01 0.91929018E+03</pdfrwt>
<totfact> 0.97098377E+00</totfact>
</mgrwt>
</event>
<event>
12    1  0.3147868E-008  0.8925638E+03  0.7818608E-02  0.9434925E-01
          2   -1    0    0  501    0  0.00000000000E+00  0.00000000000E+00  0.71918326483E+03  0.71918326483E+03  0.00000000000E+00 0. -1.
         -2   -1    0    0    0  501 -0.00000000000E+00 -0.00000000000E+00 -0.11505201346E+04  0.11505201346E+04  0.00000000000E+00 0.  1.
         23    2    1    2    0    0  0.80656170623E+03  0.32101009266E+02 -0.16134637764E+03  0.82832864610E+03  0.92322432942E+02 0.  0.
    5000000    2    1    2    0    0 -0.80656170623E+03 -0.32101009266E+02 -0.26999049210E+03  0.10413747533E+04  0.59999520850E+03 0.  0.
         23    2    4    4    0    0  0.70628109159E+02 -0.51765515037E+02 -0.29631415799E+02  0.12707034116E+03  0.87182867869E+02 0.  0.
         23    2    4    4    0    0 -0.87718981539E+03  0.19664505771E+02 -0.24035907630E+03  0.91430441214E+03  0.91276543959E+02 0.  0.
          5    1    3    3  502    0  0.16561732820E+03  0.33266035339E+02 -0.74779650402E+01  0.16915595901E+03  0.47000000000E+01 0. -1.
         -5    1    3    3    0  502  0.64094437804E+03 -0.11650260726E+01 -0.15386841260E+03  0.65917268710E+03  0.47000000000E+01 0.  1.
         13    1    5    5    0    0  0.68570009362E+02 -0.32978011054E+02  0.15935875681E+02  0.77738970476E+02  0.00000000000E+00 0.  1.
        -13    1    5    5    0    0  0.20580997963E+01 -0.18787503984E+02 -0.45567291480E+02  0.49331370684E+02  0.00000000000E+00 0. -1.
          1    1    6    6  503    0 -0.49195217001E+03  0.45698234088E+02 -0.16507284483E+03  0.52091679784E+03  0.00000000000E+00 0. -1.
         -1    1    6    6    0  503 -0.38523764538E+03 -0.26033728317E+02 -0.75286231477E+02  0.39338761430E+03  0.00000000000E+00 0.  1.
<mgrwt>
<rscale>  0 0.89256382E+03</rscale>
<asrwt>0</asrwt>
<pdfrwt beam="1">  1        2 0.11064358E+00 0.89256382E+03</pdfrwt>
<pdfrwt beam="2">  1       -2 0.17700309E+00 0.89256382E+03</pdfrwt>
<totfact> 0.75487768E+00</totfact>
</mgrwt>
</event>
<event>
12    1  0.3147868E-008  0.7506864E+03  0.7818608E-02  0.9634274E-01
          2   -1    0    0  501    0  0.00000000000E+00  0.00000000000E+00  0.20861107518E+04  0.20861107518E+04  0.00000000000E+00 0.  1.
         -2   -1    0    0    0  501 -0.00000000000E+00 -0.00000000000E+00 -0.28356162797E+03  0.28356162797E+03  0.00000000000E+00 0. -1.
         23    2    1    2    0    0  0.10826880640E+03  0.62784422441E+03  0.57992701074E+03  0.86621234084E+03  0.89988760870E+02 0.  0.
    5000000    2    1    2    0    0 -0.10826880640E+03 -0.62784422441E+03  0.12226221131E+04  0.15034600389E+04  0.59973056671E+03 0.  0.
         23    2    4    4    0    0 -0.31864375494E+03 -0.52816987455E+03  0.89809098334E+03  0.10934968632E+04  0.93116681757E+02 0.  0.
         23    2    4    4    0    0  0.21037494854E+03 -0.99674349857E+02  0.32453112974E+03  0.40996317576E+03  0.92502736793E+02 0.  0.
          5    1    3    3  502    0  0.36088184722E+02  0.44900738464E+03  0.40139598101E+03  0.60336623381E+03  0.47000000000E+01 0. -1.
         -5    1    3    3    0  502  0.72180621673E+02  0.17883683977E+03  0.17853102973E+03  0.26284610703E+03  0.47000000000E+01 0.  1.
         13    1    5    5    0    0 -0.88936202250E+02 -0.90037933684E+02  0.14504507097E+03  0.19249558485E+03  0.00000000000E+00 0. -1.
        -13    1    5    5    0    0 -0.22970755269E+03 -0.43813194087E+03  0.75304591237E+03  0.90100127831E+03  0.00000000000E+00 0.  1.
          2    1    6    6  503    0  0.15252065951E+03 -0.50095889976E+02  0.15078754818E+03  0.22024766617E+03  0.00000000000E+00 0. -1.
         -2    1    6    6    0  503  0.57854289037E+02 -0.49578459881E+02  0.17374358156E+03  0.18971550958E+03  0.00000000000E+00 0.  1.
<mgrwt>
<rscale>  0 0.75068644E+03</rscale>
<asrwt>0</asrwt>
<pdfrwt beam="1">  1        2 0.32094011E+00 0.75068644E+03</pdfrwt>
<pdfrwt beam="2">  1       -2 0.43624867E-01 0.75068644E+03</pdfrwt>
<totfact> 0.30820898E+01</totfact>
</mgrwt>
</event>
<event>
12    1  0.3147868E-008  0.5544946E+03  0.7818608E-02  0.1000459E+00
         -1   -1    0    0    0  501 -0.00000000000E+00  0.00000000000E+00  0.76440444382E+03  0.76440444382E+03  0.00000000000E+00 0.  1.
          1   -1    0    0  501    0  0.00000000000E+00 -0.00000000000E+00 -0.48582242502E+03  0.48582242502E+03  0.00000000000E+00 0. -1.
         23    2    1    2    0    0  0.24795569685E+03 -0.38163460270E+03  0.13484845351E+03  0.48351174169E+03  0.92046191424E+02 0.  0.
    5000000    2    1    2    0    0 -0.24795569685E+03  0.38163460270E+03  0.14373356529E+03  0.76671512715E+03  0.60005478986E+03 0.  0.
         23    2    4    4    0    0  0.10302851756E+03 -0.30794613904E+02  0.16747452949E+03  0.21843202699E+03  0.90009159021E+02 0.  0.
         23    2    4    4    0    0 -0.35098421441E+03  0.41242921660E+03 -0.23740964209E+02  0.54828310016E+03  0.82237139243E+02 0.  0.
          5    1    3    3  502    0  0.18461531631E+03 -0.25526720334E+03  0.51209075407E+02  0.31919996792E+03  0.47000000000E+01 0. -1.
         -5    1    3    3    0  502  0.63340380545E+02 -0.12636739936E+03  0.83639378107E+02  0.16431177377E+03  0.47000000000E+01 0.  1.
         11    1    5    5    0    0  0.49887946731E+02 -0.24367393878E+02  0.16003851961E+02  0.57781488308E+02  0.00000000000E+00 0.  1.
        -11    1    5    5    0    0  0.53140570831E+02 -0.64272200254E+01  0.15147067753E+03  0.16065053868E+03  0.00000000000E+00 0. -1.
          1    1    6    6  503    0 -0.93395846136E+02  0.14206597077E+03  0.24426483259E+02  0.17176197836E+03  0.00000000000E+00 0. -1.
         -1    1    6    6    0  503 -0.25758836828E+03  0.27036324583E+03 -0.48167447468E+02  0.37652112180E+03  0.00000000000E+00 0.  1.
<mgrwt>
<rscale>  0 0.55449463E+03</rscale>
<asrwt>0</asrwt>
<pdfrwt beam="1">  1        1 0.74741911E-01 0.55449463E+03</pdfrwt>
<pdfrwt beam="2">  1       -1 0.11760068E+00 0.55449463E+03</pdfrwt>
<totfact> 0.31376875E+01</totfact>
</mgrwt>
</event>
<event>
12    1  0.3147868E-008  0.2197178E+04  0.7818608E-02  0.8519603E-01
         -2   -1    0    0    0  501 -0.00000000000E+00  0.00000000000E+00  0.24034021751E+04  0.24034021751E+04  0.00000000000E+00 0.  1.
          2   -1    0    0  501    0  0.00000000000E+00 -0.00000000000E+00 -0.20337281863E+04  0.20337281863E+04  0.00000000000E+00 0. -1.
         23    2    1    2    0    0  0.12058657061E+04  0.18028166107E+04  0.16913679497E+03  0.21773877088E+04  0.90278161000E+02 0.  0.
    5000000    2    1    2    0    0 -0.12058657061E+04 -0.18028166107E+04  0.20053719378E+03  0.22597426525E+04  0.60163265930E+03 0.  0.
         23    2    4    4    0    0 -0.62708226149E+03 -0.52969232698E+03  0.23285488082E+03  0.85804062479E+03  0.90588047395E+02 0.  0.
         23    2    4    4    0    0 -0.57878344460E+03 -0.12731242837E+04 -0.32317687036E+02  0.14017020277E+04  0.88816801384E+02 0.  0.
          5    1    3    3  502    0  0.61910436466E+03  0.97918310712E+03  0.56761558216E+02  0.11598852254E+04  0.47000000000E+01 0. -1.
         -5    1    3    3    0  502  0.58676134143E+03  0.82363350356E+03  0.11237523676E+03  0.10175024835E+04  0.47000000000E+01 0.  1.
         13    1    5    5    0    0 -0.55790808730E+03 -0.43478578623E+03  0.18412424478E+03  0.73089113506E+03  0.00000000000E+00 0.  1.
        -13    1    5    5    0    0 -0.69174174191E+02 -0.94906540747E+02  0.48730636032E+02  0.12714948973E+03  0.00000000000E+00 0. -1.
          1    1    6    6  503    0 -0.46054383028E+01 -0.31865081357E+02 -0.10620041926E+02  0.33902489029E+02  0.00000000000E+00 0. -1.
         -1    1    6    6    0  503 -0.57417800630E+03 -0.12412592023E+04 -0.21697645110E+02  0.13677995387E+04  0.00000000000E+00 0.  1.
<mgrwt>
<rscale>  0 0.21971784E+04</rscale>
<asrwt>0</asrwt>
<pdfrwt beam="1">  1        2 0.31288126E+00 0.21971784E+04</pdfrwt>
<pdfrwt beam="2">  1       -2 0.36975418E+00 0.21971784E+04</pdfrwt>
<totfact> 0.64938563E-02</totfact>
</mgrwt>
</event>
<event>
12    1  0.3147868E-008  0.1097461E+04  0.7818608E-02  0.9207670E-01
         -1   -1    0    0    0  501 -0.00000000000E+00  0.00000000000E+00  0.17727940926E+04  0.17727940926E+04  0.00000000000E+00 0.  1.
          1   -1    0    0  501    0  0.00000000000E+00 -0.00000000000E+00 -0.68859918379E+03  0.68859918379E+03  0.00000000000E+00 0. -1.
         23    2    1    2    0    0  0.69731707829E+03 -0.74394040239E+03  0.56018280952E+03  0.11674146448E+04  0.96714749926E+02 0.  0.
    5000000    2    1    2    0    0 -0.69731707829E+03  0.74394040239E+03  0.52401209929E+03  0.12939786316E+04  0.60007798560E+03 0.  0.
         23    2    4    4    0    0 -0.33709946736E+03  0.56533051571E+01  0.90696329440E+02  0.36083298181E+03  0.91140582817E+02 0.  0.
         23    2    4    4    0    0 -0.36021761093E+03  0.73828709723E+03  0.43331576985E+03  0.93314564977E+03  0.90408418388E+02 0.  0.
          5    1    3    3  502    0  0.29967155349E+03 -0.26145491412E+03  0.18972422290E+03  0.44065755734E+03  0.47000000000E+01 0. -1.
         -5    1    3    3    0  502  0.39764552481E+03 -0.48248548827E+03  0.37045858662E+03  0.72675708747E+03  0.47000000000E+01 0.  1.
         11    1    5    5    0    0 -0.21723249895E+03 -0.33371460533E+02  0.81619882320E+02  0.23444704768E+03  0.00000000000E+00 0. -1.
        -11    1    5    5    0    0 -0.11986696841E+03  0.39024765690E+02  0.90764471194E+01  0.12638593413E+03  0.00000000000E+00 0.  1.
          3    1    6    6  503    0 -0.79188631210E+02  0.25543665197E+03  0.15264621605E+03  0.30792789701E+03  0.00000000000E+00 0. -1.
         -3    1    6    6    0  503 -0.28102897972E+03  0.48285044526E+03  0.28066955380E+03  0.62521775276E+03  0.00000000000E+00 0.  1.
<mgrwt>
<rscale>  0 0.10974606E+04</rscale>
<asrwt>0</asrwt>
<pdfrwt beam="1">  1        1 0.10593834E+00 0.10974606E+04</pdfrwt>
<pdfrwt beam="2">  1       -1 0.27273755E+00 0.10974606E+04</pdfrwt>
<totfact> 0.13827721E+00</totfact>
</mgrwt>
</event>
<event>
12    1  0.3147868E-008  0.2072068E+04  0.7818608E-02  0.8573649E-01
         -1   -1    0    0    0  501 -0.00000000000E+00  0.00000000000E+00  0.11250472237E+04  0.11250472237E+04  0.00000000000E+00 0. -1.
          1   -1    0    0  501    0  0.00000000000E+00 -0.00000000000E+00 -0.41725006885E+04  0.41725006885E+04  0.00000000000E+00 0.  1.
         23    2    1    2    0    0  0.55228541228E+03  0.19826821839E+04 -0.21384234197E+04  0.29689481733E+04  0.75833469183E+02 0.  0.
    5000000    2    1    2    0    0 -0.55228541228E+03 -0.19826821839E+04 -0.90903004506E+03  0.23285997389E+04  0.59999441848E+03 0.  0.
         23    2    4    4    0    0 -0.58218874343E+03 -0.19543667594E+04 -0.89823749394E+03  0.22303043092E+04  0.94517475865E+02 0.  0.
         23    2    4    4    0    0  0.29903331146E+02 -0.28315424539E+02 -0.10792551121E+02  0.98295429657E+02  0.88597628926E+02 0.  0.
          5    1    3    3  502    0  0.37600150231E+03  0.13463323296E+04 -0.14012760691E+04  0.19792889085E+04  0.47000000000E+01 0. -1.
         -5    1    3    3    0  502  0.17628390997E+03  0.63634985428E+03 -0.73714735058E+03  0.98965926481E+03  0.47000000000E+01 0.  1.
         13    1    5    5    0    0 -0.16082988593E+03 -0.69026418209E+03 -0.32663166897E+03  0.78039678399E+03  0.00000000000E+00 0. -1.
        -13    1    5    5    0    0 -0.42135885749E+03 -0.12641025773E+04 -0.57160582497E+03  0.14499075252E+04  0.00000000000E+00 0.  1.
          2    1    6    6  503    0  0.16955060042E+02 -0.44001759727E+01 -0.48635668998E+02  0.51693944602E+02  0.00000000000E+00 0. -1.
         -2    1    6    6    0  503  0.12948271104E+02 -0.23915248566E+02  0.37843117878E+02  0.46601485055E+02  0.00000000000E+00 0.  1.
<mgrwt>
<rscale>  0 0.20720677E+04</rscale>
<asrwt>0</asrwt>
<pdfrwt beam="1">  1        1 0.64192317E+00 0.20720677E+04</pdfrwt>
<pdfrwt beam="2">  1       -1 0.17308419E+00 0.20720677E+04</pdfrwt>
<totfact> 0.13996923E-02</totfact>
</mgrwt>
</event>
<event>
12    1  0.3147868E-008  0.1824271E+04  0.7818608E-02  0.8693498E-01
         -2   -1    0    0    0  501 -0.00000000000E+00  0.00000000000E+00  0.32148472715E+04  0.32148472715E+04  0.00000000000E+00 0.  1.
          2   -1    0    0  501    0  0.00000000000E+00 -0.00000000000E+00 -0.10753128025E+04  0.10753128025E+04  0.00000000000E+00 0. -1.
         23    2    1    2    0    0 -0.89656901565E+01  0.17756125625E+04  0.14461054909E+04  0.22917629149E+04  0.89865520034E+02 0.  0.
    5000000    2    1    2    0    0  0.89656901565E+01 -0.17756125625E+04  0.69342897807E+03  0.19983971590E+04  0.59988924123E+03 0.  0.
         23    2    4    4    0    0  0.20537689195E+03 -0.15210400074E+04  0.53979502941E+03  0.16295202135E+04  0.90637081305E+02 0.  0.
         23    2    4    4    0    0 -0.19641120180E+03 -0.25457255507E+03  0.15363394866E+03  0.36887694548E+03  0.95300916799E+02 0.  0.
          5    1    3    3  502    0  0.15468805286E+01  0.13008138010E+04  0.10086791168E+04  0.16460785487E+04  0.47000000000E+01 0. -1.
         -5    1    3    3    0  502 -0.10512570685E+02  0.47479876147E+03  0.43742637413E+03  0.64568436625E+03  0.47000000000E+01 0.  1.
         11    1    5    5    0    0  0.96126359711E+02 -0.41179102662E+03  0.14330299297E+03  0.44648390165E+03  0.00000000000E+00 0. -1.
        -11    1    5    5    0    0  0.10925053224E+03 -0.11092489808E+04  0.39649203643E+03  0.11830363119E+04  0.00000000000E+00 0.  1.
          1    1    6    6  503    0 -0.71652451354E+02 -0.28544936856E+02  0.38262392890E+02  0.86098187639E+02  0.00000000000E+00 0. -1.
         -1    1    6    6    0  503 -0.12475875044E+03 -0.22602761821E+03  0.11537155577E+03  0.28277875784E+03  0.00000000000E+00 0.  1.
<mgrwt>
<rscale>  0 0.18242707E+04</rscale>
<asrwt>0</asrwt>
<pdfrwt beam="1">  1        2 0.16543274E+00 0.18242707E+04</pdfrwt>
<pdfrwt beam="2">  1       -2 0.49459188E+00 0.18242707E+04</pdfrwt>
<totfact> 0.36568815E-02</totfact>
</mgrwt>
</event>
<event>
12    1  0.3147868E-008  0.1065984E+04  0.7818608E-02  0.9238995E-01
         -1   -1    0    0    0  501 -0.00000000000E+00  0.00000000000E+00  0.10173093902E+04  0.10173093902E+04  0.00000000000E+00 0.  1.
          1   -1    0    0  501    0  0.00000000000E+00 -0.00000000000E+00 -0.18009938280E+04  0.18009938280E+04  0.00000000000E+00 0. -1.
         23    2    1    2    0    0 -0.59866533885E+03 -0.85286702847E+03  0.40856644835E+03  0.11250127190E+04  0.11377486077E+03 0.  0.
    5000000    2    1    2    0    0  0.59866533885E+03  0.85286702847E+03 -0.11922508862E+04  0.16932904992E+04  0.59999015243E+03 0.  0.
         23    2    4    4    0    0  0.18540205189E+03  0.49009645414E+03 -0.22673209962E+03  0.57843975802E+03  0.92825930915E+02 0.  0.
         23    2    4    4    0    0  0.41326328696E+03  0.36277057432E+03 -0.96551878658E+03  0.11148507412E+04  0.90975898086E+02 0.  0.
          5    1    3    3  502    0 -0.38339991257E+03 -0.44853576207E+03  0.23401102538E+03  0.63479372462E+03  0.47000000000E+01 0. -1.
         -5    1    3    3    0  502 -0.21526542628E+03 -0.40433126639E+03  0.17455542297E+03  0.49021899435E+03  0.47000000000E+01 0.  1.
         13    1    5    5    0    0  0.56549349559E+00  0.57451028058E+02 -0.49006133449E+02  0.75515174127E+02  0.00000000000E+00 0.  1.
        -13    1    5    5    0    0  0.18483655840E+03  0.43264542609E+03 -0.17772596617E+03  0.50292458390E+03  0.00000000000E+00 0. -1.
          1    1    6    6  503    0  0.41657544808E+03  0.35464830519E+03 -0.93712666405E+03  0.10851345118E+04  0.00000000000E+00 0. -1.
         -1    1    6    6    0  503 -0.33121611186E+01  0.81222691282E+01 -0.28392122529E+02  0.29716229383E+02  0.00000000000E+00 0.  1.
<mgrwt>
<rscale>  0 0.10659840E+04</rscale>
<asrwt>0</asrwt>
<pdfrwt beam="1">  1        1 0.27707597E+00 0.10659840E+04</pdfrwt>
<pdfrwt beam="2">  1       -1 0.15650914E+00 0.10659840E+04</pdfrwt>
<totfact> 0.12626601E+00</totfact>
</mgrwt>
</event>
<event>
12    1  0.3147868E-008  0.1023561E+04  0.7818608E-02  0.9283074E-01
          1   -1    0    0  501    0  0.00000000000E+00  0.00000000000E+00  0.94941163794E+03  0.94941163794E+03  0.00000000000E+00 0. -1.
         -1   -1    0    0    0  501 -0.00000000000E+00 -0.00000000000E+00 -0.11705657553E+04  0.11705657553E+04  0.00000000000E+00 0.  1.
         23    2    1    2    0    0  0.86147072806E+02 -0.96276594862E+03 -0.10790295810E+03  0.97703249252E+03  0.92789294064E+02 0.  0.
    5000000    2    1    2    0    0 -0.86147072806E+02  0.96276594862E+03 -0.11325115923E+03  0.11429449007E+04  0.59929761471E+03 0.  0.
         23    2    4    4    0    0 -0.18152402313E+03  0.10478433910E+03 -0.15033824121E+03  0.27404888583E+03  0.92576867317E+02 0.  0.
         23    2    4    4    0    0  0.95376950320E+02  0.85798160952E+03  0.37087081984E+02  0.86889601487E+03  0.91518457584E+02 0.  0.
          5    1    3    3  502    0  0.55898553355E+02 -0.82747970108E+03 -0.11904720593E+03  0.83787924619E+03  0.47000000000E+01 0. -1.
         -5    1    3    3    0  502  0.30248519452E+02 -0.13528624754E+03  0.11144247823E+02  0.13915324632E+03  0.47000000000E+01 0.  1.
         13    1    5    5    0    0 -0.60012469066E+02  0.83484941589E+01 -0.38927190077E+01  0.60715295102E+02  0.00000000000E+00 0.  1.
        -13    1    5    5    0    0 -0.12151155406E+03  0.96435844941E+02 -0.14644552220E+03  0.21333359073E+03  0.00000000000E+00 0. -1.
          1    1    6    6  503    0  0.61384034896E+02  0.51023206860E+03 -0.22692843294E+02  0.51441202232E+03  0.00000000000E+00 0. -1.
         -1    1    6    6    0  503  0.33992915423E+02  0.34774954091E+03  0.59779925278E+02  0.35448399254E+03  0.00000000000E+00 0.  1.
<mgrwt>
<rscale>  0 0.10235613E+04</rscale>
<asrwt>0</asrwt>
<pdfrwt beam="1">  1        1 0.14606333E+00 0.10235613E+04</pdfrwt>
<pdfrwt beam="2">  1       -1 0.18008704E+00 0.10235613E+04</pdfrwt>
<totfact> 0.34496048E+00</totfact>
</mgrwt>
</event>
<event>
12    1  0.3147868E-008  0.8271620E+03  0.7818608E-02  0.9521513E-01
         -2   -1    0    0    0  501 -0.00000000000E+00  0.00000000000E+00  0.31124896559E+03  0.31124896559E+03  0.00000000000E+00 0.  1.
          2   -1    0    0  501    0  0.00000000000E+00 -0.00000000000E+00 -0.27437670681E+04  0.27437670681E+04  0.00000000000E+00 0. -1.
         23    2    1    2    0    0  0.18260575849E+03  0.77046029016E+03 -0.14678352079E+04  0.16701660277E+04  0.89221303582E+02 0.  0.
    5000000    2    1    2    0    0 -0.18260575849E+03 -0.77046029016E+03 -0.96468289461E+03  0.13848500059E+04  0.60020207429E+03 0.  0.
         23    2    4    4    0    0 -0.20532523655E+02 -0.62498492678E+03 -0.34233824237E+03  0.71919113469E+03  0.94935097832E+02 0.  0.
         23    2    4    4    0    0 -0.16207323484E+03 -0.14547536337E+03 -0.62234465224E+03  0.66565887122E+03  0.91422381615E+02 0.  0.
          5    1    3    3  502    0  0.15249216981E+03  0.49643379626E+03 -0.90514677711E+03  0.10435579304E+04  0.47000000000E+01 0. -1.
         -5    1    3    3    0  502  0.30113588677E+02  0.27402649390E+03 -0.56268843076E+03  0.62660809737E+03  0.47000000000E+01 0.  1.
         11    1    5    5    0    0  0.31163172208E+02 -0.31383781740E+03 -0.14486086588E+03  0.34705905750E+03  0.00000000000E+00 0.  1.
        -11    1    5    5    0    0 -0.51695695863E+02 -0.31114710939E+03 -0.19747737649E+03  0.37213207719E+03  0.00000000000E+00 0. -1.
          3    1    6    6  503    0 -0.11625678282E+03 -0.58464556756E+02 -0.26800069353E+03  0.29792300294E+03  0.00000000000E+00 0. -1.
         -3    1    6    6    0  503 -0.45816452017E+02 -0.87010806618E+02 -0.35434395871E+03  0.36773586828E+03  0.00000000000E+00 0.  1.
<mgrwt>
<rscale>  0 0.82716198E+03</rscale>
<asrwt>0</asrwt>
<pdfrwt beam="1">  1        2 0.42211802E+00 0.82716198E+03</pdfrwt>
<pdfrwt beam="2">  1       -2 0.47884456E-01 0.82716198E+03</pdfrwt>
<totfact> 0.10765442E+01</totfact>
</mgrwt>
</event>
<event>
12    1  0.3147868E-008  0.6002952E+03  0.7818608E-02  0.9904794E-01
         -2   -1    0    0    0  501 -0.00000000000E+00  0.00000000000E+00  0.51919316116E+03  0.51919316116E+03  0.00000000000E+00 0.  1.
          2   -1    0    0  501    0  0.00000000000E+00 -0.00000000000E+00 -0.26920824754E+04  0.26920824754E+04  0.00000000000E+00 0. -1.
         23    2    1    2    0    0  0.24822306926E+03  0.38209854626E+03  0.34791970443E+03  0.58028565478E+03  0.89829445318E+02 0.  0.
    5000000    2    1    2    0    0 -0.24822306926E+03 -0.38209854626E+03 -0.25208090187E+04  0.26309899818E+04  0.60001348692E+03 0.  0.
         23    2    4    4    0    0 -0.38198091355E+03 -0.42978814644E+03 -0.20458175522E+04  0.21270701128E+04  0.91817964302E+02 0.  0.
         23    2    4    4    0    0  0.13375784429E+03  0.47689600183E+02 -0.47499146647E+03  0.50391986903E+03  0.90293312623E+02 0.  0.
          5    1    3    3  502    0  0.14612544519E+03  0.17977269920E+03  0.22240271015E+03  0.32117896038E+03  0.47000000000E+01 0. -1.
         -5    1    3    3    0  502  0.10209762407E+03  0.20232584706E+03  0.12551699428E+03  0.25910669440E+03  0.47000000000E+01 0.  1.
         11    1    5    5    0    0 -0.13504696422E+02 -0.11881713912E+02 -0.15010087037E+03  0.15117481020E+03  0.00000000000E+00 0. -1.
        -11    1    5    5    0    0 -0.36847621713E+03 -0.41790643253E+03 -0.18957166819E+04  0.19758953026E+04  0.00000000000E+00 0.  1.
          1    1    6    6  503    0  0.28114435410E+02 -0.25965819003E+02 -0.13625943337E+03  0.14153189893E+03  0.00000000000E+00 0. -1.
         -1    1    6    6    0  503  0.10564340888E+03  0.73655419186E+02 -0.33873203310E+03  0.36238797009E+03  0.00000000000E+00 0.  1.
<mgrwt>
<rscale>  0 0.60029516E+03</rscale>
<asrwt>0</asrwt>
<pdfrwt beam="1">  1        2 0.41416653E+00 0.60029516E+03</pdfrwt>
<pdfrwt beam="2">  1       -2 0.79875871E-01 0.60029516E+03</pdfrwt>
<totfact> 0.40601080E+00</totfact>
</mgrwt>
</event>
<event>
12    1  0.3147868E-008  0.7877403E+03  0.7818608E-02  0.9577934E-01
         -1   -1    0    0    0  501 -0.00000000000E+00  0.00000000000E+00  0.65857574644E+03  0.65857574644E+03  0.00000000000E+00 0.  1.
          1   -1    0    0  501    0  0.00000000000E+00 -0.00000000000E+00 -0.14514327350E+04  0.14514327350E+04  0.00000000000E+00 0. -1.
         23    2    1    2    0    0 -0.69077190700E+03  0.64336574957E+02 -0.94886388578E+03  0.11789086619E+04  0.90431946381E+02 0.  0.
    5000000    2    1    2    0    0  0.69077190700E+03 -0.64336574957E+02  0.15600689727E+03  0.93109981952E+03  0.60108543446E+03 0.  0.
         23    2    4    4    0    0  0.41988100688E+03  0.22303813827E+03 -0.28525651403E+02  0.48549365117E+03  0.94044146402E+02 0.  0.
         23    2    4    4    0    0  0.27089090013E+03 -0.28737471323E+03  0.18453254867E+03  0.44560616835E+03  0.92447229153E+02 0.  0.
          5    1    3    3  502    0 -0.31105666312E+03  0.12237190873E+02 -0.49592362507E+03  0.58554959518E+03  0.47000000000E+01 0. -1.
         -5    1    3    3    0  502 -0.37971524388E+03  0.52099384084E+02 -0.45294026071E+03  0.59335906670E+03  0.47000000000E+01 0.  1.
         13    1    5    5    0    0  0.25569462642E+03  0.18251386617E+03 -0.98883619451E+00  0.31415287859E+03  0.00000000000E+00 0.  1.
        -13    1    5    5    0    0  0.16418638045E+03  0.40524272101E+02 -0.27536815208E+02  0.17134077258E+03  0.00000000000E+00 0. -1.
          3    1    6    6  503    0  0.97851267578E+02 -0.72989912758E+02  0.17242158836E+02  0.12328702273E+03  0.00000000000E+00 0. -1.
         -3    1    6    6    0  503  0.17303963255E+03 -0.21438480047E+03  0.16729038983E+03  0.32231914563E+03  0.00000000000E+00 0.  1.
<mgrwt>
<rscale>  0 0.78774028E+03</rscale>
<asrwt>0</asrwt>
<pdfrwt beam="1">  1        1 0.22329734E+00 0.78774028E+03</pdfrwt>
<pdfrwt beam="2">  1       -1 0.10131935E+00 0.78774028E+03</pdfrwt>
<totfact> 0.67600231E+00</totfact>
</mgrwt>
</event>
<event>
12    1  0.3147868E-008  0.5529669E+03  0.7818608E-02  0.1000810E+00
          1   -1    0    0  501    0  0.00000000000E+00  0.00000000000E+00  0.14545680949E+04  0.14545680949E+04  0.00000000000E+00 0. -1.
         -1   -1    0    0    0  501 -0.00000000000E+00 -0.00000000000E+00 -0.27527774510E+03  0.27527774510E+03  0.00000000000E+00 0.  1.
         23    2    1    2    0    0 -0.21036916364E+03  0.43736048447E+03  0.44214803326E+03  0.66265496724E+03  0.89874044607E+02 0.  0.
    5000000    2    1    2    0    0  0.21036916364E+03 -0.43736048447E+03  0.73714231650E+03  0.10671908727E+04  0.59998182110E+03 0.  0.
         23    2    4    4    0    0 -0.11297310944E+03 -0.79931747094E+02  0.49060261973E+03  0.51802867487E+03  0.92253833800E+02 0.  0.
         23    2    4    4    0    0  0.32334227308E+03 -0.35742873738E+03  0.24653969677E+03  0.54916219785E+03  0.92150798133E+02 0.  0.
          5    1    3    3  502    0 -0.16492554064E+03  0.34746411694E+03  0.39498314413E+03  0.55133068178E+03  0.47000000000E+01 0. -1.
         -5    1    3    3    0  502 -0.45443623000E+02  0.89896367530E+02  0.47164889131E+02  0.11132428546E+03  0.47000000000E+01 0.  1.
         13    1    5    5    0    0 -0.84726674907E+02 -0.58387372474E+02  0.19670907514E+03  0.22199584444E+03  0.00000000000E+00 0. -1.
        -13    1    5    5    0    0 -0.28246434535E+02 -0.21544374619E+02  0.29389354459E+03  0.29603283043E+03  0.00000000000E+00 0.  1.
          3    1    6    6  503    0  0.14070430575E+03 -0.16038530914E+03  0.16072670928E+03  0.26712211462E+03  0.00000000000E+00 0. -1.
         -3    1    6    6    0  503  0.18263796733E+03 -0.19704342824E+03  0.85812987483E+02  0.28204008322E+03  0.00000000000E+00 0.  1.
<mgrwt>
<rscale>  0 0.55296689E+03</rscale>
<asrwt>0</asrwt>
<pdfrwt beam="1">  1        1 0.22377970E+00 0.55296689E+03</pdfrwt>
<pdfrwt beam="2">  1       -1 0.42350423E-01 0.55296689E+03</pdfrwt>
<totfact> 0.40760105E+01</totfact>
</mgrwt>
</event>
<event>
12    1  0.3147868E-008  0.6751716E+03  0.7818608E-02  0.9760660E-01
         -1   -1    0    0    0  501 -0.00000000000E+00  0.00000000000E+00  0.39947578590E+03  0.39947578590E+03  0.00000000000E+00 0.  1.
          1   -1    0    0  501    0  0.00000000000E+00 -0.00000000000E+00 -0.11880373130E+04  0.11880373130E+04  0.00000000000E+00 0. -1.
         23    2    1    2    0    0 -0.23978043845E+03  0.49641775213E+03 -0.25882409478E+03  0.61559546934E+03  0.89680692107E+02 0.  0.
    5000000    2    1    2    0    0  0.23978043845E+03 -0.49641775213E+03 -0.52973743228E+03  0.97191762953E+03  0.60006407002E+03 0.  0.
         23    2    4    4    0    0  0.52650030241E+02 -0.57304114886E+03 -0.30957419335E+03  0.65939621479E+03  0.88425126093E+02 0.  0.
         23    2    4    4    0    0  0.18713040821E+03  0.76623396730E+02 -0.22016323894E+03  0.31252141474E+03  0.91152884144E+02 0.  0.
          5    1    3    3  502    0 -0.43937905552E+02  0.17857147039E+03 -0.10472346061E+03  0.21167759159E+03  0.47000000000E+01 0. -1.
         -5    1    3    3    0  502 -0.19584253290E+03  0.31784628174E+03 -0.15410063417E+03  0.40391787774E+03  0.47000000000E+01 0.  1.
         11    1    5    5    0    0 -0.39626393600E+00 -0.33968780960E+03 -0.21540520393E+03  0.40222800362E+03  0.00000000000E+00 0. -1.
        -11    1    5    5    0    0  0.53046294177E+02 -0.23335333926E+03 -0.94168989416E+02  0.25716821117E+03  0.00000000000E+00 0.  1.
          3    1    6    6  503    0  0.14943824751E+03  0.27241096300E+02 -0.19059075259E+03  0.24371848949E+03  0.00000000000E+00 0.  1.
         -3    1    6    6    0  503  0.37692160706E+02  0.49382300430E+02 -0.29572486345E+02  0.68802925251E+02  0.00000000000E+00 0. -1.
<mgrwt>
<rscale>  0 0.67517158E+03</rscale>
<asrwt>0</asrwt>
<pdfrwt beam="1">  1        1 0.18277497E+00 0.67517158E+03</pdfrwt>
<pdfrwt beam="2">  1       -1 0.61457814E-01 0.67517158E+03</pdfrwt>
<totfact> 0.30395410E+01</totfact>
</mgrwt>
</event>
<event>
12    1  0.3147868E-008  0.9005333E+03  0.7818608E-02  0.9424915E-01
          2   -1    0    0  501    0  0.00000000000E+00  0.00000000000E+00  0.22855643773E+04  0.22855643773E+04  0.00000000000E+00 0. -1.
         -2   -1    0    0    0  501 -0.00000000000E+00 -0.00000000000E+00 -0.40346317537E+03  0.40346317537E+03  0.00000000000E+00 0.  1.
         23    2    1    2    0    0 -0.32072130149E+03  0.80228357818E+03  0.83159371158E+03  0.12023259013E+04  0.86708585063E+02 0.  0.
    5000000    2    1    2    0    0  0.32072130149E+03 -0.80228357818E+03  0.10505074903E+04  0.14867016514E+04  0.60016224463E+03 0.  0.
         23    2    4    4    0    0 -0.46303740088E+02 -0.31835342597E+03  0.90359444974E+02  0.34651411273E+03  0.91729280233E+02 0.  0.
         23    2    4    4    0    0  0.36702504158E+03 -0.48393015221E+03  0.96014804535E+03  0.11401875386E+04  0.96164343117E+02 0.  0.
          5    1    3    3  502    0 -0.23977047517E+03  0.52511974526E+03  0.51248620578E+03  0.77194872158E+03  0.47000000000E+01 0. -1.
         -5    1    3    3    0  502 -0.80950826320E+02  0.27716383292E+03  0.31910750580E+03  0.43037717972E+03  0.47000000000E+01 0.  1.
         11    1    5    5    0    0 -0.95261178952E+01 -0.48655220840E+02  0.51626664153E+02  0.71577858928E+02  0.00000000000E+00 0.  1.
        -11    1    5    5    0    0 -0.36777622192E+02 -0.26969820513E+03  0.38732780821E+02  0.27493625380E+03  0.00000000000E+00 0. -1.
          2    1    6    6  503    0  0.16557715524E+03 -0.15100289455E+03  0.31064986540E+03  0.38304178281E+03  0.00000000000E+00 0. -1.
         -2    1    6    6    0  503  0.20144788634E+03 -0.33292725766E+03  0.64949817994E+03  0.75714575582E+03  0.00000000000E+00 0.  1.
<mgrwt>
<rscale>  0 0.90053335E+03</rscale>
<asrwt>0</asrwt>
<pdfrwt beam="1">  1        2 0.35162528E+00 0.90053335E+03</pdfrwt>
<pdfrwt beam="2">  1       -2 0.62071259E-01 0.90053335E+03</pdfrwt>
<totfact> 0.11357529E+01</totfact>
</mgrwt>
</event>
<event>
12    1  0.3147868E-008  0.7020919E+03  0.7818608E-02  0.9713661E-01
          1   -1    0    0  501    0  0.00000000000E+00  0.00000000000E+00  0.94962596525E+03  0.94962596525E+03  0.00000000000E+00 0. -1.
         -1   -1    0    0    0  501 -0.00000000000E+00 -0.00000000000E+00 -0.59129685756E+03  0.59129685756E+03  0.00000000000E+00 0.  1.
         23    2    1    2    0    0  0.23235373360E+03  0.52818572140E+03 -0.96390101871E+02  0.59238465536E+03  0.93059735455E+02 0.  0.
    5000000    2    1    2    0    0 -0.23235373360E+03 -0.52818572140E+03  0.45471920957E+03  0.94853816745E+03  0.59998890136E+03 0.  0.
         23    2    4    4    0    0 -0.12008442658E+02 -0.58043942685E+03  0.34275080322E+03  0.67992575241E+03  0.88129363648E+02 0.  0.
         23    2    4    4    0    0 -0.22034529094E+03  0.52253705459E+02  0.11196840635E+03  0.26861241504E+03  0.91286409290E+02 0.  0.
          5    1    3    3  502    0  0.90670872015E+02  0.31748685933E+03 -0.64302038191E+02  0.33641634175E+03  0.47000000000E+01 0. -1.
         -5    1    3    3    0  502  0.14168286158E+03  0.21069886206E+03 -0.32088063680E+02  0.25596831361E+03  0.47000000000E+01 0.  1.
         13    1    5    5    0    0 -0.46616880937E+02 -0.21129914947E+03  0.13157225334E+03  0.25324241747E+03  0.00000000000E+00 0.  1.
        -13    1    5    5    0    0  0.34608438279E+02 -0.36914027738E+03  0.21117854987E+03  0.42668333494E+03  0.00000000000E+00 0. -1.
          1    1    6    6  503    0 -0.29861717516E+02  0.27864047522E+02 -0.87676313556E+01  0.41773181312E+02  0.00000000000E+00 0. -1.
         -1    1    6    6    0  503 -0.19048357342E+03  0.24389657937E+02  0.12073603771E+03  0.22683923373E+03  0.00000000000E+00 0.  1.
<mgrwt>
<rscale>  0 0.70209188E+03</rscale>
<asrwt>0</asrwt>
<pdfrwt beam="1">  1        1 0.14609630E+00 0.70209188E+03</pdfrwt>
<pdfrwt beam="2">  1       -1 0.90968747E-01 0.70209188E+03</pdfrwt>
<totfact> 0.20245825E+01</totfact>
</mgrwt>
</event>
<event>
12    1  0.3147868E-008  0.3490909E+03  0.7818608E-02  0.1062989E+00
          2   -1    0    0  501    0  0.00000000000E+00  0.00000000000E+00  0.16157739065E+04  0.16157739065E+04  0.00000000000E+00 0. -1.
         -2   -1    0    0    0  501 -0.00000000000E+00 -0.00000000000E+00 -0.41233638579E+03  0.41233638579E+03  0.00000000000E+00 0.  1.
         23    2    1    2    0    0 -0.25464642439E+03  0.74377212300E+02  0.13306554337E+04  0.13599159717E+04  0.91382687890E+02 0.  0.
    5000000    2    1    2    0    0  0.25464642439E+03 -0.74377212300E+02 -0.12721791295E+03  0.66819432065E+03  0.59993539786E+03 0.  0.
         23    2    4    4    0    0  0.29376793533E+03 -0.15595611383E+03 -0.29690879351E+03  0.45497035825E+03  0.90671307186E+02 0.  0.
         23    2    4    4    0    0 -0.39121510938E+02  0.81578901530E+02  0.16969088056E+03  0.21322396240E+03  0.92107835744E+02 0.  0.
          5    1    3    3  502    0 -0.33537955814E+02 -0.40588704505E+01  0.34639559657E+03  0.34807078049E+03  0.47000000000E+01 0. -1.
         -5    1    3    3    0  502 -0.22110846858E+03  0.78436082750E+02  0.98425983713E+03  0.10118451912E+04  0.47000000000E+01 0.  1.
         13    1    5    5    0    0  0.28137723657E+03 -0.15797759396E+03 -0.25518707535E+03  0.41140067195E+03  0.00000000000E+00 0.  1.
        -13    1    5    5    0    0  0.12390698763E+02  0.20214801318E+01 -0.41721718159E+02  0.43569686296E+02  0.00000000000E+00 0. -1.
          2    1    6    6  503    0  0.35748711368E+01  0.12149074493E+02 -0.98526990989E+01  0.16045416611E+02  0.00000000000E+00 0. -1.
         -2    1    6    6    0  503 -0.42696382075E+02  0.69429827038E+02  0.17954357966E+03  0.19717854579E+03  0.00000000000E+00 0.  1.
<mgrwt>
<rscale>  0 0.34909088E+03</rscale>
<asrwt>0</asrwt>
<pdfrwt beam="1">  1        2 0.24858060E+00 0.34909088E+03</pdfrwt>
<pdfrwt beam="2">  1       -2 0.63436368E-01 0.34909088E+03</pdfrwt>
<totfact> 0.27660268E+01</totfact>
</mgrwt>
</event>
<event>
12    1  0.3421270E-008  0.1293689E+04  0.7818608E-02  0.9034585E-01
          1   -1    0    0  501    0  0.00000000000E+00  0.00000000000E+00  0.18083651704E+04  0.18083651704E+04  0.00000000000E+00 0. -1.
         -1   -1    0    0    0  501 -0.00000000000E+00 -0.00000000000E+00 -0.99055255915E+03  0.99055255915E+03  0.00000000000E+00 0.  1.
         23    2    1    2    0    0 -0.12178836212E+04  0.33537950089E+03  0.25666433309E+03  0.12920957088E+04  0.88965254430E+02 0.  0.
    5000000    2    1    2    0    0  0.12178836212E+04 -0.33537950089E+03  0.56114827817E+03  0.15068220208E+04  0.59992106799E+03 0.  0.
         23    2    4    4    0    0  0.71863269975E+03 -0.38341765622E+03  0.11120173460E+03  0.82690076858E+03  0.89202012574E+02 0.  0.
         23    2    4    4    0    0  0.49925092142E+03  0.48038155327E+02  0.44994654357E+03  0.67992125218E+03  0.91004781143E+02 0.  0.
          5    1    3    3  502    0 -0.91937129775E+03  0.21998625267E+03  0.17003712904E+03  0.96050624659E+03  0.47000000000E+01 0. -1.
         -5    1    3    3    0  502 -0.29851232343E+03  0.11539324822E+03  0.86627204045E+02  0.33158946222E+03  0.47000000000E+01 0.  1.
         13    1    5    5    0    0  0.29020524019E+03 -0.12999274094E+03  0.55240255602E+01  0.31803727610E+03  0.00000000000E+00 0.  1.
        -13    1    5    5    0    0  0.42842745956E+03 -0.25342491528E+03  0.10567770904E+03  0.50886349248E+03  0.00000000000E+00 0. -1.
          2    1    6    6  503    0  0.58623619674E+02  0.28411519485E+02  0.87213325378E+02  0.10885819834E+03  0.00000000000E+00 0. -1.
         -2    1    6    6    0  503  0.44062730175E+03  0.19626635842E+02  0.36273321820E+03  0.57106305384E+03  0.00000000000E+00 0.  1.
<mgrwt>
<rscale>  0 0.12936890E+04</rscale>
<asrwt>0</asrwt>
<pdfrwt beam="1">  1        1 0.27821003E+00 0.12936890E+04</pdfrwt>
<pdfrwt beam="2">  1       -1 0.15239270E+00 0.12936890E+04</pdfrwt>
<totfact> 0.13049682E+00</totfact>
</mgrwt>
</event>
<event>
12    1  0.3147868E-008  0.8969519E+03  0.7818608E-02  0.9429400E-01
          1   -1    0    0  501    0  0.00000000000E+00  0.00000000000E+00  0.11832204218E+04  0.11832204218E+04  0.00000000000E+00 0. -1.
         -1   -1    0    0    0  501 -0.00000000000E+00 -0.00000000000E+00 -0.94905612337E+03  0.94905612337E+03  0.00000000000E+00 0.  1.
         23    2    1    2    0    0  0.34008509022E+03  0.81477267281E+03  0.51778453805E+03  0.10279200669E+04  0.94902366024E+02 0.  0.
    5000000    2    1    2    0    0 -0.34008509022E+03 -0.81477267281E+03 -0.28362023965E+03  0.11043564783E+04  0.59970860743E+03 0.  0.
         23    2    4    4    0    0 -0.84922541621E+02 -0.13904783252E+03 -0.32640886834E+03  0.37606031630E+03  0.91282387991E+02 0.  0.
         23    2    4    4    0    0 -0.25516254860E+03 -0.67572484029E+03  0.42788628688E+02  0.72829616198E+03  0.82900222107E+02 0.  0.
          5    1    3    3  502    0  0.30569124072E+03  0.64566975984E+03  0.43563025117E+03  0.83673913448E+03  0.47000000000E+01 0.  1.
         -5    1    3    3    0  502  0.34393849499E+02  0.16910291297E+03  0.82154286880E+02  0.19118093239E+03  0.47000000000E+01 0.  1.
         11    1    5    5    0    0 -0.52528125987E+02 -0.15686574366E+02 -0.63800789600E+02  0.84117854160E+02  0.00000000000E+00 0.  1.
        -11    1    5    5    0    0 -0.32394415634E+02 -0.12336125816E+03 -0.26260807874E+03  0.29194246214E+03  0.00000000000E+00 0. -1.
          3    1    6    6  503    0 -0.93242728261E+02 -0.17541076213E+03 -0.15260420457E+02  0.19923860639E+03  0.00000000000E+00 0. -1.
         -3    1    6    6    0  503 -0.16191982034E+03 -0.50031407816E+03  0.58049049146E+02  0.52905755559E+03  0.00000000000E+00 0.  1.
<mgrwt>
<rscale>  0 0.89695188E+03</rscale>
<asrwt>0</asrwt>
<pdfrwt beam="1">  1        1 0.18203391E+00 0.89695188E+03</pdfrwt>
<pdfrwt beam="2">  1       -1 0.14600863E+00 0.89695188E+03</pdfrwt>
<totfact> 0.41916919E+00</totfact>
</mgrwt>
</event>
<event>
12    1  0.3147868E-008  0.4547089E+03  0.7818608E-02  0.1026327E+00
          2   -1    0    0  501    0  0.00000000000E+00  0.00000000000E+00  0.23269002880E+04  0.23269002880E+04  0.00000000000E+00 0. -1.
         -2   -1    0    0    0  501 -0.00000000000E+00 -0.00000000000E+00 -0.11602136423E+03  0.11602136423E+03  0.00000000000E+00 0.  1.
         23    2    1    2    0    0 -0.32309490039E+03 -0.61392652040E+02  0.55673799685E+03  0.65284755037E+03  0.89963073049E+02 0.  0.
    5000000    2    1    2    0    0  0.32309490039E+03  0.61392652040E+02  0.16541409269E+04  0.17900741019E+04  0.60001975937E+03 0.  0.
         23    2    4    4    0    0  0.64600513823E+02  0.23369135175E+03  0.29064476017E+03  0.38879229103E+03  0.88883039343E+02 0.  0.
         23    2    4    4    0    0  0.25849438656E+03 -0.17229869971E+03  0.13634961667E+04  0.14012818108E+04  0.89234112269E+02 0.  0.
          5    1    3    3  502    0 -0.22985402463E+03 -0.71978498408E+01  0.33684496064E+03  0.40788638025E+03  0.47000000000E+01 0. -1.
         -5    1    3    3    0  502 -0.93240875756E+02 -0.54194802199E+02  0.21989303620E+03  0.24496117012E+03  0.47000000000E+01 0.  1.
         13    1    5    5    0    0  0.79906097711E+02  0.13770534156E+03  0.15757013912E+03  0.22400021046E+03  0.00000000000E+00 0.  1.
        -13    1    5    5    0    0 -0.15305583888E+02  0.95986010187E+02  0.13307462105E+03  0.16479208057E+03  0.00000000000E+00 0. -1.
          4    1    6    6  503    0  0.23957354974E+03 -0.13963267751E+03  0.12793369939E+04  0.13090438932E+04  0.00000000000E+00 0. -1.
         -4    1    6    6    0  503  0.18920836827E+02 -0.32666022198E+02  0.84159172845E+02  0.92237917617E+02  0.00000000000E+00 0.  1.
<mgrwt>
<rscale>  0 0.45470891E+03</rscale>
<asrwt>0</asrwt>
<pdfrwt beam="1">  1        2 0.35798462E+00 0.45470891E+03</pdfrwt>
<pdfrwt beam="2">  1       -2 0.17849442E-01 0.45470891E+03</pdfrwt>
<totfact> 0.12261056E+02</totfact>
</mgrwt>
</event>
<event>
12    1  0.3147868E-008  0.3365094E+03  0.7818608E-02  0.1068292E+00
          2   -1    0    0  501    0  0.00000000000E+00  0.00000000000E+00  0.32536658711E+04  0.32536658711E+04  0.00000000000E+00 0. -1.
         -2   -1    0    0    0  501 -0.00000000000E+00 -0.00000000000E+00 -0.72225775648E+02  0.72225775648E+02  0.00000000000E+00 0.  1.
         23    2    1    2    0    0 -0.36147993640E+02 -0.17645917201E+03  0.22492162550E+03  0.30373832404E+03  0.96034967802E+02 0.  0.
    5000000    2    1    2    0    0  0.36147993640E+02  0.17645917201E+03  0.29565184700E+04  0.30221533227E+04  0.59997060426E+03 0.  0.
         23    2    4    4    0    0 -0.19176517890E+02 -0.14447519707E+03  0.31512194419E+03  0.35926369484E+03  0.92345770407E+02 0.  0.
         23    2    4    4    0    0  0.55324511530E+02  0.32093436908E+03  0.26413965258E+04  0.26628896279E+04  0.89139739148E+02 0.  0.
          5    1    3    3  502    0  0.13910413450E+02 -0.99241040787E+02  0.16726094426E+03  0.19503998885E+03  0.47000000000E+01 0. -1.
         -5    1    3    3    0  502 -0.50058407090E+02 -0.77218131225E+02  0.57660681245E+02  0.10869833519E+03  0.47000000000E+01 0.  1.
         13    1    5    5    0    0 -0.29234751871E+02 -0.10961215340E+03  0.13887432725E+03  0.17931975256E+03  0.00000000000E+00 0.  1.
        -13    1    5    5    0    0  0.10058233981E+02 -0.34863043671E+02  0.17624761695E+03  0.17994394228E+03  0.00000000000E+00 0. -1.
          2    1    6    6  503    0 -0.12376874652E+02  0.58808788487E+02  0.72160634748E+03  0.72410453759E+03  0.00000000000E+00 0. -1.
         -2    1    6    6    0  503  0.67701386182E+02  0.26212558059E+03  0.19197901783E+04  0.19387850903E+04  0.00000000000E+00 0.  1.
<mgrwt>
<rscale>  0 0.33650944E+03</rscale>
<asrwt>0</asrwt>
<pdfrwt beam="1">  1        2 0.50056387E+00 0.33650944E+03</pdfrwt>
<pdfrwt beam="2">  1       -2 0.11111660E-01 0.33650944E+03</pdfrwt>
<totfact> 0.80142926E+01</totfact>
</mgrwt>
</event>
<event>
12    1  0.3147868E-008  0.5105718E+03  0.7818608E-02  0.1011056E+00
          3   -1    0    0  501    0  0.00000000000E+00  0.00000000000E+00  0.12515314846E+04  0.12515314846E+04  0.00000000000E+00 0. -1.
         -3   -1    0    0    0  501 -0.00000000000E+00 -0.00000000000E+00 -0.25882315915E+03  0.25882315915E+03  0.00000000000E+00 0.  1.
         23    2    1    2    0    0  0.15561530756E+03 -0.32281988537E+03  0.10008869074E+03  0.37662886615E+03  0.58333133529E+02 0.  0.
    5000000    2    1    2    0    0 -0.15561530756E+03  0.32281988537E+03  0.89261963469E+03  0.11337257776E+04  0.60011292617E+03 0.  0.
         23    2    4    4    0    0 -0.29828197087E+03  0.13251213423E+02  0.59576788179E+03  0.67264544488E+03  0.91459262737E+02 0.  0.
         23    2    4    4    0    0  0.14266666331E+03  0.30956867195E+03  0.29685175290E+03  0.46108033269E+03  0.91036094621E+02 0.  0.
          5    1    3    3  502    0  0.53385312732E+02 -0.79986993237E+02  0.47559519404E+01  0.96398235365E+02  0.47000000000E+01 0. -1.
         -5    1    3    3    0  502  0.10222999483E+03 -0.24283289214E+03  0.95332738798E+02  0.28023063079E+03  0.47000000000E+01 0.  1.
         13    1    5    5    0    0 -0.20007303558E+03 -0.30804933429E+02  0.34968921744E+03  0.40405533319E+03  0.00000000000E+00 0.  1.
        -13    1    5    5    0    0 -0.98208935295E+02  0.44056146851E+02  0.24607866435E+03  0.26859011168E+03  0.00000000000E+00 0. -1.
          3    1    6    6  503    0  0.12182602991E+03  0.16439098803E+03  0.15153380972E+03  0.25461436330E+03  0.00000000000E+00 0. -1.
         -3    1    6    6    0  503  0.20840633405E+02  0.14517768392E+03  0.14531794319E+03  0.20646596940E+03  0.00000000000E+00 0.  1.
<mgrwt>
<rscale>  0 0.51057177E+03</rscale>
<asrwt>0</asrwt>
<pdfrwt beam="1">  1        3 0.19254330E+00 0.51057177E+03</pdfrwt>
<pdfrwt beam="2">  1       -3 0.39818948E-01 0.51057177E+03</pdfrwt>
<totfact> 0.27260208E+00</totfact>
</mgrwt>
</event>
<event>
12    1  0.3147868E-008  0.1488182E+04  0.7818608E-02  0.8892350E-01
         -1   -1    0    0    0  501 -0.00000000000E+00  0.00000000000E+00  0.17406370865E+04  0.17406370865E+04  0.00000000000E+00 0.  1.
          1   -1    0    0  501    0  0.00000000000E+00 -0.00000000000E+00 -0.19832662898E+04  0.19832662898E+04  0.00000000000E+00 0. -1.
         23    2    1    2    0    0  0.14125496253E+04  0.25491311432E+03  0.98409027676E+03  0.17426975903E+04  0.91016913249E+02 0.  0.
    5000000    2    1    2    0    0 -0.14125496253E+04 -0.25491311432E+03 -0.12267194800E+04  0.19812057860E+04  0.60004878461E+03 0.  0.
         23    2    4    4    0    0 -0.58144586533E+03 -0.37978930584E+03 -0.44898173746E+03  0.83195063814E+03  0.90763718445E+02 0.  0.
         23    2    4    4    0    0 -0.83110375997E+03  0.12487619152E+03 -0.77773774258E+03  0.11492551478E+04  0.97897270478E+02 0.  0.
          5    1    3    3  502    0  0.72918956196E+03  0.15277787311E+03  0.46187648364E+03  0.87659025315E+03  0.47000000000E+01 0. -1.
         -5    1    3    3    0  502  0.68336006334E+03  0.10213524121E+03  0.52221379313E+03  0.86610733711E+03  0.47000000000E+01 0.  1.
         13    1    5    5    0    0 -0.16191078255E+01 -0.42368494548E+01  0.38412919377E+01  0.59437300749E+01  0.00000000000E+00 0. -1.
        -13    1    5    5    0    0 -0.57982675750E+03 -0.37555245639E+03 -0.45282302940E+03  0.82600690806E+03  0.00000000000E+00 0.  1.
          1    1    6    6  503    0 -0.21184013776E+03 -0.65553993354E+01 -0.22117805255E+03  0.30633143514E+03  0.00000000000E+00 0. -1.
         -1    1    6    6    0  503 -0.61926362221E+03  0.13143159086E+03 -0.55655969003E+03  0.84292371270E+03  0.00000000000E+00 0.  1.
<mgrwt>
<rscale>  0 0.14881815E+04</rscale>
<asrwt>0</asrwt>
<pdfrwt beam="1">  1        1 0.30511789E+00 0.14881815E+04</pdfrwt>
<pdfrwt beam="2">  1       -1 0.26779032E+00 0.14881815E+04</pdfrwt>
<totfact> 0.15431898E-01</totfact>
</mgrwt>
</event>
<event>
12    1  0.3147868E-008  0.9189630E+03  0.7818608E-02  0.9402182E-01
         -1   -1    0    0    0  501 -0.00000000000E+00  0.00000000000E+00  0.50777751189E+03  0.50777751189E+03  0.00000000000E+00 0.  1.
          1   -1    0    0  501    0  0.00000000000E+00 -0.00000000000E+00 -0.28428624019E+04  0.28428624019E+04  0.00000000000E+00 0. -1.
         23    2    1    2    0    0 -0.79955774506E+03 -0.33663929950E+03 -0.98587144832E+02  0.87784991002E+03  0.91007877326E+02 0.  0.
    5000000    2    1    2    0    0  0.79955774506E+03  0.33663929950E+03 -0.22364977452E+04  0.24727900038E+04  0.60012468110E+03 0.  0.
         23    2    4    4    0    0  0.31800956726E+03  0.35059127290E+03 -0.15873123522E+04  0.16589014846E+04  0.91374540939E+02 0.  0.
         23    2    4    4    0    0  0.48154817780E+03 -0.13951973399E+02 -0.64918539302E+03  0.81388851918E+03  0.94284367950E+02 0.  0.
          5    1    3    3  502    0 -0.10713667988E+03 -0.17809927600E+02 -0.28121382838E+02  0.11228697106E+03  0.47000000000E+01 0. -1.
         -5    1    3    3    0  502 -0.69242106519E+03 -0.31882937190E+03 -0.70465761994E+02  0.76556293896E+03  0.47000000000E+01 0.  1.
         11    1    5    5    0    0  0.10714951892E+03  0.81086383063E+02 -0.56824032357E+03  0.58391188227E+03  0.00000000000E+00 0.  1.
        -11    1    5    5    0    0  0.21086004834E+03  0.26950488984E+03 -0.10190720286E+04  0.10749896023E+04  0.00000000000E+00 0. -1.
          1    1    6    6  503    0  0.12549170484E+03  0.36583985169E+02 -0.15637323159E+03  0.20381153921E+03  0.00000000000E+00 0. -1.
         -1    1    6    6    0  503  0.35605647295E+03 -0.50535958568E+02 -0.49281216143E+03  0.61007697998E+03  0.00000000000E+00 0.  1.
<mgrwt>
<rscale>  0 0.91896302E+03</rscale>
<asrwt>0</asrwt>
<pdfrwt beam="1">  1        1 0.43736345E+00 0.91896302E+03</pdfrwt>
<pdfrwt beam="2">  1       -1 0.78119617E-01 0.91896302E+03</pdfrwt>
<totfact> 0.13238543E+00</totfact>
</mgrwt>
</event>
<event>
12    1  0.3147868E-008  0.1399761E+04  0.7818608E-02  0.8953992E-01
          2   -1    0    0  501    0  0.00000000000E+00  0.00000000000E+00  0.25026917745E+04  0.25026917745E+04  0.00000000000E+00 0. -1.
         -2   -1    0    0    0  501 -0.00000000000E+00 -0.00000000000E+00 -0.86309611064E+03  0.86309611064E+03  0.00000000000E+00 0.  1.
         23    2    1    2    0    0 -0.10237007985E+04 -0.86012180088E+03  0.28453162728E+03  0.13697918021E+04  0.87169357771E+02 0.  0.
    5000000    2    1    2    0    0  0.10237007985E+04  0.86012180088E+03  0.13550640366E+04  0.19959960831E+04  0.60002415223E+03 0.  0.
         23    2    4    4    0    0 -0.38551169572E+02  0.15395796356E+03  0.13691885020E+03  0.22928207784E+03  0.92920678332E+02 0.  0.
         23    2    4    4    0    0  0.10622519680E+04  0.70616383732E+03  0.12181451864E+04  0.17667140052E+04  0.10175496262E+03 0.  0.
          5    1    3    3  502    0 -0.36930548173E+03 -0.33275736842E+03  0.14489674791E+03  0.51781383009E+03  0.47000000000E+01 0. -1.
         -5    1    3    3    0  502 -0.65439531674E+03 -0.52736443245E+03  0.13963487938E+03  0.85197797197E+03  0.47000000000E+01 0.  1.
         11    1    5    5    0    0 -0.68351922930E+02  0.89424549340E+02  0.77777746673E+02  0.13681415596E+03  0.00000000000E+00 0.  1.
        -11    1    5    5    0    0  0.29800753358E+02  0.64533414218E+02  0.59141103530E+02  0.92467921887E+02  0.00000000000E+00 0. -1.
          3    1    6    6  503    0  0.66697058194E+03  0.49136233986E+03  0.75088638782E+03  0.11180863444E+04  0.00000000000E+00 0. -1.
         -3    1    6    6    0  503  0.39528138610E+03  0.21480149746E+03  0.46725879854E+03  0.64862766077E+03  0.00000000000E+00 0.  1.
<mgrwt>
<rscale>  0 0.13997607E+04</rscale>
<asrwt>0</asrwt>
<pdfrwt beam="1">  1        2 0.38502950E+00 0.13997607E+04</pdfrwt>
<pdfrwt beam="2">  1       -2 0.13278402E+00 0.13997607E+04</pdfrwt>
<totfact> 0.13664751E+00</totfact>
</mgrwt>
</event>
<event>
12    1  0.3147868E-008  0.5750938E+03  0.7818608E-02  0.9958470E-01
         -2   -1    0    0    0  501 -0.00000000000E+00  0.00000000000E+00  0.22654883739E+03  0.22654883739E+03  0.00000000000E+00 0.  1.
          2   -1    0    0  501    0  0.00000000000E+00 -0.00000000000E+00 -0.30312201136E+04  0.30312201136E+04  0.00000000000E+00 0. -1.
         23    2    1    2    0    0  0.41638982688E+03  0.15300625801E+03 -0.23296292005E+04  0.23732525968E+04  0.91456402302E+02 0.  0.
    5000000    2    1    2    0    0 -0.41638982688E+03 -0.15300625801E+03 -0.47504207564E+03  0.88451635411E+03  0.59992733239E+03 0.  0.
         23    2    4    4    0    0 -0.53406604717E+03 -0.51824850161E+02 -0.25405124912E+03  0.60089326332E+03  0.92834901253E+02 0.  0.
         23    2    4    4    0    0  0.11767622029E+03 -0.10118140785E+03 -0.22099082653E+03  0.28362309080E+03  0.86716446579E+02 0.  0.
          5    1    3    3  502    0  0.95654209223E+02  0.45641318714E+02 -0.77656577300E+03  0.78377888942E+03  0.47000000000E+01 0. -1.
         -5    1    3    3    0  502  0.32073561765E+03  0.10736493929E+03 -0.15530634275E+04  0.15894737074E+04  0.47000000000E+01 0.  1.
         11    1    5    5    0    0 -0.23471499205E+03 -0.64479405502E+01 -0.63825107268E+02  0.24332354540E+03  0.00000000000E+00 0.  1.
        -11    1    5    5    0    0 -0.29935105512E+03 -0.45376909611E+02 -0.19022614185E+03  0.35756971792E+03  0.00000000000E+00 0. -1.
          4    1    6    6  503    0  0.45464976411E+01  0.91639591937E+01 -0.48983178354E+02  0.50039989514E+02  0.00000000000E+00 0. -1.
         -4    1    6    6    0  503  0.11312972265E+03 -0.11034536704E+03 -0.17200764817E+03  0.23358310128E+03  0.00000000000E+00 0.  1.
<mgrwt>
<rscale>  0 0.57509383E+03</rscale>
<asrwt>0</asrwt>
<pdfrwt beam="1">  1        2 0.46634152E+00 0.57509383E+03</pdfrwt>
<pdfrwt beam="2">  1       -2 0.34853670E-01 0.57509383E+03</pdfrwt>
<totfact> 0.14137399E+01</totfact>
</mgrwt>
</event>
<event>
12    1  0.3147868E-008  0.3979139E+03  0.7818608E-02  0.1044504E+00
         -1   -1    0    0    0  501 -0.00000000000E+00  0.00000000000E+00  0.18210923508E+03  0.18210923508E+03  0.00000000000E+00 0.  1.
          1   -1    0    0  501    0  0.00000000000E+00 -0.00000000000E+00 -0.21332369466E+04  0.21332369466E+04  0.00000000000E+00 0. -1.
         23    2    1    2    0    0  0.11998641280E+03 -0.34522085566E+03 -0.13135762594E+04  0.13665867274E+04  0.92209087943E+02 0.  0.
    5000000    2    1    2    0    0 -0.11998641280E+03  0.34522085566E+03 -0.63755145211E+03  0.94875945424E+03  0.60008205228E+03 0.  0.
         23    2    4    4    0    0 -0.15178169563E+03  0.13897440495E+03 -0.68054269869E+03  0.71676407067E+03  0.90888942742E+02 0.  0.
         23    2    4    4    0    0  0.31795282832E+02  0.20624645071E+03  0.42991246576E+02  0.23199538356E+03  0.91788192436E+02 0.  0.
          5    1    3    3  502    0  0.12012289769E+03 -0.23574542427E+03 -0.99978718865E+03  0.10342156101E+04  0.47000000000E+01 0. -1.
         -5    1    3    3    0  502 -0.13648488775E+00 -0.10947543139E+03 -0.31378907071E+03  0.33237111729E+03  0.47000000000E+01 0.  1.
         13    1    5    5    0    0 -0.31071522705E+01  0.26052057318E+02 -0.19163306785E+03  0.19342077649E+03  0.00000000000E+00 0.  1.
        -13    1    5    5    0    0 -0.14867454336E+03  0.11292234764E+03 -0.48890963084E+03  0.52334329419E+03  0.00000000000E+00 0. -1.
          3    1    6    6  503    0  0.24781755500E+02  0.15546529456E+03 -0.10662398460E+02  0.15778871936E+03  0.00000000000E+00 0. -1.
         -3    1    6    6    0  503  0.70135273321E+01  0.50781156155E+02  0.53653645035E+02  0.74206664200E+02  0.00000000000E+00 0.  1.
<mgrwt>
<rscale>  0 0.39791395E+03</rscale>
<asrwt>0</asrwt>
<pdfrwt beam="1">  1        1 0.32819029E+00 0.39791395E+03</pdfrwt>
<pdfrwt beam="2">  1       -1 0.28016806E-01 0.39791395E+03</pdfrwt>
<totfact> 0.30830248E+01</totfact>
</mgrwt>
</event>
<event>
12    1  0.3147868E-008  0.7367895E+03  0.7818608E-02  0.9656307E-01
          2   -1    0    0  501    0  0.00000000000E+00  0.00000000000E+00  0.13380521715E+04  0.13380521715E+04  0.00000000000E+00 0. -1.
         -2   -1    0    0    0  501 -0.00000000000E+00 -0.00000000000E+00 -0.56900590904E+03  0.56900590904E+03  0.00000000000E+00 0.  1.
         23    2    1    2    0    0 -0.31110626224E+03 -0.63823126296E+03  0.65603141794E+03  0.97076790991E+03  0.88808007276E+02 0.  0.
    5000000    2    1    2    0    0  0.31110626224E+03  0.63823126296E+03  0.11301484455E+03  0.93629017066E+03  0.59978385870E+03 0.  0.
         23    2    4    4    0    0  0.20010384524E+03  0.59728665571E+03 -0.13214259645E+03  0.65018939687E+03  0.92150355535E+02 0.  0.
         23    2    4    4    0    0  0.11100241700E+03  0.40944607250E+02  0.24515744099E+03  0.28610077380E+03  0.88053872424E+02 0.  0.
          5    1    3    3  502    0 -0.76626585053E+02 -0.11537220677E+03  0.17026918850E+03  0.21953602480E+03  0.47000000000E+01 0. -1.
         -5    1    3    3    0  502 -0.23447967719E+03 -0.52285905619E+03  0.48576222944E+03  0.75123188511E+03  0.47000000000E+01 0.  1.
         11    1    5    5    0    0  0.14477385841E+03  0.32951945050E+03 -0.10763203646E+03  0.37566899474E+03  0.00000000000E+00 0. -1.
        -11    1    5    5    0    0  0.55329986828E+02  0.26776720521E+03 -0.24510559983E+02  0.27452040212E+03  0.00000000000E+00 0.  1.
          1    1    6    6  503    0 -0.28929974408E+01  0.10245476495E+02  0.92836538356E+02  0.93444968172E+02  0.00000000000E+00 0.  1.
         -1    1    6    6    0  503  0.11389541444E+03  0.30699130755E+02  0.15232090264E+03  0.19265580562E+03  0.00000000000E+00 0. -1.
<mgrwt>
<rscale>  0 0.73678949E+03</rscale>
<asrwt>0</asrwt>
<pdfrwt beam="1">  1        2 0.20585418E+00 0.73678949E+03</pdfrwt>
<pdfrwt beam="2">  1       -2 0.87539371E-01 0.73678949E+03</pdfrwt>
<totfact> 0.18102358E+01</totfact>
</mgrwt>
</event>
<event>
12    1  0.3147868E-008  0.7141662E+03  0.7818608E-02  0.9693308E-01
          2   -1    0    0  501    0  0.00000000000E+00  0.00000000000E+00  0.10921157246E+04  0.10921157246E+04  0.00000000000E+00 0. -1.
         -2   -1    0    0    0  501 -0.00000000000E+00 -0.00000000000E+00 -0.61693066129E+03  0.61693066129E+03  0.00000000000E+00 0.  1.
         23    2    1    2    0    0  0.67846970388E+03 -0.42495563073E+02  0.41254086580E+03  0.80020431147E+03  0.89498392029E+02 0.  0.
    5000000    2    1    2    0    0 -0.67846970388E+03  0.42495563073E+02  0.62644197473E+02  0.90884207439E+03  0.59995217204E+03 0.  0.
         23    2    4    4    0    0 -0.10026953742E+03 -0.10388486403E+03  0.22658576425E+03  0.28346504686E+03  0.90361934032E+02 0.  0.
         23    2    4    4    0    0 -0.57820016646E+03  0.14638042710E+03 -0.16394156678E+03  0.62537702753E+03  0.92070230330E+02 0.  0.
          5    1    3    3  502    0  0.44185771776E+03 -0.35378806308E+01  0.22585720249E+03  0.49627041546E+03  0.47000000000E+01 0. -1.
         -5    1    3    3    0  502  0.23661198612E+03 -0.38957682442E+02  0.18668366331E+03  0.30393389601E+03  0.47000000000E+01 0.  1.
         13    1    5    5    0    0 -0.71564311201E+01 -0.10985013499E+02  0.10019972785E+03  0.10105379997E+03  0.00000000000E+00 0. -1.
        -13    1    5    5    0    0 -0.93113106305E+02 -0.92899850530E+02  0.12638603640E+03  0.18241124689E+03  0.00000000000E+00 0.  1.
          3    1    6    6  503    0 -0.36896864187E+02  0.31672452678E+02 -0.25900916536E+02  0.55094285755E+02  0.00000000000E+00 0. -1.
         -3    1    6    6    0  503 -0.54130330227E+03  0.11470797442E+03 -0.13804065024E+03  0.57028274177E+03  0.00000000000E+00 0.  1.
<mgrwt>
<rscale>  0 0.71416617E+03</rscale>
<asrwt>0</asrwt>
<pdfrwt beam="1">  1        2 0.16801780E+00 0.71416617E+03</pdfrwt>
<pdfrwt beam="2">  1       -2 0.94912409E-01 0.71416617E+03</pdfrwt>
<totfact> 0.21023069E+01</totfact>
</mgrwt>
</event>
<event>
12    1  0.3147868E-008  0.4947433E+03  0.7818608E-02  0.1015160E+00
          2   -1    0    0  501    0  0.00000000000E+00  0.00000000000E+00  0.28021562214E+03  0.28021562214E+03  0.00000000000E+00 0. -1.
         -2   -1    0    0    0  501 -0.00000000000E+00 -0.00000000000E+00 -0.98883497878E+03  0.98883497878E+03  0.00000000000E+00 0.  1.
         23    2    1    2    0    0 -0.17845382696E+03  0.27652062706E+03 -0.10883061600E+03  0.35901810133E+03  0.93490473098E+02 0.  0.
    5000000    2    1    2    0    0  0.17845382696E+03 -0.27652062706E+03 -0.59978874064E+03  0.91003249959E+03  0.60008598665E+03 0.  0.
         23    2    4    4    0    0  0.23839778050E+03 -0.41388408244E+03 -0.53760468740E+03  0.72456468125E+03  0.88553045996E+02 0.  0.
         23    2    4    4    0    0 -0.59943953540E+02  0.13736345538E+03 -0.62184053233E+02  0.18546781834E+03  0.89830165986E+02 0.  0.
          5    1    3    3  502    0 -0.12331646772E+03  0.24924748126E+03 -0.72486443469E+02  0.28741543558E+03  0.47000000000E+01 0. -1.
         -5    1    3    3    0  502 -0.55137359235E+02  0.27273145802E+02 -0.36344172532E+02  0.71602665749E+02  0.47000000000E+01 0.  1.
         13    1    5    5    0    0  0.10617866540E+03 -0.10307820026E+03 -0.16015000346E+03  0.21805285589E+03  0.00000000000E+00 0. -1.
        -13    1    5    5    0    0  0.13221911509E+03 -0.31080588219E+03 -0.37745468395E+03  0.50651182536E+03  0.00000000000E+00 0.  1.
          2    1    6    6  503    0  0.69394733133E+01  0.65065140205E+02  0.59541481877E+01  0.65704494826E+02  0.00000000000E+00 0. -1.
         -2    1    6    6    0  503 -0.66883426854E+02  0.72298315178E+02 -0.68138201421E+02  0.11976332351E+03  0.00000000000E+00 0.  1.
<mgrwt>
<rscale>  0 0.49474327E+03</rscale>
<asrwt>0</asrwt>
<pdfrwt beam="1">  1        2 0.43110096E-01 0.49474327E+03</pdfrwt>
<pdfrwt beam="2">  1       -2 0.15212846E+00 0.49474327E+03</pdfrwt>
<totfact> 0.35308726E+01</totfact>
</mgrwt>
</event>
<event>
12    1  0.3147868E-008  0.6068880E+03  0.7818608E-02  0.9891218E-01
         -1   -1    0    0    0  501 -0.00000000000E+00  0.00000000000E+00  0.25720094062E+03  0.25720094062E+03  0.00000000000E+00 0.  1.
          1   -1    0    0  501    0  0.00000000000E+00 -0.00000000000E+00 -0.16159583184E+04  0.16159583184E+04  0.00000000000E+00 0. -1.
         23    2    1    2    0    0  0.37938868779E+03  0.29329255005E+03 -0.33589908591E+03  0.59401075655E+03  0.10032091825E+03 0.  0.
    5000000    2    1    2    0    0 -0.37938868779E+03 -0.29329255005E+03 -0.10228582919E+04  0.12791485025E+04  0.60002125777E+03 0.  0.
         23    2    4    4    0    0 -0.50767599941E+03 -0.19670524129E+03 -0.90534621942E+03  0.10602074609E+04  0.89220013598E+02 0.  0.
         23    2    4    4    0    0  0.12828731162E+03 -0.96587308763E+02 -0.11751207244E+03  0.21894104155E+03  0.91320041436E+02 0.  0.
          5    1    3    3  502    0  0.23305260171E+03  0.21110293271E+03 -0.26692957076E+03  0.41249418069E+03  0.47000000000E+01 0. -1.
         -5    1    3    3    0  502  0.14633608608E+03  0.82189617345E+02 -0.68969515153E+02  0.18151657585E+03  0.47000000000E+01 0.  1.
         13    1    5    5    0    0 -0.13736059897E+03 -0.95684795688E+02 -0.29523461076E+03  0.33939208840E+03  0.00000000000E+00 0. -1.
        -13    1    5    5    0    0 -0.37031540044E+03 -0.10102044560E+03 -0.61011160865E+03  0.72081537251E+03  0.00000000000E+00 0.  1.
          4    1    6    6  503    0  0.40563485214E+02 -0.81625658444E+02 -0.35168431224E+02  0.97698326515E+02  0.00000000000E+00 0. -1.
         -4    1    6    6    0  503  0.87723826407E+02 -0.14961650319E+02 -0.82343641215E+02  0.12124271503E+03  0.00000000000E+00 0.  1.
<mgrwt>
<rscale>  0 0.60688797E+03</rscale>
<asrwt>0</asrwt>
<pdfrwt beam="1">  1        1 0.24860897E+00 0.60688797E+03</pdfrwt>
<pdfrwt beam="2">  1       -1 0.39569376E-01 0.60688797E+03</pdfrwt>
<totfact> 0.35558845E+01</totfact>
</mgrwt>
</event>
<event>
12    1  0.3147868E-008  0.5895800E+03  0.7818608E-02  0.9927263E-01
         -2   -1    0    0    0  501 -0.00000000000E+00  0.00000000000E+00  0.18585280614E+03  0.18585280614E+03  0.00000000000E+00 0.  1.
          2   -1    0    0  501    0  0.00000000000E+00 -0.00000000000E+00 -0.29245574106E+04  0.29245574106E+04  0.00000000000E+00 0. -1.
         23    2    1    2    0    0 -0.33700556032E+03 -0.28145519669E+03 -0.20445011465E+04  0.20931619986E+04  0.92479397726E+02 0.  0.
    5000000    2    1    2    0    0  0.33700556032E+03  0.28145519669E+03 -0.69420345798E+03  0.10172482181E+04  0.60007142976E+03 0.  0.
         23    2    4    4    0    0 -0.77799630834E+02 -0.11377651064E+03 -0.15213712627E+03  0.22326047128E+03  0.87759078821E+02 0.  0.
         23    2    4    4    0    0  0.41480519116E+03  0.39523170733E+03 -0.54206633171E+03  0.79398774687E+03  0.91154731703E+02 0.  0.
          5    1    3    3  502    0 -0.19953899120E+03 -0.19883318789E+03 -0.11232950004E+04  0.11580864361E+04  0.47000000000E+01 0. -1.
         -5    1    3    3    0  502 -0.13746656912E+03 -0.82622008797E+02 -0.92120614609E+03  0.93507556248E+03  0.47000000000E+01 0.  1.
         11    1    5    5    0    0 -0.96554554293E+02 -0.10508126119E+03 -0.13408661614E+03  0.19581642944E+03  0.00000000000E+00 0. -1.
        -11    1    5    5    0    0  0.18754923458E+02 -0.86952494434E+01 -0.18050510122E+02  0.27444041839E+02  0.00000000000E+00 0.  1.
          4    1    6    6  503    0  0.80410530445E+02  0.92006927800E+02 -0.69957762061E+02  0.14080204772E+03  0.00000000000E+00 0. -1.
         -4    1    6    6    0  503  0.33439466071E+03  0.30322477953E+03 -0.47210856965E+03  0.65318569915E+03  0.00000000000E+00 0.  1.
<mgrwt>
<rscale>  0 0.58957998E+03</rscale>
<asrwt>0</asrwt>
<pdfrwt beam="1">  1        2 0.44993188E+00 0.58957998E+03</pdfrwt>
<pdfrwt beam="2">  1       -2 0.28592741E-01 0.58957998E+03</pdfrwt>
<totfact> 0.23648518E+01</totfact>
</mgrwt>
</event>
<event>
12    1  0.3147868E-008  0.4583382E+03  0.7818608E-02  0.1025264E+00
          2   -1    0    0  501    0  0.00000000000E+00  0.00000000000E+00  0.72289863109E+03  0.72289863109E+03  0.00000000000E+00 0. -1.
         -2   -1    0    0    0  501 -0.00000000000E+00 -0.00000000000E+00 -0.62561970978E+03  0.62561970978E+03  0.00000000000E+00 0.  1.
         23    2    1    2    0    0  0.27326853079E+03 -0.46335211195E+02 -0.41813015853E+03  0.51022901553E+03  0.93156734090E+02 0.  0.
    5000000    2    1    2    0    0 -0.27326853079E+03  0.46335211195E+02  0.51540907984E+03  0.83828932535E+03  0.60021648736E+03 0.  0.
         23    2    4    4    0    0 -0.16713645777E+03 -0.25325417458E+03  0.16678182099E+03  0.35865001192E+03  0.93495362344E+02 0.  0.
         23    2    4    4    0    0 -0.10613207301E+03  0.29958938578E+03  0.34862725885E+03  0.47963931343E+03  0.86574178472E+02 0.  0.
          5    1    3    3  502    0  0.22977703319E+03 -0.21747786724E+02 -0.27781990749E+03  0.36121522976E+03  0.47000000000E+01 0. -1.
         -5    1    3    3    0  502  0.43491497591E+02 -0.24587424471E+02 -0.14031025103E+03  0.14901378577E+03  0.47000000000E+01 0.  1.
         13    1    5    5    0    0 -0.32523933270E+02 -0.86382197403E+02  0.95873324708E+01  0.92798745721E+02  0.00000000000E+00 0.  1.
        -13    1    5    5    0    0 -0.13461252450E+03 -0.16687197718E+03  0.15719448852E+03  0.26585126620E+03  0.00000000000E+00 0. -1.
          3    1    6    6  503    0 -0.97496015490E+02  0.14873588869E+03  0.17567598118E+03  0.24997977515E+03  0.00000000000E+00 0. -1.
         -3    1    6    6    0  503 -0.86360575228E+01  0.15085349709E+03  0.17295127767E+03  0.22965953828E+03  0.00000000000E+00 0.  1.
<mgrwt>
<rscale>  0 0.45833818E+03</rscale>
<asrwt>0</asrwt>
<pdfrwt beam="1">  1        2 0.11121517E+00 0.45833818E+03</pdfrwt>
<pdfrwt beam="2">  1       -2 0.96249186E-01 0.45833818E+03</pdfrwt>
<totfact> 0.37132298E+01</totfact>
</mgrwt>
</event>
<event>
12    1  0.3147868E-008  0.6809042E+03  0.7818608E-02  0.9750458E-01
          2   -1    0    0  501    0  0.00000000000E+00  0.00000000000E+00  0.20335568157E+04  0.20335568157E+04  0.00000000000E+00 0.  1.
         -2   -1    0    0    0  501 -0.00000000000E+00 -0.00000000000E+00 -0.65011697282E+03  0.65011697282E+03  0.00000000000E+00 0. -1.
         23    2    1    2    0    0 -0.54977181917E+03 -0.24038080491E+02  0.17159544160E+04  0.18043080659E+04  0.90560237175E+02 0.  0.
    5000000    2    1    2    0    0  0.54977181917E+03  0.24038080491E+02 -0.33251457309E+03  0.87936572261E+03  0.59990936842E+03 0.  0.
         23    2    4    4    0    0 -0.96316924535E+02  0.82766468797E+02 -0.84932278102E+02  0.17879477008E+03  0.92880781836E+02 0.  0.
         23    2    4    4    0    0  0.64608874370E+03 -0.58728388307E+02 -0.24758229498E+03  0.70057095253E+03  0.92859993577E+02 0.  0.
          5    1    3    3  502    0 -0.25640427326E+03  0.33297846644E+02  0.81635307359E+03  0.85633307112E+03  0.47000000000E+01 0. -1.
         -5    1    3    3    0  502 -0.29336754591E+03 -0.57335927135E+02  0.89960134241E+03  0.94797499482E+03  0.47000000000E+01 0.  1.
         11    1    5    5    0    0 -0.63957589365E+02 -0.26239499534E+01 -0.49206730665E+02  0.80738842533E+02  0.00000000000E+00 0.  1.
        -11    1    5    5    0    0 -0.32359335170E+02  0.85390418751E+02 -0.35725547437E+02  0.98055927545E+02  0.00000000000E+00 0. -1.
          3    1    6    6  503    0  0.60203248692E+02 -0.98658546569E+01  0.38845776010E+01  0.61129830561E+02  0.00000000000E+00 0. -1.
         -3    1    6    6    0  503  0.58588549501E+03 -0.48862533650E+02 -0.25146687259E+03  0.63944112197E+03  0.00000000000E+00 0.  1.
<mgrwt>
<rscale>  0 0.68090416E+03</rscale>
<asrwt>0</asrwt>
<pdfrwt beam="1">  1        2 0.31285489E+00 0.68090416E+03</pdfrwt>
<pdfrwt beam="2">  1       -2 0.10001800E+00 0.68090416E+03</pdfrwt>
<totfact> 0.55445871E+00</totfact>
</mgrwt>
</event>
<event>
12    1  0.3147868E-008  0.9790596E+03  0.7818608E-02  0.9331815E-01
          2   -1    0    0  501    0  0.00000000000E+00  0.00000000000E+00  0.22929602551E+04  0.22929602551E+04  0.00000000000E+00 0. -1.
         -2   -1    0    0    0  501 -0.00000000000E+00 -0.00000000000E+00 -0.54514004192E+03  0.54514004192E+03  0.00000000000E+00 0.  1.
         23    2    1    2    0    0  0.90848127236E+03  0.11423120583E+03  0.19874277148E+03  0.94129262103E+03  0.90255850626E+02 0.  0.
    5000000    2    1    2    0    0 -0.90848127236E+03 -0.11423120583E+03  0.15490774417E+04  0.18968076760E+04  0.59987619446E+03 0.  0.
         23    2    4    4    0    0 -0.58480051631E+03  0.15442764500E+03  0.61091464195E+03  0.86451955217E+03  0.91311636287E+02 0.  0.
         23    2    4    4    0    0 -0.32368075605E+03 -0.26865885082E+03  0.93816279970E+03  0.10322881238E+04  0.92317505308E+02 0.  0.
          5    1    3    3  502    0  0.59719538958E+03  0.65559351074E+02  0.87553672146E+02  0.60714750873E+03  0.47000000000E+01 0. -1.
         -5    1    3    3    0  502  0.31128588278E+03  0.48671854753E+02  0.11118909933E+03  0.33414511230E+03  0.47000000000E+01 0.  1.
         11    1    5    5    0    0 -0.31645860611E+03  0.12997421322E+03  0.33266595804E+03  0.47718548293E+03  0.00000000000E+00 0. -1.
        -11    1    5    5    0    0 -0.26834191020E+03  0.24453431781E+02  0.27824868391E+03  0.38733406924E+03  0.00000000000E+00 0.  1.
          4    1    6    6  503    0 -0.39286736436E+02 -0.80706072843E+02  0.19257736012E+03  0.21246872119E+03  0.00000000000E+00 0. -1.
         -4    1    6    6    0  503 -0.28439401962E+03 -0.18795277798E+03  0.74558543958E+03  0.81981940259E+03  0.00000000000E+00 0.  1.
<mgrwt>
<rscale>  0 0.97905958E+03</rscale>
<asrwt>0</asrwt>
<pdfrwt beam="1">  1        2 0.35276311E+00 0.97905958E+03</pdfrwt>
<pdfrwt beam="2">  1       -2 0.83867700E-01 0.97905958E+03</pdfrwt>
<totfact> 0.57346758E+00</totfact>
</mgrwt>
</event>
<event>
12    1  0.3147868E-008  0.9986755E+03  0.7818608E-02  0.9309999E-01
          2   -1    0    0  501    0  0.00000000000E+00  0.00000000000E+00  0.95147340049E+03  0.95147340049E+03  0.00000000000E+00 0. -1.
         -2   -1    0    0    0  501 -0.00000000000E+00 -0.00000000000E+00 -0.16428939400E+04  0.16428939400E+04  0.00000000000E+00 0.  1.
         23    2    1    2    0    0  0.95948633055E+03  0.11121007299E+03 -0.10233984715E+04  0.14098642157E+04  0.85970787791E+02 0.  0.
    5000000    2    1    2    0    0 -0.95948633055E+03 -0.11121007299E+03  0.33197793203E+03  0.11845031248E+04  0.59988049340E+03 0.  0.
         23    2    4    4    0    0 -0.18774009590E+03  0.10609539767E+03  0.29503966574E+03  0.37667428255E+03  0.91282713341E+02 0.  0.
         23    2    4    4    0    0 -0.77174623465E+03 -0.21730547067E+03  0.36938266287E+02  0.80782884221E+03  0.91701060579E+02 0.  0.
          5    1    3    3  502    0  0.54100494807E+03  0.22518087284E+02 -0.59255401434E+03  0.80270528090E+03  0.47000000000E+01 0. -1.
         -5    1    3    3    0  502  0.41848138249E+03  0.88691985707E+02 -0.43084445717E+03  0.60715893479E+03  0.47000000000E+01 0.  1.
         13    1    5    5    0    0 -0.83345647321E+02  0.10029284563E+02  0.64027824465E+02  0.10557767653E+03  0.00000000000E+00 0.  1.
        -13    1    5    5    0    0 -0.10439444858E+03  0.96066113112E+02  0.23101184128E+03  0.27109660601E+03  0.00000000000E+00 0. -1.
          2    1    6    6  503    0 -0.41846324377E+03 -0.13220382584E+03  0.63733533601E+02  0.44345383216E+03  0.00000000000E+00 0. -1.
         -2    1    6    6    0  503 -0.35328299089E+03 -0.85101644828E+02 -0.26795267314E+02  0.36437501006E+03  0.00000000000E+00 0.  1.
<mgrwt>
<rscale>  0 0.99867550E+03</rscale>
<asrwt>0</asrwt>
<pdfrwt beam="1">  1        2 0.14638052E+00 0.99867550E+03</pdfrwt>
<pdfrwt beam="2">  1       -2 0.25275291E+00 0.99867550E+03</pdfrwt>
<totfact> 0.16699467E+00</totfact>
</mgrwt>
</event>
<event>
12    1  0.3147868E-008  0.6680746E+03  0.7818608E-02  0.9773442E-01
         -2   -1    0    0    0  501 -0.00000000000E+00  0.00000000000E+00  0.50904992753E+03  0.50904992753E+03  0.00000000000E+00 0. -1.
          2   -1    0    0  501    0  0.00000000000E+00 -0.00000000000E+00 -0.12022801250E+04  0.12022801250E+04  0.00000000000E+00 0.  1.
         23    2    1    2    0    0  0.66755831867E+02 -0.56684451475E+03 -0.66702921948E+03  0.88278755051E+03  0.92826907285E+02 0.  0.
    5000000    2    1    2    0    0 -0.66755831867E+02  0.56684451475E+03 -0.26200977982E+02  0.82854250201E+03  0.60002261741E+03 0.  0.
         23    2    4    4    0    0 -0.37816052979E+02  0.65747643265E+03 -0.10806438721E+03  0.67362160103E+03  0.91557830048E+02 0.  0.
         23    2    4    4    0    0 -0.28939778888E+02 -0.90631917898E+02  0.81863409232E+02  0.15492090098E+03  0.90814164339E+02 0.  0.
          5    1    3    3  502    0 -0.20024702567E+02 -0.19957631844E+03 -0.22008702052E+03  0.29781215925E+03  0.47000000000E+01 0. -1.
         -5    1    3    3    0  502  0.86780534434E+02 -0.36726819631E+03 -0.44694219896E+03  0.58497539127E+03  0.47000000000E+01 0.  1.
         11    1    5    5    0    0 -0.59420034906E+02  0.45523268812E+03 -0.10117531618E+03  0.47011060984E+03  0.00000000000E+00 0. -1.
        -11    1    5    5    0    0  0.21603981927E+02  0.20224374453E+03 -0.68890710323E+01  0.20351099119E+03  0.00000000000E+00 0.  1.
          3    1    6    6  503    0 -0.20406096396E+02 -0.48314988597E+02 -0.10025276875E+02  0.53397126043E+02  0.00000000000E+00 0. -1.
         -3    1    6    6    0  503 -0.85336824914E+01 -0.42316929302E+02  0.91888686107E+02  0.10152377493E+03  0.00000000000E+00 0.  1.
<mgrwt>
<rscale>  0 0.66807460E+03</rscale>
<asrwt>0</asrwt>
<pdfrwt beam="1">  1        2 0.18496617E+00 0.66807460E+03</pdfrwt>
<pdfrwt beam="2">  1       -2 0.78315373E-01 0.66807460E+03</pdfrwt>
<totfact> 0.28149046E+01</totfact>
</mgrwt>
</event>
<event>
12    1  0.3147868E-008  0.5982492E+03  0.7818608E-02  0.9909045E-01
          1   -1    0    0  501    0  0.00000000000E+00  0.00000000000E+00  0.20326485121E+04  0.20326485121E+04  0.00000000000E+00 0. -1.
         -1   -1    0    0    0  501 -0.00000000000E+00 -0.00000000000E+00 -0.23430347671E+03  0.23430347671E+03  0.00000000000E+00 0.  1.
         23    2    1    2    0    0  0.37867988650E+03  0.29283116259E+03  0.27109667617E+03  0.55766714800E+03  0.91382131168E+02 0.  0.
    5000000    2    1    2    0    0 -0.37867988650E+03 -0.29283116259E+03  0.15272483592E+04  0.17092848408E+04  0.60001547484E+03 0.  0.
         23    2    4    4    0    0 -0.95250807892E+02  0.13736966841E+03  0.18953138997E+03  0.27300800746E+03  0.10328640835E+03 0.  0.
         23    2    4    4    0    0 -0.28342907861E+03 -0.43020083100E+03  0.13377169693E+04  0.14362768334E+04  0.89440788294E+02 0.  0.
          5    1    3    3  502    0  0.24219754170E+03  0.23568731098E+03  0.16933219223E+03  0.37802597673E+03  0.47000000000E+01 0. -1.
         -5    1    3    3    0  502  0.13648234480E+03  0.57143851615E+02  0.10176448395E+03  0.17964117126E+03  0.47000000000E+01 0.  1.
         11    1    5    5    0    0 -0.11419664446E+03  0.93774121637E+02  0.15575551740E+03  0.21469569324E+03  0.00000000000E+00 0. -1.
        -11    1    5    5    0    0  0.18945836569E+02  0.43595546771E+02  0.33775872573E+02  0.58312314219E+02  0.00000000000E+00 0.  1.
          2    1    6    6  503    0 -0.74448437910E+02 -0.11530399776E+03  0.47451256948E+03  0.49396331888E+03  0.00000000000E+00 0.  1.
         -2    1    6    6    0  503 -0.20898064070E+03 -0.31489683324E+03  0.86320439979E+03  0.94231351449E+03  0.00000000000E+00 0. -1.
<mgrwt>
<rscale>  0 0.59824918E+03</rscale>
<asrwt>0</asrwt>
<pdfrwt beam="1">  1        1 0.31271514E+00 0.59824918E+03</pdfrwt>
<pdfrwt beam="2">  1       -1 0.36046690E-01 0.59824918E+03</pdfrwt>
<totfact> 0.22202249E+01</totfact>
</mgrwt>
</event>
<event>
12    1  0.3147868E-008  0.5077412E+03  0.7818608E-02  0.1011778E+00
         -2   -1    0    0    0  501 -0.00000000000E+00  0.00000000000E+00  0.13808396764E+03  0.13808396764E+03  0.00000000000E+00 0.  1.
          2   -1    0    0  501    0  0.00000000000E+00 -0.00000000000E+00 -0.21092120096E+04  0.21092120096E+04  0.00000000000E+00 0. -1.
         23    2    1    2    0    0 -0.31080786190E+03  0.15402284714E+03 -0.44723279833E+03  0.57322965831E+03  0.90832267419E+02 0.  0.
    5000000    2    1    2    0    0  0.31080786190E+03 -0.15402284714E+03 -0.15238952437E+04  0.16740663190E+04  0.59993063113E+03 0.  0.
         23    2    4    4    0    0  0.45845497544E+03 -0.57905169571E+02 -0.12506663381E+04  0.13364609597E+04  0.91802148560E+02 0.  0.
         23    2    4    4    0    0 -0.14764711354E+03 -0.96117677571E+02 -0.27322890559E+03  0.33760535925E+03  0.91022336088E+02 0.  0.
          5    1    3    3  502    0 -0.17073805470E+03  0.12084923746E+03 -0.21531131547E+03  0.30022836989E+03  0.47000000000E+01 0. -1.
         -5    1    3    3    0  502 -0.14006980720E+03  0.33173609686E+02 -0.23192148286E+03  0.27300128842E+03  0.47000000000E+01 0.  1.
         11    1    5    5    0    0  0.23641540706E+03 -0.75627423098E+02 -0.64146297170E+03  0.68781283492E+03  0.00000000000E+00 0. -1.
        -11    1    5    5    0    0  0.22203956839E+03  0.17722253527E+02 -0.60920336638E+03  0.64864812481E+03  0.00000000000E+00 0.  1.
          3    1    6    6  503    0  0.82586623935E+01 -0.28851920730E+00  0.56547190484E+00  0.82830251924E+01  0.00000000000E+00 0. -1.
         -3    1    6    6    0  503 -0.15590577593E+03 -0.95829158364E+02 -0.27379437750E+03  0.32932233406E+03  0.00000000000E+00 0.  1.
<mgrwt>
<rscale>  0 0.50774116E+03</rscale>
<asrwt>0</asrwt>
<pdfrwt beam="1">  1        2 0.32449416E+00 0.50774116E+03</pdfrwt>
<pdfrwt beam="2">  1       -2 0.21243687E-01 0.50774116E+03</pdfrwt>
<totfact> 0.11809878E+02</totfact>
</mgrwt>
</event>
<event>
12    1  0.3147868E-008  0.5995200E+03  0.7818608E-02  0.9906402E-01
          1   -1    0    0  501    0  0.00000000000E+00  0.00000000000E+00  0.11111512910E+04  0.11111512910E+04  0.00000000000E+00 0. -1.
         -1   -1    0    0    0  501 -0.00000000000E+00 -0.00000000000E+00 -0.44820751933E+03  0.44820751933E+03  0.00000000000E+00 0.  1.
         23    2    1    2    0    0  0.46393706417E+03  0.48024243099E+02  0.64258981833E+03  0.79917580728E+03  0.90644188350E+02 0.  0.
    5000000    2    1    2    0    0 -0.46393706417E+03 -0.48024243099E+02  0.20353953322E+02  0.76018300303E+03  0.59993331900E+03 0.  0.
         23    2    4    4    0    0  0.27068879429E+02 -0.20886828375E+03 -0.34995860723E+02  0.23298673223E+03  0.93270697099E+02 0.  0.
         23    2    4    4    0    0 -0.49100594360E+03  0.16084404065E+03  0.55349814045E+02  0.52719627080E+03  0.88964397183E+02 0.  0.
          5    1    3    3  502    0  0.19545520407E+03  0.23401418851E+02  0.19826733194E+03  0.27943226034E+03  0.47000000000E+01 0. -1.
         -5    1    3    3    0  502  0.26848186010E+03  0.24622824249E+02  0.44432248639E+03  0.51974354694E+03  0.47000000000E+01 0.  1.
         13    1    5    5    0    0  0.17305820626E+02 -0.52104370773E+02  0.30505049843E+02  0.62808557913E+02  0.00000000000E+00 0.  1.
        -13    1    5    5    0    0  0.97630588030E+01 -0.15676391298E+03 -0.65500910566E+02  0.17017817432E+03  0.00000000000E+00 0. -1.
          3    1    6    6  503    0 -0.24238850338E+03  0.46272694325E+02 -0.52528787968E+01  0.24682167966E+03  0.00000000000E+00 0. -1.
         -3    1    6    6    0  503 -0.24861744021E+03  0.11457134633E+03  0.60602692842E+02  0.28037459114E+03  0.00000000000E+00 0.  1.
<mgrwt>
<rscale>  0 0.59951999E+03</rscale>
<asrwt>0</asrwt>
<pdfrwt beam="1">  1        1 0.17094635E+00 0.59951999E+03</pdfrwt>
<pdfrwt beam="2">  1       -1 0.68955003E-01 0.59951999E+03</pdfrwt>
<totfact> 0.27755581E+01</totfact>
</mgrwt>
</event>
<event>
12    1  0.3147868E-008  0.5072108E+03  0.7818608E-02  0.1011914E+00
         -1   -1    0    0    0  501 -0.00000000000E+00  0.00000000000E+00  0.28792497495E+03  0.28792497495E+03  0.00000000000E+00 0.  1.
          1   -1    0    0  501    0  0.00000000000E+00 -0.00000000000E+00 -0.20665368205E+04  0.20665368205E+04  0.00000000000E+00 0. -1.
         23    2    1    2    0    0 -0.13103359690E+03 -0.31138760134E+03  0.91544487846E+02  0.36158954756E+03  0.90744508722E+02 0.  0.
    5000000    2    1    2    0    0  0.13103359690E+03  0.31138760134E+03 -0.18701563334E+04  0.19928722479E+04  0.59993586599E+03 0.  0.
         23    2    4    4    0    0  0.32035236702E+03  0.27600174320E+02 -0.82552482688E+03  0.89030058836E+03  0.88070932577E+02 0.  0.
         23    2    4    4    0    0 -0.18931877012E+03  0.28378742702E+03 -0.10446315065E+04  0.11025716595E+04  0.89623543447E+02 0.  0.
          5    1    3    3  502    0 -0.65199220407E+02 -0.11700784581E+03 -0.63139627276E+01  0.13417798049E+03  0.47000000000E+01 0. -1.
         -5    1    3    3    0  502 -0.65834376494E+02 -0.19437975554E+03  0.97858450574E+02  0.22741156708E+03  0.47000000000E+01 0.  1.
         11    1    5    5    0    0  0.28199030933E+03  0.52049447796E+02 -0.68508941621E+03  0.74268108080E+03  0.00000000000E+00 0.  1.
        -11    1    5    5    0    0  0.38362057694E+02 -0.24449273476E+02 -0.14043541066E+03  0.14761950756E+03  0.00000000000E+00 0. -1.
          3    1    6    6  503    0 -0.83513286152E+02  0.95298886537E+02 -0.51870481384E+03  0.53395789219E+03  0.00000000000E+00 0. -1.
         -3    1    6    6    0  503 -0.10580548397E+03  0.18848854049E+03 -0.52592669265E+03  0.56861376731E+03  0.00000000000E+00 0.  1.
<mgrwt>
<rscale>  0 0.50721079E+03</rscale>
<asrwt>0</asrwt>
<pdfrwt beam="1">  1        1 0.31792875E+00 0.50721079E+03</pdfrwt>
<pdfrwt beam="2">  1       -1 0.44296149E-01 0.50721079E+03</pdfrwt>
<totfact> 0.14788858E+01</totfact>
</mgrwt>
</event>
<event>
12    1  0.3147868E-008  0.3785199E+03  0.7818608E-02  0.1051482E+00
         -2   -1    0    0    0  501 -0.00000000000E+00  0.00000000000E+00  0.66418397117E+02  0.66418397117E+02  0.00000000000E+00 0.  1.
          2   -1    0    0  501    0  0.00000000000E+00 -0.00000000000E+00 -0.53917196973E+04  0.53917196973E+04  0.00000000000E+00 0. -1.
         23    2    1    2    0    0 -0.59481427631E+02 -0.31662498066E+03 -0.33899635200E+04  0.34064453025E+04  0.90705638495E+02 0.  0.
    5000000    2    1    2    0    0  0.59481427631E+02  0.31662498066E+03 -0.19353377802E+04  0.20516927920E+04  0.60010130037E+03 0.  0.
         23    2    4    4    0    0  0.15142174430E+03  0.14549565644E+03 -0.17622312168E+04  0.17769184133E+04  0.88784319087E+02 0.  0.
         23    2    4    4    0    0 -0.91940316664E+02  0.17112932422E+03 -0.17310656343E+03  0.27477437875E+03  0.88299544053E+02 0.  0.
          5    1    3    3  502    0 -0.67643584074E+02 -0.14473768290E+03 -0.18493228270E+04  0.18562170293E+04  0.47000000000E+01 0. -1.
         -5    1    3    3    0  502  0.81621564430E+01 -0.17188729777E+03 -0.15406406930E+04  0.15502282731E+04  0.47000000000E+01 0.  1.
         13    1    5    5    0    0  0.23571123013E+01  0.51585469039E+02 -0.42910059183E+03  0.43219663870E+03  0.00000000000E+00 0.  1.
        -13    1    5    5    0    0  0.14906463199E+03  0.93910187403E+02 -0.13331306249E+04  0.13447217746E+04  0.00000000000E+00 0. -1.
          2    1    6    6  503    0 -0.50616535492E+02  0.12734725375E+03 -0.66449132261E+02  0.15229853539E+03  0.00000000000E+00 0. -1.
         -2    1    6    6    0  503 -0.41323781172E+02  0.43782070473E+02 -0.10665743116E+03  0.12247584336E+03  0.00000000000E+00 0.  1.
<mgrwt>
<rscale>  0 0.37851987E+03</rscale>
<asrwt>0</asrwt>
<pdfrwt beam="1">  1        2 0.82949541E+00 0.37851987E+03</pdfrwt>
<pdfrwt beam="2">  1       -2 0.10218214E-01 0.37851987E+03</pdfrwt>
<totfact> 0.87137857E-01</totfact>
</mgrwt>
</event>
<event>
12    1  0.3147868E-008  0.6181400E+03  0.7818608E-02  0.9868470E-01
         -2   -1    0    0    0  501 -0.00000000000E+00  0.00000000000E+00  0.31954189473E+03  0.31954189473E+03  0.00000000000E+00 0.  1.
          2   -1    0    0  501    0  0.00000000000E+00 -0.00000000000E+00 -0.18853334273E+04  0.18853334273E+04  0.00000000000E+00 0. -1.
         23    2    1    2    0    0 -0.47018517134E+03  0.20591569446E+03 -0.12502119007E+04  0.13545367393E+04  0.90909916290E+02 0.  0.
    5000000    2    1    2    0    0  0.47018517134E+03 -0.20591569446E+03 -0.31557963187E+03  0.85033858274E+03  0.60000819384E+03 0.  0.
         23    2    4    4    0    0  0.31381948467E+03  0.13342955142E+03 -0.21718696283E+00  0.35318089393E+03  0.91927049990E+02 0.  0.
         23    2    4    4    0    0  0.15636568667E+03 -0.33934524588E+03 -0.31536244491E+03  0.49715768880E+03  0.90038169761E+02 0.  0.
          5    1    3    3  502    0 -0.11884329923E+03  0.17373531692E+02 -0.34657428564E+03  0.36682610982E+03  0.47000000000E+01 0. -1.
         -5    1    3    3    0  502 -0.35134187211E+03  0.18854216276E+03 -0.90363761501E+03  0.98771062943E+03  0.47000000000E+01 0.  1.
         11    1    5    5    0    0  0.26994119721E+03  0.11062519303E+03  0.33029185900E+02  0.29359344407E+03  0.00000000000E+00 0. -1.
        -11    1    5    5    0    0  0.43878287462E+02  0.22804358395E+02 -0.33246372863E+02  0.59587449862E+02  0.00000000000E+00 0.  1.
          2    1    6    6  503    0  0.18370152480E+02 -0.83024815393E+02 -0.31840422218E+02  0.90798650652E+02  0.00000000000E+00 0. -1.
         -2    1    6    6    0  503  0.13799553419E+03 -0.25632043048E+03 -0.28352202269E+03  0.40635903815E+03  0.00000000000E+00 0.  1.
<mgrwt>
<rscale>  0 0.61813998E+03</rscale>
<asrwt>0</asrwt>
<pdfrwt beam="1">  1        2 0.29005130E+00 0.61813998E+03</pdfrwt>
<pdfrwt beam="2">  1       -2 0.49160291E-01 0.61813998E+03</pdfrwt>
<totfact> 0.31799104E+01</totfact>
</mgrwt>
</event>
<event>
12    1  0.3147868E-008  0.8948994E+03  0.7818608E-02  0.9431980E-01
         -1   -1    0    0    0  501 -0.00000000000E+00  0.00000000000E+00  0.19918589011E+03  0.19918589011E+03  0.00000000000E+00 0.  1.
          1   -1    0    0  501    0  0.00000000000E+00 -0.00000000000E+00 -0.57228597326E+04  0.57228597326E+04  0.00000000000E+00 0. -1.
         23    2    1    2    0    0 -0.28458769141E+03  0.74751073428E+03 -0.97366816469E+03  0.12634743917E+04  0.92603410423E+02 0.  0.
    5000000    2    1    2    0    0  0.28458769141E+03 -0.74751073428E+03 -0.45500056778E+04  0.46585712310E+04  0.59997649481E+03 0.  0.
         23    2    4    4    0    0  0.31390929781E+03 -0.10483155743E+03 -0.18263566592E+04  0.18583388328E+04  0.91191382078E+02 0.  0.
         23    2    4    4    0    0 -0.29321606402E+02 -0.64267917685E+03 -0.27236490185E+04  0.28002323981E+04  0.95609761567E+02 0.  0.
          5    1    3    3  502    0 -0.14922611737E+03  0.28127855877E+03 -0.42027376165E+03  0.52729326419E+03  0.47000000000E+01 0. -1.
         -5    1    3    3    0  502 -0.13536157404E+03  0.46623217550E+03 -0.55339440304E+03  0.73618112752E+03  0.47000000000E+01 0.  1.
         11    1    5    5    0    0  0.14488334484E+03 -0.77892329508E+01 -0.90892042652E+03  0.92042826853E+03  0.00000000000E+00 0. -1.
        -11    1    5    5    0    0  0.16902595298E+03 -0.97042324481E+02 -0.91743623272E+03  0.93791056430E+03  0.00000000000E+00 0.  1.
          1    1    6    6  503    0 -0.80833240859E+00 -0.51603655551E+03 -0.22980334369E+04  0.23552605073E+04  0.00000000000E+00 0. -1.
         -1    1    6    6    0  503 -0.28513273994E+02 -0.12664262134E+03 -0.42561558157E+03  0.44497189080E+03  0.00000000000E+00 0.  1.
<mgrwt>
<rscale>  0 0.89489939E+03</rscale>
<asrwt>0</asrwt>
<pdfrwt beam="1">  1        1 0.88043982E+00 0.89489939E+03</pdfrwt>
<pdfrwt beam="2">  1       -1 0.30643988E-01 0.89489939E+03</pdfrwt>
<totfact> 0.62995823E-03</totfact>
</mgrwt>
</event>
<event>
12    1  0.3147868E-008  0.8695604E+03  0.7818608E-02  0.9464453E-01
         -2   -1    0    0    0  501 -0.00000000000E+00  0.00000000000E+00  0.57088164677E+03  0.57088164677E+03  0.00000000000E+00 0.  1.
          2   -1    0    0  501    0  0.00000000000E+00 -0.00000000000E+00 -0.16633638933E+04  0.16633638933E+04  0.00000000000E+00 0. -1.
         23    2    1    2    0    0  0.61437260724E+03 -0.57126479776E+03 -0.19258923884E+03  0.86546415513E+03  0.90224271762E+02 0.  0.
    5000000    2    1    2    0    0 -0.61437260724E+03  0.57126479776E+03 -0.89989300765E+03  0.13687813849E+04  0.59996490293E+03 0.  0.
         23    2    4    4    0    0 -0.72356236740E+01  0.15454573602E+03 -0.48755363583E+03  0.51977034300E+03  0.92281758150E+02 0.  0.
         23    2    4    4    0    0 -0.60713698357E+03  0.41671906174E+03 -0.41233937182E+03  0.84901104190E+03  0.92335791963E+02 0.  0.
          5    1    3    3  502    0  0.19871531355E+03 -0.23051890910E+03 -0.97543513209E+02  0.31963036505E+03  0.47000000000E+01 0. -1.
         -5    1    3    3    0  502  0.41565729369E+03 -0.34074588866E+03 -0.95045725634E+02  0.54583379008E+03  0.47000000000E+01 0.  1.
         11    1    5    5    0    0 -0.98329662655E+01  0.90739529217E+02 -0.40630163834E+03  0.41642690920E+03  0.00000000000E+00 0. -1.
        -11    1    5    5    0    0  0.25973425915E+01  0.63806206799E+02 -0.81251997486E+02  0.10334343380E+03  0.00000000000E+00 0.  1.
          4    1    6    6  503    0 -0.69717310697E+02  0.15434677288E+02 -0.36998189570E+02  0.80421382140E+02  0.00000000000E+00 0. -1.
         -4    1    6    6    0  503 -0.53741967287E+03  0.40128438445E+03 -0.37534118225E+03  0.76858965976E+03  0.00000000000E+00 0.  1.
<mgrwt>
<rscale>  0 0.86956038E+03</rscale>
<asrwt>0</asrwt>
<pdfrwt beam="1">  1        2 0.25590214E+00 0.86956038E+03</pdfrwt>
<pdfrwt beam="2">  1       -2 0.87827946E-01 0.86956038E+03</pdfrwt>
<totfact> 0.11630703E+01</totfact>
</mgrwt>
</event>
<event>
12    1  0.3147868E-008  0.7286512E+03  0.7818608E-02  0.9669452E-01
         -2   -1    0    0    0  501 -0.00000000000E+00  0.00000000000E+00  0.61973364270E+03  0.61973364270E+03  0.00000000000E+00 0.  1.
          2   -1    0    0  501    0  0.00000000000E+00 -0.00000000000E+00 -0.10287412124E+04  0.10287412124E+04  0.00000000000E+00 0. -1.
         23    2    1    2    0    0 -0.20097126497E+03 -0.64092206520E+03 -0.53134950800E+02  0.68001360206E+03  0.91785799489E+02 0.  0.
    5000000    2    1    2    0    0  0.20097126497E+03  0.64092206520E+03 -0.35587261886E+03  0.96846125300E+03  0.60008443965E+03 0.  0.
         23    2    4    4    0    0  0.29938610227E+03  0.46763482411E+03 -0.14856327584E+02  0.56290389584E+03  0.91245375372E+02 0.  0.
         23    2    4    4    0    0 -0.98414837303E+02  0.17328724109E+03 -0.34101629127E+03  0.40555735717E+03  0.92036465112E+02 0.  0.
          5    1    3    3  502    0 -0.60935442758E+02 -0.34671975589E+03 -0.28997027021E+02  0.35325717952E+03  0.47000000000E+01 0. -1.
         -5    1    3    3    0  502 -0.14003582221E+03 -0.29420230932E+03 -0.24137923779E+02  0.32675642254E+03  0.47000000000E+01 0.  1.
         13    1    5    5    0    0  0.23948199931E+01 -0.27454616550E+01  0.50833739456E+01  0.62540717272E+01  0.00000000000E+00 0.  1.
        -13    1    5    5    0    0  0.29699128228E+03  0.47038028576E+03 -0.19939701530E+02  0.55664982411E+03  0.00000000000E+00 0. -1.
          3    1    6    6  503    0 -0.50838127716E+02  0.16302392535E+03 -0.26099911798E+03  0.31190039284E+03  0.00000000000E+00 0. -1.
         -3    1    6    6    0  503 -0.47576709586E+02  0.10263315742E+02 -0.80017173296E+02  0.93656964329E+02  0.00000000000E+00 0.  1.
<mgrwt>
<rscale>  0 0.72865122E+03</rscale>
<asrwt>0</asrwt>
<pdfrwt beam="1">  1        2 0.15826788E+00 0.72865122E+03</pdfrwt>
<pdfrwt beam="2">  1       -2 0.95343638E-01 0.72865122E+03</pdfrwt>
<totfact> 0.22737745E+01</totfact>
</mgrwt>
</event>
<event>
12    1  0.3147868E-008  0.8160511E+03  0.7818608E-02  0.9537070E-01
         -2   -1    0    0    0  501 -0.00000000000E+00  0.00000000000E+00  0.71527996534E+03  0.71527996534E+03  0.00000000000E+00 0.  1.
          2   -1    0    0  501    0  0.00000000000E+00 -0.00000000000E+00 -0.13873903787E+04  0.13873903787E+04  0.00000000000E+00 0. -1.
         23    2    1    2    0    0 -0.73937483909E+03 -0.31151933994E+03  0.13170619711E+03  0.81822006875E+03  0.91750240895E+02 0.  0.
    5000000    2    1    2    0    0  0.73937483909E+03  0.31151933994E+03 -0.80381661048E+03  0.12844502753E+04  0.59997659502E+03 0.  0.
         23    2    4    4    0    0  0.41404428784E+03  0.22353288871E+03 -0.85406857273E+02  0.48679872234E+03  0.90989231106E+02 0.  0.
         23    2    4    4    0    0  0.32533055125E+03  0.87986451232E+02 -0.71840975321E+03  0.79765155295E+03  0.80955810414E+02 0.  0.
          5    1    3    3  502    0 -0.30799760861E+03 -0.17595016641E+03  0.73613738426E+02  0.36230106328E+03  0.47000000000E+01 0. -1.
         -5    1    3    3    0  502 -0.43137723048E+03 -0.13556917353E+03  0.58092458687E+02  0.45591900547E+03  0.47000000000E+01 0.  1.
         11    1    5    5    0    0  0.15665711264E+03  0.36299250012E+02 -0.34552156057E+02  0.16447777352E+03  0.00000000000E+00 0. -1.
        -11    1    5    5    0    0  0.25738717520E+03  0.18723363870E+03 -0.50854701216E+02  0.32232094883E+03  0.00000000000E+00 0.  1.
          1    1    6    6  503    0  0.21519293820E+03  0.96000357705E+02 -0.46798334090E+03  0.52395846848E+03  0.00000000000E+00 0. -1.
         -1    1    6    6    0  503  0.11013761306E+03 -0.80139064722E+01 -0.25042641230E+03  0.27369308447E+03  0.00000000000E+00 0.  1.
<mgrwt>
<rscale>  0 0.81605110E+03</rscale>
<asrwt>0</asrwt>
<pdfrwt beam="1">  1        2 0.21344467E+00 0.81605110E+03</pdfrwt>
<pdfrwt beam="2">  1       -2 0.11004307E+00 0.81605110E+03</pdfrwt>
<totfact> 0.97951908E+00</totfact>
</mgrwt>
</event>
<event>
12    1  0.3147868E-008  0.4643742E+03  0.7818608E-02  0.1023520E+00
          2   -1    0    0  501    0  0.00000000000E+00  0.00000000000E+00  0.11127233659E+04  0.11127233659E+04  0.00000000000E+00 0.  1.
         -2   -1    0    0    0  501 -0.00000000000E+00 -0.00000000000E+00 -0.25446436425E+03  0.25446436425E+03  0.00000000000E+00 0. -1.
         23    2    1    2    0    0  0.38077469083E+02  0.29161173135E+03  0.55068353320E+03  0.63159818521E+03  0.95794667442E+02 0.  0.
    5000000    2    1    2    0    0 -0.38077469083E+02 -0.29161173135E+03  0.30757546850E+03  0.73558954499E+03  0.60000167864E+03 0.  0.
         23    2    4    4    0    0 -0.26356975932E+03 -0.10370855011E+02  0.21855019344E+03  0.35382118859E+03  0.88592741118E+02 0.  0.
         23    2    4    4    0    0  0.22549229024E+03 -0.28124087634E+03  0.89025275059E+02  0.38176835641E+03  0.88760209971E+02 0.  0.
          5    1    3    3  502    0  0.48922450842E+02  0.17963962500E+03  0.41777836710E+03  0.45741081654E+03  0.47000000000E+01 0. -1.
         -5    1    3    3    0  502 -0.10844981759E+02  0.11197210635E+03  0.13290516609E+03  0.17418736867E+03  0.47000000000E+01 0.  1.
         13    1    5    5    0    0 -0.21607284086E+03  0.37142394201E+01  0.12954910095E+03  0.25196078601E+03  0.00000000000E+00 0.  1.
        -13    1    5    5    0    0 -0.47496918463E+02 -0.14085094431E+02  0.89001092487E+02  0.10186040257E+03  0.00000000000E+00 0. -1.
          1    1    6    6  503    0  0.15037314729E+03 -0.22413910388E+03  0.97620171245E+02  0.28701937068E+03  0.00000000000E+00 0. -1.
         -1    1    6    6    0  503  0.75119142948E+02 -0.57101772459E+02 -0.85948961863E+01  0.94748985724E+02  0.00000000000E+00 0.  1.
<mgrwt>
<rscale>  0 0.46437417E+03</rscale>
<asrwt>0</asrwt>
<pdfrwt beam="1">  1        2 0.17118821E+00 0.46437417E+03</pdfrwt>
<pdfrwt beam="2">  1       -2 0.39148364E-01 0.46437417E+03</pdfrwt>
<totfact> 0.13714677E+02</totfact>
</mgrwt>
</event>
<event>
12    1  0.3147868E-008  0.7500324E+03  0.7818608E-02  0.9635300E-01
         -2   -1    0    0    0  501 -0.00000000000E+00  0.00000000000E+00  0.44818420405E+03  0.44818420405E+03  0.00000000000E+00 0.  1.
          2   -1    0    0  501    0  0.00000000000E+00 -0.00000000000E+00 -0.14632724937E+04  0.14632724937E+04  0.00000000000E+00 0. -1.
         23    2    1    2    0    0 -0.63575654402E+03 -0.27100835149E+03 -0.34957463610E+03  0.77979228421E+03  0.90783646484E+02 0.  0.
    5000000    2    1    2    0    0  0.63575654402E+03  0.27100835149E+03 -0.66551365359E+03  0.11316644136E+04  0.60010333444E+03 0.  0.
         23    2    4    4    0    0  0.51119224592E+03  0.36597197961E+03 -0.70220710733E+03  0.94670908902E+03  0.88939729586E+02 0.  0.
         23    2    4    4    0    0  0.12456429810E+03 -0.94963628120E+02  0.36693453737E+02  0.18495532456E+03  0.91256273812E+02 0.  0.
          5    1    3    3  502    0 -0.11690353799E+03 -0.81568610689E+02 -0.48191797946E+02  0.15054705189E+03  0.47000000000E+01 0. -1.
         -5    1    3    3    0  502 -0.51885300603E+03 -0.18943974080E+03 -0.30138283815E+03  0.62924523232E+03  0.47000000000E+01 0.  1.
         13    1    5    5    0    0  0.28674352951E+03  0.15229257315E+03 -0.34294731418E+03  0.47225812842E+03  0.00000000000E+00 0.  1.
        -13    1    5    5    0    0  0.22444871642E+03  0.21367940646E+03 -0.35925979314E+03  0.47445096060E+03  0.00000000000E+00 0. -1.
          1    1    6    6  503    0  0.60121354468E+01  0.10316090662E+02  0.22874379150E+02  0.25803192063E+02  0.00000000000E+00 0. -1.
         -1    1    6    6    0  503  0.11855216265E+03 -0.10527971878E+03  0.13819074588E+02  0.15915213250E+03  0.00000000000E+00 0.  1.
<mgrwt>
<rscale>  0 0.75003241E+03</rscale>
<asrwt>0</asrwt>
<pdfrwt beam="1">  1        2 0.22511885E+00 0.75003241E+03</pdfrwt>
<pdfrwt beam="2">  1       -2 0.68951415E-01 0.75003241E+03</pdfrwt>
<totfact> 0.26170448E+01</totfact>
</mgrwt>
</event>
<event>
12    1  0.3147868E-008  0.7072784E+03  0.7818608E-02  0.9704865E-01
          2   -1    0    0  501    0  0.00000000000E+00  0.00000000000E+00  0.21990443113E+04  0.21990443113E+04  0.00000000000E+00 0.  1.
         -2   -1    0    0    0  501 -0.00000000000E+00 -0.00000000000E+00 -0.26119433850E+03  0.26119433850E+03  0.00000000000E+00 0. -1.
         23    2    1    2    0    0 -0.55003823476E+02  0.62253146114E+03  0.63561291878E+03  0.89599972724E+03  0.90779336760E+02 0.  0.
    5000000    2    1    2    0    0  0.55003823476E+02 -0.62253146114E+03  0.13022370540E+04  0.15642389225E+04  0.60037589997E+03 0.  0.
         23    2    4    4    0    0  0.41892146040E+02 -0.70030941582E+03  0.12460638919E+04  0.14329603449E+04  0.92259946796E+02 0.  0.
         23    2    4    4    0    0  0.13111677437E+02  0.77777954678E+02  0.56173162109E+02  0.13127857757E+03  0.88641494059E+02 0.  0.
          5    1    3    3  502    0 -0.61837916066E+02  0.21224422089E+03  0.22639756714E+03  0.31646403519E+03  0.47000000000E+01 0. -1.
         -5    1    3    3    0  502  0.68340925896E+01  0.41028724025E+03  0.40921535164E+03  0.57953569204E+03  0.47000000000E+01 0.  1.
         11    1    5    5    0    0  0.41899902932E+02 -0.29375318030E+03  0.44883493772E+03  0.53805142330E+03  0.00000000000E+00 0.  1.
        -11    1    5    5    0    0 -0.77568926097E-02 -0.40655623552E+03  0.79722895415E+03  0.89490892165E+03  0.00000000000E+00 0. -1.
          4    1    6    6  503    0  0.25993868493E+01  0.50251160878E+02 -0.16422827226E+02  0.52930569954E+02  0.00000000000E+00 0. -1.
         -4    1    6    6    0  503  0.10512290587E+02  0.27526793800E+02  0.72595989334E+02  0.78348007618E+02  0.00000000000E+00 0.  1.
<mgrwt>
<rscale>  0 0.70727842E+03</rscale>
<asrwt>0</asrwt>
<pdfrwt beam="1">  1        2 0.33831450E+00 0.70727842E+03</pdfrwt>
<pdfrwt beam="2">  1       -2 0.40183746E-01 0.70727842E+03</pdfrwt>
<totfact> 0.31594788E+01</totfact>
</mgrwt>
</event>
<event>
12    1  0.3147868E-008  0.1060436E+04  0.7818608E-02  0.9244635E-01
          2   -1    0    0  501    0  0.00000000000E+00  0.00000000000E+00  0.21024847622E+04  0.21024847622E+04  0.00000000000E+00 0. -1.
         -2   -1    0    0    0  501 -0.00000000000E+00 -0.00000000000E+00 -0.60323942628E+03  0.60323942628E+03  0.00000000000E+00 0.  1.
         23    2    1    2    0    0 -0.99500456817E+03  0.39526975100E+02  0.10748377041E+04  0.14680824317E+04  0.91615848747E+02 0.  0.
    5000000    2    1    2    0    0  0.99500456817E+03 -0.39526975100E+02  0.42440763177E+03  0.12376417567E+04  0.60003233882E+03 0.  0.
         23    2    4    4    0    0  0.20388130486E+03 -0.23324860440E+03  0.22607957470E+03  0.39428787797E+03  0.91533920996E+02 0.  0.
         23    2    4    4    0    0  0.79112326331E+03  0.19372162930E+03  0.19832805707E+03  0.84335387875E+03  0.92236972880E+02 0.  0.
          5    1    3    3  502    0 -0.19882795025E+03 -0.66824422716E+01  0.16793189877E+03  0.26038514063E+03  0.47000000000E+01 0. -1.
         -5    1    3    3    0  502 -0.79617661792E+03  0.46209417372E+02  0.90690580535E+03  0.12076972911E+04  0.47000000000E+01 0.  1.
         11    1    5    5    0    0  0.41386806513E+02 -0.49986392068E+02  0.98949389958E+02  0.11833211279E+03  0.00000000000E+00 0. -1.
        -11    1    5    5    0    0  0.16249449835E+03 -0.18326221234E+03  0.12713018474E+03  0.27595576518E+03  0.00000000000E+00 0.  1.
          4    1    6    6  503    0  0.61815235995E+03  0.14859487550E+03  0.11480815035E+03  0.64604464902E+03  0.00000000000E+00 0. -1.
         -4    1    6    6    0  503  0.17297090336E+03  0.45126753801E+02  0.83519906722E+02  0.19730922973E+03  0.00000000000E+00 0.  1.
<mgrwt>
<rscale>  0 0.10604359E+04</rscale>
<asrwt>0</asrwt>
<pdfrwt beam="1">  1        2 0.32345919E+00 0.10604359E+04</pdfrwt>
<pdfrwt beam="2">  1       -2 0.92806067E-01 0.10604359E+04</pdfrwt>
<totfact> 0.57378435E+00</totfact>
</mgrwt>
</event>
<event>
12    1  0.3147868E-008  0.6526624E+03  0.7818608E-02  0.9801796E-01
         -2   -1    0    0    0  501 -0.00000000000E+00  0.00000000000E+00  0.23075697849E+03  0.23075697849E+03  0.00000000000E+00 0.  1.
          2   -1    0    0  501    0  0.00000000000E+00 -0.00000000000E+00 -0.21749798643E+04  0.21749798643E+04  0.00000000000E+00 0. -1.
         23    2    1    2    0    0  0.17419434410E+03 -0.51284995740E+03 -0.11415496636E+04  0.12666236978E+04  0.88550600906E+02 0.  0.
    5000000    2    1    2    0    0 -0.17419434410E+03  0.51284995740E+03 -0.80267322218E+03  0.11391131450E+04  0.59994642030E+03 0.  0.
         23    2    4    4    0    0  0.16626463848E+03  0.82546477900E+02 -0.40639801260E+03  0.45600465082E+03  0.91230728937E+02 0.  0.
         23    2    4    4    0    0 -0.34045898258E+03  0.43030347950E+03 -0.39627520958E+03  0.68310849420E+03  0.92356752986E+02 0.  0.
          5    1    3    3  502    0  0.16142708539E+01 -0.10768250969E+03 -0.20161395460E+03  0.22862284543E+03  0.47000000000E+01 0. -1.
         -5    1    3    3    0  502  0.17258007325E+03 -0.40516744771E+03 -0.93993570904E+03  0.10380008524E+04  0.47000000000E+01 0.  1.
         11    1    5    5    0    0  0.16116416701E+02 -0.19331609651E+02 -0.56688451955E+02  0.62024435540E+02  0.00000000000E+00 0. -1.
        -11    1    5    5    0    0  0.15014822178E+03  0.10187808755E+03 -0.34970956065E+03  0.39398021528E+03  0.00000000000E+00 0.  1.
          2    1    6    6  503    0 -0.10490259820E+03  0.10105762988E+03 -0.15082406038E+03  0.20967855602E+03  0.00000000000E+00 0. -1.
         -2    1    6    6    0  503 -0.23555638438E+03  0.32924584961E+03 -0.24545114920E+03  0.47342993817E+03  0.00000000000E+00 0.  1.
<mgrwt>
<rscale>  0 0.65266240E+03</rscale>
<asrwt>0</asrwt>
<pdfrwt beam="1">  1        2 0.33461230E+00 0.65266240E+03</pdfrwt>
<pdfrwt beam="2">  1       -2 0.35501073E-01 0.65266240E+03</pdfrwt>
<totfact> 0.41687872E+01</totfact>
</mgrwt>
</event>
<event>
12    1  0.3147868E-008  0.7073263E+03  0.7818608E-02  0.9704785E-01
         -2   -1    0    0    0  501 -0.00000000000E+00  0.00000000000E+00  0.52236284511E+03  0.52236284511E+03  0.00000000000E+00 0.  1.
          2   -1    0    0  501    0  0.00000000000E+00 -0.00000000000E+00 -0.11336220236E+04  0.11336220236E+04  0.00000000000E+00 0. -1.
         23    2    1    2    0    0  0.36163211120E+03  0.53484426986E+03 -0.19066874242E+03  0.67931941685E+03  0.91017162838E+02 0.  0.
    5000000    2    1    2    0    0 -0.36163211120E+03 -0.53484426986E+03 -0.42059043602E+03  0.97666545181E+03  0.60011908239E+03 0.  0.
         23    2    4    4    0    0 -0.31933064124E+03 -0.59415287801E+03 -0.17213962474E+03  0.70211203605E+03  0.91321190774E+02 0.  0.
         23    2    4    4    0    0 -0.42301469958E+02  0.59308608151E+02 -0.24845081128E+03  0.27455341576E+03  0.91350134741E+02 0.  0.
          5    1    3    3  502    0  0.29373975482E+03  0.48603510170E+03 -0.15872141348E+03  0.58968444166E+03  0.47000000000E+01 0. -1.
         -5    1    3    3    0  502  0.67892356373E+02  0.48809168157E+02 -0.31947328945E+02  0.89634975187E+02  0.47000000000E+01 0.  1.
         13    1    5    5    0    0 -0.29644019630E+03 -0.57191289687E+03 -0.14517553673E+03  0.66033104429E+03  0.00000000000E+00 0.  1.
        -13    1    5    5    0    0 -0.22890444938E+02 -0.22239981133E+02 -0.26964088003E+02  0.41780991756E+02  0.00000000000E+00 0. -1.
          1    1    6    6  503    0 -0.45610614840E+01  0.46962778020E+02 -0.38549640968E+02  0.60929308382E+02  0.00000000000E+00 0. -1.
         -1    1    6    6    0  503 -0.37740408474E+02  0.12345830131E+02 -0.20990117032E+03  0.21362410738E+03  0.00000000000E+00 0.  1.
<mgrwt>
<rscale>  0 0.70732629E+03</rscale>
<asrwt>0</asrwt>
<pdfrwt beam="1">  1        2 0.17440338E+00 0.70732629E+03</pdfrwt>
<pdfrwt beam="2">  1       -2 0.80363516E-01 0.70732629E+03</pdfrwt>
<totfact> 0.29061063E+01</totfact>
</mgrwt>
</event>
<event>
12    1  0.3147868E-008  0.1061520E+04  0.7818608E-02  0.9243530E-01
         -1   -1    0    0    0  501 -0.00000000000E+00  0.00000000000E+00  0.74653269924E+03  0.74653269924E+03  0.00000000000E+00 0.  1.
          1   -1    0    0  501    0  0.00000000000E+00 -0.00000000000E+00 -0.18816930821E+04  0.18816930821E+04  0.00000000000E+00 0. -1.
         23    2    1    2    0    0 -0.10169800488E+04 -0.41874502933E+02 -0.49051306484E+02  0.10231227782E+04  0.91500245076E+02 0.  0.
    5000000    2    1    2    0    0  0.10169800488E+04  0.41874502933E+02 -0.10861090764E+04  0.16051030032E+04  0.60060039228E+03 0.  0.
         23    2    4    4    0    0  0.61465066270E+03 -0.18565335481E+03 -0.87438355000E+03  0.10885601240E+04  0.90299200871E+02 0.  0.
         23    2    4    4    0    0  0.40232938614E+03  0.22752785774E+03 -0.21172552638E+03  0.51654287918E+03  0.91383732229E+02 0.  0.
          5    1    3    3  502    0 -0.74395995380E+03 -0.35254274475E+02 -0.75893312761E+02  0.74866625518E+03  0.47000000000E+01 0. -1.
         -5    1    3    3    0  502 -0.27302009504E+03 -0.66202284581E+01  0.26842006277E+02  0.27445652301E+03  0.47000000000E+01 0.  1.
         13    1    5    5    0    0  0.49845219317E+03 -0.13729388055E+03 -0.75521419209E+03  0.91523367205E+03  0.00000000000E+00 0. -1.
        -13    1    5    5    0    0  0.11619846954E+03 -0.48359474254E+02 -0.11916935790E+03  0.17332645192E+03  0.00000000000E+00 0.  1.
          1    1    6    6  503    0  0.32824715223E+03  0.18667055279E+03 -0.20966439218E+03  0.43191578527E+03  0.00000000000E+00 0. -1.
         -1    1    6    6    0  503  0.74082233908E+02  0.40857304955E+02 -0.20611342049E+01  0.84627093908E+02  0.00000000000E+00 0.  1.
<mgrwt>
<rscale>  0 0.10615204E+04</rscale>
<asrwt>0</asrwt>
<pdfrwt beam="1">  1        1 0.28949124E+00 0.10615204E+04</pdfrwt>
<pdfrwt beam="2">  1       -1 0.11485119E+00 0.10615204E+04</pdfrwt>
<totfact> 0.24713668E+00</totfact>
</mgrwt>
</event>
<event>
12    1  0.3147868E-008  0.9041779E+03  0.7818608E-02  0.9420374E-01
          2   -1    0    0  501    0  0.00000000000E+00  0.00000000000E+00  0.25948038855E+04  0.25948038855E+04  0.00000000000E+00 0. -1.
         -2   -1    0    0    0  501 -0.00000000000E+00 -0.00000000000E+00 -0.97157561501E+03  0.97157561501E+03  0.00000000000E+00 0.  1.
         23    2    1    2    0    0 -0.40660068972E+03  0.70245976169E+03 -0.67272426628E+03  0.10582837676E+04  0.92912629476E+02 0.  0.
    5000000    2    1    2    0    0  0.40660068972E+03 -0.70245976169E+03  0.22959525368E+04  0.25080957329E+04  0.60031018361E+03 0.  0.
         23    2    4    4    0    0  0.39154296631E+03 -0.77977979841E+03  0.21254744166E+04  0.22993094573E+04  0.88431083638E+02 0.  0.
         23    2    4    4    0    0  0.15057723407E+02  0.77320036720E+02  0.17047812021E+03  0.20878627557E+03  0.91234841397E+02 0.  0.
          5    1    3    3  502    0 -0.88873635635E+02  0.23029261897E+03 -0.22694860244E+03  0.33535201149E+03  0.47000000000E+01 0. -1.
         -5    1    3    3    0  502 -0.31772705408E+03  0.47216714271E+03 -0.44577566385E+03  0.72293175614E+03  0.47000000000E+01 0.  1.
         13    1    5    5    0    0  0.12039702516E+03 -0.23684077151E+03  0.54467014240E+03  0.60601531230E+03  0.00000000000E+00 0.  1.
        -13    1    5    5    0    0  0.27114594115E+03 -0.54293902690E+03  0.15808042742E+04  0.16932941450E+04  0.00000000000E+00 0. -1.
          4    1    6    6  503    0  0.12777675009E+01  0.96300548526E+02  0.12703302200E+03  0.15941397998E+03  0.00000000000E+00 0. -1.
         -4    1    6    6    0  503  0.13779955906E+02 -0.18980511806E+02  0.43445098212E+02  0.49372295590E+02  0.00000000000E+00 0.  1.
<mgrwt>
<rscale>  0 0.90417791E+03</rscale>
<asrwt>0</asrwt>
<pdfrwt beam="1">  1        2 0.39920060E+00 0.90417791E+03</pdfrwt>
<pdfrwt beam="2">  1       -2 0.14947317E+00 0.90417791E+03</pdfrwt>
<totfact> 0.94913051E-01</totfact>
</mgrwt>
</event>
<event>
12    1  0.3147868E-008  0.5322745E+03  0.7818608E-02  0.1005682E+00
          1   -1    0    0  501    0  0.00000000000E+00  0.00000000000E+00  0.65377547152E+03  0.65377547152E+03  0.00000000000E+00 0. -1.
         -1   -1    0    0    0  501 -0.00000000000E+00 -0.00000000000E+00 -0.67865554430E+03  0.67865554430E+03  0.00000000000E+00 0.  1.
         23    2    1    2    0    0  0.41146245956E+03  0.11897259153E+02 -0.33798609052E+03  0.54050268328E+03  0.92008982441E+02 0.  0.
    5000000    2    1    2    0    0 -0.41146245956E+03 -0.11897259153E+02  0.31310601773E+03  0.79192833254E+03  0.59972677540E+03 0.  0.
         23    2    4    4    0    0 -0.31446450317E+03 -0.24359123775E+03  0.39764859699E+02  0.40982430242E+03  0.90277903834E+02 0.  0.
         23    2    4    4    0    0 -0.96997956392E+02  0.23169397860E+03  0.27334115803E+03  0.38210403012E+03  0.90539482547E+02 0.  0.
          5    1    3    3  502    0  0.27541158578E+03 -0.10828810987E+02 -0.27294031736E+03  0.38792694102E+03  0.47000000000E+01 0. -1.
         -5    1    3    3    0  502  0.13605087379E+03  0.22726070141E+02 -0.65045773152E+02  0.15257574226E+03  0.47000000000E+01 0.  1.
         13    1    5    5    0    0 -0.67791740210E+02 -0.58245717218E+02  0.47432047049E+02  0.10118341120E+03  0.00000000000E+00 0. -1.
        -13    1    5    5    0    0 -0.24667276296E+03 -0.18534552053E+03 -0.76671873508E+01  0.30864089121E+03  0.00000000000E+00 0.  1.
          1    1    6    6  503    0 -0.41772979520E+02  0.64302891939E+02  0.14512859510E+03  0.16414064958E+03  0.00000000000E+00 0. -1.
         -1    1    6    6    0  503 -0.55224976872E+02  0.16739108666E+03  0.12821256293E+03  0.21796338054E+03  0.00000000000E+00 0.  1.
<mgrwt>
<rscale>  0 0.53227452E+03</rscale>
<asrwt>0</asrwt>
<pdfrwt beam="1">  1        1 0.10058084E+00 0.53227452E+03</pdfrwt>
<pdfrwt beam="2">  1       -1 0.10440854E+00 0.53227452E+03</pdfrwt>
<totfact> 0.27433257E+01</totfact>
</mgrwt>
</event>
<event>
12    1  0.3147868E-008  0.4651241E+03  0.7818608E-02  0.1023305E+00
         -2   -1    0    0    0  501 -0.00000000000E+00  0.00000000000E+00  0.98342536765E+02  0.98342536765E+02  0.00000000000E+00 0.  1.
          2   -1    0    0  501    0  0.00000000000E+00 -0.00000000000E+00 -0.26579745092E+04  0.26579745092E+04  0.00000000000E+00 0. -1.
         23    2    1    2    0    0 -0.28651997904E+03  0.15456329331E+03 -0.82548968886E+03  0.89262475794E+03  0.96758576130E+02 0.  0.
    5000000    2    1    2    0    0  0.28651997904E+03 -0.15456329331E+03 -0.17341422835E+04  0.18636922880E+04  0.60009663780E+03 0.  0.
         23    2    4    4    0    0 -0.13498628364E+03 -0.42039722534E+02 -0.17580620461E+03  0.24278705243E+03  0.89716755454E+02 0.  0.
         23    2    4    4    0    0  0.42150626268E+03 -0.11252357078E+03 -0.15583360789E+04  0.16209052356E+04  0.92700400630E+02 0.  0.
          5    1    3    3  502    0 -0.97950782322E+02  0.10928719026E+02 -0.18512058191E+03  0.20977490913E+03  0.47000000000E+01 0. -1.
         -5    1    3    3    0  502 -0.18856919672E+03  0.14363457428E+03 -0.64036910695E+03  0.68284984881E+03  0.47000000000E+01 0.  1.
         11    1    5    5    0    0 -0.23060122355E+02 -0.40088579448E+02 -0.18715252821E+02  0.49891122791E+02  0.00000000000E+00 0. -1.
        -11    1    5    5    0    0 -0.11192616128E+03 -0.19511430858E+01 -0.15709095179E+03  0.19289592964E+03  0.00000000000E+00 0.  1.
          3    1    6    6  503    0  0.30149516500E+03 -0.78086705323E+02 -0.94527501336E+03  0.99525962389E+03  0.00000000000E+00 0. -1.
         -3    1    6    6    0  503  0.12001109769E+03 -0.34436865453E+02 -0.61306106558E+03  0.62564561167E+03  0.00000000000E+00 0.  1.
<mgrwt>
<rscale>  0 0.46512411E+03</rscale>
<asrwt>0</asrwt>
<pdfrwt beam="1">  1        2 0.40891905E+00 0.46512411E+03</pdfrwt>
<pdfrwt beam="2">  1       -2 0.15129625E-01 0.46512411E+03</pdfrwt>
<totfact> 0.10580146E+02</totfact>
</mgrwt>
</event>
<event>
12    1  0.3147868E-008  0.5774241E+03  0.7818608E-02  0.9953383E-01
          2   -1    0    0  501    0  0.00000000000E+00  0.00000000000E+00  0.13755259415E+04  0.13755259415E+04  0.00000000000E+00 0. -1.
         -2   -1    0    0    0  501 -0.00000000000E+00 -0.00000000000E+00 -0.28192019421E+03  0.28192019421E+03  0.00000000000E+00 0.  1.
         23    2    1    2    0    0 -0.17164956741E+03 -0.38527227562E+03  0.70729381983E+03  0.82854452322E+03  0.91231458572E+02 0.  0.
    5000000    2    1    2    0    0  0.17164956741E+03  0.38527227562E+03  0.38631192747E+03  0.82890161251E+03  0.59995222940E+03 0.  0.
         23    2    4    4    0    0  0.38005040149E+03  0.28860815693E+03  0.23978892782E+03  0.54173449134E+03  0.90799522474E+02 0.  0.
         23    2    4    4    0    0 -0.20840083409E+03  0.96664118692E+02  0.14652299965E+03  0.28716712117E+03  0.90670317988E+02 0.  0.
          5    1    3    3  502    0 -0.10200606970E+03 -0.12366828437E+03  0.24604809462E+03  0.29370195383E+03  0.47000000000E+01 0. -1.
         -5    1    3    3    0  502 -0.69643497706E+02 -0.26160399125E+03  0.46124572521E+03  0.53484256939E+03  0.47000000000E+01 0.  1.
         13    1    5    5    0    0  0.27018303460E+03  0.22106273708E+03  0.13051258493E+03  0.37269443346E+03  0.00000000000E+00 0.  1.
        -13    1    5    5    0    0  0.10986736689E+03  0.67545419849E+02  0.10927634289E+03  0.16904005788E+03  0.00000000000E+00 0. -1.
          1    1    6    6  503    0 -0.51285355779E+02  0.69228622135E+02  0.65807513697E+02  0.10841318508E+03  0.00000000000E+00 0. -1.
         -1    1    6    6    0  503 -0.15711547831E+03  0.27435496557E+02  0.80715485951E+02  0.17875393609E+03  0.00000000000E+00 0.  1.
<mgrwt>
<rscale>  0 0.57742412E+03</rscale>
<asrwt>0</asrwt>
<pdfrwt beam="1">  1        2 0.21161937E+00 0.57742412E+03</pdfrwt>
<pdfrwt beam="2">  1       -2 0.43372338E-01 0.57742412E+03</pdfrwt>
<totfact> 0.78105134E+01</totfact>
</mgrwt>
</event>
<event>
12    1  0.3147868E-008  0.1015583E+04  0.7818608E-02  0.9291617E-01
         -1   -1    0    0    0  501 -0.00000000000E+00  0.00000000000E+00  0.50162637942E+03  0.50162637942E+03  0.00000000000E+00 0.  1.
          1   -1    0    0  501    0  0.00000000000E+00 -0.00000000000E+00 -0.26779214645E+04  0.26779214645E+04  0.00000000000E+00 0. -1.
         23    2    1    2    0    0  0.24098491560E+02  0.10085312359E+04 -0.15432184450E+04  0.18459230154E+04  0.90513084978E+02 0.  0.
    5000000    2    1    2    0    0 -0.24098491560E+02 -0.10085312359E+04 -0.63307664003E+03  0.13336248285E+04  0.60004429844E+03 0.  0.
         23    2    4    4    0    0 -0.31653862231E+01 -0.64063704559E+03 -0.64608762959E+02  0.65036792500E+03  0.91533063791E+02 0.  0.
         23    2    4    4    0    0 -0.20933105337E+02 -0.36789419029E+03 -0.56846787707E+03  0.68325690353E+03  0.88881599970E+02 0.  0.
          5    1    3    3  502    0  0.26743592837E+02  0.32628368088E+03 -0.57069487435E+03  0.65794451877E+03  0.47000000000E+01 0. -1.
         -5    1    3    3    0  502 -0.26451012762E+01  0.68224755500E+03 -0.97252357069E+03  0.11879784966E+04  0.47000000000E+01 0.  1.
         13    1    5    5    0    0  0.15009014561E+02 -0.68695216636E+02 -0.31871691330E+02  0.77201735829E+02  0.00000000000E+00 0. -1.
        -13    1    5    5    0    0 -0.18174400785E+02 -0.57194182896E+03 -0.32737071629E+02  0.57316618917E+03  0.00000000000E+00 0.  1.
          2    1    6    6  503    0 -0.53952654654E+02 -0.27764672251E+03 -0.41678469320E+03  0.50369442318E+03  0.00000000000E+00 0.  1.
         -2    1    6    6    0  503  0.33019549317E+02 -0.90247467783E+02 -0.15168318388E+03  0.17956248035E+03  0.00000000000E+00 0. -1.
<mgrwt>
<rscale>  0 0.10155827E+04</rscale>
<asrwt>0</asrwt>
<pdfrwt beam="1">  1        1 0.41198792E+00 0.10155827E+04</pdfrwt>
<pdfrwt beam="2">  1       -1 0.77173289E-01 0.10155827E+04</pdfrwt>
<totfact> 0.17461090E+00</totfact>
</mgrwt>
</event>
<event>
12    1  0.3147868E-008  0.6026779E+03  0.7818608E-02  0.9899866E-01
         -1   -1    0    0    0  501 -0.00000000000E+00  0.00000000000E+00  0.25593640608E+03  0.25593640608E+03  0.00000000000E+00 0.  1.
          1   -1    0    0  501    0  0.00000000000E+00 -0.00000000000E+00 -0.19909210606E+04  0.19909210606E+04  0.00000000000E+00 0. -1.
         23    2    1    2    0    0  0.42940494612E+03 -0.26086190083E+03 -0.11848862049E+04  0.12902605252E+04  0.91538872932E+02 0.  0.
    5000000    2    1    2    0    0 -0.42940494612E+03  0.26086190083E+03 -0.55009844957E+03  0.95659694145E+03  0.60002655367E+03 0.  0.
         23    2    4    4    0    0  0.49734096675E+02  0.20972771764E+03 -0.36209635496E+03  0.43128686662E+03  0.91844407183E+02 0.  0.
         23    2    4    4    0    0 -0.47913904280E+03  0.51134183190E+02 -0.18800209462E+03  0.52531007483E+03  0.91743992243E+02 0.  0.
          5    1    3    3  502    0  0.20787788488E+03 -0.10051185991E+03 -0.64387091142E+03  0.68403778373E+03  0.47000000000E+01 0. -1.
         -5    1    3    3    0  502  0.22152706124E+03 -0.16035004092E+03 -0.54101529352E+03  0.60622274149E+03  0.47000000000E+01 0.  1.
         13    1    5    5    0    0  0.37916992796E+02  0.77694100609E+02 -0.72635485109E+02  0.11291583285E+03  0.00000000000E+00 0. -1.
        -13    1    5    5    0    0  0.11817103879E+02  0.13203361703E+03 -0.28946086985E+03  0.31837103377E+03  0.00000000000E+00 0.  1.
          4    1    6    6  503    0 -0.13080171901E+03  0.15943886718E+02 -0.89561292005E+01  0.13207387884E+03  0.00000000000E+00 0. -1.
         -4    1    6    6    0  503 -0.34833732378E+03  0.35190296472E+02 -0.17904596541E+03  0.39323619599E+03  0.00000000000E+00 0.  1.
<mgrwt>
<rscale>  0 0.60267787E+03</rscale>
<asrwt>0</asrwt>
<pdfrwt beam="1">  1        1 0.30629556E+00 0.60267787E+03</pdfrwt>
<pdfrwt beam="2">  1       -1 0.39374831E-01 0.60267787E+03</pdfrwt>
<totfact> 0.20184136E+01</totfact>
</mgrwt>
</event>
<event>
12    1  0.3147868E-008  0.1044708E+04  0.7818608E-02  0.9260825E-01
          2   -1    0    0  501    0  0.00000000000E+00  0.00000000000E+00  0.62640475821E+03  0.62640475821E+03  0.00000000000E+00 0. -1.
         -2   -1    0    0    0  501 -0.00000000000E+00 -0.00000000000E+00 -0.18191287115E+04  0.18191287115E+04  0.00000000000E+00 0.  1.
         23    2    1    2    0    0  0.64109994905E+03 -0.72953298450E+03 -0.39072964741E+03  0.10503709469E+04  0.85918267075E+02 0.  0.
    5000000    2    1    2    0    0 -0.64109994905E+03  0.72953298450E+03 -0.80199430590E+03  0.13951625228E+04  0.60004673001E+03 0.  0.
         23    2    4    4    0    0  0.95646160866E+02  0.10360378586E+03 -0.86545340369E+02  0.18914332556E+03  0.91668801299E+02 0.  0.
         23    2    4    4    0    0 -0.73674610992E+03  0.62592919865E+03 -0.71544896553E+03  0.12060191972E+04  0.89626389258E+02 0.  0.
          5    1    3    3  502    0  0.23668045949E+03 -0.25276148511E+03 -0.18212899872E+03  0.39127876307E+03  0.47000000000E+01 0. -1.
         -5    1    3    3    0  502  0.40441948956E+03 -0.47677149940E+03 -0.20860064869E+03  0.65909218385E+03  0.47000000000E+01 0.  1.
         11    1    5    5    0    0  0.72860668372E+02  0.10295201855E+03 -0.32141584324E+02  0.13015712259E+03  0.00000000000E+00 0. -1.
        -11    1    5    5    0    0  0.22785492494E+02  0.65176731188E+00 -0.54403756044E+02  0.58986202968E+02  0.00000000000E+00 0.  1.
          1    1    6    6  503    0 -0.28118737774E+03  0.28138938276E+03 -0.25680783151E+03  0.47349402156E+03  0.00000000000E+00 0. -1.
         -1    1    6    6    0  503 -0.45555873218E+03  0.34453981588E+03 -0.45864113402E+03  0.73252517569E+03  0.00000000000E+00 0.  1.
<mgrwt>
<rscale>  0 0.10447076E+04</rscale>
<asrwt>0</asrwt>
<pdfrwt beam="1">  1        2 0.96369962E-01 0.10447076E+04</pdfrwt>
<pdfrwt beam="2">  1       -2 0.27986596E+00 0.10447076E+04</pdfrwt>
<totfact> 0.19808476E+00</totfact>
</mgrwt>
</event>
<event>
12    1  0.3147868E-008  0.3664070E+03  0.7818608E-02  0.1056075E+00
         -2   -1    0    0    0  501 -0.00000000000E+00  0.00000000000E+00  0.63814102295E+03  0.63814102295E+03  0.00000000000E+00 0.  1.
          2   -1    0    0  501    0  0.00000000000E+00 -0.00000000000E+00 -0.13334394756E+04  0.13334394756E+04  0.00000000000E+00 0. -1.
         23    2    1    2    0    0  0.25943070933E+03 -0.49725181536E+02  0.52082086484E+03  0.59017539817E+03  0.85297952693E+02 0.  0.
    5000000    2    1    2    0    0 -0.25943070933E+03  0.49725181536E+02 -0.12161193175E+04  0.13814051004E+04  0.59963069501E+03 0.  0.
         23    2    4    4    0    0  0.60203137703E+02  0.90437089808E+02 -0.23545694481E+02  0.14290211967E+03  0.89796052672E+02 0.  0.
         23    2    4    4    0    0 -0.31963384703E+03 -0.40711908272E+02 -0.11925736230E+04  0.12385029807E+04  0.88512887847E+02 0.  0.
          5    1    3    3  502    0  0.10896666007E+03  0.17997619807E+02  0.17519958855E+03  0.20715847353E+03  0.47000000000E+01 0. -1.
         -5    1    3    3    0  502  0.15046404926E+03 -0.67722801343E+02  0.34562127629E+03  0.38301692464E+03  0.47000000000E+01 0.  1.
         13    1    5    5    0    0  0.79698072722E+02  0.66042425183E+02  0.47217553270E+00  0.10350655858E+03  0.00000000000E+00 0. -1.
        -13    1    5    5    0    0 -0.19494935019E+02  0.24394664625E+02 -0.24017870013E+02  0.39395561089E+02  0.00000000000E+00 0.  1.
          2    1    6    6  503    0 -0.91008252745E+02 -0.57993141048E+01 -0.50241876371E+03  0.51062779814E+03  0.00000000000E+00 0. -1.
         -2    1    6    6    0  503 -0.22862559429E+03 -0.34912594167E+02 -0.69015485930E+03  0.72787518258E+03  0.00000000000E+00 0.  1.
<mgrwt>
<rscale>  0 0.36640698E+03</rscale>
<asrwt>0</asrwt>
<pdfrwt beam="1">  1        2 0.20514453E+00 0.36640698E+03</pdfrwt>
<pdfrwt beam="2">  1       -2 0.98175542E-01 0.36640698E+03</pdfrwt>
<totfact> 0.14897904E+01</totfact>
</mgrwt>
</event>
<event>
12    1  0.3147868E-008  0.1137379E+04  0.7818608E-02  0.9169506E-01
         -1   -1    0    0    0  501 -0.00000000000E+00  0.00000000000E+00  0.13443949242E+04  0.13443949242E+04  0.00000000000E+00 0.  1.
          1   -1    0    0  501    0  0.00000000000E+00 -0.00000000000E+00 -0.15063614657E+04  0.15063614657E+04  0.00000000000E+00 0. -1.
         23    2    1    2    0    0 -0.24295442192E+03 -0.10370074754E+04  0.76657441767E+03  0.13156026106E+04  0.93608418400E+02 0.  0.
    5000000    2    1    2    0    0  0.24295442192E+03  0.10370074754E+04 -0.92854095918E+03  0.15351537793E+04  0.60008120971E+03 0.  0.
         23    2    4    4    0    0 -0.34984312988E+02  0.88608210385E+03 -0.71383385765E+03  0.11419997934E+04  0.90770892255E+02 0.  0.
         23    2    4    4    0    0  0.27793873491E+03  0.15092537151E+03 -0.21470710154E+03  0.39315398593E+03  0.91883127286E+02 0.  0.
          5    1    3    3  502    0 -0.85531407031E+02 -0.44858811188E+03  0.38044921039E+03  0.59439936692E+03  0.47000000000E+01 0. -1.
         -5    1    3    3    0  502 -0.15742301489E+03 -0.58841936348E+03  0.38612520728E+03  0.72120324364E+03  0.47000000000E+01 0.  1.
         13    1    5    5    0    0  0.98952508140E+01  0.39774707945E+03 -0.36764968136E+03  0.54172589323E+03  0.00000000000E+00 0.  1.
        -13    1    5    5    0    0 -0.44879563802E+02  0.48833502441E+03 -0.34618417629E+03  0.60027390017E+03  0.00000000000E+00 0. -1.
          1    1    6    6  503    0  0.22503569343E+03  0.14436635152E+03 -0.20935763308E+03  0.33957815787E+03  0.00000000000E+00 0. -1.
         -1    1    6    6    0  503  0.52903041473E+02  0.65590199870E+01 -0.53494684518E+01  0.53575828066E+02  0.00000000000E+00 0.  1.
<mgrwt>
<rscale>  0 0.11373795E+04</rscale>
<asrwt>0</asrwt>
<pdfrwt beam="1">  1        1 0.23174792E+00 0.11373795E+04</pdfrwt>
<pdfrwt beam="2">  1       -1 0.20682999E+00 0.11373795E+04</pdfrwt>
<totfact> 0.86436289E-01</totfact>
</mgrwt>
</event>
<event>
12    1  0.3147868E-008  0.7336724E+03  0.7818608E-02  0.9661320E-01
         -2   -1    0    0    0  501 -0.00000000000E+00  0.00000000000E+00  0.83524423292E+03  0.83524423292E+03  0.00000000000E+00 0.  1.
          2   -1    0    0  501    0  0.00000000000E+00 -0.00000000000E+00 -0.13055998047E+04  0.13055998047E+04  0.00000000000E+00 0. -1.
         23    2    1    2    0    0  0.33091525745E+03 -0.60849629660E+03  0.45872632839E+03  0.83584036456E+03  0.91796623548E+02 0.  0.
    5000000    2    1    2    0    0 -0.33091525745E+03  0.60849629660E+03 -0.92908190021E+03  0.13050036731E+04  0.60005729637E+03 0.  0.
         23    2    4    4    0    0 -0.21150919304E+02  0.37368400298E+03 -0.12069901480E+03  0.40323443693E+03  0.89121621877E+02 0.  0.
         23    2    4    4    0    0 -0.30976433814E+03  0.23481229362E+03 -0.80838288541E+03  0.90176923617E+03  0.92812216079E+02 0.  0.
          5    1    3    3  502    0  0.18632779428E+03 -0.30319094290E+03  0.28497881177E+03  0.45593618845E+03  0.47000000000E+01 0. -1.
         -5    1    3    3    0  502  0.14458746316E+03 -0.30530535369E+03  0.17374751662E+03  0.37990417612E+03  0.47000000000E+01 0.  1.
         13    1    5    5    0    0  0.33626487701E+02  0.11216069556E+03 -0.27807337827E+02  0.12034953403E+03  0.00000000000E+00 0.  1.
        -13    1    5    5    0    0 -0.54777407005E+02  0.26152330741E+03 -0.92891676971E+02  0.28288490290E+03  0.00000000000E+00 0. -1.
          4    1    6    6  503    0 -0.95025242803E+02  0.84798830010E+02 -0.17571508794E+03  0.21701712022E+03  0.00000000000E+00 0. -1.
         -4    1    6    6    0  503 -0.21473909534E+03  0.15001346361E+03 -0.63266779747E+03  0.68475211595E+03  0.00000000000E+00 0.  1.
<mgrwt>
<rscale>  0 0.73367235E+03</rscale>
<asrwt>0</asrwt>
<pdfrwt beam="1">  1        2 0.20086151E+00 0.73367235E+03</pdfrwt>
<pdfrwt beam="2">  1       -2 0.12849911E+00 0.73367235E+03</pdfrwt>
<totfact> 0.75153493E+00</totfact>
</mgrwt>
</event>
<event>
12    1  0.3729254E-008  0.9785820E+03  0.7818608E-02  0.9332353E-01
          4   -1    0    0  501    0  0.00000000000E+00  0.00000000000E+00  0.67494096275E+03  0.67494096275E+03  0.00000000000E+00 0. -1.
         -4   -1    0    0    0  501 -0.00000000000E+00 -0.00000000000E+00 -0.16737144315E+04  0.16737144315E+04  0.00000000000E+00 0.  1.
         23    2    1    2    0    0 -0.95413542947E+03 -0.75037282259E+02 -0.67114852281E+03  0.11725561738E+04  0.91883783412E+02 0.  0.
    5000000    2    1    2    0    0  0.95413542947E+03  0.75037282259E+02 -0.32762494594E+03  0.11760992204E+04  0.59988853925E+03 0.  0.
         23    2    4    4    0    0  0.69899280945E+03  0.16799437336E+03  0.20455663256E+02  0.72493600236E+03  0.91108266445E+02 0.  0.
         23    2    4    4    0    0  0.25514262002E+03 -0.92957091106E+02 -0.34808060920E+03  0.45116321804E+03  0.93001943409E+02 0.  0.
          5    1    3    3  502    0 -0.51689325643E+03 -0.33809029957E+02 -0.41787700364E+03  0.66555613529E+03  0.47000000000E+01 0. -1.
         -5    1    3    3    0  502 -0.43724217304E+03 -0.41228252302E+02 -0.25327151916E+03  0.50700003856E+03  0.47000000000E+01 0.  1.
         11    1    5    5    0    0  0.17264472635E+03  0.29639152527E+02  0.42532526445E+02  0.18026008073E+03  0.00000000000E+00 0. -1.
        -11    1    5    5    0    0  0.52634808310E+03  0.13835522084E+03 -0.22076863189E+02  0.54467592163E+03  0.00000000000E+00 0.  1.
          3    1    6    6  503    0  0.23997033677E+03 -0.64817555658E+02 -0.27109531802E+03  0.36780395526E+03  0.00000000000E+00 0. -1.
         -3    1    6    6    0  503  0.15172283250E+02 -0.28139535448E+02 -0.76985291180E+02  0.83359262787E+02  0.00000000000E+00 0.  1.
<mgrwt>
<rscale>  0 0.97858195E+03</rscale>
<asrwt>0</asrwt>
<pdfrwt beam="1">  1        4 0.10383707E+00 0.97858195E+03</pdfrwt>
<pdfrwt beam="2">  1       -4 0.25749453E+00 0.97858195E+03</pdfrwt>
<totfact> 0.83136353E-02</totfact>
</mgrwt>
</event>
<event>
12    1  0.3147868E-008  0.8734894E+03  0.7818608E-02  0.9459342E-01
         -2   -1    0    0    0  501 -0.00000000000E+00  0.00000000000E+00  0.13271780583E+04  0.13271780583E+04  0.00000000000E+00 0.  1.
          2   -1    0    0  501    0  0.00000000000E+00 -0.00000000000E+00 -0.81341806563E+03  0.81341806563E+03  0.00000000000E+00 0. -1.
         23    2    1    2    0    0 -0.70261680553E+03  0.46318891783E+03 -0.21794373425E+03  0.87426975947E+03  0.92918200626E+02 0.  0.
    5000000    2    1    2    0    0  0.70261680553E+03 -0.46318891783E+03  0.73170372692E+03  0.12663263645E+04  0.59998147331E+03 0.  0.
         23    2    4    4    0    0  0.43462736074E+03 -0.45733434852E+03  0.20560724831E+03  0.66955792892E+03  0.89318702345E+02 0.  0.
         23    2    4    4    0    0  0.26798944479E+03 -0.58545693139E+01  0.52609647861E+03  0.59676843553E+03  0.86616640110E+02 0.  0.
          5    1    3    3  502    0 -0.23351156052E+03  0.17557455256E+03 -0.11734036084E+03  0.31487286749E+03  0.47000000000E+01 0. -1.
         -5    1    3    3    0  502 -0.46910524501E+03  0.28761436527E+03 -0.10060337341E+03  0.55939689198E+03  0.47000000000E+01 0.  1.
         11    1    5    5    0    0  0.11002708783E+03 -0.67758086666E+02  0.56292237171E+02  0.14094656552E+03  0.00000000000E+00 0.  1.
        -11    1    5    5    0    0  0.32460027291E+03 -0.38957626185E+03  0.14931501114E+03  0.52861136340E+03  0.00000000000E+00 0. -1.
          2    1    6    6  503    0  0.58409199108E+02 -0.50445987951E+01  0.51808241925E+02  0.78237947627E+02  0.00000000000E+00 0. -1.
         -2    1    6    6    0  503  0.20958024568E+03 -0.80997051877E+00  0.47428823668E+03  0.51853048791E+03  0.00000000000E+00 0.  1.
<mgrwt>
<rscale>  0 0.87348937E+03</rscale>
<asrwt>0</asrwt>
<pdfrwt beam="1">  1        2 0.12514124E+00 0.87348937E+03</pdfrwt>
<pdfrwt beam="2">  1       -2 0.20418124E+00 0.87348937E+03</pdfrwt>
<totfact> 0.42357629E+00</totfact>
</mgrwt>
</event>
<event>
12    1  0.3147868E-008  0.7095916E+03  0.7818608E-02  0.9700968E-01
          1   -1    0    0  501    0  0.00000000000E+00  0.00000000000E+00  0.21903990806E+04  0.21903990806E+04  0.00000000000E+00 0. -1.
         -1   -1    0    0    0  501 -0.00000000000E+00 -0.00000000000E+00 -0.36789740274E+03  0.36789740274E+03  0.00000000000E+00 0.  1.
         23    2    1    2    0    0  0.25885252011E+03  0.56255167546E+03  0.15214507700E+04  0.16450748078E+04  0.89384916432E+02 0.  0.
    5000000    2    1    2    0    0 -0.25885252011E+03 -0.56255167546E+03  0.30105090794E+03  0.91322167552E+03  0.59989429464E+03 0.  0.
         23    2    4    4    0    0  0.15927642488E+02 -0.49530985254E+03  0.16964850717E+02  0.50321114376E+03  0.85721113074E+02 0.  0.
         23    2    4    4    0    0 -0.27478016259E+03 -0.67241822919E+02  0.28408605722E+03  0.41001053176E+03  0.85896145076E+02 0.  0.
          5    1    3    3  502    0  0.12064051414E+03  0.20490060953E+03  0.49034956063E+03  0.54497997674E+03  0.47000000000E+01 0. -1.
         -5    1    3    3    0  502  0.13821200596E+03  0.35765106593E+03  0.10311012093E+04  0.11000948311E+04  0.47000000000E+01 0.  1.
         11    1    5    5    0    0  0.48401024208E+02 -0.37866879541E+03  0.17136002788E+02  0.38213395342E+03  0.00000000000E+00 0. -1.
        -11    1    5    5    0    0 -0.32473381720E+02 -0.11664105713E+03 -0.17115207145E+00  0.12107719034E+03  0.00000000000E+00 0.  1.
          2    1    6    6  503    0 -0.11648189583E+03  0.13698225318E+02  0.12543545031E+03  0.17172572791E+03  0.00000000000E+00 0.  1.
         -2    1    6    6    0  503 -0.15829826676E+03 -0.80940048237E+02  0.15865060692E+03  0.23828480384E+03  0.00000000000E+00 0. -1.
<mgrwt>
<rscale>  0 0.70959161E+03</rscale>
<asrwt>0</asrwt>
<pdfrwt beam="1">  1        1 0.33698447E+00 0.70959161E+03</pdfrwt>
<pdfrwt beam="2">  1       -1 0.56599602E-01 0.70959161E+03</pdfrwt>
<totfact> 0.73943471E+00</totfact>
</mgrwt>
</event>
<event>
12    1  0.3147868E-008  0.1497803E+04  0.7818608E-02  0.8885915E-01
         -2   -1    0    0    0  501 -0.00000000000E+00  0.00000000000E+00  0.11401376120E+04  0.11401376120E+04  0.00000000000E+00 0.  1.
          2   -1    0    0  501    0  0.00000000000E+00 -0.00000000000E+00 -0.29798407807E+04  0.29798407807E+04  0.00000000000E+00 0. -1.
         23    2    1    2    0    0 -0.22819307358E+03 -0.14520641394E+04 -0.20439515779E+04  0.25192734909E+04  0.91861449426E+02 0.  0.
    5000000    2    1    2    0    0  0.22819307358E+03  0.14520641394E+04  0.20424840913E+03  0.16007049018E+04  0.59998035488E+03 0.  0.
         23    2    4    4    0    0  0.25011172945E+02  0.41055993914E+02  0.14068442504E+03  0.17110568102E+03  0.84698838372E+02 0.  0.
         23    2    4    4    0    0  0.20318190064E+03  0.14110081455E+04  0.63563984098E+02  0.14295992207E+04  0.86525606597E+02 0.  0.
          5    1    3    3  502    0 -0.23892778566E+02 -0.41108575170E+03 -0.55849009625E+03  0.69389886707E+03  0.47000000000E+01 0. -1.
         -5    1    3    3    0  502 -0.20430029502E+03 -0.10409783877E+04 -0.14854614816E+04  0.18253746239E+04  0.47000000000E+01 0.  1.
         11    1    5    5    0    0  0.37124919705E+02  0.62165929020E+02  0.96282343887E+02  0.12047054469E+03  0.00000000000E+00 0. -1.
        -11    1    5    5    0    0 -0.12113746760E+02 -0.21109935105E+02  0.44402081150E+02  0.50635136330E+02  0.00000000000E+00 0.  1.
          3    1    6    6  503    0  0.67439575849E+02  0.61743488924E+03  0.64999364805E+02  0.62449888412E+03  0.00000000000E+00 0. -1.
         -3    1    6    6    0  503  0.13574232479E+03  0.79357325622E+03 -0.14353807071E+01  0.80510033663E+03  0.00000000000E+00 0.  1.
<mgrwt>
<rscale>  0 0.14978029E+04</rscale>
<asrwt>0</asrwt>
<pdfrwt beam="1">  1        2 0.45843704E+00 0.14978029E+04</pdfrwt>
<pdfrwt beam="2">  1       -2 0.17540579E+00 0.14978029E+04</pdfrwt>
<totfact> 0.33055153E-01</totfact>
</mgrwt>
</event>
<event>
12    1  0.3147868E-008  0.1176176E+04  0.7818608E-02  0.9133969E-01
         -1   -1    0    0    0  501 -0.00000000000E+00  0.00000000000E+00  0.15558716800E+04  0.15558716800E+04  0.00000000000E+00 0.  1.
          1   -1    0    0  501    0  0.00000000000E+00 -0.00000000000E+00 -0.94528477581E+03  0.94528477581E+03  0.00000000000E+00 0. -1.
         23    2    1    2    0    0 -0.65789911023E+03 -0.91864416259E+03  0.16043313230E+03  0.11448757328E+04  0.90902788400E+02 0.  0.
    5000000    2    1    2    0    0  0.65789911023E+03  0.91864416259E+03  0.45015377186E+03  0.13562807230E+04  0.60010052866E+03 0.  0.
         23    2    4    4    0    0 -0.28696341998E+01  0.32213709208E+03  0.29678831926E+03  0.44764973999E+03  0.92338737126E+02 0.  0.
         23    2    4    4    0    0  0.66076874443E+03  0.59650707051E+03  0.15336545259E+03  0.90863098298E+03  0.98251119069E+02 0.  0.
          5    1    3    3  502    0 -0.61124001097E+03 -0.82732325139E+03  0.16654814354E+03  0.10420357419E+04  0.47000000000E+01 0. -1.
         -5    1    3    3    0  502 -0.46659099257E+02 -0.91320911196E+02 -0.61150112403E+01  0.10283999090E+03  0.47000000000E+01 0.  1.
         11    1    5    5    0    0  0.15478520729E+02  0.14009769047E+02  0.43899965539E+02  0.48611369113E+02  0.00000000000E+00 0. -1.
        -11    1    5    5    0    0 -0.18348154928E+02  0.30812732303E+03  0.25288835373E+03  0.39903837088E+03  0.00000000000E+00 0.  1.
          4    1    6    6  503    0  0.63434986927E+03  0.58414232678E+03  0.16360281528E+03  0.87771743503E+03  0.00000000000E+00 0. -1.
         -4    1    6    6    0  503  0.26418875156E+02  0.12364743730E+02 -0.10237362694E+02  0.30913547951E+02  0.00000000000E+00 0.  1.
<mgrwt>
<rscale>  0 0.11761764E+04</rscale>
<asrwt>0</asrwt>
<pdfrwt beam="1">  1        1 0.14542843E+00 0.11761764E+04</pdfrwt>
<pdfrwt beam="2">  1       -1 0.23936487E+00 0.11761764E+04</pdfrwt>
<totfact> 0.13479584E+00</totfact>
</mgrwt>
</event>
<event>
12    1  0.3147868E-008  0.7640036E+03  0.7818608E-02  0.9613633E-01
          1   -1    0    0  501    0  0.00000000000E+00  0.00000000000E+00  0.21410149928E+04  0.21410149928E+04  0.00000000000E+00 0. -1.
         -1   -1    0    0    0  501 -0.00000000000E+00 -0.00000000000E+00 -0.44058546821E+03  0.44058546821E+03  0.00000000000E+00 0.  1.
         23    2    1    2    0    0 -0.38163141879E+03 -0.63141359722E+03  0.13984189251E+04  0.15837090814E+04  0.90737499504E+02 0.  0.
    5000000    2    1    2    0    0  0.38163141879E+03  0.63141359722E+03  0.30201059944E+03  0.99789137958E+03  0.60020924077E+03 0.  0.
         23    2    4    4    0    0  0.20121111507E+02  0.45078014895E+02  0.28383573455E+03  0.30222306470E+03  0.91319056461E+02 0.  0.
         23    2    4    4    0    0  0.36151030728E+03  0.58633558233E+03  0.18174864894E+02  0.69566831488E+03  0.95629290744E+02 0.  0.
          5    1    3    3  502    0 -0.97731451220E+02 -0.18458600858E+03  0.48264448355E+03  0.52591940316E+03  0.47000000000E+01 0. -1.
         -5    1    3    3    0  502 -0.28389996757E+03 -0.44682758864E+03  0.91577444157E+03  0.10577896782E+04  0.47000000000E+01 0.  1.
         11    1    5    5    0    0 -0.31869167160E+02  0.27032337233E+02  0.70982580850E+02  0.82370612817E+02  0.00000000000E+00 0.  1.
        -11    1    5    5    0    0  0.51990278667E+02  0.18045677663E+02  0.21285315370E+03  0.21985245188E+03  0.00000000000E+00 0. -1.
          4    1    6    6  503    0  0.33925314402E+03  0.50382250053E+03  0.35636580502E+02  0.60844044379E+03  0.00000000000E+00 0. -1.
         -4    1    6    6    0  503  0.22257163261E+02  0.82513081799E+02 -0.17461715608E+02  0.87227871098E+02  0.00000000000E+00 0.  1.
<mgrwt>
<rscale>  0 0.76400364E+03</rscale>
<asrwt>0</asrwt>
<pdfrwt beam="1">  1        1 0.32938692E+00 0.76400364E+03</pdfrwt>
<pdfrwt beam="2">  1       -1 0.67782381E-01 0.76400364E+03</pdfrwt>
<totfact> 0.55263103E+00</totfact>
</mgrwt>
</event>
<event>
12    1  0.3147868E-008  0.1176119E+04  0.7818608E-02  0.9134020E-01
         -2   -1    0    0    0  501 -0.00000000000E+00  0.00000000000E+00  0.16333833430E+04  0.16333833430E+04  0.00000000000E+00 0. -1.
          2   -1    0    0  501    0  0.00000000000E+00 -0.00000000000E+00 -0.94216896286E+03  0.94216896286E+03  0.00000000000E+00 0.  1.
         23    2    1    2    0    0 -0.63365007520E+03  0.92506816819E+03  0.65851814068E+03  0.13034360009E+04  0.89642252021E+02 0.  0.
    5000000    2    1    2    0    0  0.63365007520E+03 -0.92506816819E+03  0.32696239511E+02  0.12721163050E+04  0.59995609478E+03 0.  0.
         23    2    4    4    0    0  0.25499543391E+03 -0.32202786218E+02 -0.94790330826E+02  0.28967351979E+03  0.94158645367E+02 0.  0.
         23    2    4    4    0    0  0.37865464129E+03 -0.89286538198E+03  0.12748657034E+03  0.98244278517E+03  0.91395146526E+02 0.  0.
          5    1    3    3  502    0 -0.34360900312E+03  0.46675509018E+03  0.38641773387E+03  0.69661195532E+03  0.47000000000E+01 0. -1.
         -5    1    3    3    0  502 -0.29004107208E+03  0.45831307801E+03  0.27210040680E+03  0.60682404563E+03  0.47000000000E+01 0.  1.
         11    1    5    5    0    0  0.13065573206E+03 -0.36217088468E+02 -0.94504748262E+02  0.16526870623E+03  0.00000000000E+00 0.  1.
        -11    1    5    5    0    0  0.12433970185E+03  0.40143022507E+01 -0.28558256357E+00  0.12440481356E+03  0.00000000000E+00 0. -1.
          2    1    6    6  503    0  0.14807666788E+03 -0.31489470038E+03  0.37546113530E+01  0.34799348989E+03  0.00000000000E+00 0.  1.
         -2    1    6    6    0  503  0.23057797342E+03 -0.57797068159E+03  0.12373195898E+03  0.63444929528E+03  0.00000000000E+00 0. -1.
<mgrwt>
<rscale>  0 0.11761189E+04</rscale>
<asrwt>0</asrwt>
<pdfrwt beam="1">  1        2 0.14494907E+00 0.11761189E+04</pdfrwt>
<pdfrwt beam="2">  1       -2 0.25128975E+00 0.11761189E+04</pdfrwt>
<totfact> 0.16943538E+00</totfact>
</mgrwt>
</event>
<event>
12    1  0.3147868E-008  0.6158238E+03  0.7818608E-02  0.9873110E-01
         -2   -1    0    0    0  501 -0.00000000000E+00  0.00000000000E+00  0.44046438543E+03  0.44046438543E+03  0.00000000000E+00 0.  1.
          2   -1    0    0  501    0  0.00000000000E+00 -0.00000000000E+00 -0.11481687121E+04  0.11481687121E+04  0.00000000000E+00 0. -1.
         23    2    1    2    0    0 -0.51351394137E+03  0.26925015600E+03 -0.31757340023E+03  0.66748362147E+03  0.92137429508E+02 0.  0.
    5000000    2    1    2    0    0  0.51351394137E+03 -0.26925015600E+03 -0.39013092646E+03  0.92114947609E+03  0.60010166058E+03 0.  0.
         23    2    4    4    0    0  0.15960857301E+03  0.49937855224E+02 -0.39160554962E+03  0.43582362204E+03  0.92836614965E+02 0.  0.
         23    2    4    4    0    0  0.35390536835E+03 -0.31918801123E+03  0.14746231506E+01  0.48532585404E+03  0.91700675199E+02 0.  0.
          5    1    3    3  502    0 -0.69882475462E+02  0.68413633083E+02 -0.32378441825E+02  0.10312341666E+03  0.47000000000E+01 0. -1.
         -5    1    3    3    0  502 -0.44363146590E+03  0.20083652292E+03 -0.28519495841E+03  0.56436020481E+03  0.47000000000E+01 0.  1.
         11    1    5    5    0    0  0.49944751201E+02  0.12792166035E+02 -0.23770812383E+03  0.24323500944E+03  0.00000000000E+00 0.  1.
        -11    1    5    5    0    0  0.10966382181E+03  0.37145689189E+02 -0.15389742579E+03  0.19258861260E+03  0.00000000000E+00 0. -1.
          3    1    6    6  503    0  0.15957092537E+03 -0.10962279128E+03  0.37705862752E+02  0.19723531296E+03  0.00000000000E+00 0. -1.
         -3    1    6    6    0  503  0.19433444298E+03 -0.20956521995E+03 -0.36231239602E+02  0.28809054109E+03  0.00000000000E+00 0.  1.
<mgrwt>
<rscale>  0 0.61582377E+03</rscale>
<asrwt>0</asrwt>
<pdfrwt beam="1">  1        2 0.17664134E+00 0.61582377E+03</pdfrwt>
<pdfrwt beam="2">  1       -2 0.67763751E-01 0.61582377E+03</pdfrwt>
<totfact> 0.41912974E+01</totfact>
</mgrwt>
</event>
<event>
12    1  0.3147868E-008  0.9123850E+03  0.7818608E-02  0.9410231E-01
          2   -1    0    0  501    0  0.00000000000E+00  0.00000000000E+00  0.34475273963E+04  0.34475273963E+04  0.00000000000E+00 0.  1.
         -2   -1    0    0    0  501 -0.00000000000E+00 -0.00000000000E+00 -0.29702790234E+03  0.29702790234E+03  0.00000000000E+00 0. -1.
         23    2    1    2    0    0 -0.80050054877E+03  0.17958383205E+03  0.22126154165E+04  0.23615444788E+04  0.90409415244E+02 0.  0.
    5000000    2    1    2    0    0  0.80050054877E+03 -0.17958383205E+03  0.93788407739E+03  0.13830108198E+04  0.60003408559E+03 0.  0.
         23    2    4    4    0    0  0.84110417846E+03 -0.24886094894E+03  0.87952073850E+03  0.12458468430E+04  0.95862483450E+02 0.  0.
         23    2    4    4    0    0 -0.40603629692E+02  0.69277116889E+02  0.58363338891E+02  0.13716397688E+03  0.94655710654E+02 0.  0.
          5    1    3    3  502    0 -0.30542804014E+03  0.46207287802E+02  0.94225570894E+03  0.99160945548E+03  0.47000000000E+01 0. -1.
         -5    1    3    3    0  502 -0.49507250862E+03  0.13337654425E+03  0.12703597076E+04  0.13699350233E+04  0.47000000000E+01 0.  1.
         13    1    5    5    0    0  0.34052640179E+03 -0.13167463631E+03  0.31383663185E+03  0.48144560612E+03  0.00000000000E+00 0. -1.
        -13    1    5    5    0    0  0.50057777666E+03 -0.11718631263E+03  0.56568410665E+03  0.76440123683E+03  0.00000000000E+00 0.  1.
          3    1    6    6  503    0 -0.51373138281E+02 -0.23659331280E+01  0.28555597500E+02  0.58823627268E+02  0.00000000000E+00 0. -1.
         -3    1    6    6    0  503  0.10769508589E+02  0.71643050017E+02  0.29807741391E+02  0.78340349615E+02  0.00000000000E+00 0.  1.
<mgrwt>
<rscale>  0 0.91238502E+03</rscale>
<asrwt>0</asrwt>
<pdfrwt beam="1">  1        2 0.53038880E+00 0.91238502E+03</pdfrwt>
<pdfrwt beam="2">  1       -2 0.45696603E-01 0.91238502E+03</pdfrwt>
<totfact> 0.42174271E+00</totfact>
</mgrwt>
</event>
<event>
12    1  0.3463134E-008  0.1465772E+04  0.7818608E-02  0.8907539E-01
         -2   -1    0    0    0  501 -0.00000000000E+00  0.00000000000E+00  0.16733617751E+04  0.16733617751E+04  0.00000000000E+00 0.  1.
          2   -1    0    0  501    0  0.00000000000E+00 -0.00000000000E+00 -0.14807210824E+04  0.14807210824E+04  0.00000000000E+00 0. -1.
         23    2    1    2    0    0 -0.74602715773E+03 -0.12551956462E+04 -0.31338749216E+03  0.14963019187E+04  0.92925137059E+02 0.  0.
    5000000    2    1    2    0    0  0.74602715773E+03  0.12551956462E+04  0.50602818481E+03  0.16577809388E+04  0.60008373318E+03 0.  0.
         23    2    4    4    0    0  0.50311061440E+03  0.80962281609E+03  0.33038237318E+02  0.95808745614E+03  0.90722951003E+02 0.  0.
         23    2    4    4    0    0  0.24291654333E+03  0.44557283016E+03  0.47298994749E+03  0.69969348266E+03  0.91147601495E+02 0.  0.
          5    1    3    3  502    0 -0.36090964613E+03 -0.64849899716E+03 -0.20127439934E+03  0.76898647311E+03  0.47000000000E+01 0. -1.
         -5    1    3    3    0  502 -0.38511751159E+03 -0.60669664909E+03 -0.11211309282E+03  0.72731544555E+03  0.47000000000E+01 0.  1.
         11    1    5    5    0    0  0.23976217411E+03  0.32805954712E+03 -0.18847651309E+02  0.40677291030E+03  0.00000000000E+00 0. -1.
        -11    1    5    5    0    0  0.26334844028E+03  0.48156326897E+03  0.51885888627E+02  0.55131454584E+03  0.00000000000E+00 0.  1.
          2    1    6    6  503    0  0.46169157788E+02  0.17505243144E+03  0.17155963472E+03  0.24941462096E+03  0.00000000000E+00 0. -1.
         -2    1    6    6    0  503  0.19674738554E+03  0.27052039871E+03  0.30143031277E+03  0.45027886170E+03  0.00000000000E+00 0.  1.
<mgrwt>
<rscale>  0 0.14657720E+04</rscale>
<asrwt>0</asrwt>
<pdfrwt beam="1">  1        2 0.22780325E+00 0.14657720E+04</pdfrwt>
<pdfrwt beam="2">  1       -2 0.25744027E+00 0.14657720E+04</pdfrwt>
<totfact> 0.71064211E-01</totfact>
</mgrwt>
</event>
<event>
12    1  0.3147868E-008  0.1004182E+04  0.7818608E-02  0.9303970E-01
          1   -1    0    0  501    0  0.00000000000E+00  0.00000000000E+00  0.16936346999E+04  0.16936346999E+04  0.00000000000E+00 0. -1.
         -1   -1    0    0    0  501 -0.00000000000E+00 -0.00000000000E+00 -0.11381408860E+04  0.11381408860E+04  0.00000000000E+00 0.  1.
         23    2    1    2    0    0  0.77499932473E+03 -0.50023607713E+03 -0.69970636632E+03  0.11625498002E+04  0.10522809845E+03 0.  0.
    5000000    2    1    2    0    0 -0.77499932473E+03  0.50023607713E+03  0.12552001802E+04  0.16692257857E+04  0.59993928427E+03 0.  0.
         23    2    4    4    0    0 -0.77457430588E+03  0.22825845330E+03  0.96314831233E+03  0.12600012320E+04  0.88775876113E+02 0.  0.
         23    2    4    4    0    0 -0.42501885094E+00  0.27197762383E+03  0.29205186792E+03  0.40922455369E+03  0.90545200213E+02 0.  0.
          5    1    3    3  502    0  0.42861796348E+03 -0.30635603155E+03 -0.45552077775E+03  0.69648305482E+03  0.47000000000E+01 0. -1.
         -5    1    3    3    0  502  0.34638136125E+03 -0.19388004558E+03 -0.24418558858E+03  0.46606674540E+03  0.47000000000E+01 0.  1.
         11    1    5    5    0    0 -0.12225127461E+03  0.10836794659E+02  0.11550128120E+03  0.16853295293E+03  0.00000000000E+00 0.  1.
        -11    1    5    5    0    0 -0.65232303127E+03  0.21742165864E+03  0.84764703113E+03  0.10914682790E+04  0.00000000000E+00 0. -1.
          4    1    6    6  503    0 -0.16575387409E+02  0.18341554428E+03  0.13551804495E+03  0.22865070710E+03  0.00000000000E+00 0. -1.
         -4    1    6    6    0  503  0.16150368558E+02  0.88562079557E+02  0.15653382296E+03  0.18057384659E+03  0.00000000000E+00 0.  1.
<mgrwt>
<rscale>  0 0.10041823E+04</rscale>
<asrwt>0</asrwt>
<pdfrwt beam="1">  1        1 0.26055918E+00 0.10041823E+04</pdfrwt>
<pdfrwt beam="2">  1       -1 0.17509860E+00 0.10041823E+04</pdfrwt>
<totfact> 0.10950452E+00</totfact>
</mgrwt>
</event>
<event>
12    1  0.3147868E-008  0.3304406E+03  0.7818608E-02  0.1070942E+00
         -4   -1    0    0    0  501 -0.00000000000E+00  0.00000000000E+00  0.21390763030E+03  0.21390763030E+03  0.00000000000E+00 0.  1.
          4   -1    0    0  501    0  0.00000000000E+00 -0.00000000000E+00 -0.99463104623E+03  0.99463104623E+03  0.00000000000E+00 0. -1.
         23    2    1    2    0    0  0.15799838946E+03 -0.18171469613E+03 -0.33767917254E+03  0.42475028548E+03  0.91661658267E+02 0.  0.
    5000000    2    1    2    0    0 -0.15799838946E+03  0.18171469613E+03 -0.44304424340E+03  0.78378839104E+03  0.60004359714E+03 0.  0.
         23    2    4    4    0    0 -0.26296773613E+01 -0.67796119702E+02  0.10579063036E+03  0.15491711158E+03  0.90578280721E+02 0.  0.
         23    2    4    4    0    0 -0.15536871209E+03  0.24951081583E+03 -0.54883487376E+03  0.62887127947E+03  0.88680795951E+02 0.  0.
          5    1    3    3  502    0  0.58182251103E+02 -0.38924431195E+02 -0.16551468265E+03  0.17977064794E+03  0.47000000000E+01 0. -1.
         -5    1    3    3    0  502  0.99816138352E+02 -0.14279026493E+03 -0.17216448988E+03  0.24497963754E+03  0.47000000000E+01 0.  1.
         13    1    5    5    0    0 -0.17298252953E+02 -0.87137245565E+02  0.81004630326E+02  0.12022428729E+03  0.00000000000E+00 0. -1.
        -13    1    5    5    0    0  0.14668575592E+02  0.19341125863E+02  0.24786000032E+02  0.34692824289E+02  0.00000000000E+00 0.  1.
          4    1    6    6  503    0 -0.13410726691E+03  0.14845706485E+03 -0.40601951510E+03  0.45263241795E+03  0.00000000000E+00 0. -1.
         -4    1    6    6    0  503 -0.21261445188E+02  0.10105375098E+03 -0.14281535866E+03  0.17623886151E+03  0.00000000000E+00 0.  1.
<mgrwt>
<rscale>  0 0.33044055E+03</rscale>
<asrwt>0</asrwt>
<pdfrwt beam="1">  1        4 0.15302016E+00 0.33044055E+03</pdfrwt>
<pdfrwt beam="2">  1       -4 0.32908866E-01 0.33044055E+03</pdfrwt>
<totfact> 0.48982600E+00</totfact>
</mgrwt>
</event>
<event>
12    1  0.3147868E-008  0.5154451E+03  0.7818608E-02  0.1009824E+00
         -2   -1    0    0    0  501 -0.00000000000E+00  0.00000000000E+00  0.26654159556E+03  0.26654159556E+03  0.00000000000E+00 0.  1.
          2   -1    0    0  501    0  0.00000000000E+00 -0.00000000000E+00 -0.18353212789E+04  0.18353212789E+04  0.00000000000E+00 0. -1.
         23    2    1    2    0    0 -0.48710898796E+03 -0.10626450952E+03 -0.10473253556E+04  0.11635492540E+04  0.91592324821E+02 0.  0.
    5000000    2    1    2    0    0  0.48710898796E+03  0.10626450952E+03 -0.52145432780E+03  0.93831362047E+03  0.59995876711E+03 0.  0.
         23    2    4    4    0    0  0.19989442997E+03 -0.11985019173E+02  0.95814174982E+02  0.24134503280E+03  0.94687089473E+02 0.  0.
         23    2    4    4    0    0  0.28721455800E+03  0.11824952869E+03 -0.61726850279E+03  0.69696858767E+03  0.90937639635E+02 0.  0.
          5    1    3    3  502    0 -0.32893199809E+03 -0.54906705960E+02 -0.60284731857E+03  0.68895426934E+03  0.47000000000E+01 0.  1.
         -5    1    3    3    0  502 -0.15817698988E+03 -0.51357803558E+02 -0.44447803699E+03  0.47459498467E+03  0.47000000000E+01 0. -1.
         11    1    5    5    0    0  0.10189707595E+03 -0.42802520283E+02  0.16903367005E+02  0.11180694811E+03  0.00000000000E+00 0.  1.
        -11    1    5    5    0    0  0.97997354018E+02  0.30817501110E+02  0.78910807977E+02  0.12953808469E+03  0.00000000000E+00 0. -1.
          3    1    6    6  503    0  0.26638839582E+03  0.12705885284E+03 -0.52808740077E+03  0.60496531501E+03  0.00000000000E+00 0. -1.
         -3    1    6    6    0  503  0.20826162179E+02 -0.88093241495E+01 -0.89181102019E+02  0.92003272661E+02  0.00000000000E+00 0.  1.
<mgrwt>
<rscale>  0 0.51544505E+03</rscale>
<asrwt>0</asrwt>
<pdfrwt beam="1">  1        2 0.28235712E+00 0.51544505E+03</pdfrwt>
<pdfrwt beam="2">  1       -2 0.41006400E-01 0.51544505E+03</pdfrwt>
<totfact> 0.49311325E+01</totfact>
</mgrwt>
</event>
<event>
12    1  0.3147868E-008  0.1407626E+04  0.7818608E-02  0.8948317E-01
          2   -1    0    0  501    0  0.00000000000E+00  0.00000000000E+00  0.17285764467E+04  0.17285764467E+04  0.00000000000E+00 0. -1.
         -2   -1    0    0    0  501 -0.00000000000E+00 -0.00000000000E+00 -0.17509198308E+04  0.17509198308E+04  0.00000000000E+00 0.  1.
         23    2    1    2    0    0  0.73643109815E+03 -0.11696596160E+04 -0.97760048447E+03  0.16953721823E+04  0.90275962469E+02 0.  0.
    5000000    2    1    2    0    0 -0.73643109815E+03  0.11696596160E+04  0.95525710033E+03  0.17841240953E+04  0.60012355384E+03 0.  0.
         23    2    4    4    0    0 -0.34564248489E+03  0.26624135862E+03  0.57337620015E+02  0.44925174560E+03  0.90478394401E+02 0.  0.
         23    2    4    4    0    0 -0.39078861326E+03  0.90341825742E+03  0.89791948031E+03  0.13348723497E+04  0.82124957786E+02 0.  0.
          5    1    3    3  502    0  0.21395136479E+03 -0.36353673393E+03 -0.34716915909E+03  0.54633566462E+03  0.47000000000E+01 0. -1.
         -5    1    3    3    0  502  0.52247973336E+03 -0.80612288211E+03 -0.63043132538E+03  0.11490365176E+04  0.47000000000E+01 0.  1.
         13    1    5    5    0    0 -0.17770786263E+03  0.80562058872E+02  0.20296942512E+02  0.19616904864E+03  0.00000000000E+00 0.  1.
        -13    1    5    5    0    0 -0.16793462227E+03  0.18567929975E+03  0.37040677502E+02  0.25308269696E+03  0.00000000000E+00 0. -1.
          3    1    6    6  503    0 -0.12612080787E+03  0.20859101498E+03  0.23935003414E+03  0.34162129406E+03  0.00000000000E+00 0. -1.
         -3    1    6    6    0  503 -0.26466780538E+03  0.69482724244E+03  0.65856944617E+03  0.99325105561E+03  0.00000000000E+00 0.  1.
<mgrwt>
<rscale>  0 0.14076259E+04</rscale>
<asrwt>0</asrwt>
<pdfrwt beam="1">  1        2 0.26593484E+00 0.14076259E+04</pdfrwt>
<pdfrwt beam="2">  1       -2 0.26937228E+00 0.14076259E+04</pdfrwt>
<totfact> 0.43842198E-01</totfact>
</mgrwt>
</event>
<event>
12    1  0.3147868E-008  0.1097264E+04  0.7818608E-02  0.9207863E-01
          2   -1    0    0  501    0  0.00000000000E+00  0.00000000000E+00  0.21509954862E+04  0.21509954862E+04  0.00000000000E+00 0. -1.
         -2   -1    0    0    0  501 -0.00000000000E+00 -0.00000000000E+00 -0.62488842619E+03  0.62488842619E+03  0.00000000000E+00 0.  1.
         23    2    1    2    0    0  0.10320326247E+04  0.28455204996E+03  0.54482241494E+03  0.12046165208E+04  0.90599617586E+02 0.  0.
    5000000    2    1    2    0    0 -0.10320326247E+04 -0.28455204996E+03  0.98128464504E+03  0.15712673916E+04  0.59991703896E+03 0.  0.
         23    2    4    4    0    0 -0.58311048783E+03 -0.11061387504E+01  0.81630745818E+03  0.10078038316E+04  0.96393112570E+02 0.  0.
         23    2    4    4    0    0 -0.44892213689E+03 -0.28344591121E+03  0.16497718686E+03  0.56346355997E+03  0.91657196487E+02 0.  0.
          5    1    3    3  502    0  0.66761744831E+03  0.22054108029E+03  0.38414417760E+03  0.80121174765E+03  0.47000000000E+01 0. -1.
         -5    1    3    3    0  502  0.36441517641E+03  0.64010969666E+02  0.16067823734E+03  0.40340477314E+03  0.47000000000E+01 0.  1.
         13    1    5    5    0    0 -0.39122974184E+03 -0.42779236542E+02  0.51499361867E+03  0.64815831496E+03  0.00000000000E+00 0. -1.
        -13    1    5    5    0    0 -0.19188074599E+03  0.41673097792E+02  0.30131383952E+03  0.35964551665E+03  0.00000000000E+00 0.  1.
          4    1    6    6  503    0 -0.71577308901E+02 -0.34961777789E+02  0.59703576092E+02  0.99549756674E+02  0.00000000000E+00 0. -1.
         -4    1    6    6    0  503 -0.37734482799E+03 -0.24848413342E+03  0.10527361076E+03  0.46391380330E+03  0.00000000000E+00 0.  1.
<mgrwt>
<rscale>  0 0.10972638E+04</rscale>
<asrwt>0</asrwt>
<pdfrwt beam="1">  1        2 0.33092238E+00 0.10972638E+04</pdfrwt>
<pdfrwt beam="2">  1       -2 0.96136682E-01 0.10972638E+04</pdfrwt>
<totfact> 0.49441346E+00</totfact>
</mgrwt>
</event>
<event>
12    1  0.3147868E-008  0.5806806E+03  0.7818608E-02  0.9946319E-01
          1   -1    0    0  501    0  0.00000000000E+00  0.00000000000E+00  0.69954411550E+03  0.69954411550E+03  0.00000000000E+00 0. -1.
         -1   -1    0    0    0  501 -0.00000000000E+00 -0.00000000000E+00 -0.72099552278E+03  0.72099552278E+03  0.00000000000E+00 0.  1.
         23    2    1    2    0    0 -0.12266377348E+03 -0.45717941817E+03 -0.34250794757E+03  0.59160218570E+03  0.92854888190E+02 0.  0.
    5000000    2    1    2    0    0  0.12266377348E+03  0.45717941817E+03  0.32105654029E+03  0.82893745257E+03  0.60000048040E+03 0.  0.
         23    2    4    4    0    0  0.24536230355E+03  0.47095689425E+03  0.82008786285E+02  0.54493500015E+03  0.90695408451E+02 0.  0.
         23    2    4    4    0    0 -0.12269853007E+03 -0.13777476083E+02  0.23904775401E+03  0.28400245242E+03  0.90933031172E+02 0.  0.
          5    1    3    3  502    0 -0.11682048104E+03 -0.34057177183E+03 -0.29489305798E+03  0.46542471164E+03  0.47000000000E+01 0. -1.
         -5    1    3    3    0  502 -0.58432924392E+01 -0.11660764634E+03 -0.47614889589E+02  0.12617747407E+03  0.47000000000E+01 0.  1.
         11    1    5    5    0    0  0.55086450143E+02  0.19341346487E+03  0.13729958071E+02  0.20157330461E+03  0.00000000000E+00 0.  1.
        -11    1    5    5    0    0  0.19027585341E+03  0.27754342938E+03  0.68278828215E+02  0.34336169554E+03  0.00000000000E+00 0. -1.
          4    1    6    6  503    0 -0.65449018325E+02 -0.47050402236E+02  0.89479550261E+02  0.12043215628E+03  0.00000000000E+00 0. -1.
         -4    1    6    6    0  503 -0.57249511741E+02  0.33272926154E+02  0.14956820375E+03  0.16357029615E+03  0.00000000000E+00 0.  1.
<mgrwt>
<rscale>  0 0.58068061E+03</rscale>
<asrwt>0</asrwt>
<pdfrwt beam="1">  1        1 0.10762217E+00 0.58068061E+03</pdfrwt>
<pdfrwt beam="2">  1       -1 0.11092239E+00 0.58068061E+03</pdfrwt>
<totfact> 0.21404304E+01</totfact>
</mgrwt>
</event>
<event>
12    1  0.3147868E-008  0.1577783E+04  0.7818608E-02  0.8834314E-01
         -3   -1    0    0    0  501 -0.00000000000E+00  0.00000000000E+00  0.16821690411E+04  0.16821690411E+04  0.00000000000E+00 0.  1.
          3   -1    0    0  501    0  0.00000000000E+00 -0.00000000000E+00 -0.15302034420E+04  0.15302034420E+04  0.00000000000E+00 0. -1.
         23    2    1    2    0    0 -0.11131695234E+04 -0.10740695395E+04  0.59670443651E+02  0.15507245175E+04  0.91728969511E+02 0.  0.
    5000000    2    1    2    0    0  0.11131695234E+04  0.10740695395E+04  0.92295155517E+02  0.16616479656E+04  0.59981980829E+03 0.  0.
         23    2    4    4    0    0  0.98172054545E+03  0.10834186873E+04  0.18569215595E+03  0.14766012820E+04  0.91096036549E+02 0.  0.
         23    2    4    4    0    0  0.13144897794E+03 -0.93491478427E+01 -0.93397000436E+02  0.18504668359E+03  0.90294158445E+02 0.  0.
          5    1    3    3  502    0 -0.64448068864E+03 -0.60552379605E+03 -0.95324562740E+01  0.88437966018E+03  0.47000000000E+01 0. -1.
         -5    1    3    3    0  502 -0.46868883476E+03 -0.46854574342E+03  0.69202899925E+02  0.66634485731E+03  0.47000000000E+01 0.  1.
         11    1    5    5    0    0  0.50599971384E+03  0.49397820663E+03  0.75403065007E+02  0.71115103969E+03  0.00000000000E+00 0. -1.
        -11    1    5    5    0    0  0.47572083161E+03  0.58944048068E+03  0.11028909095E+03  0.76545024232E+03  0.00000000000E+00 0.  1.
          2    1    6    6  503    0  0.84016558442E+02  0.22230903203E+02 -0.94054134528E+02  0.12805926507E+03  0.00000000000E+00 0. -1.
         -2    1    6    6    0  503  0.47432419499E+02 -0.31580051046E+02  0.65713409203E+00  0.56987418513E+02  0.00000000000E+00 0.  1.
<mgrwt>
<rscale>  0 0.15777834E+04</rscale>
<asrwt>0</asrwt>
<pdfrwt beam="1">  1        3 0.23541592E+00 0.15777834E+04</pdfrwt>
<pdfrwt beam="2">  1       -3 0.25879523E+00 0.15777834E+04</pdfrwt>
<totfact> 0.13929448E-02</totfact>
</mgrwt>
</event>
<event>
12    1  0.3147868E-008  0.7888073E+03  0.7818608E-02  0.9576361E-01
         -1   -1    0    0    0  501 -0.00000000000E+00  0.00000000000E+00  0.15502633659E+04  0.15502633659E+04  0.00000000000E+00 0.  1.
          1   -1    0    0  501    0  0.00000000000E+00 -0.00000000000E+00 -0.19178787670E+04  0.19178787670E+04  0.00000000000E+00 0. -1.
         23    2    1    2    0    0  0.48004648317E+02 -0.73618915176E+03 -0.16863744015E+04  0.18422823363E+04  0.76594198139E+02 0.  0.
    5000000    2    1    2    0    0 -0.48004648317E+02  0.73618915176E+03  0.13187590004E+04  0.16258597965E+04  0.60001321935E+03 0.  0.
         23    2    4    4    0    0 -0.21392995196E+01 -0.83536551316E+01  0.52558736739E+03  0.53324117869E+03  0.89608669972E+02 0.  0.
         23    2    4    4    0    0 -0.45865348797E+02  0.74454280689E+03  0.79317163300E+03  0.10926186178E+04  0.90810699330E+02 0.  0.
          5    1    3    3  502    0 -0.11660822564E+02 -0.29521623865E+03 -0.72516725829E+03  0.78305698697E+03  0.47000000000E+01 0. -1.
         -5    1    3    3    0  502  0.59665470880E+02 -0.44097291310E+03 -0.96120714320E+03  0.10592253493E+04  0.47000000000E+01 0.  1.
         11    1    5    5    0    0 -0.28079045377E+02  0.31497415309E+02  0.26806418205E+03  0.27136493078E+03  0.00000000000E+00 0. -1.
        -11    1    5    5    0    0  0.25939745857E+02 -0.39851070441E+02  0.25752318535E+03  0.26187624792E+03  0.00000000000E+00 0.  1.
          3    1    6    6  503    0 -0.46544342886E+02  0.38196422053E+03  0.46515708342E+03  0.60368381946E+03  0.00000000000E+00 0. -1.
         -3    1    6    6    0  503  0.67899408934E+00  0.36257858635E+03  0.32801454958E+03  0.48893479836E+03  0.00000000000E+00 0.  1.
<mgrwt>
<rscale>  0 0.78880726E+03</rscale>
<asrwt>0</asrwt>
<pdfrwt beam="1">  1        1 0.29505827E+00 0.78880726E+03</pdfrwt>
<pdfrwt beam="2">  1       -1 0.23850206E+00 0.78880726E+03</pdfrwt>
<totfact> 0.29770823E-01</totfact>
</mgrwt>
</event>
<event>
12    1  0.3147868E-008  0.6328024E+03  0.7818608E-02  0.9839595E-01
          2   -1    0    0  501    0  0.00000000000E+00  0.00000000000E+00  0.15163055801E+04  0.15163055801E+04  0.00000000000E+00 0.  1.
         -2   -1    0    0    0  501 -0.00000000000E+00 -0.00000000000E+00 -0.33413750511E+03  0.33413750511E+03  0.00000000000E+00 0. -1.
         23    2    1    2    0    0 -0.82623589393E+02 -0.57417044405E+03  0.53869243243E+03  0.79680388294E+03  0.90600964498E+02 0.  0.
    5000000    2    1    2    0    0  0.82623589393E+02  0.57417044405E+03  0.64347564254E+03  0.10536392023E+04  0.59966349701E+03 0.  0.
         23    2    4    4    0    0  0.77958149068E+02  0.61071270355E+03  0.29245459473E+03  0.68771764799E+03  0.91533568114E+02 0.  0.
         23    2    4    4    0    0  0.46654403246E+01 -0.36542259508E+02  0.35102104781E+03  0.36592155427E+03  0.96569688861E+02 0.  0.
          5    1    3    3  502    0 -0.14359835644E+02 -0.13738149284E+03  0.79841041551E+02  0.15961378816E+03  0.47000000000E+01 0. -1.
         -5    1    3    3    0  502 -0.68263753748E+02 -0.43678895120E+03  0.45885139088E+03  0.63719009478E+03  0.47000000000E+01 0.  1.
         13    1    5    5    0    0  0.50585624197E+02  0.26211705300E+03  0.80507369861E+02  0.27882914383E+03  0.00000000000E+00 0.  1.
        -13    1    5    5    0    0  0.27372524871E+02  0.34859565055E+03  0.21194722487E+03  0.40888850416E+03  0.00000000000E+00 0. -1.
          4    1    6    6  503    0  0.28066122700E+02 -0.36687730645E+01  0.29775305083E+03  0.29909538014E+03  0.00000000000E+00 0. -1.
         -4    1    6    6    0  503 -0.23400682376E+02 -0.32873486443E+02  0.53267996977E+02  0.66826174127E+02  0.00000000000E+00 0.  1.
<mgrwt>
<rscale>  0 0.63280243E+03</rscale>
<asrwt>0</asrwt>
<pdfrwt beam="1">  1        2 0.23327778E+00 0.63280243E+03</pdfrwt>
<pdfrwt beam="2">  1       -2 0.51405771E-01 0.63280243E+03</pdfrwt>
<totfact> 0.46048055E+01</totfact>
</mgrwt>
</event>
<event>
12    1  0.3147868E-008  0.6055456E+03  0.7818608E-02  0.9893967E-01
         -2   -1    0    0    0  501 -0.00000000000E+00  0.00000000000E+00  0.25740381782E+03  0.25740381782E+03  0.00000000000E+00 0.  1.
          2   -1    0    0  501    0  0.00000000000E+00 -0.00000000000E+00 -0.17049037609E+04  0.17049037609E+04  0.00000000000E+00 0. -1.
         23    2    1    2    0    0 -0.50370566949E+03  0.62648038270E+02 -0.39619168056E+03  0.64966861452E+03  0.86355560193E+02 0.  0.
    5000000    2    1    2    0    0  0.50370566949E+03 -0.62648038270E+02 -0.10513082626E+04  0.13126389642E+04  0.60010649832E+03 0.  0.
         23    2    4    4    0    0  0.44989258508E+03 -0.23313119330E+03 -0.46590499190E+03  0.69437856792E+03  0.91327119229E+02 0.  0.
         23    2    4    4    0    0  0.53813084407E+02  0.17048315503E+03 -0.58540327067E+03  0.61826039632E+03  0.87112422451E+02 0.  0.
          5    1    3    3  502    0 -0.33444950403E+03  0.81980230267E+02 -0.27027126241E+03  0.43777377056E+03  0.47000000000E+01 0. -1.
         -5    1    3    3    0  502 -0.16925616545E+03 -0.19332191997E+02 -0.12592041815E+03  0.21189484396E+03  0.47000000000E+01 0.  1.
         13    1    5    5    0    0  0.10541129401E+03 -0.91234895947E+02 -0.95244988772E+02  0.16884002792E+03  0.00000000000E+00 0. -1.
        -13    1    5    5    0    0  0.34448129107E+03 -0.14189629736E+03 -0.37066000313E+03  0.52553854000E+03  0.00000000000E+00 0.  1.
          2    1    6    6  503    0 -0.30661531140E+01  0.59743019651E+02 -0.31425528052E+03  0.31989843862E+03  0.00000000000E+00 0. -1.
         -2    1    6    6    0  503  0.56879237521E+02  0.11074013538E+03 -0.27114799014E+03  0.29836195770E+03  0.00000000000E+00 0.  1.
<mgrwt>
<rscale>  0 0.60554555E+03</rscale>
<asrwt>0</asrwt>
<pdfrwt beam="1">  1        2 0.26229289E+00 0.60554555E+03</pdfrwt>
<pdfrwt beam="2">  1       -2 0.39600587E-01 0.60554555E+03</pdfrwt>
<totfact> 0.61231912E+01</totfact>
</mgrwt>
</event>
<event>
12    1  0.3147868E-008  0.6647005E+03  0.7818608E-02  0.9779579E-01
         -1   -1    0    0    0  501 -0.00000000000E+00  0.00000000000E+00  0.66321453483E+03  0.66321453483E+03  0.00000000000E+00 0.  1.
          1   -1    0    0  501    0  0.00000000000E+00 -0.00000000000E+00 -0.10460467784E+04  0.10460467784E+04  0.00000000000E+00 0. -1.
         23    2    1    2    0    0  0.30700579535E+03  0.56530167605E+03 -0.50190666786E+03  0.82105851326E+03  0.91696431962E+02 0.  0.
    5000000    2    1    2    0    0 -0.30700579535E+03 -0.56530167605E+03  0.11907442432E+03  0.88820279993E+03  0.60075531788E+03 0.  0.
         23    2    4    4    0    0  0.28986134553E+01 -0.13136421475E+03 -0.20310299170E+03  0.25841808315E+03  0.90907214146E+02 0.  0.
         23    2    4    4    0    0 -0.30990440881E+03 -0.43393746130E+03  0.32217741602E+03  0.62978471679E+03  0.92130555113E+02 0.  0.
          5    1    3    3  502    0  0.14022962693E+03  0.26406728859E+03 -0.17624457399E+03  0.34710246475E+03  0.47000000000E+01 0. -1.
         -5    1    3    3    0  502  0.16677616842E+03  0.30123438747E+03 -0.32566209387E+03  0.47395604852E+03  0.47000000000E+01 0.  1.
         11    1    5    5    0    0  0.32824741751E+02 -0.57265462810E+02 -0.41042966141E+02  0.77725941432E+02  0.00000000000E+00 0.  1.
        -11    1    5    5    0    0 -0.29926128295E+02 -0.74098751940E+02 -0.16206002556E+03  0.18069214172E+03  0.00000000000E+00 0. -1.
          2    1    6    6  503    0 -0.10830785945E+03 -0.22528460909E+03  0.16859218515E+03  0.30150799725E+03  0.00000000000E+00 0. -1.
         -2    1    6    6    0  503 -0.20159654936E+03 -0.20865285222E+03  0.15358523087E+03  0.32827671954E+03  0.00000000000E+00 0.  1.
<mgrwt>
<rscale>  0 0.66470049E+03</rscale>
<asrwt>0</asrwt>
<pdfrwt beam="1">  1        1 0.16093027E+00 0.66470049E+03</pdfrwt>
<pdfrwt beam="2">  1       -1 0.10203301E+00 0.66470049E+03</pdfrwt>
<totfact> 0.13241663E+01</totfact>
</mgrwt>
</event>
<event>
12    1  0.3147868E-008  0.6440220E+03  0.7818608E-02  0.9818062E-01
          2   -1    0    0  501    0  0.00000000000E+00  0.00000000000E+00  0.20619455123E+04  0.20619455123E+04  0.00000000000E+00 0.  1.
         -2   -1    0    0    0  501 -0.00000000000E+00 -0.00000000000E+00 -0.21798097728E+03  0.21798097728E+03  0.00000000000E+00 0. -1.
         23    2    1    2    0    0 -0.27853866504E+02 -0.49982399925E+03  0.43867478119E+03  0.67195149721E+03  0.92105281336E+02 0.  0.
    5000000    2    1    2    0    0  0.27853866504E+02  0.49982399925E+03  0.14052897539E+04  0.16079749924E+04  0.60012033438E+03 0.  0.
         23    2    4    4    0    0  0.29734882910E+03  0.23170832441E+03  0.65221360069E+03  0.75893567413E+03  0.92172136700E+02 0.  0.
         23    2    4    4    0    0 -0.26949496259E+03  0.26811567484E+03  0.75307615317E+03  0.84903931826E+03  0.96075603094E+02 0.  0.
          5    1    3    3  502    0  0.30666844113E+02 -0.22700785525E+03  0.21684992119E+03  0.31546632149E+03  0.47000000000E+01 0. -1.
         -5    1    3    3    0  502 -0.58520710617E+02 -0.27281614400E+03  0.22182486000E+03  0.35648517573E+03  0.47000000000E+01 0.  1.
         13    1    5    5    0    0  0.25934446096E+03  0.15418397839E+03  0.50395757284E+03  0.58737167437E+03  0.00000000000E+00 0.  1.
        -13    1    5    5    0    0  0.38004368135E+02  0.77524346020E+02  0.14825602784E+03  0.17156399976E+03  0.00000000000E+00 0. -1.
          3    1    6    6  503    0 -0.72813755466E+02  0.13785948421E+03  0.28374053644E+03  0.32375264075E+03  0.00000000000E+00 0. -1.
         -3    1    6    6    0  503 -0.19668120713E+03  0.13025619063E+03  0.46933561673E+03  0.52528667751E+03  0.00000000000E+00 0.  1.
<mgrwt>
<rscale>  0 0.64402204E+03</rscale>
<asrwt>0</asrwt>
<pdfrwt beam="1">  1        2 0.31722237E+00 0.64402204E+03</pdfrwt>
<pdfrwt beam="2">  1       -2 0.33535536E-01 0.64402204E+03</pdfrwt>
<totfact> 0.53597737E+01</totfact>
</mgrwt>
</event>
<event>
12    1  0.3147868E-008  0.6072446E+03  0.7818608E-02  0.9890489E-01
          2   -1    0    0  501    0  0.00000000000E+00  0.00000000000E+00  0.15934210074E+04  0.15934210074E+04  0.00000000000E+00 0. -1.
         -2   -1    0    0    0  501 -0.00000000000E+00 -0.00000000000E+00 -0.26426876998E+03  0.26426876998E+03  0.00000000000E+00 0.  1.
         23    2    1    2    0    0  0.15304671447E+03 -0.45352309251E+03  0.75766551629E+03  0.90081156025E+03  0.91093030790E+02 0.  0.
    5000000    2    1    2    0    0 -0.15304671447E+03  0.45352309251E+03  0.57148672113E+03  0.95687821712E+03  0.59992696032E+03 0.  0.
         23    2    4    4    0    0  0.16009573458E+02  0.52689271426E+03  0.29221668204E+03  0.60950954989E+03  0.90769286471E+02 0.  0.
         23    2    4    4    0    0 -0.16905628793E+03 -0.73369621744E+02  0.27927003909E+03  0.34736866723E+03  0.93327950558E+02 0.  0.
          5    1    3    3  502    0  0.10110335810E+03 -0.23457327627E+03  0.47637299769E+03  0.54055511642E+03  0.47000000000E+01 0. -1.
         -5    1    3    3    0  502  0.51943356365E+02 -0.21894981624E+03  0.28129251860E+03  0.36025644383E+03  0.47000000000E+01 0.  1.
         13    1    5    5    0    0  0.19023088494E+02  0.47934223627E+03  0.23243514490E+03  0.53306374286E+03  0.00000000000E+00 0.  1.
        -13    1    5    5    0    0 -0.30135150362E+01  0.47550477984E+02  0.59781537137E+02  0.76445807026E+02  0.00000000000E+00 0. -1.
          4    1    6    6  503    0 -0.43856972466E+02  0.22112951537E+02  0.67388587213E+02  0.83388478497E+02  0.00000000000E+00 0.  1.
         -4    1    6    6    0  503 -0.12519931546E+03 -0.95482573281E+02  0.21188145188E+03  0.26398018873E+03  0.00000000000E+00 0. -1.
<mgrwt>
<rscale>  0 0.60724456E+03</rscale>
<asrwt>0</asrwt>
<pdfrwt beam="1">  1        2 0.24514169E+00 0.60724456E+03</pdfrwt>
<pdfrwt beam="2">  1       -2 0.40656735E-01 0.60724456E+03</pdfrwt>
<totfact> 0.66899693E+01</totfact>
</mgrwt>
</event>
<event>
12    1  0.3147868E-008  0.5731689E+03  0.7818608E-02  0.9962691E-01
         -2   -1    0    0    0  501 -0.00000000000E+00  0.00000000000E+00  0.18649812818E+03  0.18649812818E+03  0.00000000000E+00 0.  1.
          2   -1    0    0  501    0  0.00000000000E+00 -0.00000000000E+00 -0.21589250444E+04  0.21589250444E+04  0.00000000000E+00 0. -1.
         23    2    1    2    0    0  0.21603976491E+03 -0.38957219418E+03 -0.40534675771E+03  0.60925358937E+03  0.91892696546E+02 0.  0.
    5000000    2    1    2    0    0 -0.21603976491E+03  0.38957219418E+03 -0.15670801585E+04  0.17361695832E+04  0.60008743027E+03 0.  0.
         23    2    4    4    0    0 -0.37732533191E+03  0.31698092984E+03 -0.13578542572E+04  0.14473221696E+04  0.90121932904E+02 0.  0.
         23    2    4    4    0    0  0.16128556700E+03  0.72591264333E+02 -0.20922590136E+03  0.28884741367E+03  0.91514068899E+02 0.  0.
          5    1    3    3  502    0  0.14121385818E+02 -0.99294028484E+02 -0.10514635115E+03  0.14538419030E+03  0.47000000000E+01 0. -1.
         -5    1    3    3    0  502  0.20191837910E+03 -0.29027816569E+03 -0.30020040656E+03  0.46386939907E+03  0.47000000000E+01 0.  1.
         11    1    5    5    0    0 -0.24590599689E+02  0.44199772318E+02 -0.20733583267E+03  0.21341617787E+03  0.00000000000E+00 0.  1.
        -11    1    5    5    0    0 -0.35273473222E+03  0.27278115753E+03 -0.11505184245E+04  0.12339059917E+04  0.00000000000E+00 0. -1.
          3    1    6    6  503    0  0.17127404841E+03  0.72062633604E+02 -0.18309274810E+03  0.26086543892E+03  0.00000000000E+00 0. -1.
         -3    1    6    6    0  503 -0.99884814096E+01  0.52863072947E+00 -0.26133153266E+02  0.27981974750E+02  0.00000000000E+00 0.  1.
<mgrwt>
<rscale>  0 0.57316887E+03</rscale>
<asrwt>0</asrwt>
<pdfrwt beam="1">  1        2 0.33214233E+00 0.57316887E+03</pdfrwt>
<pdfrwt beam="2">  1       -2 0.28692018E-01 0.57316887E+03</pdfrwt>
<totfact> 0.64108745E+01</totfact>
</mgrwt>
</event>
<event>
12    1  0.3147868E-008  0.5590176E+03  0.7818608E-02  0.9994280E-01
          2   -1    0    0  501    0  0.00000000000E+00  0.00000000000E+00  0.29727846009E+04  0.29727846009E+04  0.00000000000E+00 0. -1.
         -2   -1    0    0    0  501 -0.00000000000E+00 -0.00000000000E+00 -0.28747857626E+03  0.28747857626E+03  0.00000000000E+00 0.  1.
         23    2    1    2    0    0  0.17274916257E+03 -0.51313213180E+03  0.23004939218E+04  0.23653477432E+04  0.97215244793E+02 0.  0.
    5000000    2    1    2    0    0 -0.17274916257E+03  0.51313213180E+03  0.38481210281E+03  0.89491543401E+03  0.59970527904E+03 0.  0.
         23    2    4    4    0    0 -0.28285882510E+02  0.33424722193E+03  0.50998402393E+03  0.61713633931E+03  0.90841951315E+02 0.  0.
         23    2    4    4    0    0 -0.14446328006E+03  0.17888490987E+03 -0.12517192112E+03  0.27777909470E+03  0.92864230750E+02 0.  0.
          5    1    3    3  502    0  0.16400460820E+03 -0.35218219840E+03  0.16612228302E+04  0.17060519318E+04  0.47000000000E+01 0. -1.
         -5    1    3    3    0  502  0.87445543666E+01 -0.16094993339E+03  0.63927109160E+03  0.65929581134E+03  0.47000000000E+01 0.  1.
         11    1    5    5    0    0  0.55305643634E+01  0.14941915957E+02  0.73873542230E+02  0.75572139286E+02  0.00000000000E+00 0. -1.
        -11    1    5    5    0    0 -0.33816446873E+02  0.31930530597E+03  0.43611048170E+03  0.54156420002E+03  0.00000000000E+00 0.  1.
          3    1    6    6  503    0 -0.99440702935E+02  0.10427926386E+03 -0.12482442134E+03  0.19064037986E+03  0.00000000000E+00 0. -1.
         -3    1    6    6    0  503 -0.45022577122E+02  0.74605646017E+02 -0.34749977739E+00  0.87138714843E+02  0.00000000000E+00 0.  1.
<mgrwt>
<rscale>  0 0.55901757E+03</rscale>
<asrwt>0</asrwt>
<pdfrwt beam="1">  1        2 0.45735146E+00 0.55901757E+03</pdfrwt>
<pdfrwt beam="2">  1       -2 0.44227475E-01 0.55901757E+03</pdfrwt>
<totfact> 0.97117684E+00</totfact>
</mgrwt>
</event>
<event>
12    1  0.3147868E-008  0.6839469E+03  0.7818608E-02  0.9745086E-01
         -2   -1    0    0    0  501 -0.00000000000E+00  0.00000000000E+00  0.16828335209E+03  0.16828335209E+03  0.00000000000E+00 0.  1.
          2   -1    0    0  501    0  0.00000000000E+00 -0.00000000000E+00 -0.30849769106E+04  0.30849769106E+04  0.00000000000E+00 0. -1.
         23    2    1    2    0    0  0.31689316425E+03 -0.46028535693E+03 -0.16490128247E+04  0.17435281177E+04  0.91450062873E+02 0.  0.
    5000000    2    1    2    0    0 -0.31689316425E+03  0.46028535693E+03 -0.12676807338E+04  0.15097321450E+04  0.59999401602E+03 0.  0.
         23    2    4    4    0    0 -0.32439379057E+03 -0.72659258394E+01 -0.61386586257E+03  0.70073151636E+03  0.94388748022E+02 0.  0.
         23    2    4    4    0    0  0.75006263280E+01  0.46755128277E+03 -0.65381487128E+03  0.80900062862E+03  0.91365583137E+02 0.  0.
          5    1    3    3  502    0  0.19272245596E+03 -0.28021111192E+03 -0.86213139317E+03  0.92679708748E+03  0.47000000000E+01 0. -1.
         -5    1    3    3    0  502  0.12417070829E+03 -0.18007424501E+03 -0.78688143151E+03  0.81673103025E+03  0.47000000000E+01 0.  1.
         11    1    5    5    0    0 -0.13754518612E+03  0.41976313276E+02 -0.23703990682E+03  0.27725188282E+03  0.00000000000E+00 0.  1.
        -11    1    5    5    0    0 -0.18684860445E+03 -0.49242239115E+02 -0.37682595574E+03  0.42347963354E+03  0.00000000000E+00 0. -1.
          4    1    6    6  503    0  0.34544556388E+02  0.32714979876E+03 -0.40223308577E+03  0.51962657023E+03  0.00000000000E+00 0. -1.
         -4    1    6    6    0  503 -0.27043930060E+02  0.14040148401E+03 -0.25158178551E+03  0.28937405839E+03  0.00000000000E+00 0.  1.
<mgrwt>
<rscale>  0 0.68394691E+03</rscale>
<asrwt>0</asrwt>
<pdfrwt beam="1">  1        2 0.47461178E+00 0.68394691E+03</pdfrwt>
<pdfrwt beam="2">  1       -2 0.25889749E-01 0.68394691E+03</pdfrwt>
<totfact> 0.22219278E+01</totfact>
</mgrwt>
</event>
<event>
12    1  0.3147868E-008  0.3266309E+03  0.7818608E-02  0.1072637E+00
         -1   -1    0    0    0  501 -0.00000000000E+00  0.00000000000E+00  0.71178658791E+03  0.71178658791E+03  0.00000000000E+00 0.  1.
          1   -1    0    0  501    0  0.00000000000E+00 -0.00000000000E+00 -0.56492278362E+03  0.56492278362E+03  0.00000000000E+00 0. -1.
         23    2    1    2    0    0 -0.15709505806E+03 -0.26139145001E+03 -0.32488573944E+03  0.45473455767E+03  0.90710676571E+02 0.  0.
    5000000    2    1    2    0    0  0.15709505806E+03  0.26139145001E+03  0.47174954374E+03  0.82197481386E+03  0.60007550792E+03 0.  0.
         23    2    4    4    0    0  0.89559557216E+02  0.90531285757E+02  0.57321137035E+03  0.59412938102E+03  0.90562786531E+02 0.  0.
         23    2    4    4    0    0  0.67535500842E+02  0.17086016426E+03 -0.10146182661E+03  0.22784543285E+03  0.88683704287E+02 0.  0.
          5    1    3    3  502    0 -0.55694044174E+02 -0.11078766229E+03 -0.19619506256E+03  0.23214289833E+03  0.47000000000E+01 0. -1.
         -5    1    3    3    0  502 -0.10140101388E+03 -0.15060378772E+03 -0.12869067688E+03  0.22259165934E+03  0.47000000000E+01 0.  1.
         13    1    5    5    0    0 -0.14788421137E+02  0.32226326756E+02  0.16557336169E+03  0.16932740959E+03  0.00000000000E+00 0.  1.
        -13    1    5    5    0    0  0.10434797835E+03  0.58304959002E+02  0.40763800865E+03  0.42480197143E+03  0.00000000000E+00 0. -1.
          1    1    6    6  503    0  0.32929592256E+02  0.14672149029E+03 -0.44229112021E+02  0.15674108622E+03  0.00000000000E+00 0. -1.
         -1    1    6    6    0  503  0.34605908586E+02  0.24138673965E+02 -0.57232714588E+02  0.71104346625E+02  0.00000000000E+00 0.  1.
<mgrwt>
<rscale>  0 0.32663094E+03</rscale>
<asrwt>0</asrwt>
<pdfrwt beam="1">  1        1 0.86911197E-01 0.32663094E+03</pdfrwt>
<pdfrwt beam="2">  1       -1 0.10950563E+00 0.32663094E+03</pdfrwt>
<totfact> 0.31399616E+01</totfact>
</mgrwt>
</event>
<event>
12    1  0.3147868E-008  0.5543453E+03  0.7818608E-02  0.1000493E+00
         -2   -1    0    0    0  501 -0.00000000000E+00  0.00000000000E+00  0.56413623376E+03  0.56413623376E+03  0.00000000000E+00 0.  1.
          2   -1    0    0  501    0  0.00000000000E+00 -0.00000000000E+00 -0.68458844316E+03  0.68458844316E+03  0.00000000000E+00 0. -1.
         23    2    1    2    0    0 -0.45767698905E+03 -0.97514589936E+02 -0.10030796327E+03  0.48754909068E+03  0.93086555276E+02 0.  0.
    5000000    2    1    2    0    0  0.45767698905E+03  0.97514589936E+02 -0.20144246123E+02  0.76117558624E+03  0.60000430072E+03 0.  0.
         23    2    4    4    0    0  0.37553710797E+03 -0.10975206668E+03 -0.21172098944E+03  0.45416805280E+03  0.91483371243E+02 0.  0.
         23    2    4    4    0    0  0.82139881078E+02  0.20726665662E+03  0.19157674332E+03  0.30700753344E+03  0.88575109362E+02 0.  0.
          5    1    3    3  502    0 -0.13006959976E+03 -0.93287917057E+01 -0.66812156294E+02  0.14659836754E+03  0.47000000000E+01 0. -1.
         -5    1    3    3    0  502 -0.32760738929E+03 -0.88185798230E+02 -0.33495806977E+02  0.34095072314E+03  0.47000000000E+01 0.  1.
         11    1    5    5    0    0  0.16078784607E+03 -0.63817542755E+01 -0.60518606423E+02  0.17191846892E+03  0.00000000000E+00 0. -1.
        -11    1    5    5    0    0  0.21474926190E+03 -0.10337031241E+03 -0.15120238302E+03  0.28224958389E+03  0.00000000000E+00 0.  1.
          4    1    6    6  503    0  0.71614442112E+02  0.64134076760E+02  0.70067295052E+02  0.11895895913E+03  0.00000000000E+00 0. -1.
         -4    1    6    6    0  503  0.10525438965E+02  0.14313257986E+03  0.12150944826E+03  0.18804857431E+03  0.00000000000E+00 0.  1.
<mgrwt>
<rscale>  0 0.55434534E+03</rscale>
<asrwt>0</asrwt>
<pdfrwt beam="1">  1        2 0.10532130E+00 0.55434534E+03</pdfrwt>
<pdfrwt beam="2">  1       -2 0.86790190E-01 0.55434534E+03</pdfrwt>
<totfact> 0.49874018E+01</totfact>
</mgrwt>
</event>
<event>
12    1  0.3147868E-008  0.4643627E+03  0.7818608E-02  0.1023523E+00
         -2   -1    0    0    0  501 -0.00000000000E+00  0.00000000000E+00  0.12025517765E+03  0.12025517765E+03  0.00000000000E+00 0.  1.
          2   -1    0    0  501    0  0.00000000000E+00 -0.00000000000E+00 -0.30732700533E+04  0.30732700533E+04  0.00000000000E+00 0. -1.
         23    2    1    2    0    0  0.38865394326E+02 -0.43107831690E+03 -0.14863511653E+04  0.15508408561E+04  0.92350094873E+02 0.  0.
    5000000    2    1    2    0    0 -0.38865394326E+02  0.43107831690E+03 -0.14666637104E+04  0.16426843749E+04  0.59997540126E+03 0.  0.
         23    2    4    4    0    0  0.82325100586E+02  0.14559988008E+03 -0.12230818543E+04  0.12378616851E+04  0.91627408928E+02 0.  0.
         23    2    4    4    0    0 -0.12119049491E+03  0.28547843682E+03 -0.24358185609E+03  0.40482268975E+03  0.91456085527E+02 0.  0.
          5    1    3    3  502    0 -0.32116770418E+01 -0.27217267600E+03 -0.79949239871E+03  0.84456998883E+03  0.47000000000E+01 0. -1.
         -5    1    3    3    0  502  0.42077071368E+02 -0.15890564089E+03 -0.68685876661E+03  0.70627086724E+03  0.47000000000E+01 0.  1.
         11    1    5    5    0    0  0.16892835151E+01  0.43558432437E+02 -0.58721114060E+03  0.58882689677E+03  0.00000000000E+00 0. -1.
        -11    1    5    5    0    0  0.80635817071E+02  0.10204144764E+03 -0.63587071366E+03  0.64903478838E+03  0.00000000000E+00 0.  1.
          3    1    6    6  503    0 -0.18686095614E+02  0.13521667108E+03 -0.13986677755E+03  0.19543652108E+03  0.00000000000E+00 0. -1.
         -3    1    6    6    0  503 -0.10250439930E+03  0.15026176574E+03 -0.10371507853E+03  0.20938616868E+03  0.00000000000E+00 0.  1.
<mgrwt>
<rscale>  0 0.46436270E+03</rscale>
<asrwt>0</asrwt>
<pdfrwt beam="1">  1        2 0.47281071E+00 0.46436270E+03</pdfrwt>
<pdfrwt beam="2">  1       -2 0.18500799E-01 0.46436270E+03</pdfrwt>
<totfact> 0.42798756E+01</totfact>
</mgrwt>
</event>
<event>
12    1  0.3147868E-008  0.5254373E+03  0.7818608E-02  0.1007345E+00
          2   -1    0    0  501    0  0.00000000000E+00  0.00000000000E+00  0.22584851011E+04  0.22584851011E+04  0.00000000000E+00 0. -1.
         -2   -1    0    0    0  501 -0.00000000000E+00 -0.00000000000E+00 -0.26620324281E+03  0.26620324281E+03  0.00000000000E+00 0.  1.
         23    2    1    2    0    0  0.37360268504E+03 -0.17109835646E+03  0.16823720636E+04  0.17342107980E+04  0.90871984913E+02 0.  0.
    5000000    2    1    2    0    0 -0.37360268504E+03  0.17109835646E+03  0.30990979473E+03  0.79047754595E+03  0.59996421220E+03 0.  0.
         23    2    4    4    0    0  0.72980162888E+02 -0.59902338517E+02  0.24407702301E+03  0.27523969009E+03  0.85257841285E+02 0.  0.
         23    2    4    4    0    0 -0.44658284793E+03  0.23100069498E+03  0.65832771714E+02  0.51523785586E+03  0.91315568974E+02 0.  0.
          5    1    3    3  502    0  0.21710675329E+03 -0.13752197427E+03  0.92187038796E+03  0.95703434522E+03  0.47000000000E+01 0. -1.
         -5    1    3    3    0  502  0.15649593175E+03 -0.33576382190E+02  0.76050167565E+03  0.77717645278E+03  0.47000000000E+01 0.  1.
         13    1    5    5    0    0  0.25402495590E+02 -0.73157898701E+02  0.15925340353E+03  0.17708475784E+03  0.00000000000E+00 0.  1.
        -13    1    5    5    0    0  0.47577667298E+02  0.13255560184E+02  0.84823619486E+02  0.98154932245E+02  0.00000000000E+00 0. -1.
          4    1    6    6  503    0 -0.42389616333E+03  0.20065938572E+03  0.78030382668E+02  0.47543757422E+03  0.00000000000E+00 0. -1.
         -4    1    6    6    0  503 -0.22686684602E+02  0.30341309262E+02 -0.12197610954E+02  0.39800281644E+02  0.00000000000E+00 0.  1.
<mgrwt>
<rscale>  0 0.52543734E+03</rscale>
<asrwt>0</asrwt>
<pdfrwt beam="1">  1        2 0.34745923E+00 0.52543734E+03</pdfrwt>
<pdfrwt beam="2">  1       -2 0.40954346E-01 0.52543734E+03</pdfrwt>
<totfact> 0.29128551E+01</totfact>
</mgrwt>
</event>
<event>
12    1  0.3147868E-008  0.6737909E+03  0.7818608E-02  0.9763134E-01
          1   -1    0    0  501    0  0.00000000000E+00  0.00000000000E+00  0.14097154591E+04  0.14097154591E+04  0.00000000000E+00 0. -1.
         -1   -1    0    0    0  501 -0.00000000000E+00 -0.00000000000E+00 -0.33339427643E+03  0.33339427643E+03  0.00000000000E+00 0.  1.
         23    2    1    2    0    0  0.50124748520E+03  0.22308772014E+03  0.39662248831E+03  0.68339827853E+03  0.93309359449E+02 0.  0.
    5000000    2    1    2    0    0 -0.50124748520E+03 -0.22308772014E+03  0.67969869435E+03  0.10597114570E+04  0.59998407035E+03 0.  0.
         23    2    4    4    0    0 -0.45886212787E+03  0.91603126801E+02  0.33510346156E+03  0.58248470557E+03  0.89713527607E+02 0.  0.
         23    2    4    4    0    0 -0.42385357333E+02 -0.31469084694E+03  0.34459523279E+03  0.47722675143E+03  0.90402710972E+02 0.  0.
          5    1    3    3  502    0  0.24341527014E+03  0.59343605475E+02  0.19274278590E+03  0.31614004613E+03  0.47000000000E+01 0. -1.
         -5    1    3    3    0  502  0.25783221506E+03  0.16374411466E+03  0.20387970241E+03  0.36725823240E+03  0.47000000000E+01 0.  1.
         13    1    5    5    0    0 -0.32247980829E+03  0.98341014375E+02  0.26602595010E+03  0.42945778371E+03  0.00000000000E+00 0.  1.
        -13    1    5    5    0    0 -0.13638231958E+03 -0.67378875737E+01  0.69077511458E+02  0.15302692185E+03  0.00000000000E+00 0. -1.
          1    1    6    6  503    0 -0.54363035713E+01 -0.86495350082E+02  0.15775466432E+03  0.17999314736E+03  0.00000000000E+00 0. -1.
         -1    1    6    6    0  503 -0.36949053762E+02 -0.22819549685E+03  0.18684056848E+03  0.29723360407E+03  0.00000000000E+00 0.  1.
<mgrwt>
<rscale>  0 0.67379089E+03</rscale>
<asrwt>0</asrwt>
<pdfrwt beam="1">  1        1 0.21687930E+00 0.67379089E+03</pdfrwt>
<pdfrwt beam="2">  1       -1 0.51291428E-01 0.67379089E+03</pdfrwt>
<totfact> 0.30098800E+01</totfact>
</mgrwt>
</event>
<event>
12    1  0.3147868E-008  0.3747719E+03  0.7818608E-02  0.1052883E+00
          3   -1    0    0  501    0  0.00000000000E+00  0.00000000000E+00  0.15370985776E+03  0.15370985776E+03  0.00000000000E+00 0. -1.
         -3   -1    0    0    0  501 -0.00000000000E+00 -0.00000000000E+00 -0.14105355353E+04  0.14105355353E+04  0.00000000000E+00 0.  1.
         23    2    1    2    0    0 -0.23852242540E+03  0.62331077817E+02 -0.51955327688E+03  0.58218843155E+03  0.90717427346E+02 0.  0.
    5000000    2    1    2    0    0  0.23852242540E+03 -0.62331077817E+02 -0.73727240065E+03  0.98205696150E+03  0.60007263910E+03 0.  0.
         23    2    4    4    0    0 -0.11151506649E+03  0.22965965323E+02  0.12040141225E+02  0.14559683732E+03  0.89946808833E+02 0.  0.
         23    2    4    4    0    0  0.35003749189E+03 -0.85297043140E+02 -0.74931254187E+03  0.83646012418E+03  0.91621081898E+02 0.  0.
          5    1    3    3  502    0 -0.16792544977E+03  0.73323218445E+01 -0.38953092745E+03  0.42427485557E+03  0.47000000000E+01 0. -1.
         -5    1    3    3    0  502 -0.70596975636E+02  0.54998755973E+02 -0.13002234943E+03  0.15791357598E+03  0.47000000000E+01 0.  1.
         13    1    5    5    0    0 -0.10659897863E+03  0.49502450552E+01 -0.19942621478E+02  0.10856129754E+03  0.00000000000E+00 0. -1.
        -13    1    5    5    0    0 -0.49160878532E+01  0.18015720268E+02  0.31982762703E+02  0.37035539778E+02  0.00000000000E+00 0.  1.
          2    1    6    6  503    0  0.26245749983E+03 -0.33365302483E+02 -0.59992989331E+03  0.65567755758E+03  0.00000000000E+00 0. -1.
         -2    1    6    6    0  503  0.87579992065E+02 -0.51931740657E+02 -0.14938264856E+03  0.18078256661E+03  0.00000000000E+00 0.  1.
<mgrwt>
<rscale>  0 0.37477185E+03</rscale>
<asrwt>0</asrwt>
<pdfrwt beam="1">  1        3 0.23647670E-01 0.37477185E+03</pdfrwt>
<pdfrwt beam="2">  1       -3 0.21700547E+00 0.37477185E+03</pdfrwt>
<totfact> 0.51720484E+00</totfact>
</mgrwt>
</event>
<event>
12    1  0.3147868E-008  0.2044213E+04  0.7818608E-02  0.8586224E-01
         -2   -1    0    0    0  501 -0.00000000000E+00  0.00000000000E+00  0.17287772257E+04  0.17287772257E+04  0.00000000000E+00 0.  1.
          2   -1    0    0  501    0  0.00000000000E+00 -0.00000000000E+00 -0.25075684428E+04  0.25075684428E+04  0.00000000000E+00 0. -1.
         23    2    1    2    0    0 -0.32668847728E+03  0.20026890624E+04 -0.57263802246E+03  0.21104195771E+04  0.92019806403E+02 0.  0.
    5000000    2    1    2    0    0  0.32668847728E+03 -0.20026890624E+04 -0.20615319458E+03  0.21259260914E+04  0.59964469841E+03 0.  0.
         23    2    4    4    0    0  0.31333941588E+03 -0.18972464092E+04 -0.31351634672E+03  0.19505054158E+04  0.91942104451E+02 0.  0.
         23    2    4    4    0    0  0.13349061400E+02 -0.10544265324E+03  0.10736315214E+03  0.17542067559E+03  0.89158378315E+02 0.  0.
          5    1    3    3  502    0 -0.84693459586E+02  0.72610644000E+03 -0.17651237871E+03  0.75205202888E+03  0.47000000000E+01 0. -1.
         -5    1    3    3    0  502 -0.24199501770E+03  0.12765826224E+04 -0.39612564375E+03  0.13583675482E+04  0.47000000000E+01 0.  1.
         11    1    5    5    0    0  0.17910262735E+03 -0.13420648934E+04 -0.21946032591E+03  0.13716336114E+04  0.00000000000E+00 0.  1.
        -11    1    5    5    0    0  0.13423678853E+03 -0.55518151578E+03 -0.94056020810E+02  0.57887180438E+03  0.00000000000E+00 0. -1.
          1    1    6    6  503    0 -0.11802635960E+02 -0.10706213514E+03  0.10446905037E+03  0.15005127617E+03  0.00000000000E+00 0. -1.
         -1    1    6    6    0  503  0.25151697360E+02  0.16194818993E+01  0.28941017756E+01  0.25369399417E+02  0.00000000000E+00 0.  1.
<mgrwt>
<rscale>  0 0.20442134E+04</rscale>
<asrwt>0</asrwt>
<pdfrwt beam="1">  1        2 0.38577976E+00 0.20442134E+04</pdfrwt>
<pdfrwt beam="2">  1       -2 0.26596573E+00 0.20442134E+04</pdfrwt>
<totfact> 0.15647639E-01</totfact>
</mgrwt>
</event>
<event>
12    1  0.3147868E-008  0.6084015E+03  0.7818608E-02  0.9888127E-01
         -2   -1    0    0    0  501 -0.00000000000E+00  0.00000000000E+00  0.20413850991E+03  0.20413850991E+03  0.00000000000E+00 0.  1.
          2   -1    0    0  501    0  0.00000000000E+00 -0.00000000000E+00 -0.24039908460E+04  0.24039908460E+04  0.00000000000E+00 0. -1.
         23    2    1    2    0    0  0.93452427913E+02 -0.45371555848E+03 -0.29184750594E+03  0.55502287891E+03  0.91017938332E+02 0.  0.
    5000000    2    1    2    0    0 -0.93452427913E+02  0.45371555848E+03 -0.19080048301E+04  0.20531064770E+04  0.60014382423E+03 0.  0.
         23    2    4    4    0    0 -0.33221212081E+03  0.30782541883E+03 -0.10814086989E+04  0.11761126673E+04  0.93138876210E+02 0.  0.
         23    2    4    4    0    0  0.23875969290E+03  0.14589013965E+03 -0.82659613119E+03  0.87699380973E+03  0.86987668078E+02 0.  0.
          5    1    3    3  502    0  0.34143678472E+02 -0.19020748111E+03 -0.17478704302E+03  0.26060943394E+03  0.47000000000E+01 0. -1.
         -5    1    3    3    0  502  0.59308749441E+02 -0.26350807738E+03 -0.11706046292E+03  0.29441344497E+03  0.47000000000E+01 0.  1.
         11    1    5    5    0    0 -0.64598430815E+02  0.17238837242E+02 -0.13844642636E+03  0.15374507388E+03  0.00000000000E+00 0. -1.
        -11    1    5    5    0    0 -0.26761369000E+03  0.29058658159E+03 -0.94296227259E+03  0.10223675934E+04  0.00000000000E+00 0.  1.
          3    1    6    6  503    0  0.46563791095E+02 -0.53772828695E+01 -0.10259074280E+03  0.11279167664E+03  0.00000000000E+00 0. -1.
         -3    1    6    6    0  503  0.19219590181E+03  0.15126742252E+03 -0.72400538839E+03  0.76420213308E+03  0.00000000000E+00 0.  1.
<mgrwt>
<rscale>  0 0.60840148E+03</rscale>
<asrwt>0</asrwt>
<pdfrwt beam="1">  1        2 0.36984475E+00 0.60840148E+03</pdfrwt>
<pdfrwt beam="2">  1       -2 0.31405924E-01 0.60840148E+03</pdfrwt>
<totfact> 0.39525876E+01</totfact>
</mgrwt>
</event>
<event>
12    1  0.3147868E-008  0.1112456E+04  0.7818608E-02  0.9193136E-01
          2   -1    0    0  501    0  0.00000000000E+00  0.00000000000E+00  0.25623027149E+04  0.25623027149E+04  0.00000000000E+00 0. -1.
         -2   -1    0    0    0  501 -0.00000000000E+00 -0.00000000000E+00 -0.53252516944E+03  0.53252516944E+03  0.00000000000E+00 0.  1.
         23    2    1    2    0    0 -0.58395040828E+03 -0.91357372477E+03  0.10828518959E+04  0.15350355819E+04  0.90282774583E+02 0.  0.
    5000000    2    1    2    0    0  0.58395040828E+03  0.91357372477E+03  0.94692564956E+03  0.15597923024E+04  0.60055708385E+03 0.  0.
         23    2    4    4    0    0  0.52623230213E+03  0.53830110523E+03  0.88598551179E+03  0.11663564470E+04  0.93426540977E+02 0.  0.
         23    2    4    4    0    0  0.57718106152E+02  0.37527261954E+03  0.60940137766E+02  0.39343585546E+03  0.83169424765E+02 0.  0.
          5    1    3    3  502    0 -0.34343289710E+03 -0.61053058630E+03  0.72140060380E+03  0.10055519245E+04  0.47000000000E+01 0. -1.
         -5    1    3    3    0  502 -0.24051751118E+03 -0.30304313847E+03  0.36145129209E+03  0.52948365746E+03  0.47000000000E+01 0.  1.
         13    1    5    5    0    0  0.42755666998E+03  0.38601352835E+03  0.64664411734E+03  0.86600217356E+03  0.00000000000E+00 0. -1.
        -13    1    5    5    0    0  0.98675632146E+02  0.15228757688E+03  0.23934139445E+03  0.30035427340E+03  0.00000000000E+00 0.  1.
          4    1    6    6  503    0  0.18116340090E+02  0.16747392534E+03  0.68296259072E+02  0.18176934959E+03  0.00000000000E+00 0.  1.
         -4    1    6    6    0  503  0.39601766062E+02  0.20779869420E+03 -0.73561213054E+01  0.21166650587E+03  0.00000000000E+00 0. -1.
<mgrwt>
<rscale>  0 0.11124557E+04</rscale>
<asrwt>0</asrwt>
<pdfrwt beam="1">  1        2 0.39420041E+00 0.11124557E+04</pdfrwt>
<pdfrwt beam="2">  1       -2 0.81926950E-01 0.11124557E+04</pdfrwt>
<totfact> 0.41815882E+00</totfact>
</mgrwt>
</event>
<event>
12    1  0.3147868E-008  0.6004601E+03  0.7818608E-02  0.9904452E-01
         -1   -1    0    0    0  501 -0.00000000000E+00  0.00000000000E+00  0.57399802778E+03  0.57399802778E+03  0.00000000000E+00 0.  1.
          1   -1    0    0  501    0  0.00000000000E+00 -0.00000000000E+00 -0.11910618650E+04  0.11910618650E+04  0.00000000000E+00 0. -1.
         23    2    1    2    0    0  0.45554509943E+03 -0.38152261730E+02 -0.85524247636E+03  0.97388923444E+03  0.89686202370E+02 0.  0.
    5000000    2    1    2    0    0 -0.45554509943E+03  0.38152261730E+02  0.23817863916E+03  0.79117065832E+03  0.60020414339E+03 0.  0.
         23    2    4    4    0    0 -0.14980661252E+03  0.29364296585E+03  0.70677038693E+02  0.34946243177E+03  0.91981165870E+02 0.  0.
         23    2    4    4    0    0 -0.30573848691E+03 -0.25549070412E+03  0.16750160046E+03  0.44170822654E+03  0.91092529727E+02 0.  0.
          5    1    3    3  502    0  0.16745428452E+03 -0.56850089739E+02 -0.33939623910E+03  0.38273328471E+03  0.47000000000E+01 0. -1.
         -5    1    3    3    0  502  0.28809081491E+03  0.18697828009E+02 -0.51584623726E+03  0.59115594973E+03  0.47000000000E+01 0.  1.
         11    1    5    5    0    0 -0.95763127391E+02  0.17584587466E+03  0.87984946693E+02  0.21870916544E+03  0.00000000000E+00 0.  1.
        -11    1    5    5    0    0 -0.54043485132E+02  0.11779709119E+03 -0.17307908000E+02  0.13075326633E+03  0.00000000000E+00 0. -1.
          1    1    6    6  503    0 -0.25191740623E+03 -0.24338182648E+03  0.12445362505E+03  0.37173350375E+03  0.00000000000E+00 0. -1.
         -1    1    6    6    0  503 -0.53821080674E+02 -0.12108877637E+02  0.43047975413E+02  0.69974722791E+02  0.00000000000E+00 0.  1.
<mgrwt>
<rscale>  0 0.60046015E+03</rscale>
<asrwt>0</asrwt>
<pdfrwt beam="1">  1        1 0.18324029E+00 0.60046015E+03</pdfrwt>
<pdfrwt beam="2">  1       -1 0.88307389E-01 0.60046015E+03</pdfrwt>
<totfact> 0.14432778E+01</totfact>
</mgrwt>
</event>
<event>
12    1  0.3147868E-008  0.1367319E+04  0.7818608E-02  0.8977820E-01
          2   -1    0    0  501    0  0.00000000000E+00  0.00000000000E+00  0.13661278841E+04  0.13661278841E+04  0.00000000000E+00 0. -1.
         -2   -1    0    0    0  501 -0.00000000000E+00 -0.00000000000E+00 -0.16527693277E+04  0.16527693277E+04  0.00000000000E+00 0.  1.
         23    2    1    2    0    0 -0.11764769468E+04  0.64353503820E+03 -0.66850275254E+03  0.15009727355E+04  0.88248915288E+02 0.  0.
    5000000    2    1    2    0    0  0.11764769468E+04 -0.64353503820E+03  0.38186130897E+03  0.15179244763E+04  0.60003441974E+03 0.  0.
         23    2    4    4    0    0  0.11024884485E+04 -0.65283789072E+03  0.19906559587E+03  0.12998385614E+04  0.90967486452E+02 0.  0.
         23    2    4    4    0    0  0.73988498221E+02  0.93028525273E+01  0.18279571310E+03  0.21808591489E+03  0.92662573945E+02 0.  0.
          5    1    3    3  502    0 -0.71627342116E+03  0.34973845023E+03 -0.42151380029E+03  0.90169871424E+03  0.47000000000E+01 0. -1.
         -5    1    3    3    0  502 -0.46020352559E+03  0.29379658796E+03 -0.24698895225E+03  0.59927402130E+03  0.47000000000E+01 0.  1.
         13    1    5    5    0    0  0.24047739801E+03 -0.15172516977E+03  0.81854712134E+02  0.29588866149E+03  0.00000000000E+00 0.  1.
        -13    1    5    5    0    0  0.86201105052E+03 -0.50111272095E+03  0.11721088373E+03  0.10039498999E+04  0.00000000000E+00 0. -1.
          3    1    6    6  503    0  0.94992341408E+00 -0.28043339666E+02  0.16229238872E+02  0.32414802922E+02  0.00000000000E+00 0.  1.
         -3    1    6    6    0  503  0.73038574807E+02  0.37346192194E+02  0.16656647423E+03  0.18567111197E+03  0.00000000000E+00 0. -1.
<mgrwt>
<rscale>  0 0.13673190E+04</rscale>
<asrwt>0</asrwt>
<pdfrwt beam="1">  1        2 0.21017352E+00 0.13673190E+04</pdfrwt>
<pdfrwt beam="2">  1       -2 0.25427220E+00 0.13673190E+04</pdfrwt>
<totfact> 0.87365410E-01</totfact>
</mgrwt>
</event>
<event>
12    1  0.3147868E-008  0.1077321E+04  0.7818608E-02  0.9227583E-01
          2   -1    0    0  501    0  0.00000000000E+00  0.00000000000E+00  0.23268613622E+04  0.23268613622E+04  0.00000000000E+00 0. -1.
         -2   -1    0    0    0  501 -0.00000000000E+00 -0.00000000000E+00 -0.54410481352E+03  0.54410481352E+03  0.00000000000E+00 0.  1.
         23    2    1    2    0    0  0.94020478715E+03 -0.36226009342E+03  0.48581801370E+03  0.11223322841E+04  0.91614390449E+02 0.  0.
    5000000    2    1    2    0    0 -0.94020478715E+03  0.36226009342E+03  0.12969385349E+04  0.17486338915E+04  0.60037780283E+03 0.  0.
         23    2    4    4    0    0 -0.86039262237E+03  0.48533815359E+03  0.10452384928E+04  0.14411016887E+04  0.91771359260E+02 0.  0.
         23    2    4    4    0    0 -0.79812164782E+02 -0.12307806017E+03  0.25170004215E+03  0.30753220284E+03  0.98513725053E+02 0.  0.
          5    1    3    3  502    0  0.27424618316E+03 -0.90250716002E+02  0.97084827500E+02  0.30463702081E+03  0.47000000000E+01 0. -1.
         -5    1    3    3    0  502  0.66595860399E+03 -0.27200937742E+03  0.38873318620E+03  0.81769526334E+03  0.47000000000E+01 0.  1.
         11    1    5    5    0    0 -0.13413097779E+03  0.50289318549E+02  0.18715567068E+03  0.23568491643E+03  0.00000000000E+00 0. -1.
        -11    1    5    5    0    0 -0.72626164458E+03  0.43504883504E+03  0.85808282211E+03  0.12054167723E+04  0.00000000000E+00 0.  1.
          4    1    6    6  503    0 -0.50131191248E+02 -0.28784639448E+02  0.16910932725E+03  0.17871669303E+03  0.00000000000E+00 0. -1.
         -4    1    6    6    0  503 -0.29680973534E+02 -0.94293420718E+02  0.82590714906E+02  0.12881550982E+03  0.00000000000E+00 0.  1.
<mgrwt>
<rscale>  0 0.10773208E+04</rscale>
<asrwt>0</asrwt>
<pdfrwt beam="1">  1        2 0.35797867E+00 0.10773208E+04</pdfrwt>
<pdfrwt beam="2">  1       -2 0.83708434E-01 0.10773208E+04</pdfrwt>
<totfact> 0.54462487E+00</totfact>
</mgrwt>
</event>
<event>
12    1  0.3315108E-008  0.1787584E+04  0.7818608E-02  0.8712930E-01
         -2   -1    0    0    0  501 -0.00000000000E+00  0.00000000000E+00  0.19099427456E+04  0.19099427456E+04  0.00000000000E+00 0.  1.
          2   -1    0    0  501    0  0.00000000000E+00 -0.00000000000E+00 -0.16840449942E+04  0.16840449942E+04  0.00000000000E+00 0. -1.
         23    2    1    2    0    0 -0.16987376358E+04 -0.37647469238E+03  0.30435098185E+02  0.17425913891E+04  0.90860910227E+02 0.  0.
    5000000    2    1    2    0    0  0.16987376358E+04  0.37647469238E+03  0.19546265316E+03  0.18513963507E+04  0.60168101954E+03 0.  0.
         23    2    4    4    0    0  0.52594156648E+03 -0.14617000851E+03  0.36784884844E+02  0.55464268715E+03  0.91077878343E+02 0.  0.
         23    2    4    4    0    0  0.11727960693E+04  0.52264470090E+03  0.15867776832E+03  0.12967536635E+04  0.88223161025E+02 0.  0.
          5    1    3    3  502    0 -0.82189112126E+03 -0.14575649633E+03 -0.13271537889E+02  0.83483423214E+03  0.47000000000E+01 0. -1.
         -5    1    3    3    0  502 -0.87684651454E+03 -0.23071819605E+03  0.43706636074E+02  0.90775715700E+03  0.47000000000E+01 0.  1.
         13    1    5    5    0    0  0.22410203780E+03 -0.86733068212E+02  0.54835232916E+02  0.24647768912E+03  0.00000000000E+00 0. -1.
        -13    1    5    5    0    0  0.30183952868E+03 -0.59436940300E+02 -0.18050348072E+02  0.30816499803E+03  0.00000000000E+00 0.  1.
          2    1    6    6  503    0  0.52050173687E+03  0.26921565375E+03  0.10033202277E+03  0.59452976469E+03  0.00000000000E+00 0. -1.
         -2    1    6    6    0  503  0.65229433246E+03  0.25342904715E+03  0.58345745546E+02  0.70222389885E+03  0.00000000000E+00 0.  1.
<mgrwt>
<rscale>  0 0.17875840E+04</rscale>
<asrwt>0</asrwt>
<pdfrwt beam="1">  1        2 0.25908385E+00 0.17875840E+04</pdfrwt>
<pdfrwt beam="2">  1       -2 0.29383735E+00 0.17875840E+04</pdfrwt>
<totfact> 0.31661278E-01</totfact>
</mgrwt>
</event>
<event>
12    1  0.3147868E-008  0.7132686E+03  0.7818608E-02  0.9694806E-01
          2   -1    0    0  501    0  0.00000000000E+00  0.00000000000E+00  0.25288349920E+04  0.25288349920E+04  0.00000000000E+00 0.  1.
         -2   -1    0    0    0  501 -0.00000000000E+00 -0.00000000000E+00 -0.22280883615E+04  0.22280883615E+04  0.00000000000E+00 0. -1.
         23    2    1    2    0    0 -0.57168537947E+03 -0.40755995446E+03  0.23792689995E+04  0.24824867922E+04  0.94288980415E+02 0.  0.
    5000000    2    1    2    0    0  0.57168537947E+03  0.40755995446E+03 -0.20785223690E+04  0.22744365613E+04  0.59989761075E+03 0.  0.
         23    2    4    4    0    0  0.31977660931E+03  0.17535312986E+03 -0.17542015694E+04  0.17940114291E+04  0.90818839111E+02 0.  0.
         23    2    4    4    0    0  0.25190877015E+03  0.23220682461E+03 -0.32432079961E+03  0.48042513224E+03  0.90809078607E+02 0.  0.
          5    1    3    3  502    0 -0.31666323693E+03 -0.22163216402E+03  0.14708036758E+04  0.15207504610E+04  0.47000000000E+01 0. -1.
         -5    1    3    3    0  502 -0.25502214254E+03 -0.18592779045E+03  0.90846532364E+03  0.96173633118E+03  0.47000000000E+01 0.  1.
         13    1    5    5    0    0  0.15648431723E+03  0.50134718391E+02 -0.93706892333E+03  0.95136691060E+03  0.00000000000E+00 0.  1.
        -13    1    5    5    0    0  0.16329229209E+03  0.12521841146E+03 -0.81713264605E+03  0.84264451845E+03  0.00000000000E+00 0. -1.
          3    1    6    6  503    0  0.11065158500E+03  0.16286249686E+03 -0.18782965757E+03  0.27211752316E+03  0.00000000000E+00 0. -1.
         -3    1    6    6    0  503  0.14125718515E+03  0.69344327746E+02 -0.13649114204E+03  0.20830760908E+03  0.00000000000E+00 0.  1.
<mgrwt>
<rscale>  0 0.71326857E+03</rscale>
<asrwt>0</asrwt>
<pdfrwt beam="1">  1        2 0.38905154E+00 0.71326857E+03</pdfrwt>
<pdfrwt beam="2">  1       -2 0.34278283E+00 0.71326857E+03</pdfrwt>
<totfact> 0.63977047E-02</totfact>
</mgrwt>
</event>
<event>
12    1  0.3147868E-008  0.7854595E+03  0.7818608E-02  0.9581306E-01
         -1   -1    0    0    0  501 -0.00000000000E+00  0.00000000000E+00  0.17185923725E+04  0.17185923725E+04  0.00000000000E+00 0.  1.
          1   -1    0    0  501    0  0.00000000000E+00 -0.00000000000E+00 -0.52995614987E+03  0.52995614987E+03  0.00000000000E+00 0. -1.
         23    2    1    2    0    0  0.33388256487E+03 -0.64428708120E+03 -0.99503841371E+00  0.73138555959E+03  0.91325990537E+02 0.  0.
    5000000    2    1    2    0    0 -0.33388256487E+03  0.64428708120E+03  0.11896312610E+04  0.15171629628E+04  0.59998125660E+03 0.  0.
         23    2    4    4    0    0  0.10124759080E+03  0.13661865290E+03  0.56674200553E+03  0.59914831029E+03  0.94161913335E+02 0.  0.
         23    2    4    4    0    0 -0.43513015567E+03  0.50766842831E+03  0.62288925550E+03  0.91801465249E+03  0.87717684094E+02 0.  0.
          5    1    3    3  502    0  0.13523744481E+03 -0.32426404701E+03  0.34337424418E+02  0.35304034808E+03  0.47000000000E+01 0. -1.
         -5    1    3    3    0  502  0.19864512006E+03 -0.32002303419E+03 -0.35332462832E+02  0.37834521151E+03  0.47000000000E+01 0.  1.
         11    1    5    5    0    0  0.83781038341E+02  0.10693722815E+03  0.28965712896E+03  0.31993137625E+03  0.00000000000E+00 0. -1.
        -11    1    5    5    0    0  0.17466552454E+02  0.29681424750E+02  0.27708487657E+03  0.27921693404E+03  0.00000000000E+00 0.  1.
          1    1    6    6  503    0 -0.21301274713E+03  0.19324457970E+03  0.23356455998E+03  0.37050006978E+03  0.00000000000E+00 0.  1.
         -1    1    6    6    0  503 -0.22211740853E+03  0.31442384860E+03  0.38932469552E+03  0.54751458272E+03  0.00000000000E+00 0. -1.
<mgrwt>
<rscale>  0 0.78545950E+03</rscale>
<asrwt>0</asrwt>
<pdfrwt beam="1">  1        1 0.81531716E-01 0.78545950E+03</pdfrwt>
<pdfrwt beam="2">  1       -1 0.26439882E+00 0.78545950E+03</pdfrwt>
<totfact> 0.23886240E+00</totfact>
</mgrwt>
</event>
<event>
12    1  0.3147868E-008  0.6799472E+03  0.7818608E-02  0.9752153E-01
         -2   -1    0    0    0  501 -0.00000000000E+00  0.00000000000E+00  0.16197071817E+03  0.16197071817E+03  0.00000000000E+00 0.  1.
          2   -1    0    0  501    0  0.00000000000E+00 -0.00000000000E+00 -0.36836423961E+04  0.36836423961E+04  0.00000000000E+00 0. -1.
         23    2    1    2    0    0  0.41984286843E+03  0.43398236657E+03 -0.88995102640E+03  0.10796192960E+04  0.94637551746E+02 0.  0.
    5000000    2    1    2    0    0 -0.41984286843E+03 -0.43398236657E+03 -0.26317206516E+04  0.27659938183E+04  0.60013289071E+03 0.  0.
         23    2    4    4    0    0 -0.24087244588E+03  0.23301508797E+02 -0.39672655061E+03  0.47586786021E+03  0.10244886007E+03 0.  0.
         23    2    4    4    0    0 -0.17897042255E+03 -0.45728387537E+03 -0.22349941010E+04  0.22901259581E+04  0.91319865969E+02 0.  0.
          5    1    3    3  502    0  0.95301465951E+02  0.15336755093E+03 -0.29921355386E+03  0.34950653199E+03  0.47000000000E+01 0. -1.
         -5    1    3    3    0  502  0.32454140248E+03  0.28061481564E+03 -0.59073747254E+03  0.73011276399E+03  0.47000000000E+01 0.  1.
         13    1    5    5    0    0 -0.18900703925E+03  0.45381014302E+02 -0.35835378354E+03  0.40767699410E+03  0.00000000000E+00 0. -1.
        -13    1    5    5    0    0 -0.51865406630E+02 -0.22079505505E+02 -0.38372767071E+02  0.68190866111E+02  0.00000000000E+00 0.  1.
          3    1    6    6  503    0 -0.13817913581E+03 -0.22823298436E+03 -0.11835772927E+04  0.12132761336E+04  0.00000000000E+00 0. -1.
         -3    1    6    6    0  503 -0.40791286742E+02 -0.22905089100E+03 -0.10514168083E+04  0.10768498245E+04  0.00000000000E+00 0.  1.
<mgrwt>
<rscale>  0 0.67994721E+03</rscale>
<asrwt>0</asrwt>
<pdfrwt beam="1">  1        2 0.56671416E+00 0.67994721E+03</pdfrwt>
<pdfrwt beam="2">  1       -2 0.24918574E-01 0.67994721E+03</pdfrwt>
<totfact> 0.95471748E+00</totfact>
</mgrwt>
</event>
<event>
12    1  0.3147868E-008  0.1532262E+04  0.7818608E-02  0.8863278E-01
         -2   -1    0    0    0  501 -0.00000000000E+00  0.00000000000E+00  0.10232633543E+04  0.10232633543E+04  0.00000000000E+00 0.  1.
          2   -1    0    0  501    0  0.00000000000E+00 -0.00000000000E+00 -0.23840004304E+04  0.23840004304E+04  0.00000000000E+00 0. -1.
         23    2    1    2    0    0 -0.11491105809E+04 -0.95760764005E+03 -0.81190170868E+03  0.17044493786E+04  0.92172557296E+02 0.  0.
    5000000    2    1    2    0    0  0.11491105809E+04  0.95760764005E+03 -0.54883536740E+03  0.17028144062E+04  0.60074047807E+03 0.  0.
         23    2    4    4    0    0  0.13645202920E+03  0.34675139991E+03 -0.30876884263E+03  0.49269410179E+03  0.92485621295E+02 0.  0.
         23    2    4    4    0    0  0.10126585517E+04  0.61085624014E+03 -0.24006652477E+03  0.12101203044E+04  0.90202695976E+02 0.  0.
          5    1    3    3  502    0 -0.10948120348E+04 -0.92578815151E+03 -0.76007283603E+03  0.16227846127E+04  0.47000000000E+01 0.  1.
         -5    1    3    3    0  502 -0.54298546037E+02 -0.31819488535E+02 -0.51828872648E+02  0.81664765917E+02  0.47000000000E+01 0. -1.
         13    1    5    5    0    0  0.68296512133E+02  0.28021759111E+03 -0.24002025065E+03  0.37522797425E+03  0.00000000000E+00 0. -1.
        -13    1    5    5    0    0  0.68155517065E+02  0.66533808798E+02 -0.68748591981E+02  0.11746612754E+03  0.00000000000E+00 0.  1.
          3    1    6    6  503    0  0.72717533129E+03  0.40870327588E+03 -0.13611265656E+03  0.84519168561E+03  0.00000000000E+00 0. -1.
         -3    1    6    6    0  503  0.28548322038E+03  0.20215296426E+03 -0.10395386821E+03  0.36492861876E+03  0.00000000000E+00 0.  1.
<mgrwt>
<rscale>  0 0.15322620E+04</rscale>
<asrwt>0</asrwt>
<pdfrwt beam="1">  1        2 0.36676929E+00 0.15322620E+04</pdfrwt>
<pdfrwt beam="2">  1       -2 0.15742513E+00 0.15322620E+04</pdfrwt>
<totfact> 0.10052876E+00</totfact>
</mgrwt>
</event>
<event>
12    1  0.3147868E-008  0.9194110E+03  0.7818608E-02  0.9401637E-01
          2   -1    0    0  501    0  0.00000000000E+00  0.00000000000E+00  0.18633631266E+04  0.18633631266E+04  0.00000000000E+00 0. -1.
         -2   -1    0    0    0  501 -0.00000000000E+00 -0.00000000000E+00 -0.52665705284E+03  0.52665705284E+03  0.00000000000E+00 0.  1.
         23    2    1    2    0    0 -0.86361261546E+03 -0.16006965207E+03  0.38620344430E+03  0.96347233229E+03  0.87617301918E+02 0.  0.
    5000000    2    1    2    0    0  0.86361261546E+03  0.16006965207E+03  0.95050262943E+03  0.14265478471E+04  0.60011204661E+03 0.  0.
         23    2    4    4    0    0  0.57394250112E+02 -0.63390849088E+02 -0.34259540281E+02  0.13076748010E+03  0.92811195748E+02 0.  0.
         23    2    4    4    0    0  0.80621836535E+03  0.22346050116E+03  0.98476216971E+03  0.12957803670E+04  0.96786261846E+02 0.  0.
          5    1    3    3  502    0 -0.23165152407E+03 -0.47707077801E+01  0.10933320191E+03  0.25624407758E+03  0.47000000000E+01 0. -1.
         -5    1    3    3    0  502 -0.63196109139E+03 -0.15529894429E+03  0.27687024239E+03  0.70722825470E+03  0.47000000000E+01 0.  1.
         11    1    5    5    0    0 -0.19570767531E+02 -0.18318113930E+02 -0.31733285788E+02  0.41539976728E+02  0.00000000000E+00 0. -1.
        -11    1    5    5    0    0  0.76965017643E+02 -0.45072735158E+02 -0.25262544934E+01  0.89227503367E+02  0.00000000000E+00 0.  1.
          1    1    6    6  503    0  0.55452374863E+03  0.19110450299E+03  0.72642352363E+03  0.93365339101E+03  0.00000000000E+00 0. -1.
         -1    1    6    6    0  503  0.25169461672E+03  0.32355998161E+02  0.25833864608E+03  0.36212697602E+03  0.00000000000E+00 0.  1.
<mgrwt>
<rscale>  0 0.91941105E+03</rscale>
<asrwt>0</asrwt>
<pdfrwt beam="1">  1        2 0.28667125E+00 0.91941105E+03</pdfrwt>
<pdfrwt beam="2">  1       -2 0.81024163E-01 0.91941105E+03</pdfrwt>
<totfact> 0.10790198E+01</totfact>
</mgrwt>
</event>
<event>
12    1  0.3147868E-008  0.4003441E+03  0.7818608E-02  0.1043661E+00
          2   -1    0    0  501    0  0.00000000000E+00  0.00000000000E+00  0.10834466775E+04  0.10834466775E+04  0.00000000000E+00 0. -1.
         -2   -1    0    0    0  501 -0.00000000000E+00 -0.00000000000E+00 -0.43222384970E+03  0.43222384970E+03  0.00000000000E+00 0.  1.
         23    2    1    2    0    0  0.16847790758E+03 -0.11470977855E+03 -0.29904801073E+03  0.37331908168E+03  0.91620332863E+02 0.  0.
    5000000    2    1    2    0    0 -0.16847790758E+03  0.11470977855E+03  0.95027083855E+03  0.11423514455E+04  0.60034075316E+03 0.  0.
         23    2    4    4    0    0 -0.17938182381E+03 -0.18722034280E+03  0.24101888565E+03  0.36599221407E+03  0.92902648228E+02 0.  0.
         23    2    4    4    0    0  0.10903916233E+02  0.30193012135E+03  0.70925195290E+03  0.77635923148E+03  0.91731292592E+02 0.  0.
          5    1    3    3  502    0  0.12578322752E+03 -0.31953261074E+02 -0.18449613610E+03  0.22561769757E+03  0.47000000000E+01 0. -1.
         -5    1    3    3    0  502  0.42694680054E+02 -0.82756517479E+02 -0.11455187462E+03  0.14770138412E+03  0.47000000000E+01 0.  1.
         11    1    5    5    0    0 -0.77163392805E+02 -0.10732079929E+03  0.64927081809E+02  0.14726665985E+03  0.00000000000E+00 0. -1.
        -11    1    5    5    0    0 -0.10221843100E+03 -0.79899543506E+02  0.17609180384E+03  0.21872555422E+03  0.00000000000E+00 0.  1.
          1    1    6    6  503    0  0.51299373077E+02  0.18337605874E+03  0.41914129005E+03  0.46036705532E+03  0.00000000000E+00 0. -1.
         -1    1    6    6    0  503 -0.40395456845E+02  0.11855406261E+03  0.29011066285E+03  0.31599217616E+03  0.00000000000E+00 0.  1.
<mgrwt>
<rscale>  0 0.40034407E+03</rscale>
<asrwt>0</asrwt>
<pdfrwt beam="1">  1        2 0.16668410E+00 0.40034407E+03</pdfrwt>
<pdfrwt beam="2">  1       -2 0.66495977E-01 0.40034407E+03</pdfrwt>
<totfact> 0.49197041E+01</totfact>
</mgrwt>
</event>
<event>
12    1  0.3147868E-008  0.3517460E+03  0.7818608E-02  0.1061901E+00
         -1   -1    0    0    0  501 -0.00000000000E+00  0.00000000000E+00  0.53761105699E+02  0.53761105699E+02  0.00000000000E+00 0.  1.
          1   -1    0    0  501    0  0.00000000000E+00 -0.00000000000E+00 -0.25832299876E+04  0.25832299876E+04  0.00000000000E+00 0. -1.
         23    2    1    2    0    0  0.10004392570E+03 -0.31625268989E+01 -0.42904280552E+03  0.45025863374E+03  0.92931801051E+02 0.  0.
    5000000    2    1    2    0    0 -0.10004392570E+03  0.31625268989E+01 -0.21004260764E+04  0.21867324595E+04  0.59999196552E+03 0.  0.
         23    2    4    4    0    0  0.19654823661E+03 -0.14520933229E+03 -0.83293512463E+03  0.87322665253E+03  0.95010027650E+02 0.  0.
         23    2    4    4    0    0 -0.29659216231E+03  0.14837185919E+03 -0.12674909517E+04  0.13135058070E+04  0.93718050335E+02 0.  0.
          5    1    3    3  502    0  0.66520792938E+02  0.17612189185E+02 -0.38425793977E+03  0.39039910268E+03  0.47000000000E+01 0. -1.
         -5    1    3    3    0  502  0.33523132758E+02 -0.20774716084E+02 -0.44784865750E+02  0.59859531058E+02  0.47000000000E+01 0.  1.
         13    1    5    5    0    0  0.36683183932E+02 -0.76958212583E+02 -0.34057621577E+03  0.35108457844E+03  0.00000000000E+00 0.  1.
        -13    1    5    5    0    0  0.15986505268E+03 -0.68251119712E+02 -0.49235890886E+03  0.52214207410E+03  0.00000000000E+00 0. -1.
          2    1    6    6  503    0 -0.13304419450E+03  0.95751807945E+02 -0.47137139878E+03  0.49905927705E+03  0.00000000000E+00 0. -1.
         -2    1    6    6    0  503 -0.16354796781E+03  0.52620051249E+02 -0.79611955296E+03  0.81444652997E+03  0.00000000000E+00 0.  1.
<mgrwt>
<rscale>  0 0.35174601E+03</rscale>
<asrwt>0</asrwt>
<pdfrwt beam="1">  1        1 0.39741993E+00 0.35174601E+03</pdfrwt>
<pdfrwt beam="2">  1       -1 0.82709408E-02 0.35174601E+03</pdfrwt>
<totfact> 0.11192820E+02</totfact>
</mgrwt>
</event>
<event>
12    1  0.3147868E-008  0.6029869E+03  0.7818608E-02  0.9899229E-01
          2   -1    0    0  501    0  0.00000000000E+00  0.00000000000E+00  0.47580659231E+03  0.47580659231E+03  0.00000000000E+00 0. -1.
         -2   -1    0    0    0  501 -0.00000000000E+00 -0.00000000000E+00 -0.11634958704E+04  0.11634958704E+04  0.00000000000E+00 0.  1.
         23    2    1    2    0    0  0.97524984951E+02  0.56494784773E+03 -0.54715388916E+03  0.79759508706E+03  0.90018615443E+02 0.  0.
    5000000    2    1    2    0    0 -0.97524984951E+02 -0.56494784773E+03 -0.14053538896E+03  0.84170737569E+03  0.60003659671E+03 0.  0.
         23    2    4    4    0    0 -0.97562046225E+02 -0.99363014757E+02 -0.29860077914E+03  0.34148279579E+03  0.89759194273E+02 0.  0.
         23    2    4    4    0    0  0.37061274633E-01 -0.46558483298E+03  0.15806539018E+03  0.50022457989E+03  0.92036539948E+02 0.  0.
          5    1    3    3  502    0  0.79269279352E+02  0.24622107810E+03 -0.20959371897E+03  0.33295653618E+03  0.47000000000E+01 0. -1.
         -5    1    3    3    0  502  0.18255705599E+02  0.31872676963E+03 -0.33756017018E+03  0.46463855088E+03  0.47000000000E+01 0.  1.
         11    1    5    5    0    0 -0.66824188926E+02 -0.11079764831E+03 -0.20619313452E+03  0.24342801774E+03  0.00000000000E+00 0. -1.
        -11    1    5    5    0    0 -0.30737857299E+02  0.11434633554E+02 -0.92407644614E+02  0.98054778053E+02  0.00000000000E+00 0.  1.
          3    1    6    6  503    0  0.67374762326E+01 -0.29918407696E+03  0.14675063185E+03  0.33330504563E+03  0.00000000000E+00 0.  1.
         -3    1    6    6    0  503 -0.67004149579E+01 -0.16640075602E+03  0.11314758330E+02  0.16691953427E+03  0.00000000000E+00 0. -1.
<mgrwt>
<rscale>  0 0.60298688E+03</rscale>
<asrwt>0</asrwt>
<pdfrwt beam="1">  1        2 0.73201016E-01 0.60298688E+03</pdfrwt>
<pdfrwt beam="2">  1       -2 0.17899936E+00 0.60298688E+03</pdfrwt>
<totfact> 0.12412784E+01</totfact>
</mgrwt>
</event>
<event>
12    1  0.3147868E-008  0.5231922E+03  0.7818608E-02  0.1007897E+00
          2   -1    0    0  501    0  0.00000000000E+00  0.00000000000E+00  0.66213957686E+03  0.66213957686E+03  0.00000000000E+00 0. -1.
         -2   -1    0    0    0  501 -0.00000000000E+00 -0.00000000000E+00 -0.49978739038E+03  0.49978739038E+03  0.00000000000E+00 0.  1.
         23    2    1    2    0    0 -0.20239838078E+03  0.34592556327E+03  0.15751077028E+03  0.44038668176E+03  0.92201880951E+02 0.  0.
    5000000    2    1    2    0    0  0.20239838078E+03 -0.34592556327E+03  0.48414162040E+01  0.72154028548E+03  0.59997278638E+03 0.  0.
         23    2    4    4    0    0  0.60516686467E+02  0.11156913823E+03  0.14538548650E+03  0.21316224354E+03  0.90505582368E+02 0.  0.
         23    2    4    4    0    0  0.14188169431E+03 -0.45749470150E+03 -0.14054407030E+03  0.50837804194E+03  0.96248536347E+02 0.  0.
          5    1    3    3  502    0 -0.14950270360E+03  0.21567256379E+03  0.14322619430E+03  0.29900091286E+03  0.47000000000E+01 0. -1.
         -5    1    3    3    0  502 -0.52895677176E+02  0.13025299947E+03  0.14284575985E+02  0.14138576890E+03  0.47000000000E+01 0.  1.
         13    1    5    5    0    0  0.81742460056E+02  0.10483604521E+03  0.11705630867E+03  0.17712878239E+03  0.00000000000E+00 0. -1.
        -13    1    5    5    0    0 -0.21225773590E+02  0.67330930247E+01  0.28329177826E+02  0.36033461150E+02  0.00000000000E+00 0.  1.
          3    1    6    6  503    0  0.14751004743E+03 -0.34244737551E+03 -0.97398277752E+02  0.38537753385E+03  0.00000000000E+00 0. -1.
         -3    1    6    6    0  503 -0.56283531167E+01 -0.11504732599E+03 -0.43145792545E+02  0.12300050809E+03  0.00000000000E+00 0.  1.
<mgrwt>
<rscale>  0 0.52319218E+03</rscale>
<asrwt>0</asrwt>
<pdfrwt beam="1">  1        2 0.10186763E+00 0.52319218E+03</pdfrwt>
<pdfrwt beam="2">  1       -2 0.76890367E-01 0.52319218E+03</pdfrwt>
<totfact> 0.68436918E+01</totfact>
</mgrwt>
</event>
<event>
12    1  0.3147868E-008  0.8440650E+03  0.7818608E-02  0.9498338E-01
          1   -1    0    0  501    0  0.00000000000E+00  0.00000000000E+00  0.63456758218E+03  0.63456758218E+03  0.00000000000E+00 0. -1.
         -1   -1    0    0    0  501 -0.00000000000E+00 -0.00000000000E+00 -0.12517871430E+04  0.12517871430E+04  0.00000000000E+00 0.  1.
         23    2    1    2    0    0 -0.74667931393E+03 -0.46196809081E+02 -0.14539564087E+02  0.75384998569E+03  0.91729270028E+02 0.  0.
    5000000    2    1    2    0    0  0.74667931393E+03  0.46196809081E+02 -0.60267999674E+03  0.11325047395E+04  0.59973299352E+03 0.  0.
         23    2    4    4    0    0  0.14913110961E+03  0.25854946297E+03 -0.14752126607E+03  0.34629103340E+03  0.95221022986E+02 0.  0.
         23    2    4    4    0    0  0.59754820432E+03 -0.21235265388E+03 -0.45515873067E+03  0.78621370610E+03  0.93835043887E+02 0.  0.
          5    1    3    3  502    0 -0.13683050049E+03 -0.28840813008E+02 -0.31831468054E+02  0.14349115205E+03  0.47000000000E+01 0. -1.
         -5    1    3    3    0  502 -0.60984881344E+03 -0.17355996073E+02  0.17291903967E+02  0.61035883363E+03  0.47000000000E+01 0.  1.
         11    1    5    5    0    0  0.12958878260E+03  0.20549981580E+03 -0.74844864707E+02  0.25421483168E+03  0.00000000000E+00 0. -1.
        -11    1    5    5    0    0  0.19542327008E+02  0.53049647161E+02 -0.72676401365E+02  0.92076201726E+02  0.00000000000E+00 0.  1.
          1    1    6    6  503    0  0.25776060178E+03 -0.52260155656E+02 -0.15398567413E+03  0.30476751720E+03  0.00000000000E+00 0. -1.
         -1    1    6    6    0  503  0.33978760253E+03 -0.16009249823E+03 -0.30117305654E+03  0.48144618891E+03  0.00000000000E+00 0.  1.
<mgrwt>
<rscale>  0 0.84406499E+03</rscale>
<asrwt>0</asrwt>
<pdfrwt beam="1">  1        1 0.97625783E-01 0.84406499E+03</pdfrwt>
<pdfrwt beam="2">  1       -1 0.19258264E+00 0.84406499E+03</pdfrwt>
<totfact> 0.54669788E+00</totfact>
</mgrwt>
</event>
<event>
12    1  0.3147868E-008  0.1152468E+04  0.7818608E-02  0.9155510E-01
         -2   -1    0    0    0  501 -0.00000000000E+00  0.00000000000E+00  0.11610008340E+04  0.11610008340E+04  0.00000000000E+00 0.  1.
          2   -1    0    0  501    0  0.00000000000E+00 -0.00000000000E+00 -0.22917409884E+04  0.22917409884E+04  0.00000000000E+00 0. -1.
         23    2    1    2    0    0  0.59708861464E+02  0.11392627055E+04  0.60196862836E+03  0.12931804672E+04  0.92004515722E+02 0.  0.
    5000000    2    1    2    0    0 -0.59708861464E+02 -0.11392627055E+04 -0.17327087828E+04  0.21595613553E+04  0.59995071547E+03 0.  0.
         23    2    4    4    0    0 -0.20718391454E+02 -0.92839251690E+03 -0.16775201306E+04  0.19195647440E+04  0.91176208041E+02 0.  0.
         23    2    4    4    0    0 -0.38990470009E+02 -0.21087018855E+03 -0.55188652219E+02  0.23999661122E+03  0.92553189521E+02 0.  0.
          5    1    3    3  502    0  0.54883338070E+02  0.46446032250E+03  0.28398920531E+03  0.54718144222E+03  0.47000000000E+01 0. -1.
         -5    1    3    3    0  502  0.48255233936E+01  0.67480238296E+03  0.31797942304E+03  0.74599902493E+03  0.47000000000E+01 0.  1.
         11    1    5    5    0    0  0.24386323887E+02 -0.57788533297E+03 -0.99173729898E+03  0.11480805813E+04  0.00000000000E+00 0. -1.
        -11    1    5    5    0    0 -0.45104715341E+02 -0.35050718393E+03 -0.68578283158E+03  0.77148416279E+03  0.00000000000E+00 0.  1.
          3    1    6    6  503    0  0.14679280520E+02 -0.14444637168E+03 -0.16103642570E+02  0.14608067248E+03  0.00000000000E+00 0. -1.
         -3    1    6    6    0  503 -0.53669750529E+02 -0.66423816872E+02 -0.39085009649E+02  0.93915938738E+02  0.00000000000E+00 0.  1.
<mgrwt>
<rscale>  0 0.11524676E+04</rscale>
<asrwt>0</asrwt>
<pdfrwt beam="1">  1        2 0.35257553E+00 0.11524676E+04</pdfrwt>
<pdfrwt beam="2">  1       -2 0.17861552E+00 0.11524676E+04</pdfrwt>
<totfact> 0.83267826E-01</totfact>
</mgrwt>
</event>
<event>
12    1  0.3147868E-008  0.1856966E+04  0.7818608E-02  0.8676579E-01
         -2   -1    0    0    0  501 -0.00000000000E+00  0.00000000000E+00  0.22779198950E+04  0.22779198950E+04  0.00000000000E+00 0.  1.
          2   -1    0    0  501    0  0.00000000000E+00 -0.00000000000E+00 -0.16813569685E+04  0.16813569685E+04  0.00000000000E+00 0. -1.
         23    2    1    2    0    0  0.14936744663E+04  0.10604727097E+04 -0.25517705242E+03  0.18518444722E+04  0.92449131116E+02 0.  0.
    5000000    2    1    2    0    0 -0.14936744663E+04 -0.10604727097E+04  0.85173997894E+03  0.21074323913E+04  0.60012041542E+03 0.  0.
         23    2    4    4    0    0 -0.24287432736E+03 -0.39386602167E+03  0.44016848713E+02  0.47362122781E+03  0.90891157670E+02 0.  0.
         23    2    4    4    0    0 -0.12508001390E+04 -0.66660668803E+03  0.80772313022E+03  0.16338111635E+04  0.89759672678E+02 0.  0.
          5    1    3    3  502    0  0.94726351484E+03  0.65643500744E+03 -0.11760941577E+03  0.11584770823E+04  0.47000000000E+01 0. -1.
         -5    1    3    3    0  502  0.54641095148E+03  0.40403770226E+03 -0.13756763665E+03  0.69336738991E+03  0.47000000000E+01 0.  1.
         13    1    5    5    0    0 -0.94635140385E+02 -0.14885221050E+03 -0.27345985243E+02  0.17849535925E+03  0.00000000000E+00 0. -1.
        -13    1    5    5    0    0 -0.14823918698E+03 -0.24501381117E+03  0.71362833956E+02  0.29512586856E+03  0.00000000000E+00 0.  1.
          3    1    6    6  503    0 -0.58610131034E+03 -0.35231800084E+03  0.35737003677E+03  0.77159319779E+03  0.00000000000E+00 0.  1.
         -3    1    6    6    0  503 -0.66469882862E+03 -0.31428868719E+03  0.45035309345E+03  0.86221796574E+03  0.00000000000E+00 0. -1.
<mgrwt>
<rscale>  0 0.18569658E+04</rscale>
<asrwt>0</asrwt>
<pdfrwt beam="1">  1        2 0.25867030E+00 0.18569658E+04</pdfrwt>
<pdfrwt beam="2">  1       -2 0.35044922E+00 0.18569658E+04</pdfrwt>
<totfact> 0.14049993E-01</totfact>
</mgrwt>
</event>
<event>
12    1  0.3147868E-008  0.3839837E+03  0.7818608E-02  0.1049471E+00
          1   -1    0    0  501    0  0.00000000000E+00  0.00000000000E+00  0.12686677640E+04  0.12686677640E+04  0.00000000000E+00 0. -1.
         -1   -1    0    0    0  501 -0.00000000000E+00 -0.00000000000E+00 -0.18914684621E+03  0.18914684621E+03  0.00000000000E+00 0.  1.
         23    2    1    2    0    0 -0.21710935593E+03  0.18804957667E+03  0.23049730585E+03  0.37921725243E+03  0.90430088025E+02 0.  0.
    5000000    2    1    2    0    0  0.21710935593E+03 -0.18804957667E+03  0.84902361189E+03  0.10785973577E+04  0.60002670845E+03 0.  0.
         23    2    4    4    0    0 -0.10445214843E+03 -0.67142331765E+01  0.61875672117E+03  0.63425496289E+03  0.92000791936E+02 0.  0.
         23    2    4    4    0    0  0.32156150436E+03 -0.18133534349E+03  0.23026689072E+03  0.44434239485E+03  0.90183230219E+02 0.  0.
          5    1    3    3  502    0 -0.11883921612E+03  0.12054749474E+03  0.18685391961E+03  0.25217243119E+03  0.47000000000E+01 0. -1.
         -5    1    3    3    0  502 -0.98270139810E+02  0.67502081933E+02  0.43643386239E+02  0.12704482125E+03  0.47000000000E+01 0.  1.
         11    1    5    5    0    0 -0.60627480414E+02 -0.15371113630E+01  0.54456063416E+03  0.54792731121E+03  0.00000000000E+00 0. -1.
        -11    1    5    5    0    0 -0.43824668011E+02 -0.51771218135E+01  0.74196087007E+02  0.86327651675E+02  0.00000000000E+00 0.  1.
          4    1    6    6  503    0  0.16824078228E+03 -0.58645535842E+02  0.72126834008E+02  0.19221482742E+03  0.00000000000E+00 0. -1.
         -4    1    6    6    0  503  0.15332072208E+03 -0.12268980765E+03  0.15814005671E+03  0.25212756743E+03  0.00000000000E+00 0.  1.
<mgrwt>
<rscale>  0 0.38398368E+03</rscale>
<asrwt>0</asrwt>
<pdfrwt beam="1">  1        1 0.19517965E+00 0.38398368E+03</pdfrwt>
<pdfrwt beam="2">  1       -1 0.29099516E-01 0.38398368E+03</pdfrwt>
<totfact> 0.10920429E+02</totfact>
</mgrwt>
</event>
<event>
12    1  0.3147868E-008  0.4960745E+03  0.7818608E-02  0.1014809E+00
         -2   -1    0    0    0  501 -0.00000000000E+00  0.00000000000E+00  0.63228488243E+03  0.63228488243E+03  0.00000000000E+00 0.  1.
          2   -1    0    0  501    0  0.00000000000E+00 -0.00000000000E+00 -0.47207313434E+03  0.47207313434E+03  0.00000000000E+00 0. -1.
         23    2    1    2    0    0 -0.28322836716E+03  0.16363231192E+03  0.24212053083E+03  0.41699869427E+03  0.90948986322E+02 0.  0.
    5000000    2    1    2    0    0  0.28322836716E+03 -0.16363231192E+03 -0.81908782733E+02  0.68735932249E+03  0.59896573196E+03 0.  0.
         23    2    4    4    0    0  0.12296718827E+03 -0.37332186939E+03 -0.57596481025E+02  0.40681450724E+03  0.87695730350E+02 0.  0.
         23    2    4    4    0    0  0.16026117889E+03  0.20968955747E+03 -0.24312301708E+02  0.28054481525E+03  0.91983419033E+02 0.  0.
          5    1    3    3  502    0 -0.22997513872E+03  0.11780343147E+03  0.14283997125E+03  0.29528217062E+03  0.47000000000E+01 0. -1.
         -5    1    3    3    0  502 -0.53253228433E+02  0.45828880444E+02  0.99280559576E+02  0.12171652366E+03  0.47000000000E+01 0.  1.
         13    1    5    5    0    0  0.51353707798E+02 -0.26127045315E+03 -0.63375686573E+02  0.27370774677E+03  0.00000000000E+00 0. -1.
        -13    1    5    5    0    0  0.71613480474E+02 -0.11205141624E+03  0.57792055486E+01  0.13310676047E+03  0.00000000000E+00 0.  1.
          2    1    6    6  503    0  0.92904422700E+02  0.12823488184E+03  0.30835025728E+02  0.16132642527E+03  0.00000000000E+00 0. -1.
         -2    1    6    6    0  503  0.67356756186E+02  0.81454675630E+02 -0.55147327435E+02  0.11921838998E+03  0.00000000000E+00 0.  1.
<mgrwt>
<rscale>  0 0.49607453E+03</rscale>
<asrwt>0</asrwt>
<pdfrwt beam="1">  1        2 0.72626636E-01 0.49607453E+03</pdfrwt>
<pdfrwt beam="2">  1       -2 0.97274597E-01 0.49607453E+03</pdfrwt>
<totfact> 0.59831972E+01</totfact>
</mgrwt>
</event>
<event>
12    1  0.3147868E-008  0.4643518E+03  0.7818608E-02  0.1023527E+00
          2   -1    0    0  501    0  0.00000000000E+00  0.00000000000E+00  0.79929450277E+03  0.79929450277E+03  0.00000000000E+00 0. -1.
         -2   -1    0    0    0  501 -0.00000000000E+00 -0.00000000000E+00 -0.30837220861E+03  0.30837220861E+03  0.00000000000E+00 0.  1.
         23    2    1    2    0    0 -0.23417985421E+03 -0.15376311517E+03  0.29225748986E+03  0.41631840708E+03  0.97073559693E+02 0.  0.
    5000000    2    1    2    0    0  0.23417985421E+03  0.15376311517E+03  0.19866480430E+03  0.69134830430E+03  0.60000956133E+03 0.  0.
         23    2    4    4    0    0  0.59423961137E+02 -0.21514738668E+03  0.11204143698E+03  0.26525174456E+03  0.89362180140E+02 0.  0.
         23    2    4    4    0    0  0.17475589308E+03  0.36891050186E+03  0.86623367324E+02  0.42609655974E+03  0.86139943743E+02 0.  0.
          5    1    3    3  502    0 -0.11774699523E+03 -0.51131544163E+02  0.19362600441E+03  0.23236159166E+03  0.47000000000E+01 0. -1.
         -5    1    3    3    0  502 -0.11643285899E+03 -0.10263157101E+03  0.98631485442E+02  0.18395681542E+03  0.47000000000E+01 0.  1.
         11    1    5    5    0    0  0.11555298966E+02 -0.14047528589E+03  0.29321509131E+02  0.14396729413E+03  0.00000000000E+00 0. -1.
        -11    1    5    5    0    0  0.47868662171E+02 -0.74672100794E+02  0.82719927845E+02  0.12128445044E+03  0.00000000000E+00 0.  1.
          2    1    6    6  503    0  0.43377565131E+01  0.78351669233E+02  0.75258741959E+00  0.78475261013E+02  0.00000000000E+00 0. -1.
         -2    1    6    6    0  503  0.17041813656E+03  0.29055883262E+03  0.85870779904E+02  0.34762129872E+03  0.00000000000E+00 0.  1.
<mgrwt>
<rscale>  0 0.46435181E+03</rscale>
<asrwt>0</asrwt>
<pdfrwt beam="1">  1        2 0.12296838E+00 0.46435181E+03</pdfrwt>
<pdfrwt beam="2">  1       -2 0.47441878E-01 0.46435181E+03</pdfrwt>
<totfact> 0.14985889E+02</totfact>
</mgrwt>
</event>
<event>
12    1  0.3147868E-008  0.7929480E+03  0.7818608E-02  0.9570281E-01
         -2   -1    0    0    0  501 -0.00000000000E+00  0.00000000000E+00  0.61243751030E+03  0.61243751030E+03  0.00000000000E+00 0.  1.
          2   -1    0    0  501    0  0.00000000000E+00 -0.00000000000E+00 -0.12717136522E+04  0.12717136522E+04  0.00000000000E+00 0. -1.
         23    2    1    2    0    0 -0.64990221219E+03  0.41126837724E+03 -0.16994935928E+03  0.79284600602E+03  0.90594928179E+02 0.  0.
    5000000    2    1    2    0    0  0.64990221219E+03 -0.41126837724E+03 -0.48932678262E+03  0.10913051565E+04  0.59999306733E+03 0.  0.
         23    2    4    4    0    0  0.48313534885E+02 -0.41181665800E+02 -0.34912536467E+03  0.36493800833E+03  0.85212102535E+02 0.  0.
         23    2    4    4    0    0  0.60158867731E+03 -0.37008671144E+03 -0.14020141795E+03  0.72636714815E+03  0.95287384616E+02 0.  0.
          5    1    3    3  502    0 -0.39767015547E+03  0.26390441616E+03 -0.61659650404E+02  0.48125990474E+03  0.47000000000E+01 0. -1.
         -5    1    3    3    0  502 -0.25223205672E+03  0.14736396108E+03 -0.10828970888E+03  0.31158610128E+03  0.47000000000E+01 0.  1.
         13    1    5    5    0    0  0.20598215240E+02  0.24994716193E+02 -0.14493420180E+03  0.14850907433E+03  0.00000000000E+00 0.  1.
        -13    1    5    5    0    0  0.27715319645E+02 -0.66176381993E+02 -0.20419116287E+03  0.21642893400E+03  0.00000000000E+00 0. -1.
          2    1    6    6  503    0  0.32571036507E+03 -0.25380635503E+03 -0.69205698268E+02  0.41868166480E+03  0.00000000000E+00 0. -1.
         -2    1    6    6    0  503  0.27587831224E+03 -0.11628035641E+03 -0.70995719682E+02  0.30768548335E+03  0.00000000000E+00 0.  1.
<mgrwt>
<rscale>  0 0.79294802E+03</rscale>
<asrwt>0</asrwt>
<pdfrwt beam="1">  1        2 0.19564825E+00 0.79294802E+03</pdfrwt>
<pdfrwt beam="2">  1       -2 0.94221155E-01 0.79294802E+03</pdfrwt>
<totfact> 0.16567843E+01</totfact>
</mgrwt>
</event>
<event>
12    1  0.3147868E-008  0.5441406E+03  0.7818608E-02  0.1002859E+00
          1   -1    0    0  501    0  0.00000000000E+00  0.00000000000E+00  0.11110711486E+04  0.11110711486E+04  0.00000000000E+00 0.  1.
         -1   -1    0    0    0  501 -0.00000000000E+00 -0.00000000000E+00 -0.30080935357E+03  0.30080935357E+03  0.00000000000E+00 0. -1.
         23    2    1    2    0    0 -0.55441291869E+02  0.39793774894E+03  0.43108662245E+03  0.59625001707E+03  0.90830710288E+02 0.  0.
    5000000    2    1    2    0    0  0.55441291869E+02 -0.39793774894E+03  0.37917517259E+03  0.81563048512E+03  0.60004257171E+03 0.  0.
         23    2    4    4    0    0  0.31178640286E+02  0.12882402581E+03  0.19403107293E+03  0.24904329552E+03  0.82503142609E+02 0.  0.
         23    2    4    4    0    0  0.24262651583E+02 -0.52676177475E+03  0.18514409966E+03  0.56658718960E+03  0.93145381939E+02 0.  0.
          5    1    3    3  502    0  0.19701327496E+02  0.14440056469E+03  0.17903905690E+03  0.23090417771E+03  0.47000000000E+01 0.  1.
         -5    1    3    3    0  502 -0.75142619365E+02  0.25353718425E+03  0.25204756555E+03  0.36534583936E+03  0.47000000000E+01 0.  1.
         13    1    5    5    0    0 -0.21699170882E+02  0.59673867438E+02  0.50297163741E+02  0.81003883564E+02  0.00000000000E+00 0.  1.
        -13    1    5    5    0    0  0.52877811168E+02  0.69150158376E+02  0.14373390919E+03  0.16803941195E+03  0.00000000000E+00 0. -1.
          3    1    6    6  503    0  0.14338803573E+02 -0.19355422617E+03  0.11609184479E+03  0.22615515953E+03  0.00000000000E+00 0. -1.
         -3    1    6    6    0  503  0.99238480102E+01 -0.33320754859E+03  0.69052254865E+02  0.34043203007E+03  0.00000000000E+00 0.  1.
<mgrwt>
<rscale>  0 0.54414058E+03</rscale>
<asrwt>0</asrwt>
<pdfrwt beam="1">  1        1 0.17093402E+00 0.54414058E+03</pdfrwt>
<pdfrwt beam="2">  1       -1 0.46278363E-01 0.54414058E+03</pdfrwt>
<totfact> 0.60557522E+01</totfact>
</mgrwt>
</event>
<event>
12    1  0.3147868E-008  0.1801431E+04  0.7818608E-02  0.8705539E-01
          1   -1    0    0  501    0  0.00000000000E+00  0.00000000000E+00  0.17746348592E+04  0.17746348592E+04  0.00000000000E+00 0. -1.
         -1   -1    0    0    0  501 -0.00000000000E+00 -0.00000000000E+00 -0.19897279451E+04  0.19897279451E+04  0.00000000000E+00 0.  1.
         23    2    1    2    0    0 -0.70335503302E+03  0.16286308997E+04  0.34550027980E+03  0.18095635114E+04  0.89458082869E+02 0.  0.
    5000000    2    1    2    0    0  0.70335503302E+03 -0.16286308997E+04 -0.56059336570E+03  0.19547992928E+04  0.59985701922E+03 0.  0.
         23    2    4    4    0    0 -0.40113459276E+01 -0.36400513895E+03  0.47380557762E+02  0.38069454810E+03  0.10083446645E+03 0.  0.
         23    2    4    4    0    0  0.70736637894E+03 -0.12646257608E+04 -0.60797392347E+03  0.15741047447E+04  0.92346883180E+02 0.  0.
          5    1    3    3  502    0 -0.44222296071E+03  0.91795225115E+03  0.18499961281E+03  0.10355889286E+04  0.47000000000E+01 0. -1.
         -5    1    3    3    0  502 -0.26113207230E+03  0.71067864856E+03  0.16050066699E+03  0.77397458279E+03  0.47000000000E+01 0.  1.
         11    1    5    5    0    0 -0.32342368849E+02 -0.35616386203E+02  0.48617467342E+01  0.48354858806E+02  0.00000000000E+00 0. -1.
        -11    1    5    5    0    0  0.28331022921E+02 -0.32838875275E+03  0.42518811027E+02  0.33233968930E+03  0.00000000000E+00 0.  1.
          3    1    6    6  503    0  0.48320945641E+03 -0.85263977261E+03 -0.45723969568E+03  0.10814592456E+04  0.00000000000E+00 0. -1.
         -3    1    6    6    0  503  0.22415692253E+03 -0.41198598815E+03 -0.15073422779E+03  0.49264549909E+03  0.00000000000E+00 0.  1.
<mgrwt>
<rscale>  0 0.18014309E+04</rscale>
<asrwt>0</asrwt>
<pdfrwt beam="1">  1        1 0.27302075E+00 0.18014309E+04</pdfrwt>
<pdfrwt beam="2">  1       -1 0.30611199E+00 0.18014309E+04</pdfrwt>
<totfact> 0.11655569E-01</totfact>
</mgrwt>
</event>
<event>
12    1  0.3147868E-008  0.2428077E+04  0.7818608E-02  0.8429066E-01
         -2   -1    0    0    0  501 -0.00000000000E+00  0.00000000000E+00  0.24161063639E+04  0.24161063639E+04  0.00000000000E+00 0.  1.
          2   -1    0    0  501    0  0.00000000000E+00 -0.00000000000E+00 -0.24894171252E+04  0.24894171252E+04  0.00000000000E+00 0. -1.
         23    2    1    2    0    0 -0.10933793724E+04 -0.21507186847E+04  0.67404599654E+02  0.24153453092E+04  0.90995988756E+02 0.  0.
    5000000    2    1    2    0    0  0.10933793724E+04  0.21507186847E+04 -0.14071536091E+03  0.24901781799E+04  0.60009769378E+03 0.  0.
         23    2    4    4    0    0  0.22836095306E+03  0.83717001351E+03  0.15807214341E+03  0.88640996966E+03  0.87940180636E+02 0.  0.
         23    2    4    4    0    0  0.86501841933E+03  0.13135486712E+04 -0.29878750432E+03  0.16037682103E+04  0.95558997750E+02 0.  0.
          5    1    3    3  502    0 -0.80413724644E+03 -0.15844533452E+04  0.89435244984E+02  0.17790868071E+04  0.47000000000E+01 0. -1.
         -5    1    3    3    0  502 -0.28924212596E+03 -0.56626533953E+03 -0.22030645330E+02  0.63625850211E+03  0.47000000000E+01 0.  1.
         11    1    5    5    0    0  0.11426079599E+03  0.48942596666E+03  0.13126048376E+03  0.51944453114E+03  0.00000000000E+00 0. -1.
        -11    1    5    5    0    0  0.11410015708E+03  0.34774404686E+03  0.26811659654E+02  0.36696543851E+03  0.00000000000E+00 0.  1.
          4    1    6    6  503    0  0.13373298492E+03  0.15378726195E+03 -0.56170512927E+02  0.21140047237E+03  0.00000000000E+00 0. -1.
         -4    1    6    6    0  503  0.73128543441E+03  0.11597614093E+04 -0.24261699139E+03  0.13923677379E+04  0.00000000000E+00 0.  1.
<mgrwt>
<rscale>  0 0.24280771E+04</rscale>
<asrwt>0</asrwt>
<pdfrwt beam="1">  1        2 0.38298725E+00 0.24280771E+04</pdfrwt>
<pdfrwt beam="2">  1       -2 0.37170867E+00 0.24280771E+04</pdfrwt>
<totfact> 0.33879257E-02</totfact>
</mgrwt>
</event>
<event>
12    1  0.3147868E-008  0.5845596E+03  0.7818608E-02  0.9937968E-01
          1   -1    0    0  501    0  0.00000000000E+00  0.00000000000E+00  0.11859435109E+04  0.11859435109E+04  0.00000000000E+00 0. -1.
         -1   -1    0    0    0  501 -0.00000000000E+00 -0.00000000000E+00 -0.40610434432E+03  0.40610434432E+03  0.00000000000E+00 0.  1.
         23    2    1    2    0    0  0.43856172650E+03  0.91114420708E+02  0.70391116306E+03  0.83925541110E+03  0.90666939830E+02 0.  0.
    5000000    2    1    2    0    0 -0.43856172650E+03 -0.91114420708E+02  0.75928003512E+02  0.75279244411E+03  0.60024426410E+03 0.  0.
         23    2    4    4    0    0 -0.29481221063E+03 -0.31595137936E+03 -0.48100198472E+02  0.44435234930E+03  0.91628966898E+02 0.  0.
         23    2    4    4    0    0 -0.14374951587E+03  0.22483695865E+03  0.12402820198E+03  0.30844009482E+03  0.92394350024E+02 0.  0.
          5    1    3    3  502    0  0.28023844437E+03  0.10065032676E+03  0.43975428478E+03  0.53110262187E+03  0.47000000000E+01 0. -1.
         -5    1    3    3    0  502  0.15832328213E+03 -0.95359060495E+01  0.26415687828E+03  0.30815278923E+03  0.47000000000E+01 0.  1.
         13    1    5    5    0    0 -0.12488022815E+03 -0.14626953544E+03  0.23510860459E+02  0.19375915188E+03  0.00000000000E+00 0.  1.
        -13    1    5    5    0    0 -0.16993198249E+03 -0.16968184392E+03 -0.71611058931E+02  0.25059319741E+03  0.00000000000E+00 0. -1.
          3    1    6    6  503    0 -0.12887494429E+03  0.12606484731E+03  0.98103778789E+02  0.20524484989E+03  0.00000000000E+00 0. -1.
         -3    1    6    6    0  503 -0.14874571577E+02  0.98772111336E+02  0.25924423195E+02  0.10319524493E+03  0.00000000000E+00 0.  1.
<mgrwt>
<rscale>  0 0.58455963E+03</rscale>
<asrwt>0</asrwt>
<pdfrwt beam="1">  1        1 0.18245285E+00 0.58455963E+03</pdfrwt>
<pdfrwt beam="2">  1       -1 0.62477592E-01 0.58455963E+03</pdfrwt>
<totfact> 0.29896536E+01</totfact>
</mgrwt>
</event>
<event>
12    1  0.3147868E-008  0.1324926E+04  0.7818608E-02  0.9010029E-01
         -2   -1    0    0    0  501 -0.00000000000E+00  0.00000000000E+00  0.58027496923E+03  0.58027496923E+03  0.00000000000E+00 0.  1.
          2   -1    0    0  501    0  0.00000000000E+00 -0.00000000000E+00 -0.32616698619E+04  0.32616698619E+04  0.00000000000E+00 0. -1.
         23    2    1    2    0    0 -0.10183691114E+04  0.80403419558E+03 -0.15158386104E+04  0.19974832002E+04  0.92875226065E+02 0.  0.
    5000000    2    1    2    0    0  0.10183691114E+04 -0.80403419558E+03 -0.11655562823E+04  0.18444616309E+04  0.59997552127E+03 0.  0.
         23    2    4    4    0    0  0.86984091045E+03 -0.51675979757E+03 -0.11089741816E+04  0.15037434804E+04  0.88072819476E+02 0.  0.
         23    2    4    4    0    0  0.14852820093E+03 -0.28727439801E+03 -0.56582100692E+02  0.34071815053E+03  0.91104982082E+02 0.  0.
          5    1    3    3  502    0 -0.54216525560E+03  0.48150082870E+03 -0.81668814406E+03  0.10921482624E+04  0.47000000000E+01 0. -1.
         -5    1    3    3    0  502 -0.47620385578E+03  0.32253336688E+03 -0.69915046631E+03  0.90533493778E+03  0.47000000000E+01 0.  1.
         11    1    5    5    0    0  0.67670015457E+03 -0.37121162966E+03 -0.80391302529E+03  0.11144493373E+04  0.00000000000E+00 0. -1.
        -11    1    5    5    0    0  0.19314075588E+03 -0.14554816791E+03 -0.30506115628E+03  0.38929414308E+03  0.00000000000E+00 0.  1.
          2    1    6    6  503    0  0.60203695211E+02 -0.37436517726E+02 -0.85255919874E+01  0.71404926267E+02  0.00000000000E+00 0. -1.
         -2    1    6    6    0  503  0.88324505715E+02 -0.24983788028E+03 -0.48056508704E+02  0.26931322426E+03  0.00000000000E+00 0.  1.
<mgrwt>
<rscale>  0 0.13249264E+04</rscale>
<asrwt>0</asrwt>
<pdfrwt beam="1">  1        2 0.50179536E+00 0.13249264E+04</pdfrwt>
<pdfrwt beam="2">  1       -2 0.89273073E-01 0.13249264E+04</pdfrwt>
<totfact> 0.12476328E+00</totfact>
</mgrwt>
</event>
<event>
12    1  0.3147868E-008  0.1047079E+04  0.7818608E-02  0.9258365E-01
         -3   -1    0    0    0  501 -0.00000000000E+00  0.00000000000E+00  0.14935478647E+04  0.14935478647E+04  0.00000000000E+00 0. -1.
          3   -1    0    0  501    0  0.00000000000E+00 -0.00000000000E+00 -0.84676773422E+03  0.84676773422E+03  0.00000000000E+00 0.  1.
         23    2    1    2    0    0  0.10255279741E+04 -0.18675281105E+03  0.30810567248E+03  0.10907580484E+04  0.90773214987E+02 0.  0.
    5000000    2    1    2    0    0 -0.10255279741E+04  0.18675281105E+03  0.33867445801E+03  0.12495575506E+04  0.60009119777E+03 0.  0.
         23    2    4    4    0    0 -0.28373538710E+03  0.94254160105E+02 -0.15561093514E+03  0.34893290066E+03  0.90276184246E+02 0.  0.
         23    2    4    4    0    0 -0.74179258699E+03  0.92498650947E+02  0.49428539314E+03  0.90062464992E+03  0.89411786837E+02 0.  0.
          5    1    3    3  502    0  0.53701856216E+03 -0.82411595548E+02  0.11618465755E+03  0.55560918984E+03  0.47000000000E+01 0. -1.
         -5    1    3    3    0  502  0.48850941193E+03 -0.10434121550E+03  0.19192101493E+03  0.53514885851E+03  0.47000000000E+01 0.  1.
         13    1    5    5    0    0 -0.17403758916E+03  0.75473125547E+02 -0.51571972649E+02  0.19658317192E+03  0.00000000000E+00 0. -1.
        -13    1    5    5    0    0 -0.10969779794E+03  0.18781034559E+02 -0.10403896249E+03  0.15234972874E+03  0.00000000000E+00 0.  1.
          1    1    6    6  503    0 -0.38107138225E+03  0.15162654364E+02  0.21401330017E+03  0.43731795883E+03  0.00000000000E+00 0. -1.
         -1    1    6    6    0  503 -0.36072120474E+03  0.77335996582E+02  0.28027209297E+03  0.46330669109E+03  0.00000000000E+00 0.  1.
<mgrwt>
<rscale>  0 0.10470795E+04</rscale>
<asrwt>0</asrwt>
<pdfrwt beam="1">  1        3 0.13027196E+00 0.10470795E+04</pdfrwt>
<pdfrwt beam="2">  1       -3 0.22977659E+00 0.10470795E+04</pdfrwt>
<totfact> 0.11262227E-01</totfact>
</mgrwt>
</event>
<event>
12    1  0.3147868E-008  0.5396911E+03  0.7818608E-02  0.1003909E+00
          2   -1    0    0  501    0  0.00000000000E+00  0.00000000000E+00  0.59913097564E+03  0.59913097564E+03  0.00000000000E+00 0. -1.
         -2   -1    0    0    0  501 -0.00000000000E+00 -0.00000000000E+00 -0.80246594771E+03  0.80246594771E+03  0.00000000000E+00 0.  1.
         23    2    1    2    0    0  0.41168598984E+03  0.39402093076E+02 -0.46317029594E+03  0.62791111839E+03  0.93315434863E+02 0.  0.
    5000000    2    1    2    0    0 -0.41168598984E+03 -0.39402093076E+02  0.25983532387E+03  0.77368580496E+03  0.60003120760E+03 0.  0.
         23    2    4    4    0    0  0.10422907687E+03 -0.90376563136E+02 -0.34741143849E+02  0.17041135689E+03  0.93816095908E+02 0.  0.
         23    2    4    4    0    0 -0.51591506671E+03  0.50974470060E+02  0.29457646772E+03  0.60327444808E+03  0.91640666235E+02 0.  0.
          5    1    3    3  502    0  0.35633867658E+03  0.45318804788E+02 -0.34922723918E+03  0.50101177739E+03  0.47000000000E+01 0. -1.
         -5    1    3    3    0  502  0.55347313258E+02 -0.59167117120E+01 -0.11394305676E+03  0.12689934100E+03  0.47000000000E+01 0.  1.
         13    1    5    5    0    0  0.39208381948E+01 -0.17721682856E+02 -0.42600204881E+02  0.46305598703E+02  0.00000000000E+00 0. -1.
        -13    1    5    5    0    0  0.10030823867E+03 -0.72654880280E+02  0.78590610320E+01  0.12410575818E+03  0.00000000000E+00 0.  1.
          1    1    6    6  503    0 -0.28750814590E+03 -0.32218920948E+01  0.12414978022E+03  0.31318442247E+03  0.00000000000E+00 0. -1.
         -1    1    6    6    0  503 -0.22840692081E+03  0.54196362155E+02  0.17042668750E+03  0.29009002561E+03  0.00000000000E+00 0.  1.
<mgrwt>
<rscale>  0 0.53969112E+03</rscale>
<asrwt>0</asrwt>
<pdfrwt beam="1">  1        2 0.92173997E-01 0.53969112E+03</pdfrwt>
<pdfrwt beam="2">  1       -2 0.12345630E+00 0.53969112E+03</pdfrwt>
<totfact> 0.25425594E+01</totfact>
</mgrwt>
</event>
<event>
12    1  0.3147868E-008  0.1221766E+04  0.7818608E-02  0.9094016E-01
          2   -1    0    0  501    0  0.00000000000E+00  0.00000000000E+00  0.77802075386E+03  0.77802075386E+03  0.00000000000E+00 0. -1.
         -2   -1    0    0    0  501 -0.00000000000E+00 -0.00000000000E+00 -0.19955506270E+04  0.19955506270E+04  0.00000000000E+00 0.  1.
         23    2    1    2    0    0 -0.11034526671E+04 -0.37960640556E+03 -0.45387307906E+03  0.12553449195E+04  0.90450445782E+02 0.  0.
    5000000    2    1    2    0    0  0.11034526671E+04  0.37960640556E+03 -0.76365679411E+03  0.15182264614E+04  0.60010922111E+03 0.  0.
         23    2    4    4    0    0  0.61946532531E+01 -0.63875915208E+02 -0.13056531724E+03  0.17296521317E+03  0.93547616895E+02 0.  0.
         23    2    4    4    0    0  0.10972580139E+04  0.44348232077E+03 -0.63309147687E+03  0.13452612483E+04  0.90946633517E+02 0.  0.
          5    1    3    3  502    0 -0.74515198369E+02 -0.26296015175E+02 -0.55962947161E+02  0.96942955685E+02  0.47000000000E+01 0. -1.
         -5    1    3    3    0  502 -0.10289374688E+04 -0.35331039038E+03 -0.39791013190E+03  0.11584019638E+04  0.47000000000E+01 0.  1.
         11    1    5    5    0    0 -0.29966642472E+02 -0.25761093621E+02 -0.89960129093E+01  0.40528531356E+02  0.00000000000E+00 0.  1.
        -11    1    5    5    0    0  0.36161295725E+02 -0.38114821587E+02 -0.12156930433E+03  0.13243668181E+03  0.00000000000E+00 0. -1.
          1    1    6    6  503    0  0.41079132566E+03  0.14192688438E+03 -0.27542412652E+03  0.51453979751E+03  0.00000000000E+00 0. -1.
         -1    1    6    6    0  503  0.68646668823E+03  0.30155543638E+03 -0.35766735035E+03  0.83072145077E+03  0.00000000000E+00 0.  1.
<mgrwt>
<rscale>  0 0.12217657E+04</rscale>
<asrwt>0</asrwt>
<pdfrwt beam="1">  1        2 0.11969550E+00 0.12217657E+04</pdfrwt>
<pdfrwt beam="2">  1       -2 0.30700778E+00 0.12217657E+04</pdfrwt>
<totfact> 0.10076005E+00</totfact>
</mgrwt>
</event>
<event>
12    1  0.3147868E-008  0.1214626E+04  0.7818608E-02  0.9100150E-01
         -2   -1    0    0    0  501 -0.00000000000E+00  0.00000000000E+00  0.95154333413E+03  0.95154333413E+03  0.00000000000E+00 0. -1.
          2   -1    0    0  501    0  0.00000000000E+00 -0.00000000000E+00 -0.20134816003E+04  0.20134816003E+04  0.00000000000E+00 0.  1.
         23    2    1    2    0    0 -0.99684470418E+03 -0.62175707526E+03  0.13219991798E+03  0.11856052319E+04  0.88891633944E+02 0.  0.
    5000000    2    1    2    0    0  0.99684470418E+03  0.62175707526E+03 -0.11941381842E+04  0.17794197026E+04  0.60007270414E+03 0.  0.
         23    2    4    4    0    0 -0.29196181959E+02  0.92905762270E+02 -0.35456864212E+02  0.14132589817E+03  0.96082894267E+02 0.  0.
         23    2    4    4    0    0  0.10260408861E+04  0.52885131299E+03 -0.11586813200E+04  0.16380938044E+04  0.91462011938E+02 0.  0.
          5    1    3    3  502    0 -0.40909467801E+03 -0.22280227921E+03  0.85993228876E+02  0.47372590874E+03  0.47000000000E+01 0. -1.
         -5    1    3    3    0  502 -0.58775002617E+03 -0.39895479605E+03  0.46206689101E+02  0.71187932311E+03  0.47000000000E+01 0.  1.
         13    1    5    5    0    0 -0.27200054003E+02  0.63047499724E+02 -0.68331348923E+02  0.96871065881E+02  0.00000000000E+00 0. -1.
        -13    1    5    5    0    0 -0.19961279564E+01  0.29858262546E+02  0.32874484712E+02  0.44454832293E+02  0.00000000000E+00 0.  1.
          4    1    6    6  503    0  0.56555658111E+03  0.28241878569E+03 -0.69752689363E+03  0.94135985908E+03  0.00000000000E+00 0.  1.
         -4    1    6    6    0  503  0.46048430503E+03  0.24643252731E+03 -0.46115442633E+03  0.69673394536E+03  0.00000000000E+00 0. -1.
<mgrwt>
<rscale>  0 0.12146262E+04</rscale>
<asrwt>0</asrwt>
<pdfrwt beam="1">  1        2 0.30976640E+00 0.12146262E+04</pdfrwt>
<pdfrwt beam="2">  1       -2 0.14639128E+00 0.12146262E+04</pdfrwt>
<totfact> 0.20398863E+00</totfact>
</mgrwt>
</event>
<event>
12    1  0.3147868E-008  0.3833359E+03  0.7818608E-02  0.1049708E+00
         -2   -1    0    0    0  501 -0.00000000000E+00  0.00000000000E+00  0.98210172914E+03  0.98210172914E+03  0.00000000000E+00 0.  1.
          2   -1    0    0  501    0  0.00000000000E+00 -0.00000000000E+00 -0.51767264094E+03  0.51767264094E+03  0.00000000000E+00 0. -1.
         23    2    1    2    0    0  0.12435559987E+03 -0.32376500571E+03 -0.30026133267E+03  0.46759716154E+03  0.90565685780E+02 0.  0.
    5000000    2    1    2    0    0 -0.12435559987E+03  0.32376500571E+03  0.76469042088E+03  0.10321772085E+04  0.60029180895E+03 0.  0.
         23    2    4    4    0    0  0.14705290501E+01  0.20251994066E+03 -0.20198679057E+02  0.22307528745E+03  0.91313243374E+02 0.  0.
         23    2    4    4    0    0 -0.12582612892E+03  0.12124506505E+03  0.78488909993E+03  0.80910192108E+03  0.89791085198E+02 0.  0.
          5    1    3    3  502    0  0.36154512634E+02 -0.19447399245E+03 -0.20187694239E+03  0.28267237643E+03  0.47000000000E+01 0. -1.
         -5    1    3    3    0  502  0.88201087238E+02 -0.12929101326E+03 -0.98384390279E+02  0.18492478512E+03  0.47000000000E+01 0.  1.
         11    1    5    5    0    0 -0.34896629887E+02  0.43334557170E+02 -0.21863176466E+02  0.59780072832E+02  0.00000000000E+00 0. -1.
        -11    1    5    5    0    0  0.36367158938E+02  0.15918538349E+03  0.16644974092E+01  0.16329521462E+03  0.00000000000E+00 0.  1.
          3    1    6    6  503    0 -0.13801913354E+03  0.11473557704E+03  0.75686220607E+03  0.77785212788E+03  0.00000000000E+00 0. -1.
         -3    1    6    6    0  503  0.12193004616E+02  0.65094880092E+01  0.28026893860E+02  0.31249793202E+02  0.00000000000E+00 0.  1.
<mgrwt>
<rscale>  0 0.38333587E+03</rscale>
<asrwt>0</asrwt>
<pdfrwt beam="1">  1        2 0.79641945E-01 0.38333587E+03</pdfrwt>
<pdfrwt beam="2">  1       -2 0.15109257E+00 0.38333587E+03</pdfrwt>
<totfact> 0.18437556E+01</totfact>
</mgrwt>
</event>
<event>
12    1  0.3147868E-008  0.7143811E+03  0.7818608E-02  0.9692950E-01
          3   -1    0    0  501    0  0.00000000000E+00  0.00000000000E+00  0.94880804998E+03  0.94880804998E+03  0.00000000000E+00 0. -1.
         -3   -1    0    0    0  501 -0.00000000000E+00 -0.00000000000E+00 -0.11392044854E+04  0.11392044854E+04  0.00000000000E+00 0.  1.
         23    2    1    2    0    0  0.60810469762E+03 -0.11001606088E+03 -0.81308064788E+03  0.10251436503E+04  0.89019699458E+02 0.  0.
    5000000    2    1    2    0    0 -0.60810469762E+03  0.11001606088E+03  0.62268421248E+03  0.10628688851E+04  0.60004981579E+03 0.  0.
         23    2    4    4    0    0 -0.22818356837E+02  0.20385366115E+03  0.42916921807E+02  0.22887084143E+03  0.91994604765E+02 0.  0.
         23    2    4    4    0    0 -0.58528634078E+03 -0.93837600271E+02  0.57976729067E+03  0.83399804363E+03  0.89760957597E+02 0.  0.
          5    1    3    3  502    0  0.17166751821E+03 -0.70749218942E+01 -0.27981976169E+03  0.32839150470E+03  0.47000000000E+01 0. -1.
         -5    1    3    3    0  502  0.43643717941E+03 -0.10294113899E+03 -0.53326088619E+03  0.69675214560E+03  0.47000000000E+01 0.  1.
         11    1    5    5    0    0 -0.37335612187E+02  0.18385074254E+03  0.62067345625E+02  0.19760414688E+03  0.00000000000E+00 0. -1.
        -11    1    5    5    0    0  0.14517255349E+02  0.20002918608E+02 -0.19150423818E+02  0.31266694551E+02  0.00000000000E+00 0.  1.
          4    1    6    6  503    0 -0.22268995337E+03 -0.47179476026E+01  0.26032096851E+03  0.34260776553E+03  0.00000000000E+00 0. -1.
         -4    1    6    6    0  503 -0.36259638742E+03 -0.89119652669E+02  0.31944632216E+03  0.49139027809E+03  0.00000000000E+00 0.  1.
<mgrwt>
<rscale>  0 0.71438106E+03</rscale>
<asrwt>0</asrwt>
<pdfrwt beam="1">  1        3 0.14597047E+00 0.71438106E+03</pdfrwt>
<pdfrwt beam="2">  1       -3 0.17526223E+00 0.71438106E+03</pdfrwt>
<totfact> 0.19169522E-01</totfact>
</mgrwt>
</event>
<event>
12    1  0.3147868E-008  0.9648434E+03  0.7818608E-02  0.9347967E-01
          1   -1    0    0  501    0  0.00000000000E+00  0.00000000000E+00  0.22777777304E+04  0.22777777304E+04  0.00000000000E+00 0. -1.
         -1   -1    0    0    0  501 -0.00000000000E+00 -0.00000000000E+00 -0.48513964210E+03  0.48513964210E+03  0.00000000000E+00 0.  1.
         23    2    1    2    0    0 -0.92505647224E+03  0.25281388185E+03  0.94147813980E+03  0.13472161714E+04  0.94688906821E+02 0.  0.
    5000000    2    1    2    0    0  0.92505647224E+03 -0.25281388185E+03  0.85115994846E+03  0.14157012011E+04  0.60007690934E+03 0.  0.
         23    2    4    4    0    0  0.26526663876E+03 -0.39847394617E+02  0.61567581473E+03  0.67783104017E+03  0.91891270961E+02 0.  0.
         23    2    4    4    0    0  0.65978983348E+03 -0.21296648723E+03  0.23548413373E+03  0.73787016089E+03  0.91226356042E+02 0.  0.
          5    1    3    3  502    0 -0.47118962430E+03  0.98384763764E+02  0.42012115505E+03  0.63892339033E+03  0.47000000000E+01 0. -1.
         -5    1    3    3    0  502 -0.45386684794E+03  0.15442911808E+03  0.52135698475E+03  0.70829278107E+03  0.47000000000E+01 0.  1.
         11    1    5    5    0    0  0.14080517939E+03 -0.75824985977E+01  0.21573656199E+03  0.25773214197E+03  0.00000000000E+00 0. -1.
        -11    1    5    5    0    0  0.12446145937E+03 -0.32264896019E+02  0.39993925274E+03  0.42009889820E+03  0.00000000000E+00 0.  1.
          1    1    6    6  503    0  0.32843200399E+03 -0.15390585450E+03  0.12174689207E+03  0.38259234052E+03  0.00000000000E+00 0. -1.
         -1    1    6    6    0  503  0.33135782949E+03 -0.59060632728E+02  0.11373724166E+03  0.35527782036E+03  0.00000000000E+00 0.  1.
<mgrwt>
<rscale>  0 0.96484340E+03</rscale>
<asrwt>0</asrwt>
<pdfrwt beam="1">  1        1 0.35042734E+00 0.96484340E+03</pdfrwt>
<pdfrwt beam="2">  1       -1 0.74636869E-01 0.96484340E+03</pdfrwt>
<totfact> 0.35523007E+00</totfact>
</mgrwt>
</event>
<event>
12    1  0.3147868E-008  0.1889463E+04  0.7818608E-02  0.8660119E-01
         -2   -1    0    0    0  501 -0.00000000000E+00  0.00000000000E+00  0.23280184794E+04  0.23280184794E+04  0.00000000000E+00 0.  1.
          2   -1    0    0  501    0  0.00000000000E+00 -0.00000000000E+00 -0.16910050768E+04  0.16910050768E+04  0.00000000000E+00 0. -1.
         23    2    1    2    0    0 -0.11319188675E+04  0.14587751208E+04 -0.28310146780E+03  0.18705628719E+04  0.97948155885E+02 0.  0.
    5000000    2    1    2    0    0  0.11319188675E+04 -0.14587751208E+04  0.92011487035E+03  0.21484606843E+04  0.60000563480E+03 0.  0.
         23    2    4    4    0    0 -0.26749409486E+02 -0.22670180938E+03  0.13790920972E+03  0.28276109894E+03  0.93944918248E+02 0.  0.
         23    2    4    4    0    0  0.11586682769E+04 -0.12320733114E+04  0.78220566063E+03  0.18656995853E+04  0.92045785282E+02 0.  0.
          5    1    3    3  502    0 -0.52179055537E+03  0.74320806284E+03 -0.16158414048E+03  0.92236388307E+03  0.47000000000E+01 0. -1.
         -5    1    3    3    0  502 -0.61012831208E+03  0.71556705792E+03 -0.12151732733E+03  0.94819898883E+03  0.47000000000E+01 0.  1.
         13    1    5    5    0    0 -0.27413672814E+02 -0.32565856408E+02 -0.33065081114E+01  0.42696340085E+02  0.00000000000E+00 0. -1.
        -13    1    5    5    0    0  0.66426332769E+00 -0.19413595298E+03  0.14121571783E+03  0.24006475886E+03  0.00000000000E+00 0.  1.
          2    1    6    6  503    0  0.11401657209E+04 -0.11914367435E+04  0.75887541965E+03  0.18153212629E+04  0.00000000000E+00 0. -1.
         -2    1    6    6    0  503  0.18502555999E+02 -0.40636567871E+02  0.23330240986E+02  0.50378322434E+02  0.00000000000E+00 0.  1.
<mgrwt>
<rscale>  0 0.18894632E+04</rscale>
<asrwt>0</asrwt>
<pdfrwt beam="1">  1        2 0.26015463E+00 0.18894632E+04</pdfrwt>
<pdfrwt beam="2">  1       -2 0.35815669E+00 0.18894632E+04</pdfrwt>
<totfact> 0.12359592E-01</totfact>
</mgrwt>
</event>
<event>
12    1  0.3147868E-008  0.2953417E+03  0.7818608E-02  0.1087593E+00
          1   -1    0    0  501    0  0.00000000000E+00  0.00000000000E+00  0.14227513600E+04  0.14227513600E+04  0.00000000000E+00 0. -1.
         -1   -1    0    0    0  501 -0.00000000000E+00 -0.00000000000E+00 -0.13331948754E+03  0.13331948754E+03  0.00000000000E+00 0.  1.
         23    2    1    2    0    0 -0.23632002958E+02 -0.19783025623E+03  0.19739831642E+03  0.29426094053E+03  0.89040013219E+02 0.  0.
    5000000    2    1    2    0    0  0.23632002958E+02  0.19783025623E+03  0.10920335561E+04  0.12618099071E+04  0.59994305738E+03 0.  0.
         23    2    4    4    0    0 -0.12653850999E+03  0.17827050157E+03  0.11154490231E+03  0.26562808528E+03  0.10160535527E+03 0.  0.
         23    2    4    4    0    0  0.15017051294E+03  0.19559754663E+02  0.98048865377E+03  0.99618182178E+03  0.89924718012E+02 0.  0.
          5    1    3    3  502    0  0.15126116028E+02 -0.78547142955E+02  0.31184110376E+02  0.85982508642E+02  0.47000000000E+01 0. -1.
         -5    1    3    3    0  502 -0.38758118986E+02 -0.11928311327E+03  0.16621420604E+03  0.20827843189E+03  0.47000000000E+01 0.  1.
         11    1    5    5    0    0 -0.81205576728E+02  0.76466817642E+02  0.53159416610E+01  0.11166816524E+03  0.00000000000E+00 0.  1.
        -11    1    5    5    0    0 -0.45332933258E+02  0.10180368392E+03  0.10622896065E+03  0.15395992004E+03  0.00000000000E+00 0. -1.
          1    1    6    6  503    0  0.28238520733E+02  0.28093044300E+02  0.45157440417E+03  0.45332777952E+03  0.00000000000E+00 0. -1.
         -1    1    6    6    0  503  0.12193199221E+03 -0.85332896371E+01  0.52891424961E+03  0.54285404226E+03  0.00000000000E+00 0.  1.
<mgrwt>
<rscale>  0 0.29534172E+03</rscale>
<asrwt>0</asrwt>
<pdfrwt beam="1">  1        1 0.21888481E+00 0.29534172E+03</pdfrwt>
<pdfrwt beam="2">  1       -1 0.20510691E-01 0.29534172E+03</pdfrwt>
<totfact> 0.15638823E+02</totfact>
</mgrwt>
</event>
<event>
12    1  0.3147868E-008  0.1517312E+04  0.7818608E-02  0.8873022E-01
         -2   -1    0    0    0  501 -0.00000000000E+00  0.00000000000E+00  0.12278424418E+04  0.12278424418E+04  0.00000000000E+00 0.  1.
          2   -1    0    0  501    0  0.00000000000E+00 -0.00000000000E+00 -0.21383738982E+04  0.21383738982E+04  0.00000000000E+00 0. -1.
         23    2    1    2    0    0 -0.50929744486E+03  0.14031779113E+04  0.42349700904E+02  0.14963865214E+04  0.95325684473E+02 0.  0.
    5000000    2    1    2    0    0  0.50929744486E+03 -0.14031779113E+04 -0.95288115727E+03  0.18698298186E+04  0.59999076026E+03 0.  0.
         23    2    4    4    0    0 -0.49184420741E+02 -0.20863779987E+03  0.13148616753E+02  0.23260199609E+03  0.89341836152E+02 0.  0.
         23    2    4    4    0    0  0.55848186560E+03 -0.11945401114E+04 -0.96602977403E+03  0.16372278225E+04  0.92050781281E+02 0.  0.
          5    1    3    3  502    0 -0.28346579254E+03  0.91430295055E+03  0.25711587391E+02  0.95759381611E+03  0.47000000000E+01 0. -1.
         -5    1    3    3    0  502 -0.22583165233E+03  0.48887496074E+03  0.16638113513E+02  0.53879270527E+03  0.47000000000E+01 0.  1.
         13    1    5    5    0    0  0.90807899817E+01 -0.26199944009E+02  0.29380363904E+02  0.40399301923E+02  0.00000000000E+00 0. -1.
        -13    1    5    5    0    0 -0.58265210723E+02 -0.18243785586E+03 -0.16231747150E+02  0.19220269417E+03  0.00000000000E+00 0.  1.
          1    1    6    6  503    0  0.28108978455E+03 -0.54233157354E+03 -0.49502559944E+03  0.78624763703E+03  0.00000000000E+00 0. -1.
         -1    1    6    6    0  503  0.27739208105E+03 -0.65220853789E+03 -0.47100417459E+03  0.85098018543E+03  0.00000000000E+00 0.  1.
<mgrwt>
<rscale>  0 0.15173121E+04</rscale>
<asrwt>0</asrwt>
<pdfrwt beam="1">  1        2 0.32898060E+00 0.15173121E+04</pdfrwt>
<pdfrwt beam="2">  1       -2 0.18889884E+00 0.15173121E+04</pdfrwt>
<totfact> 0.82738658E-01</totfact>
</mgrwt>
</event>
<event>
12    1  0.3147868E-008  0.1042548E+04  0.7818608E-02  0.9263072E-01
         -1   -1    0    0    0  501 -0.00000000000E+00  0.00000000000E+00  0.13521361361E+04  0.13521361361E+04  0.00000000000E+00 0.  1.
          1   -1    0    0  501    0  0.00000000000E+00 -0.00000000000E+00 -0.93401413477E+03  0.93401413477E+03  0.00000000000E+00 0. -1.
         23    2    1    2    0    0 -0.92723939433E+03  0.44620019682E+03  0.35878473511E+03  0.10934499911E+04  0.89659840259E+02 0.  0.
    5000000    2    1    2    0    0  0.92723939433E+03 -0.44620019682E+03  0.59337266234E+02  0.11927002797E+04  0.60012126781E+03 0.  0.
         23    2    4    4    0    0  0.52296296472E+03 -0.16477381756E+03 -0.24398952649E+03  0.60708902253E+03  0.91572478502E+02 0.  0.
         23    2    4    4    0    0  0.40427642961E+03 -0.28142637926E+03  0.30332679272E+03  0.58561125720E+03  0.91066804608E+02 0.  0.
          5    1    3    3  502    0 -0.38601556219E+03  0.17433394507E+03  0.10272478629E+03  0.43586099892E+03  0.47000000000E+01 0. -1.
         -5    1    3    3    0  502 -0.54122383214E+03  0.27186625174E+03  0.25605994882E+03  0.65758899223E+03  0.47000000000E+01 0.  1.
         11    1    5    5    0    0  0.10928859251E+03 -0.72213303949E+02 -0.73348831325E+02  0.15012930685E+03  0.00000000000E+00 0. -1.
        -11    1    5    5    0    0  0.41367437222E+03 -0.92560513609E+02 -0.17064069516E+03  0.45695971568E+03  0.00000000000E+00 0.  1.
          3    1    6    6  503    0  0.12246783043E+03 -0.13873517637E+03  0.11275075909E+03  0.21669922087E+03  0.00000000000E+00 0. -1.
         -3    1    6    6    0  503  0.28180859918E+03 -0.14269120289E+03  0.19057603363E+03  0.36891203633E+03  0.00000000000E+00 0.  1.
<mgrwt>
<rscale>  0 0.10425477E+04</rscale>
<asrwt>0</asrwt>
<pdfrwt beam="1">  1        1 0.14369448E+00 0.10425477E+04</pdfrwt>
<pdfrwt beam="2">  1       -1 0.20802094E+00 0.10425477E+04</pdfrwt>
<totfact> 0.22621691E+00</totfact>
</mgrwt>
</event>
<event>
12    1  0.3147868E-008  0.1229274E+04  0.7818608E-02  0.9087612E-01
         -1   -1    0    0    0  501 -0.00000000000E+00  0.00000000000E+00  0.14451177650E+04  0.14451177650E+04  0.00000000000E+00 0.  1.
          1   -1    0    0  501    0  0.00000000000E+00 -0.00000000000E+00 -0.15157428914E+04  0.15157428914E+04  0.00000000000E+00 0. -1.
         23    2    1    2    0    0  0.84349215390E+03  0.88095694384E+03  0.68899325678E+03  0.14037211726E+04  0.90317617062E+02 0.  0.
    5000000    2    1    2    0    0 -0.84349215390E+03 -0.88095694384E+03 -0.75961838317E+03  0.15571394837E+04  0.60008260531E+03 0.  0.
         23    2    4    4    0    0 -0.14440743473E+03 -0.16656203058E+03 -0.44643693961E+03  0.50578015019E+03  0.88944938297E+02 0.  0.
         23    2    4    4    0    0 -0.69908471918E+03 -0.71439491326E+03 -0.31318144357E+03  0.10513593336E+04  0.90522345177E+02 0.  0.
          5    1    3    3  502    0  0.65626932958E+03  0.63086739014E+03  0.52458960353E+03  0.10506661882E+04  0.47000000000E+01 0. -1.
         -5    1    3    3    0  502  0.18722282433E+03  0.25008955370E+03  0.16440365324E+03  0.35305498441E+03  0.47000000000E+01 0.  1.
         13    1    5    5    0    0 -0.13903897560E+03 -0.17632194343E+03 -0.40738568304E+03  0.46517132243E+03  0.00000000000E+00 0. -1.
        -13    1    5    5    0    0 -0.53684591227E+01  0.97599128516E+01 -0.39051256570E+02  0.40608827758E+02  0.00000000000E+00 0.  1.
          4    1    6    6  503    0 -0.16063115095E+03 -0.14464448091E+03 -0.10469803386E+03  0.24017924725E+03  0.00000000000E+00 0. -1.
         -4    1    6    6    0  503 -0.53845356823E+03 -0.56975043235E+03 -0.20848340970E+03  0.81118008630E+03  0.00000000000E+00 0.  1.
<mgrwt>
<rscale>  0 0.12292741E+04</rscale>
<asrwt>0</asrwt>
<pdfrwt beam="1">  1        1 0.23319121E+00 0.12292741E+04</pdfrwt>
<pdfrwt beam="2">  1       -1 0.22232581E+00 0.12292741E+04</pdfrwt>
<totfact> 0.66132826E-01</totfact>
</mgrwt>
</event>
<event>
12    1  0.3147868E-008  0.9176253E+03  0.7818608E-02  0.9403813E-01
          2   -1    0    0  501    0  0.00000000000E+00  0.00000000000E+00  0.21338286004E+04  0.21338286004E+04  0.00000000000E+00 0. -1.
         -2   -1    0    0    0  501 -0.00000000000E+00 -0.00000000000E+00 -0.47499954640E+03  0.47499954640E+03  0.00000000000E+00 0.  1.
         23    2    1    2    0    0  0.86118093204E+03  0.91011391871E+01  0.11561734965E+04  0.14450523337E+04  0.98608644111E+02 0.  0.
    5000000    2    1    2    0    0 -0.86118093204E+03 -0.91011391871E+01  0.50265555756E+03  0.11637758131E+04  0.59999675439E+03 0.  0.
         23    2    4    4    0    0 -0.64934388730E+03 -0.19176100465E+03  0.53551111757E+03  0.86813187528E+03  0.91983851629E+02 0.  0.
         23    2    4    4    0    0 -0.21183704474E+03  0.18265986546E+03 -0.32855560005E+02  0.29564393787E+03  0.89923802201E+02 0.  0.
          5    1    3    3  502    0  0.42831665272E+03  0.41953643125E+02  0.52266800272E+03  0.67706660989E+03  0.47000000000E+01 0. -1.
         -5    1    3    3    0  502  0.43286427932E+03 -0.32852503938E+02  0.63350549376E+03  0.76798572379E+03  0.47000000000E+01 0.  1.
         11    1    5    5    0    0 -0.27099921583E+03 -0.36060918349E+02  0.23480056951E+03  0.36037795751E+03  0.00000000000E+00 0. -1.
        -11    1    5    5    0    0 -0.37834467147E+03 -0.15570008630E+03  0.30071054805E+03  0.50775391777E+03  0.00000000000E+00 0.  1.
          3    1    6    6  503    0 -0.23854432014E+02  0.57816097326E+02 -0.31385316341E+02  0.69976947051E+02  0.00000000000E+00 0.  1.
         -3    1    6    6    0  503 -0.18798261272E+03  0.12484376813E+03 -0.14702436638E+01  0.22566699082E+03  0.00000000000E+00 0. -1.
<mgrwt>
<rscale>  0 0.91762526E+03</rscale>
<asrwt>0</asrwt>
<pdfrwt beam="1">  1        2 0.32828132E+00 0.91762526E+03</pdfrwt>
<pdfrwt beam="2">  1       -2 0.73076854E-01 0.91762526E+03</pdfrwt>
<totfact> 0.96531205E+00</totfact>
</mgrwt>
</event>
<event>
12    1  0.3147868E-008  0.1430750E+04  0.7818608E-02  0.8931856E-01
         -2   -1    0    0    0  501 -0.00000000000E+00  0.00000000000E+00  0.22656080286E+04  0.22656080286E+04  0.00000000000E+00 0.  1.
          2   -1    0    0  501    0  0.00000000000E+00 -0.00000000000E+00 -0.10804500506E+04  0.10804500506E+04  0.00000000000E+00 0. -1.
         23    2    1    2    0    0  0.14246867940E+04  0.67247703753E+02  0.56667475340E+02  0.14307830865E+04  0.98358137278E+02 0.  0.
    5000000    2    1    2    0    0 -0.14246867940E+04 -0.67247703753E+02  0.11284905027E+04  0.19152749927E+04  0.60044380929E+03 0.  0.
         23    2    4    4    0    0 -0.57591582598E+03 -0.86811044323E+01  0.81614313869E+03  0.10032698536E+04  0.93307963699E+02 0.  0.
         23    2    4    4    0    0 -0.84877096804E+03 -0.58566599321E+02  0.31234736400E+03  0.91200513907E+03  0.10173640033E+03 0.  0.
          5    1    3    3  502    0  0.17288758873E+03  0.39784551916E+02  0.12116842200E+02  0.17788152454E+03  0.47000000000E+01 0. -1.
         -5    1    3    3    0  502  0.12517992053E+04  0.27463151837E+02  0.44550633140E+02  0.12529015620E+04  0.47000000000E+01 0.  1.
         11    1    5    5    0    0 -0.37718131229E+03 -0.38593088131E+02  0.58320232732E+03  0.69561492464E+03  0.00000000000E+00 0. -1.
        -11    1    5    5    0    0 -0.19873451369E+03  0.29911983699E+02  0.23294081137E+03  0.30765492894E+03  0.00000000000E+00 0.  1.
          4    1    6    6  503    0 -0.76795259962E+03 -0.65158935811E+02  0.25178292520E+03  0.81079684484E+03  0.00000000000E+00 0. -1.
         -4    1    6    6    0  503 -0.80818368421E+02  0.65923364907E+01  0.60564438796E+02  0.10120829423E+03  0.00000000000E+00 0.  1.
<mgrwt>
<rscale>  0 0.14307499E+04</rscale>
<asrwt>0</asrwt>
<pdfrwt beam="1">  1        2 0.16622309E+00 0.14307499E+04</pdfrwt>
<pdfrwt beam="2">  1       -2 0.34855508E+00 0.14307499E+04</pdfrwt>
<totfact> 0.33988135E-01</totfact>
</mgrwt>
</event>
<event>
12    1  0.3147868E-008  0.1111805E+04  0.7818608E-02  0.9193762E-01
         -1   -1    0    0    0  501 -0.00000000000E+00  0.00000000000E+00  0.13914617511E+04  0.13914617511E+04  0.00000000000E+00 0.  1.
          1   -1    0    0  501    0  0.00000000000E+00 -0.00000000000E+00 -0.10131774897E+04  0.10131774897E+04  0.00000000000E+00 0. -1.
         23    2    1    2    0    0  0.11072822920E+04  0.24396090993E+02  0.10828207429E+03  0.11163785546E+04  0.88920335067E+02 0.  0.
    5000000    2    1    2    0    0 -0.11072822920E+04 -0.24396090993E+02  0.27000218708E+03  0.12882606863E+04  0.60003764154E+03 0.  0.
         23    2    4    4    0    0 -0.76615420118E+03  0.26512412710E+02 -0.95390514092E+02  0.77672392683E+03  0.80656929769E+02 0.  0.
         23    2    4    4    0    0 -0.34112809086E+03 -0.50908503703E+02  0.36539270118E+03  0.51153675945E+03  0.95906100287E+02 0.  0.
          5    1    3    3  502    0  0.12564727453E+03 -0.22470554571E+02  0.56471184391E+00  0.12772851020E+03  0.47000000000E+01 0. -1.
         -5    1    3    3    0  502  0.98163501751E+03  0.46866645563E+02  0.10771736245E+03  0.98865004438E+03  0.47000000000E+01 0.  1.
         11    1    5    5    0    0 -0.42941838712E+03  0.28425851093E+02 -0.15508656419E+02  0.43063754903E+03  0.00000000000E+00 0. -1.
        -11    1    5    5    0    0 -0.33673581406E+03 -0.19134383824E+01 -0.79881857673E+02  0.34608637781E+03  0.00000000000E+00 0.  1.
          1    1    6    6  503    0 -0.25443765036E+03 -0.25670480941E+02  0.20613349040E+03  0.32846386008E+03  0.00000000000E+00 0. -1.
         -1    1    6    6    0  503 -0.86690440497E+02 -0.25238022762E+02  0.15925921078E+03  0.18307289937E+03  0.00000000000E+00 0.  1.
<mgrwt>
<rscale>  0 0.11118050E+04</rscale>
<asrwt>0</asrwt>
<pdfrwt beam="1">  1        1 0.15587346E+00 0.11118050E+04</pdfrwt>
<pdfrwt beam="2">  1       -1 0.21407104E+00 0.11118050E+04</pdfrwt>
<totfact> 0.17668534E+00</totfact>
</mgrwt>
</event>
<event>
12    1  0.3147868E-008  0.1031774E+04  0.7818608E-02  0.9274366E-01
          2   -1    0    0  501    0  0.00000000000E+00  0.00000000000E+00  0.15717658466E+04  0.15717658466E+04  0.00000000000E+00 0. -1.
         -2   -1    0    0    0  501 -0.00000000000E+00 -0.00000000000E+00 -0.10949105872E+04  0.10949105872E+04  0.00000000000E+00 0.  1.
         23    2    1    2    0    0 -0.82397666657E+03  0.48577520475E+03  0.10305950720E+04  0.14090604779E+04  0.91706769489E+02 0.  0.
    5000000    2    1    2    0    0  0.82397666657E+03 -0.48577520475E+03 -0.55373981257E+03  0.12576159558E+04  0.60004584462E+03 0.  0.
         23    2    4    4    0    0  0.58341752893E+03 -0.59871373665E+03 -0.48054225570E+03  0.96862827367E+03  0.92117976128E+02 0.  0.
         23    2    4    4    0    0  0.24055913763E+03  0.11293853190E+03 -0.73197556868E+02  0.28898768212E+03  0.86788175462E+02 0.  0.
          5    1    3    3  502    0 -0.18979475716E+03  0.84833053041E+02  0.26836838624E+03  0.33950313322E+03  0.47000000000E+01 0. -1.
         -5    1    3    3    0  502 -0.63418190940E+03  0.40094215171E+03  0.76222668572E+03  0.10695573447E+04  0.47000000000E+01 0.  1.
         13    1    5    5    0    0  0.15007070796E+03 -0.20455180299E+03 -0.17241683140E+03  0.30674129367E+03  0.00000000000E+00 0.  1.
        -13    1    5    5    0    0  0.43334682097E+03 -0.39416193366E+03 -0.30812542431E+03  0.66188698000E+03  0.00000000000E+00 0. -1.
          2    1    6    6  503    0  0.10453217332E+03  0.51966413255E+02  0.11898962041E+02  0.11734167487E+03  0.00000000000E+00 0. -1.
         -2    1    6    6    0  503  0.13602696432E+03  0.60972118644E+02 -0.85096518909E+02  0.17164600725E+03  0.00000000000E+00 0.  1.
<mgrwt>
<rscale>  0 0.10317737E+04</rscale>
<asrwt>0</asrwt>
<pdfrwt beam="1">  1        2 0.24181013E+00 0.10317737E+04</pdfrwt>
<pdfrwt beam="2">  1       -2 0.16844778E+00 0.10317737E+04</pdfrwt>
<totfact> 0.25014774E+00</totfact>
</mgrwt>
</event>
<event>
12    1  0.3147868E-008  0.9736175E+03  0.7818608E-02  0.9337963E-01
          2   -1    0    0  501    0  0.00000000000E+00  0.00000000000E+00  0.11623094953E+04  0.11623094953E+04  0.00000000000E+00 0.  1.
         -2   -1    0    0    0  501 -0.00000000000E+00 -0.00000000000E+00 -0.87686900076E+03  0.87686900076E+03  0.00000000000E+00 0. -1.
         23    2    1    2    0    0 -0.87759812186E+03  0.71801880584E+02  0.39241313240E+03  0.96826752097E+03  0.90663951764E+02 0.  0.
    5000000    2    1    2    0    0  0.87759812186E+03 -0.71801880584E+02 -0.10697263783E+03  0.10709109751E+04  0.60006099512E+03 0.  0.
         23    2    4    4    0    0  0.37885417707E+03 -0.31503887530E+03 -0.82341941663E+02  0.50783485343E+03  0.91302040330E+02 0.  0.
         23    2    4    4    0    0  0.49874394479E+03  0.24323699472E+03 -0.24630696169E+02  0.56307612169E+03  0.92402865566E+02 0.  0.
          5    1    3    3  502    0 -0.62910314061E+03  0.91797716399E+02  0.28695382576E+03  0.69754008514E+03  0.47000000000E+01 0. -1.
         -5    1    3    3    0  502 -0.24849498125E+03 -0.19995835815E+02  0.10545930665E+03  0.27072743584E+03  0.47000000000E+01 0.  1.
         13    1    5    5    0    0  0.24062705072E+03 -0.14238168354E+03 -0.36592826200E+02  0.28198041825E+03  0.00000000000E+00 0.  1.
        -13    1    5    5    0    0  0.13822712635E+03 -0.17265719177E+03 -0.45749115463E+02  0.22585443519E+03  0.00000000000E+00 0. -1.
          1    1    6    6  503    0  0.17982546894E+02  0.30953863806E+02 -0.10642864547E+02  0.37346810347E+02  0.00000000000E+00 0. -1.
         -1    1    6    6    0  503  0.48076139789E+03  0.21228313091E+03 -0.13987831622E+02  0.52572931135E+03  0.00000000000E+00 0.  1.
<mgrwt>
<rscale>  0 0.97361754E+03</rscale>
<asrwt>0</asrwt>
<pdfrwt beam="1">  1        2 0.17881685E+00 0.97361754E+03</pdfrwt>
<pdfrwt beam="2">  1       -2 0.13490292E+00 0.97361754E+03</pdfrwt>
<totfact> 0.78432239E+00</totfact>
</mgrwt>
</event>
<event>
12    1  0.3147868E-008  0.7897225E+03  0.7818608E-02  0.9575014E-01
         -2   -1    0    0    0  501 -0.00000000000E+00  0.00000000000E+00  0.12137391191E+04  0.12137391191E+04  0.00000000000E+00 0.  1.
          2   -1    0    0  501    0  0.00000000000E+00 -0.00000000000E+00 -0.72849148986E+03  0.72849148986E+03  0.00000000000E+00 0. -1.
         23    2    1    2    0    0  0.58187349538E+03  0.34241311605E+03  0.73795114254E+03  0.10043051980E+04  0.90738830185E+02 0.  0.
    5000000    2    1    2    0    0 -0.58187349538E+03 -0.34241311605E+03 -0.25270351333E+03  0.93792541092E+03  0.60001791984E+03 0.  0.
         23    2    4    4    0    0 -0.22381674865E+03 -0.45563941497E+03 -0.16637431962E+03  0.54167559719E+03  0.89614869920E+02 0.  0.
         23    2    4    4    0    0 -0.35805674674E+03  0.11322629892E+03 -0.86329193716E+02  0.39624981373E+03  0.92392405244E+02 0.  0.
          5    1    3    3  502    0  0.24878107295E+02 -0.21890810003E+01  0.37729950971E+02  0.45490125285E+02  0.47000000000E+01 0. -1.
         -5    1    3    3    0  502  0.55699538809E+03  0.34460219705E+03  0.70022119157E+03  0.95881507272E+03  0.47000000000E+01 0.  1.
         13    1    5    5    0    0 -0.13954331160E+02 -0.10821220892E+03 -0.25663693768E+02  0.11208581844E+03  0.00000000000E+00 0. -1.
        -13    1    5    5    0    0 -0.20986241749E+03 -0.34742720605E+03 -0.14071062585E+03  0.42958977875E+03  0.00000000000E+00 0.  1.
          4    1    6    6  503    0 -0.16951281275E+03  0.95751913686E+02 -0.67091834860E+02  0.20592313363E+03  0.00000000000E+00 0. -1.
         -4    1    6    6    0  503 -0.18854393398E+03  0.17474385234E+02 -0.19237358857E+02  0.19032668010E+03  0.00000000000E+00 0.  1.
<mgrwt>
<rscale>  0 0.78972246E+03</rscale>
<asrwt>0</asrwt>
<pdfrwt beam="1">  1        2 0.11207561E+00 0.78972246E+03</pdfrwt>
<pdfrwt beam="2">  1       -2 0.18672910E+00 0.78972246E+03</pdfrwt>
<totfact> 0.64417131E+00</totfact>
</mgrwt>
</event>
<event>
12    1  0.3147868E-008  0.6088010E+03  0.7818608E-02  0.9887313E-01
          2   -1    0    0  501    0  0.00000000000E+00  0.00000000000E+00  0.31093348518E+04  0.31093348518E+04  0.00000000000E+00 0. -1.
         -2   -1    0    0    0  501 -0.00000000000E+00 -0.00000000000E+00 -0.17436895786E+03  0.17436895786E+03  0.00000000000E+00 0.  1.
         23    2    1    2    0    0 -0.41060964172E+03  0.42839237752E+03  0.91224362065E+03  0.10920163946E+04  0.90504561314E+02 0.  0.
    5000000    2    1    2    0    0  0.41060964172E+03 -0.42839237752E+03  0.20227222733E+04  0.21916874151E+04  0.59997335236E+03 0.  0.
         23    2    4    4    0    0  0.36563832641E+03 -0.37935997185E+03  0.20050554440E+04  0.20753050378E+04  0.95069934327E+02 0.  0.
         23    2    4    4    0    0  0.44971315303E+02 -0.49032405670E+02  0.17666829314E+02  0.11638237730E+03  0.93841061810E+02 0.  0.
          5    1    3    3  502    0 -0.23463303496E+03  0.30152650438E+03  0.61421366523E+03  0.72336118951E+03  0.47000000000E+01 0. -1.
         -5    1    3    3    0  502 -0.17597660676E+03  0.12686587315E+03  0.29802995543E+03  0.36865520507E+03  0.47000000000E+01 0.  1.
         11    1    5    5    0    0  0.12992021346E+03 -0.74928335405E+02  0.59835744889E+03  0.61686720934E+03  0.00000000000E+00 0. -1.
        -11    1    5    5    0    0  0.23571811296E+03 -0.30443163645E+03  0.14066979951E+04  0.14584378284E+04  0.00000000000E+00 0.  1.
          2    1    6    6  503    0 -0.83755383334E+01 -0.22362289985E+02 -0.31191683713E+02  0.39282856167E+02  0.00000000000E+00 0.  1.
         -2    1    6    6    0  503  0.53346853637E+02 -0.26670115685E+02  0.48858513027E+02  0.77099521132E+02  0.00000000000E+00 0. -1.
<mgrwt>
<rscale>  0 0.60880103E+03</rscale>
<asrwt>0</asrwt>
<pdfrwt beam="1">  1        2 0.47835917E+00 0.60880103E+03</pdfrwt>
<pdfrwt beam="2">  1       -2 0.26825996E-01 0.60880103E+03</pdfrwt>
<totfact> 0.20415778E+01</totfact>
</mgrwt>
</event>
<event>
12    1  0.3147868E-008  0.5952342E+03  0.7818608E-02  0.9915343E-01
          2   -1    0    0  501    0  0.00000000000E+00  0.00000000000E+00  0.20201640010E+03  0.20201640010E+03  0.00000000000E+00 0. -1.
         -2   -1    0    0    0  501 -0.00000000000E+00 -0.00000000000E+00 -0.28012979613E+04  0.28012979613E+04  0.00000000000E+00 0.  1.
         23    2    1    2    0    0  0.28408770156E+03 -0.49744883941E+03 -0.16162361664E+04  0.17171657005E+04  0.90980917383E+02 0.  0.
    5000000    2    1    2    0    0 -0.28408770156E+03  0.49744883941E+03 -0.98304539476E+03  0.12861486609E+04  0.59969905761E+03 0.  0.
         23    2    4    4    0    0 -0.26243294777E+03  0.37773460757E+03 -0.23765378095E+03  0.52546798561E+03  0.89904385155E+02 0.  0.
         23    2    4    4    0    0 -0.21654753790E+02  0.11971423185E+03 -0.74539161381E+03  0.76068067527E+03  0.90697332456E+02 0.  0.
          5    1    3    3  502    0  0.14159432802E+03 -0.32554688668E+03 -0.10543909872E+04  0.11125610873E+04  0.47000000000E+01 0. -1.
         -5    1    3    3    0  502  0.14249337353E+03 -0.17190195274E+03 -0.56184517920E+03  0.60460461316E+03  0.47000000000E+01 0.  1.
         11    1    5    5    0    0 -0.79113859451E+02  0.13051263180E+03 -0.33834169744E+02  0.15632434506E+03  0.00000000000E+00 0. -1.
        -11    1    5    5    0    0 -0.18331908832E+03  0.24722197577E+03 -0.20381961121E+03  0.36914364055E+03  0.00000000000E+00 0.  1.
          2    1    6    6  503    0 -0.13777874497E+02 -0.12890917147E+02 -0.98436399486E+02  0.10022839076E+03  0.00000000000E+00 0. -1.
         -2    1    6    6    0  503 -0.78768792931E+01  0.13260514899E+03 -0.64695521432E+03  0.66045228451E+03  0.00000000000E+00 0.  1.
<mgrwt>
<rscale>  0 0.59523417E+03</rscale>
<asrwt>0</asrwt>
<pdfrwt beam="1">  1        2 0.31079447E-01 0.59523417E+03</pdfrwt>
<pdfrwt beam="2">  1       -2 0.43096891E+00 0.59523417E+03</pdfrwt>
<totfact> 0.86912251E-01</totfact>
</mgrwt>
</event>
<event>
12    1  0.3147868E-008  0.5312655E+03  0.7818608E-02  0.1005926E+00
         -1   -1    0    0    0  501 -0.00000000000E+00  0.00000000000E+00  0.22300671065E+03  0.22300671065E+03  0.00000000000E+00 0.  1.
          1   -1    0    0  501    0  0.00000000000E+00 -0.00000000000E+00 -0.31681487247E+04  0.31681487247E+04  0.00000000000E+00 0. -1.
         23    2    1    2    0    0 -0.44699059627E+02 -0.46970316699E+03 -0.16540818338E+03  0.50852635324E+03  0.92844567905E+02 0.  0.
    5000000    2    1    2    0    0  0.44699059627E+02  0.46970316699E+03 -0.27797338307E+04  0.28826290821E+04  0.60000932050E+03 0.  0.
         23    2    4    4    0    0  0.17694411985E+03  0.27628788018E+03 -0.24177184906E+04  0.24416135633E+04  0.92031942701E+02 0.  0.
         23    2    4    4    0    0 -0.13224506022E+03  0.19341528681E+03 -0.36201534008E+03  0.44101551881E+03  0.92419436586E+02 0.  0.
          5    1    3    3  502    0 -0.58990084253E+02 -0.44609138361E+03 -0.14153440132E+03  0.47173237045E+03  0.47000000000E+01 0. -1.
         -5    1    3    3    0  502  0.14291024626E+02 -0.23611783380E+02 -0.23873782059E+02  0.36793982783E+02  0.47000000000E+01 0.  1.
         11    1    5    5    0    0  0.15932055488E+03  0.17405944336E+03 -0.17648993079E+04  0.17806036325E+04  0.00000000000E+00 0.  1.
        -11    1    5    5    0    0  0.17623564968E+02  0.10222843682E+03 -0.65281918268E+03  0.66100993079E+03  0.00000000000E+00 0. -1.
          3    1    6    6  503    0 -0.13486944926E+03  0.15149926911E+03 -0.33320171518E+03  0.39008355500E+03  0.00000000000E+00 0. -1.
         -3    1    6    6    0  503  0.26243890402E+01  0.41916017704E+02 -0.28813624894E+02  0.50931963809E+02  0.00000000000E+00 0.  1.
<mgrwt>
<rscale>  0 0.53126548E+03</rscale>
<asrwt>0</asrwt>
<pdfrwt beam="1">  1        1 0.48740745E+00 0.53126548E+03</pdfrwt>
<pdfrwt beam="2">  1       -1 0.34308728E-01 0.53126548E+03</pdfrwt>
<totfact> 0.40756725E+00</totfact>
</mgrwt>
</event>
<event>
12    1  0.3147868E-008  0.7183738E+03  0.7818608E-02  0.9686316E-01
          2   -1    0    0  501    0  0.00000000000E+00  0.00000000000E+00  0.23305467108E+04  0.23305467108E+04  0.00000000000E+00 0. -1.
         -2   -1    0    0    0  501 -0.00000000000E+00 -0.00000000000E+00 -0.26259126928E+03  0.26259126928E+03  0.00000000000E+00 0.  1.
         23    2    1    2    0    0 -0.55980532395E+03  0.35403723412E+03  0.95336690406E+03  0.11648450581E+04  0.96079091108E+02 0.  0.
    5000000    2    1    2    0    0  0.55980532395E+03 -0.35403723412E+03  0.11145885374E+04  0.14282929219E+04  0.59915665670E+03 0.  0.
         23    2    4    4    0    0  0.31831301713E+03  0.17074789578E+02  0.83107232709E+03  0.89466145908E+03  0.90128731242E+02 0.  0.
         23    2    4    4    0    0  0.24149230682E+03 -0.37111202370E+03  0.28351621032E+03  0.53363146286E+03  0.91314994655E+02 0.  0.
          5    1    3    3  502    0 -0.13405411848E+03  0.44552500713E+02  0.17037663471E+03  0.22137235522E+03  0.47000000000E+01 0. -1.
         -5    1    3    3    0  502 -0.42575120547E+03  0.30948473341E+03  0.78299026935E+03  0.94347270288E+03  0.47000000000E+01 0.  1.
         13    1    5    5    0    0  0.14226311064E+03 -0.40548460691E+01  0.25633724394E+03  0.29319620915E+03  0.00000000000E+00 0.  1.
        -13    1    5    5    0    0  0.17604990649E+03  0.21129635647E+02  0.57473508315E+03  0.60146524993E+03  0.00000000000E+00 0. -1.
          4    1    6    6  503    0  0.18195949360E+03 -0.21124273545E+03  0.14729441402E+03  0.31532268392E+03  0.00000000000E+00 0. -1.
         -4    1    6    6    0  503  0.59532813225E+02 -0.15986928825E+03  0.13622179630E+03  0.21830877894E+03  0.00000000000E+00 0.  1.
<mgrwt>
<rscale>  0 0.71837384E+03</rscale>
<asrwt>0</asrwt>
<pdfrwt beam="1">  1        2 0.35854563E+00 0.71837384E+03</pdfrwt>
<pdfrwt beam="2">  1       -2 0.40398658E-01 0.71837384E+03</pdfrwt>
<totfact> 0.26402845E+01</totfact>
</mgrwt>
</event>
<event>
12    1  0.3249683E-008  0.7819522E+03  0.7818608E-02  0.9586514E-01
          2   -1    0    0  501    0  0.00000000000E+00  0.00000000000E+00  0.12780051613E+04  0.12780051613E+04  0.00000000000E+00 0. -1.
         -2   -1    0    0    0  501 -0.00000000000E+00 -0.00000000000E+00 -0.48992224269E+03  0.48992224269E+03  0.00000000000E+00 0.  1.
         23    2    1    2    0    0  0.66381101606E+03  0.49611166239E+02  0.22176184856E+03  0.70775093388E+03  0.92880213543E+02 0.  0.
    5000000    2    1    2    0    0 -0.66381101606E+03 -0.49611166239E+02  0.56632107002E+03  0.10601764701E+04  0.60012353771E+03 0.  0.
         23    2    4    4    0    0 -0.69147627074E+03  0.11179703544E+03  0.41044757139E+03  0.81712193354E+03  0.92644672135E+02 0.  0.
         23    2    4    4    0    0  0.27665254682E+02 -0.16140820168E+03  0.15587349862E+03  0.24305453654E+03  0.89224359195E+02 0.  0.
          5    1    3    3  502    0  0.39530158220E+03  0.72673237759E+02  0.11782951215E+03  0.41886826606E+03  0.47000000000E+01 0. -1.
         -5    1    3    3    0  502  0.26850943386E+03 -0.23062071520E+02  0.10393233641E+03  0.28888266782E+03  0.47000000000E+01 0.  1.
         11    1    5    5    0    0 -0.44569237985E+03  0.26830207065E+02  0.25989746485E+03  0.51663163831E+03  0.00000000000E+00 0. -1.
        -11    1    5    5    0    0 -0.24578389089E+03  0.84966828378E+02  0.15055010654E+03  0.30049029523E+03  0.00000000000E+00 0.  1.
          3    1    6    6  503    0 -0.11821931642E+02 -0.14083670540E+03  0.10969329616E+03  0.17890599453E+03  0.00000000000E+00 0. -1.
         -3    1    6    6    0  503  0.39487186324E+02 -0.20571496282E+02  0.46180202458E+02  0.64148542011E+02  0.00000000000E+00 0.  1.
<mgrwt>
<rscale>  0 0.78195216E+03</rscale>
<asrwt>0</asrwt>
<pdfrwt beam="1">  1        2 0.19661618E+00 0.78195216E+03</pdfrwt>
<pdfrwt beam="2">  1       -2 0.75372653E-01 0.78195216E+03</pdfrwt>
<totfact> 0.27336810E+01</totfact>
</mgrwt>
</event>
<event>
12    1  0.3147868E-008  0.3717506E+03  0.7818608E-02  0.1054026E+00
          3   -1    0    0  501    0  0.00000000000E+00  0.00000000000E+00  0.11915901961E+03  0.11915901961E+03  0.00000000000E+00 0. -1.
         -3   -1    0    0    0  501 -0.00000000000E+00 -0.00000000000E+00 -0.22517892174E+04  0.22517892174E+04  0.00000000000E+00 0.  1.
         23    2    1    2    0    0  0.31620664525E+03 -0.90552835699E+02 -0.55931885049E+03  0.65529836957E+03  0.91607412876E+02 0.  0.
    5000000    2    1    2    0    0 -0.31620664525E+03  0.90552835699E+02 -0.15733113473E+04  0.17156498674E+04  0.59996617700E+03 0.  0.
         23    2    4    4    0    0 -0.32340225698E+03  0.10473617077E+03 -0.15849899489E+04  0.16238036712E+04  0.94797357732E+02 0.  0.
         23    2    4    4    0    0  0.71956117368E+01 -0.14183335073E+02  0.11678601657E+02  0.91846196234E+02  0.89701673362E+02 0.  0.
          5    1    3    3  502    0  0.23753190680E+03 -0.10651335044E+03 -0.40947904014E+03  0.48524393339E+03  0.47000000000E+01 0. -1.
         -5    1    3    3    0  502  0.78674738448E+02  0.15960514745E+02 -0.14983981035E+03  0.17005443618E+03  0.47000000000E+01 0.  1.
         11    1    5    5    0    0 -0.67211615767E+02  0.62743668484E+02 -0.47995116198E+03  0.48867912490E+03  0.00000000000E+00 0. -1.
        -11    1    5    5    0    0 -0.25619064122E+03  0.41992502287E+02 -0.11050387869E+04  0.11351245463E+04  0.00000000000E+00 0.  1.
          3    1    6    6  503    0 -0.18712696549E+02 -0.16774312824E+02  0.43799919576E+02  0.50497282478E+02  0.00000000000E+00 0. -1.
         -3    1    6    6    0  503  0.25908308286E+02  0.25909777511E+01 -0.32121317919E+02  0.41348913756E+02  0.00000000000E+00 0.  1.
<mgrwt>
<rscale>  0 0.37175060E+03</rscale>
<asrwt>0</asrwt>
<pdfrwt beam="1">  1        3 0.18332157E-01 0.37175060E+03</pdfrwt>
<pdfrwt beam="2">  1       -3 0.34642910E+00 0.37175060E+03</pdfrwt>
<totfact> 0.15771502E+00</totfact>
</mgrwt>
</event>
<event>
12    1  0.3147868E-008  0.7647122E+03  0.7818608E-02  0.9612548E-01
          1   -1    0    0  501    0  0.00000000000E+00  0.00000000000E+00  0.13909197195E+04  0.13909197195E+04  0.00000000000E+00 0. -1.
         -1   -1    0    0    0  501 -0.00000000000E+00 -0.00000000000E+00 -0.47943942368E+03  0.47943942368E+03  0.00000000000E+00 0.  1.
         23    2    1    2    0    0  0.53447968247E+03 -0.37766770773E+03  0.10140178305E+03  0.66847478590E+03  0.90965869138E+02 0.  0.
    5000000    2    1    2    0    0 -0.53447968247E+03  0.37766770773E+03  0.81007851279E+03  0.12018843573E+04  0.59999781916E+03 0.  0.
         23    2    4    4    0    0 -0.23523907360E+03  0.48861929420E+03  0.44154247373E+03  0.70609006035E+03  0.97556039349E+02 0.  0.
         23    2    4    4    0    0 -0.29924060887E+03 -0.11095158647E+03  0.36853603906E+03  0.49579429694E+03  0.90210732507E+02 0.  0.
          5    1    3    3  502    0  0.26224219595E+03 -0.14364008626E+03  0.16246732597E+02  0.29948203625E+03  0.47000000000E+01 0. -1.
         -5    1    3    3    0  502  0.27223748652E+03 -0.23402762147E+03  0.85155050452E+02  0.36899274965E+03  0.47000000000E+01 0.  1.
         13    1    5    5    0    0 -0.14449720896E+03  0.27121015745E+03  0.18923056558E+03  0.36089139620E+03  0.00000000000E+00 0.  1.
        -13    1    5    5    0    0 -0.90741864641E+02  0.21740913675E+03  0.25231190815E+03  0.34519866415E+03  0.00000000000E+00 0. -1.
          2    1    6    6  503    0 -0.31924628039E+02  0.12157331538E+02  0.62394690770E+02  0.71134239448E+02  0.00000000000E+00 0. -1.
         -2    1    6    6    0  503 -0.26731598083E+03 -0.12310891800E+03  0.30614134829E+03  0.42466005750E+03  0.00000000000E+00 0.  1.
<mgrwt>
<rscale>  0 0.76471221E+03</rscale>
<asrwt>0</asrwt>
<pdfrwt beam="1">  1        1 0.21398765E+00 0.76471221E+03</pdfrwt>
<pdfrwt beam="2">  1       -1 0.73759912E-01 0.76471221E+03</pdfrwt>
<totfact> 0.14908456E+01</totfact>
</mgrwt>
</event>
<event>
12    1  0.3147868E-008  0.7988462E+03  0.7818608E-02  0.9561689E-01
          2   -1    0    0  501    0  0.00000000000E+00  0.00000000000E+00  0.74585725640E+03  0.74585725640E+03  0.00000000000E+00 0. -1.
         -2   -1    0    0    0  501 -0.00000000000E+00 -0.00000000000E+00 -0.15133644830E+04  0.15133644830E+04  0.00000000000E+00 0.  1.
         23    2    1    2    0    0 -0.64003554125E+03  0.42663617298E+03 -0.99175528126E+03  0.12582330148E+04  0.88926169034E+02 0.  0.
    5000000    2    1    2    0    0  0.64003554125E+03 -0.42663617298E+03  0.22424805470E+03  0.10009887245E+04  0.60002276496E+03 0.  0.
         23    2    4    4    0    0  0.54701328909E+03 -0.22121247120E+03  0.38458688945E+03  0.70964537928E+03  0.86781293699E+02 0.  0.
         23    2    4    4    0    0  0.93022252161E+02 -0.20542370177E+03 -0.16033883475E+03  0.29134334526E+03  0.91216041645E+02 0.  0.
          5    1    3    3  502    0 -0.25343183911E+03  0.20864678243E+03 -0.37559744882E+03  0.49885540035E+03  0.47000000000E+01 0. -1.
         -5    1    3    3    0  502 -0.38660370214E+03  0.21798939054E+03 -0.61615783244E+03  0.75937761448E+03  0.47000000000E+01 0.  1.
         13    1    5    5    0    0  0.51039647791E+03 -0.19267908520E+03  0.32843032227E+03  0.63678589111E+03  0.00000000000E+00 0. -1.
        -13    1    5    5    0    0  0.36616811180E+02 -0.28533386000E+02  0.56156567184E+02  0.72859488164E+02  0.00000000000E+00 0.  1.
          4    1    6    6  503    0 -0.60202600717E+00 -0.63716070293E+02 -0.83219073886E+02  0.10481180424E+03  0.00000000000E+00 0. -1.
         -4    1    6    6    0  503  0.93624278168E+02 -0.14170763148E+03 -0.77119760864E+02  0.18653154103E+03  0.00000000000E+00 0.  1.
<mgrwt>
<rscale>  0 0.79884622E+03</rscale>
<asrwt>0</asrwt>
<pdfrwt beam="1">  1        2 0.11474727E+00 0.79884622E+03</pdfrwt>
<pdfrwt beam="2">  1       -2 0.23282530E+00 0.79884622E+03</pdfrwt>
<totfact> 0.31639068E+00</totfact>
</mgrwt>
</event>
<event>
12    1  0.3147868E-008  0.1610923E+04  0.7818608E-02  0.8813866E-01
         -2   -1    0    0    0  501 -0.00000000000E+00  0.00000000000E+00  0.96704921946E+03  0.96704921946E+03  0.00000000000E+00 0.  1.
          2   -1    0    0  501    0  0.00000000000E+00 -0.00000000000E+00 -0.29347201366E+04  0.29347201366E+04  0.00000000000E+00 0. -1.
         23    2    1    2    0    0  0.15351568326E+04  0.27613677878E+03 -0.40573919442E+03  0.16142755345E+04  0.91121820012E+02 0.  0.
    5000000    2    1    2    0    0 -0.15351568326E+04 -0.27613677878E+03 -0.15619317227E+04  0.22874938215E+04  0.60003271230E+03 0.  0.
         23    2    4    4    0    0 -0.13768275399E+04 -0.41209871448E+03 -0.13070637490E+04  0.19448846045E+04  0.93172184264E+02 0.  0.
         23    2    4    4    0    0 -0.15832929276E+03  0.13596193570E+03 -0.25486797375E+03  0.34260921706E+03  0.94178440547E+02 0.  0.
          5    1    3    3  502    0  0.47563821464E+03  0.69674711427E+02 -0.16531762654E+03  0.50836825657E+03  0.47000000000E+01 0. -1.
         -5    1    3    3    0  502  0.10595186180E+04  0.20646206735E+03 -0.24042156788E+03  0.11059072779E+04  0.47000000000E+01 0.  1.
         13    1    5    5    0    0 -0.84185746654E+02 -0.33754417228E+02 -0.11322404410E+03  0.14507337724E+03  0.00000000000E+00 0.  1.
        -13    1    5    5    0    0 -0.12926417932E+04 -0.37834429725E+03 -0.11938397049E+04  0.17998112272E+04  0.00000000000E+00 0. -1.
          3    1    6    6  503    0 -0.14588316511E+03  0.79257840287E+02 -0.21728095021E+03  0.27344965613E+03  0.00000000000E+00 0. -1.
         -3    1    6    6    0  503 -0.12446127651E+02  0.56704095410E+02 -0.37587023536E+02  0.69159560931E+02  0.00000000000E+00 0.  1.
<mgrwt>
<rscale>  0 0.16109228E+04</rscale>
<asrwt>0</asrwt>
<pdfrwt beam="1">  1        2 0.45149540E+00 0.16109228E+04</pdfrwt>
<pdfrwt beam="2">  1       -2 0.14877680E+00 0.16109228E+04</pdfrwt>
<totfact> 0.54816563E-01</totfact>
</mgrwt>
</event>
<event>
12    1  0.3147868E-008  0.1219499E+04  0.7818608E-02  0.9095958E-01
          1   -1    0    0  501    0  0.00000000000E+00  0.00000000000E+00  0.18981565526E+04  0.18981565526E+04  0.00000000000E+00 0. -1.
         -1   -1    0    0    0  501 -0.00000000000E+00 -0.00000000000E+00 -0.89444799885E+03  0.89444799885E+03  0.00000000000E+00 0.  1.
         23    2    1    2    0    0 -0.12005626823E+04 -0.60440676927E+02  0.18586094871E+03  0.12197203637E+04  0.90386081570E+02 0.  0.
    5000000    2    1    2    0    0  0.12005626823E+04  0.60440676927E+02  0.81784760502E+03  0.15728841878E+04  0.60007177370E+03 0.  0.
         23    2    4    4    0    0  0.93660478373E+03  0.11209850224E+03  0.86460105404E+03  0.12834981170E+04  0.10018901369E+03 0.  0.
         23    2    4    4    0    0  0.26395789855E+03 -0.51657825311E+02 -0.46753449019E+02  0.28938607082E+03  0.96000572219E+02 0.  0.
          5    1    3    3  502    0 -0.72890020754E+03  0.70314538772E+01  0.10753671653E+03  0.73683864536E+03  0.47000000000E+01 0. -1.
         -5    1    3    3    0  502 -0.47166247474E+03 -0.67472130804E+02  0.78324232184E+02  0.48288171829E+03  0.47000000000E+01 0.  1.
         13    1    5    5    0    0  0.31313866365E+03 -0.82374236119E+01  0.30271211531E+03  0.43561256017E+03  0.00000000000E+00 0.  1.
        -13    1    5    5    0    0  0.62346612008E+03  0.12033592585E+03  0.56188893873E+03  0.84788555679E+03  0.00000000000E+00 0. -1.
          3    1    6    6  503    0  0.43467167708E+02  0.27081530700E+02 -0.38362545261E+01  0.51356799184E+02  0.00000000000E+00 0. -1.
         -3    1    6    6    0  503  0.22049073084E+03 -0.78739356011E+02 -0.42917194493E+02  0.23802927164E+03  0.00000000000E+00 0.  1.
<mgrwt>
<rscale>  0 0.12194990E+04</rscale>
<asrwt>0</asrwt>
<pdfrwt beam="1">  1        1 0.29202408E+00 0.12194990E+04</pdfrwt>
<pdfrwt beam="2">  1       -1 0.13760739E+00 0.12194990E+04</pdfrwt>
<totfact> 0.15022853E+00</totfact>
</mgrwt>
</event>
<event>
12    1  0.3147868E-008  0.6028642E+03  0.7818608E-02  0.9899481E-01
          2   -1    0    0  501    0  0.00000000000E+00  0.00000000000E+00  0.64974360539E+03  0.64974360539E+03  0.00000000000E+00 0. -1.
         -2   -1    0    0    0  501 -0.00000000000E+00 -0.00000000000E+00 -0.58765802836E+03  0.58765802836E+03  0.00000000000E+00 0.  1.
         23    2    1    2    0    0 -0.45827584118E+03  0.85895462344E+02  0.43619107157E+02  0.47724172603E+03  0.91990551105E+02 0.  0.
    5000000    2    1    2    0    0  0.45827584118E+03 -0.85895462344E+02  0.18466469865E+02  0.76015990772E+03  0.60008940812E+03 0.  0.
         23    2    4    4    0    0  0.54972486033E+03  0.65115016295E+02 -0.18669009444E+02  0.56151990101E+03  0.92296695018E+02 0.  0.
         23    2    4    4    0    0 -0.91449019144E+02 -0.15101047864E+03  0.37135479309E+02  0.19864000671E+03  0.83136758899E+02 0.  0.
          5    1    3    3  502    0 -0.33282362913E+03  0.93808997068E+02  0.57333471985E+01  0.34587086797E+03  0.47000000000E+01 0. -1.
         -5    1    3    3    0  502 -0.12545221205E+03 -0.79135347245E+01  0.37885759958E+02  0.13137085806E+03  0.47000000000E+01 0.  1.
         13    1    5    5    0    0  0.47782840138E+03  0.78981365334E+02 -0.37967859719E+02  0.48579789584E+03  0.00000000000E+00 0. -1.
        -13    1    5    5    0    0  0.71896458947E+02 -0.13866349040E+02  0.19298850274E+02  0.75722005168E+02  0.00000000000E+00 0.  1.
          1    1    6    6  503    0 -0.62980139686E+02 -0.10732228158E+03 -0.14470745844E+02  0.12527558662E+03  0.00000000000E+00 0. -1.
         -1    1    6    6    0  503 -0.28468879458E+02 -0.43688197058E+02  0.51606225153E+02  0.73364420085E+02  0.00000000000E+00 0.  1.
<mgrwt>
<rscale>  0 0.60286421E+03</rscale>
<asrwt>0</asrwt>
<pdfrwt beam="1">  1        2 0.99960554E-01 0.60286421E+03</pdfrwt>
<pdfrwt beam="2">  1       -2 0.90408928E-01 0.60286421E+03</pdfrwt>
<totfact> 0.48218425E+01</totfact>
</mgrwt>
</event>
<event>
12    1  0.3147868E-008  0.5015947E+03  0.7818608E-02  0.1013364E+00
          1   -1    0    0  501    0  0.00000000000E+00  0.00000000000E+00  0.81857570093E+03  0.81857570093E+03  0.00000000000E+00 0. -1.
         -1   -1    0    0    0  501 -0.00000000000E+00 -0.00000000000E+00 -0.42646740609E+03  0.42646740609E+03  0.00000000000E+00 0.  1.
         23    2    1    2    0    0  0.15382246451E+03 -0.32170335882E+03 -0.11188307261E+03  0.38413603547E+03  0.88815934054E+02 0.  0.
    5000000    2    1    2    0    0 -0.15382246451E+03  0.32170335882E+03  0.50399136745E+03  0.86090707155E+03  0.59999940477E+03 0.  0.
         23    2    4    4    0    0 -0.13487819008E+03 -0.11975044920E+03  0.31126728634E+03  0.37060597605E+03  0.89045885332E+02 0.  0.
         23    2    4    4    0    0 -0.18944274423E+02  0.44145380803E+03  0.19272408111E+03  0.49030109550E+03  0.89511131460E+02 0.  0.
          5    1    3    3  502    0  0.10672456505E+03 -0.27802029180E+03 -0.11591873778E+03  0.31960078099E+03  0.47000000000E+01 0. -1.
         -5    1    3    3    0  502  0.47097899453E+02 -0.43683067017E+02  0.40356651668E+01  0.64535254475E+02  0.47000000000E+01 0.  1.
         11    1    5    5    0    0 -0.12398963554E+03 -0.61144808174E+02  0.24622567241E+03  0.28238130080E+03  0.00000000000E+00 0.  1.
        -11    1    5    5    0    0 -0.10888554544E+02 -0.58605641031E+02  0.65041613936E+02  0.88224675256E+02  0.00000000000E+00 0. -1.
          2    1    6    6  503    0  0.89040891429E+01  0.16339103887E+03  0.28296084882E+02  0.16606198483E+03  0.00000000000E+00 0. -1.
         -2    1    6    6    0  503 -0.27848363566E+02  0.27806276916E+03  0.16442799623E+03  0.32423911067E+03  0.00000000000E+00 0.  1.
<mgrwt>
<rscale>  0 0.50159472E+03</rscale>
<asrwt>0</asrwt>
<pdfrwt beam="1">  1        1 0.12593472E+00 0.50159472E+03</pdfrwt>
<pdfrwt beam="2">  1       -1 0.65610370E-01 0.50159472E+03</pdfrwt>
<totfact> 0.52766095E+01</totfact>
</mgrwt>
</event>
<event>
12    1  0.3147868E-008  0.1018422E+04  0.7818608E-02  0.9288567E-01
         -1   -1    0    0    0  501 -0.00000000000E+00  0.00000000000E+00  0.88072159342E+03  0.88072159342E+03  0.00000000000E+00 0.  1.
          1   -1    0    0  501    0  0.00000000000E+00 -0.00000000000E+00 -0.22713585644E+04  0.22713585644E+04  0.00000000000E+00 0. -1.
         23    2    1    2    0    0 -0.93598484441E+03  0.27442576153E+02  0.41748119957E+03  0.10293035141E+04  0.91402670326E+02 0.  0.
    5000000    2    1    2    0    0  0.93598484441E+03 -0.27442576153E+02 -0.18081181705E+04  0.21227766437E+04  0.60005719448E+03 0.  0.
         23    2    4    4    0    0 -0.52530507983E+02  0.46824168032E+02 -0.19003776755E+03  0.22289017126E+03  0.92810119969E+02 0.  0.
         23    2    4    4    0    0  0.98851535239E+03 -0.74266744185E+02 -0.16180804030E+04  0.18998864725E+04  0.93307376912E+02 0.  0.
          5    1    3    3  502    0 -0.15926596528E+03 -0.21652227431E+02  0.95700633841E+02  0.18712340304E+03  0.47000000000E+01 0. -1.
         -5    1    3    3    0  502 -0.77671887913E+03  0.49094803584E+02  0.32178056573E+03  0.84218011103E+03  0.47000000000E+01 0.  1.
         11    1    5    5    0    0 -0.28167216841E+02  0.67288913382E+02 -0.17075888087E+03  0.18568733227E+03  0.00000000000E+00 0. -1.
        -11    1    5    5    0    0 -0.24363291142E+02 -0.20464745350E+02 -0.19278886680E+02  0.37202838993E+02  0.00000000000E+00 0.  1.
          1    1    6    6  503    0  0.63588201516E+03 -0.19861388772E+02 -0.96852543551E+03  0.11587846785E+04  0.00000000000E+00 0. -1.
         -1    1    6    6    0  503  0.35263333723E+03 -0.54405355413E+02 -0.64955496746E+03  0.74110179393E+03  0.00000000000E+00 0.  1.
<mgrwt>
<rscale>  0 0.10184224E+04</rscale>
<asrwt>0</asrwt>
<pdfrwt beam="1">  1        1 0.34943978E+00 0.10184224E+04</pdfrwt>
<pdfrwt beam="2">  1       -1 0.13549563E+00 0.10184224E+04</pdfrwt>
<totfact> 0.89898616E-01</totfact>
</mgrwt>
</event>
<event>
12    1  0.3147868E-008  0.5493901E+03  0.7818608E-02  0.1001635E+00
          2   -1    0    0  501    0  0.00000000000E+00  0.00000000000E+00  0.18268180348E+04  0.18268180348E+04  0.00000000000E+00 0. -1.
         -2   -1    0    0    0  501 -0.00000000000E+00 -0.00000000000E+00 -0.18960031605E+03  0.18960031605E+03  0.00000000000E+00 0.  1.
         23    2    1    2    0    0 -0.35904643402E+03 -0.17152497285E+03  0.88661421741E+03  0.97636347612E+03  0.94157893406E+02 0.  0.
    5000000    2    1    2    0    0  0.35904643402E+03  0.17152497285E+03  0.75060350137E+03  0.10400548748E+04  0.59997780639E+03 0.  0.
         23    2    4    4    0    0  0.50796521886E+03  0.10858176441E+03  0.48592947173E+03  0.71699795969E+03  0.90221724463E+02 0.  0.
         23    2    4    4    0    0 -0.14891878483E+03  0.62943208440E+02  0.26467402964E+03  0.32305691508E+03  0.90414470369E+02 0.  0.
          5    1    3    3  502    0 -0.17355003395E+03 -0.54477535942E+02  0.49648936149E+03  0.52878274582E+03  0.47000000000E+01 0. -1.
         -5    1    3    3    0  502 -0.18549640007E+03 -0.11704743691E+03  0.39012485592E+03  0.44758073030E+03  0.47000000000E+01 0.  1.
         13    1    5    5    0    0  0.20608816699E+03  0.89297543441E+02  0.19942853254E+03  0.30036331904E+03  0.00000000000E+00 0. -1.
        -13    1    5    5    0    0  0.30187705187E+03  0.19284220970E+02  0.28650093920E+03  0.41663464064E+03  0.00000000000E+00 0.  1.
          3    1    6    6  503    0 -0.12892806891E+03  0.30916384192E+02  0.14010708507E+03  0.19289444018E+03  0.00000000000E+00 0. -1.
         -3    1    6    6    0  503 -0.19990715922E+02  0.32026824248E+02  0.12456694456E+03  0.13016247490E+03  0.00000000000E+00 0.  1.
<mgrwt>
<rscale>  0 0.54939006E+03</rscale>
<asrwt>0</asrwt>
<pdfrwt beam="1">  1        2 0.28104892E+00 0.54939006E+03</pdfrwt>
<pdfrwt beam="2">  1       -2 0.29169281E-01 0.54939006E+03</pdfrwt>
<totfact> 0.94401120E+01</totfact>
</mgrwt>
</event>
<event>
12    1  0.3147868E-008  0.7673937E+03  0.7818608E-02  0.9608451E-01
          2   -1    0    0  501    0  0.00000000000E+00  0.00000000000E+00  0.23135693427E+04  0.23135693427E+04  0.00000000000E+00 0. -1.
         -2   -1    0    0    0  501 -0.00000000000E+00 -0.00000000000E+00 -0.29430906576E+03  0.29430906576E+03  0.00000000000E+00 0.  1.
         23    2    1    2    0    0  0.65422269917E+03  0.95039948418E+02  0.13019273078E+04  0.14629892251E+04  0.91010032098E+02 0.  0.
    5000000    2    1    2    0    0 -0.65422269917E+03 -0.95039948418E+02  0.71733296913E+03  0.11448891834E+04  0.59930353056E+03 0.  0.
         23    2    4    4    0    0 -0.47338248987E+02 -0.23181426229E+03  0.28484511122E+03  0.38185238272E+03  0.93250966668E+02 0.  0.
         23    2    4    4    0    0 -0.60688445018E+03  0.13677431387E+03  0.43248785791E+03  0.76303680067E+03  0.90351885060E+02 0.  0.
          5    1    3    3  502    0  0.29569730339E+03  0.67666171675E+02  0.67955060222E+03  0.74419534868E+03  0.47000000000E+01 0. -1.
         -5    1    3    3    0  502  0.35852539578E+03  0.27373776743E+02  0.62237670561E+03  0.71879387641E+03  0.47000000000E+01 0.  1.
         13    1    5    5    0    0 -0.49839809888E+01 -0.16317111461E+03  0.23790982025E+03  0.28853203510E+03  0.00000000000E+00 0.  1.
        -13    1    5    5    0    0 -0.42354267998E+02 -0.68643147678E+02  0.46935290974E+02  0.93320347619E+02  0.00000000000E+00 0. -1.
          3    1    6    6  503    0 -0.21635957018E+03  0.73212049984E+01  0.13181493761E+03  0.25345658687E+03  0.00000000000E+00 0. -1.
         -3    1    6    6    0  503 -0.39052488000E+03  0.12945310887E+03  0.30067292029E+03  0.50958021380E+03  0.00000000000E+00 0.  1.
<mgrwt>
<rscale>  0 0.76739368E+03</rscale>
<asrwt>0</asrwt>
<pdfrwt beam="1">  1        2 0.35593373E+00 0.76739368E+03</pdfrwt>
<pdfrwt beam="2">  1       -2 0.45278319E-01 0.76739368E+03</pdfrwt>
<totfact> 0.21391047E+01</totfact>
</mgrwt>
</event>
<event>
12    1  0.3147868E-008  0.5391044E+03  0.7818608E-02  0.1004048E+00
          2   -1    0    0  501    0  0.00000000000E+00  0.00000000000E+00  0.11979225138E+04  0.11979225138E+04  0.00000000000E+00 0. -1.
         -2   -1    0    0    0  501 -0.00000000000E+00 -0.00000000000E+00 -0.25129709941E+03  0.25129709941E+03  0.00000000000E+00 0.  1.
         23    2    1    2    0    0 -0.57982686677E+02 -0.37083739949E+03  0.38163131039E+03  0.54359651044E+03  0.94722438082E+02 0.  0.
    5000000    2    1    2    0    0  0.57982686677E+02  0.37083739949E+03  0.56499410400E+03  0.90562310276E+03  0.60004374665E+03 0.  0.
         23    2    4    4    0    0  0.14755443017E+03 -0.11360416318E+03  0.17174668765E+03  0.26941374806E+03  0.91698566889E+02 0.  0.
         23    2    4    4    0    0 -0.89571743492E+02  0.48444156267E+03  0.39324741635E+03  0.63620935471E+03  0.86093482200E+02 0.  0.
          5    1    3    3  502    0  0.11259673533E+02 -0.38835556862E+02  0.79723580338E+02  0.89514914884E+02  0.47000000000E+01 0. -1.
         -5    1    3    3    0  502 -0.69242360210E+02 -0.33200184263E+03  0.30190773005E+03  0.45408159555E+03  0.47000000000E+01 0.  1.
         13    1    5    5    0    0  0.12876789787E+03 -0.51709955793E+02  0.90938479185E+02  0.16590629297E+03  0.00000000000E+00 0.  1.
        -13    1    5    5    0    0  0.18786532300E+02 -0.61894207389E+02  0.80808208464E+02  0.10350745509E+03  0.00000000000E+00 0. -1.
          4    1    6    6  503    0 -0.39822245353E+02  0.10695999584E+03  0.54043341185E+02  0.12628117303E+03  0.00000000000E+00 0. -1.
         -4    1    6    6    0  503 -0.49749498140E+02  0.37748156682E+03  0.33920407517E+03  0.50992818168E+03  0.00000000000E+00 0.  1.
<mgrwt>
<rscale>  0 0.53910444E+03</rscale>
<asrwt>0</asrwt>
<pdfrwt beam="1">  1        2 0.18429577E+00 0.53910444E+03</pdfrwt>
<pdfrwt beam="2">  1       -2 0.38661093E-01 0.53910444E+03</pdfrwt>
<totfact> 0.12407905E+02</totfact>
</mgrwt>
</event>
<event>
12    1  0.3147868E-008  0.1299672E+04  0.7818608E-02  0.9029825E-01
          1   -1    0    0  501    0  0.00000000000E+00  0.00000000000E+00  0.15606923129E+04  0.15606923129E+04  0.00000000000E+00 0. -1.
         -1   -1    0    0    0  501 -0.00000000000E+00 -0.00000000000E+00 -0.16678856162E+04  0.16678856162E+04  0.00000000000E+00 0.  1.
         23    2    1    2    0    0  0.12080527559E+04  0.39872632331E+03  0.84512909673E+03  0.15299840358E+04  0.90740387173E+02 0.  0.
    5000000    2    1    2    0    0 -0.12080527559E+04 -0.39872632331E+03 -0.95232240005E+03  0.16985938932E+04  0.59994092926E+03 0.  0.
         23    2    4    4    0    0 -0.11587000112E+04 -0.38635687027E+03 -0.10021208113E+04  0.15825221599E+04  0.90955588569E+02 0.  0.
         23    2    4    4    0    0 -0.49352744719E+02 -0.12369453048E+02  0.49798411262E+02  0.11607173332E+03  0.91673707962E+02 0.  0.
          5    1    3    3  502    0  0.60402078490E+03  0.24149473605E+03  0.45629924752E+03  0.79460173006E+03  0.47000000000E+01 0. -1.
         -5    1    3    3    0  502  0.60403197099E+03  0.15723158727E+03  0.38882984921E+03  0.73538230578E+03  0.47000000000E+01 0.  1.
         11    1    5    5    0    0 -0.34042437231E+03 -0.15574307355E+03 -0.32225678000E+03  0.49395757964E+03  0.00000000000E+00 0.  1.
        -11    1    5    5    0    0 -0.81827563886E+03 -0.23061379672E+03 -0.67986403131E+03  0.10885645803E+04  0.00000000000E+00 0. -1.
          2    1    6    6  503    0 -0.47447750281E+02 -0.46212374116E+02  0.15861446288E+02  0.68106225902E+02  0.00000000000E+00 0. -1.
         -2    1    6    6    0  503 -0.19049944379E+01  0.33842921068E+02  0.33936964973E+02  0.47965507418E+02  0.00000000000E+00 0.  1.
<mgrwt>
<rscale>  0 0.12996720E+04</rscale>
<asrwt>0</asrwt>
<pdfrwt beam="1">  1        1 0.24010651E+00 0.12996720E+04</pdfrwt>
<pdfrwt beam="2">  1       -1 0.25659779E+00 0.12996720E+04</pdfrwt>
<totfact> 0.36307035E-01</totfact>
</mgrwt>
</event>
<event>
12    1  0.3147868E-008  0.8023049E+03  0.7818608E-02  0.9556687E-01
         -2   -1    0    0    0  501 -0.00000000000E+00  0.00000000000E+00  0.31708889942E+03  0.31708889942E+03  0.00000000000E+00 0.  1.
          2   -1    0    0  501    0  0.00000000000E+00 -0.00000000000E+00 -0.21649297490E+04  0.21649297490E+04  0.00000000000E+00 0. -1.
         23    2    1    2    0    0  0.65236794317E+03  0.24495775563E+03 -0.55368757119E+03  0.89441921795E+03  0.88473587220E+02 0.  0.
    5000000    2    1    2    0    0 -0.65236794317E+03 -0.24495775563E+03 -0.12941532783E+04  0.15875994304E+04  0.60004250540E+03 0.  0.
         23    2    4    4    0    0  0.87539316539E+02 -0.10416762281E+03 -0.19340679785E+03  0.25071397589E+03  0.83290351585E+02 0.  0.
         23    2    4    4    0    0 -0.73990725971E+03 -0.14079013281E+03 -0.11007464805E+04  0.13368854545E+04  0.91297807988E+02 0.  0.
          5    1    3    3  502    0  0.30938534935E+03  0.16184435596E+03 -0.28850617585E+03  0.45295782745E+03  0.47000000000E+01 0. -1.
         -5    1    3    3    0  502  0.34298259381E+03  0.83113399672E+02 -0.26518139534E+03  0.44146139050E+03  0.47000000000E+01 0.  1.
         13    1    5    5    0    0  0.60336919411E+02 -0.10286481976E+03 -0.10736399459E+03  0.16046414653E+03  0.00000000000E+00 0. -1.
        -13    1    5    5    0    0  0.27202397128E+02 -0.13028030537E+01 -0.86042803263E+02  0.90249829355E+02  0.00000000000E+00 0.  1.
          2    1    6    6  503    0 -0.20569012247E+03 -0.96776170185E+01 -0.35188807994E+03  0.40770982764E+03  0.00000000000E+00 0.  1.
         -2    1    6    6    0  503 -0.53421713724E+03 -0.13111251580E+03 -0.74885840056E+03  0.92917562689E+03  0.00000000000E+00 0. -1.
<mgrwt>
<rscale>  0 0.80230488E+03</rscale>
<asrwt>0</asrwt>
<pdfrwt beam="1">  1        2 0.33306610E+00 0.80230488E+03</pdfrwt>
<pdfrwt beam="2">  1       -2 0.48782909E-01 0.80230488E+03</pdfrwt>
<totfact> 0.22146487E+01</totfact>
</mgrwt>
</event>
<event>
12    1  0.3147868E-008  0.5917313E+03  0.7818608E-02  0.9922711E-01
         -2   -1    0    0    0  501 -0.00000000000E+00  0.00000000000E+00  0.81487766444E+03  0.81487766444E+03  0.00000000000E+00 0.  1.
          2   -1    0    0  501    0  0.00000000000E+00 -0.00000000000E+00 -0.64919966653E+03  0.64919966653E+03  0.00000000000E+00 0. -1.
         23    2    1    2    0    0  0.43017111020E+03  0.37583066072E+03 -0.11540640344E+03  0.58924066500E+03  0.87120914539E+02 0.  0.
    5000000    2    1    2    0    0 -0.43017111020E+03 -0.37583066072E+03  0.28108440135E+03  0.87483666597E+03  0.60002906751E+03 0.  0.
         23    2    4    4    0    0 -0.40072680132E+03 -0.30051277989E+03  0.44220694608E+03  0.67334028628E+03  0.83368206076E+02 0.  0.
         23    2    4    4    0    0 -0.29444308875E+02 -0.75317880827E+02 -0.16112254473E+03  0.20149637969E+03  0.90003144999E+02 0.  0.
          5    1    3    3  502    0  0.35044081862E+03  0.33858758887E+03 -0.78039706667E+02  0.49352062623E+03  0.47000000000E+01 0. -1.
         -5    1    3    3    0  502  0.79730291575E+02  0.37243071848E+02 -0.37366696769E+02  0.95720038773E+02  0.47000000000E+01 0.  1.
         13    1    5    5    0    0 -0.91572584904E+02 -0.28750205842E+02  0.76697796769E+02  0.12286034621E+03  0.00000000000E+00 0. -1.
        -13    1    5    5    0    0 -0.30915421642E+03 -0.27176257405E+03  0.36550914931E+03  0.55047994006E+03  0.00000000000E+00 0.  1.
          4    1    6    6  503    0 -0.50196242060E+00  0.10164483715E+02 -0.78442679328E+02  0.79100079871E+02  0.00000000000E+00 0. -1.
         -4    1    6    6    0  503 -0.28942346454E+02 -0.85482364542E+02 -0.82679865404E+02  0.12239629982E+03  0.00000000000E+00 0.  1.
<mgrwt>
<rscale>  0 0.59173129E+03</rscale>
<asrwt>0</asrwt>
<pdfrwt beam="1">  1        2 0.99876872E-01 0.59173129E+03</pdfrwt>
<pdfrwt beam="2">  1       -2 0.12536579E+00 0.59173129E+03</pdfrwt>
<totfact> 0.22073738E+01</totfact>
</mgrwt>
</event>
<event>
12    1  0.3147868E-008  0.6841751E+03  0.7818608E-02  0.9744684E-01
          4   -1    0    0  501    0  0.00000000000E+00  0.00000000000E+00  0.99676056625E+03  0.99676056625E+03  0.00000000000E+00 0. -1.
         -4   -1    0    0    0  501 -0.00000000000E+00 -0.00000000000E+00 -0.53243923649E+03  0.53243923649E+03  0.00000000000E+00 0.  1.
         23    2    1    2    0    0 -0.35544088308E+03 -0.45322966148E+03  0.37359817765E+03  0.69262157617E+03  0.91617149231E+02 0.  0.
    5000000    2    1    2    0    0  0.35544088308E+03  0.45322966148E+03  0.90723152113E+02  0.83657822656E+03  0.59989756744E+03 0.  0.
         23    2    4    4    0    0 -0.14359302474E+03  0.78873125573E+02 -0.43425967517E+02  0.19225136618E+03  0.90746054745E+02 0.  0.
         23    2    4    4    0    0  0.49903390782E+03  0.37435653591E+03  0.13414911963E+03  0.64432686038E+03  0.89350207514E+02 0.  0.
          5    1    3    3  502    0 -0.77221841945E+02 -0.58648184197E+02  0.91599444033E+02  0.13347423171E+03  0.47000000000E+01 0. -1.
         -5    1    3    3    0  502 -0.27821904113E+03 -0.39458147728E+03  0.28199873361E+03  0.55914734447E+03  0.47000000000E+01 0.  1.
         11    1    5    5    0    0 -0.33133956493E+02  0.20310638845E+02 -0.54279445006E+02  0.66758065231E+02  0.00000000000E+00 0. -1.
        -11    1    5    5    0    0 -0.11045906825E+03  0.58562486727E+02  0.10853477488E+02  0.12549330095E+03  0.00000000000E+00 0.  1.
          1    1    6    6  503    0  0.39717283616E+03  0.31258594409E+03  0.73802761525E+02  0.51078672833E+03  0.00000000000E+00 0. -1.
         -1    1    6    6    0  503  0.10186107165E+03  0.61770591821E+02  0.60346358105E+02  0.13354013205E+03  0.00000000000E+00 0.  1.
<mgrwt>
<rscale>  0 0.68417511E+03</rscale>
<asrwt>0</asrwt>
<pdfrwt beam="1">  1        4 0.15334778E+00 0.68417511E+03</pdfrwt>
<pdfrwt beam="2">  1       -4 0.81913729E-01 0.68417511E+03</pdfrwt>
<totfact> 0.72340294E-01</totfact>
</mgrwt>
</event>
<event>
12    1  0.3147868E-008  0.8763017E+03  0.7818608E-02  0.9455700E-01
         -1   -1    0    0    0  501 -0.00000000000E+00  0.00000000000E+00  0.62765465823E+03  0.62765465823E+03  0.00000000000E+00 0.  1.
          1   -1    0    0  501    0  0.00000000000E+00 -0.00000000000E+00 -0.15721087844E+04  0.15721087844E+04  0.00000000000E+00 0. -1.
         23    2    1    2    0    0  0.36788951348E+03  0.76868806759E+03 -0.75037198427E+03  0.11392896319E+04  0.93266881293E+02 0.  0.
    5000000    2    1    2    0    0 -0.36788951348E+03 -0.76868806759E+03 -0.19408214188E+03  0.10604738107E+04  0.60059369466E+03 0.  0.
         23    2    4    4    0    0 -0.11755142556E+03 -0.55660202192E+03 -0.36123895087E+03  0.68036889925E+03  0.93723588188E+02 0.  0.
         23    2    4    4    0    0 -0.25033808792E+03 -0.21208604567E+03  0.16715680899E+03  0.38010491149E+03  0.94279880721E+02 0.  0.
          5    1    3    3  502    0  0.20351374316E+03  0.49920135657E+03 -0.43098758609E+03  0.69021172651E+03  0.47000000000E+01 0. -1.
         -5    1    3    3    0  502  0.16437577032E+03  0.26948671102E+03 -0.31938439818E+03  0.44907790537E+03  0.47000000000E+01 0.  1.
         13    1    5    5    0    0 -0.11298601057E+03 -0.48877246850E+03 -0.28026815655E+03  0.57464302321E+03  0.00000000000E+00 0.  1.
        -13    1    5    5    0    0 -0.45654149935E+01 -0.67829553418E+02 -0.80970794324E+02  0.10572587604E+03  0.00000000000E+00 0. -1.
          4    1    6    6  503    0 -0.72665940262E+02 -0.58190919137E+02  0.97815713720E+02  0.13503494287E+03  0.00000000000E+00 0. -1.
         -4    1    6    6    0  503 -0.17767214766E+03 -0.15389512654E+03  0.69341095274E+02  0.24506996862E+03  0.00000000000E+00 0.  1.
<mgrwt>
<rscale>  0 0.87630172E+03</rscale>
<asrwt>0</asrwt>
<pdfrwt beam="1">  1        1 0.24186289E+00 0.87630172E+03</pdfrwt>
<pdfrwt beam="2">  1       -1 0.96562256E-01 0.87630172E+03</pdfrwt>
<totfact> 0.61539155E+00</totfact>
</mgrwt>
</event>
<event>
12    1  0.3147868E-008  0.1062304E+04  0.7818608E-02  0.9242733E-01
         -1   -1    0    0    0  501 -0.00000000000E+00  0.00000000000E+00  0.14259706814E+04  0.14259706814E+04  0.00000000000E+00 0.  1.
          1   -1    0    0  501    0  0.00000000000E+00 -0.00000000000E+00 -0.84912656132E+03  0.84912656132E+03  0.00000000000E+00 0. -1.
         23    2    1    2    0    0 -0.57638070874E+03 -0.82750869542E+03  0.39611510216E+03  0.10876827129E+04  0.95713882828E+02 0.  0.
    5000000    2    1    2    0    0  0.57638070874E+03  0.82750869542E+03  0.18072901787E+03  0.11874145298E+04  0.60025405056E+03 0.  0.
         23    2    4    4    0    0  0.60247323901E+03  0.49577819916E+03  0.27073113680E+03  0.83084389455E+03  0.90753524408E+02 0.  0.
         23    2    4    4    0    0 -0.26092530266E+02  0.33173049626E+03 -0.90002118923E+02  0.35657063523E+03  0.91193718052E+02 0.  0.
          5    1    3    3  502    0 -0.15842109060E+03 -0.22038286607E+03  0.62268088722E+02  0.27850539398E+03  0.47000000000E+01 0. -1.
         -5    1    3    3    0  502 -0.41795961815E+03 -0.60712582935E+03  0.33384701344E+03  0.80917731892E+03  0.47000000000E+01 0.  1.
         13    1    5    5    0    0  0.49741270555E+03  0.43354312826E+03  0.25638870464E+03  0.70789420930E+03  0.00000000000E+00 0. -1.
        -13    1    5    5    0    0  0.10506053346E+03  0.62235070905E+02  0.14342432156E+02  0.12294968525E+03  0.00000000000E+00 0.  1.
          1    1    6    6  503    0  0.60239705726E+01  0.97870217950E+02  0.13202938846E+02  0.98940312195E+02  0.00000000000E+00 0. -1.
         -1    1    6    6    0  503 -0.32116500838E+02  0.23386027831E+03 -0.10320505777E+03  0.25763032303E+03  0.00000000000E+00 0.  1.
<mgrwt>
<rscale>  0 0.10623036E+04</rscale>
<asrwt>0</asrwt>
<pdfrwt beam="1">  1        1 0.13063485E+00 0.10623036E+04</pdfrwt>
<pdfrwt beam="2">  1       -1 0.21938011E+00 0.10623036E+04</pdfrwt>
<totfact> 0.22237072E+00</totfact>
</mgrwt>
</event>
<event>
12    1  0.3147868E-008  0.7379486E+03  0.7818608E-02  0.9654449E-01
         -2   -1    0    0    0  501 -0.00000000000E+00  0.00000000000E+00  0.17077961741E+04  0.17077961741E+04  0.00000000000E+00 0.  1.
          2   -1    0    0  501    0  0.00000000000E+00 -0.00000000000E+00 -0.34762743357E+03  0.34762743357E+03  0.00000000000E+00 0. -1.
         23    2    1    2    0    0 -0.56815128530E+03 -0.31316556236E+03  0.52689690751E+03  0.84075600749E+03  0.91551955441E+02 0.  0.
    5000000    2    1    2    0    0  0.56815128530E+03  0.31316556236E+03  0.83327183300E+03  0.12146676002E+04  0.60017237423E+03 0.  0.
         23    2    4    4    0    0 -0.67862013924E+02  0.11649746904E+03  0.35505607146E+03  0.39048657185E+03  0.90763625392E+02 0.  0.
         23    2    4    4    0    0  0.63601329923E+03  0.19666809332E+03  0.47821576155E+03  0.82418102832E+03  0.85981376604E+02 0.  0.
          5    1    3    3  502    0 -0.24478913037E+03 -0.18480305756E+03  0.23081653351E+03  0.38389093578E+03  0.47000000000E+01 0. -1.
         -5    1    3    3    0  502 -0.32336215493E+03 -0.12836250480E+03  0.29608037400E+03  0.45686507171E+03  0.47000000000E+01 0.  1.
         13    1    5    5    0    0  0.16209498589E+02  0.30220752732E+02  0.13847168715E+03  0.14265500301E+03  0.00000000000E+00 0. -1.
        -13    1    5    5    0    0 -0.84071512514E+02  0.86276716305E+02  0.21658438431E+03  0.24783156885E+03  0.00000000000E+00 0.  1.
          1    1    6    6  503    0  0.10069957978E+03  0.19430673343E+02  0.40193498391E+02  0.11015204831E+03  0.00000000000E+00 0. -1.
         -1    1    6    6    0  503  0.53531371945E+03  0.17723741998E+03  0.43802226315E+03  0.71402898001E+03  0.00000000000E+00 0.  1.
<mgrwt>
<rscale>  0 0.73794862E+03</rscale>
<asrwt>0</asrwt>
<pdfrwt beam="1">  1        2 0.53481145E-01 0.73794862E+03</pdfrwt>
<pdfrwt beam="2">  1       -2 0.26273787E+00 0.73794862E+03</pdfrwt>
<totfact> 0.51605332E+00</totfact>
</mgrwt>
</event>
<event>
12    1  0.3147868E-008  0.4868438E+03  0.7818608E-02  0.1017271E+00
          2   -1    0    0  501    0  0.00000000000E+00  0.00000000000E+00  0.96064212560E+03  0.96064212560E+03  0.00000000000E+00 0. -1.
         -2   -1    0    0    0  501 -0.00000000000E+00 -0.00000000000E+00 -0.76072627967E+03  0.76072627967E+03  0.00000000000E+00 0.  1.
         23    2    1    2    0    0 -0.30788892898E+03 -0.79995290318E+02  0.76790084102E+03  0.83607921612E+03  0.90343316978E+02 0.  0.
    5000000    2    1    2    0    0  0.30788892898E+03  0.79995290318E+02 -0.56798499510E+03  0.88528918914E+03  0.59994595982E+03 0.  0.
         23    2    4    4    0    0 -0.13137739205E+03 -0.95170588083E+02 -0.23294959400E+03  0.29856905037E+03  0.92522994535E+02 0.  0.
         23    2    4    4    0    0  0.43926632103E+03  0.17516587840E+03 -0.33503540110E+03  0.58672013878E+03  0.91399209579E+02 0.  0.
          5    1    3    3  502    0 -0.13226301925E+03 -0.47723312769E+01  0.23223889142E+03  0.26734485986E+03  0.47000000000E+01 0. -1.
         -5    1    3    3    0  502 -0.17562590973E+03 -0.75222959041E+02  0.53566194960E+03  0.56873435626E+03  0.47000000000E+01 0.  1.
         13    1    5    5    0    0 -0.73374057178E+02 -0.25159725977E+02 -0.44728043159E+02  0.89539722597E+02  0.00000000000E+00 0.  1.
        -13    1    5    5    0    0 -0.58003334869E+02 -0.70010862106E+02 -0.18822155084E+03  0.20902932777E+03  0.00000000000E+00 0. -1.
          2    1    6    6  503    0  0.86045932238E+02 -0.28887375633E+01 -0.60172221220E+02  0.10503781922E+03  0.00000000000E+00 0. -1.
         -2    1    6    6    0  503  0.35322038879E+03  0.17805461596E+03 -0.27486317988E+03  0.48168231956E+03  0.00000000000E+00 0.  1.
<mgrwt>
<rscale>  0 0.48684375E+03</rscale>
<asrwt>0</asrwt>
<pdfrwt beam="1">  1        2 0.14779110E+00 0.48684375E+03</pdfrwt>
<pdfrwt beam="2">  1       -2 0.11703481E+00 0.48684375E+03</pdfrwt>
<totfact> 0.15889828E+01</totfact>
</mgrwt>
</event>
<event>
12    1  0.3147868E-008  0.9557231E+03  0.7818608E-02  0.9358486E-01
         -2   -1    0    0    0  501 -0.00000000000E+00  0.00000000000E+00  0.37712264303E+03  0.37712264303E+03  0.00000000000E+00 0. -1.
          2   -1    0    0  501    0  0.00000000000E+00 -0.00000000000E+00 -0.31379122084E+04  0.31379122084E+04  0.00000000000E+00 0.  1.
         23    2    1    2    0    0 -0.57411199153E+03 -0.64632271441E+03 -0.20989165986E+04  0.22720175925E+04  0.96308997417E+02 0.  0.
    5000000    2    1    2    0    0  0.57411199153E+03  0.64632271441E+03 -0.66187296679E+03  0.12430172589E+04  0.59973198329E+03 0.  0.
         23    2    4    4    0    0  0.57746040509E+03  0.72780309816E+03 -0.55544998366E+03  0.10860848924E+04  0.88869792365E+02 0.  0.
         23    2    4    4    0    0 -0.33484135551E+01 -0.81480383743E+02 -0.10642298313E+03  0.15693236651E+03  0.81557657603E+02 0.  0.
          5    1    3    3  502    0 -0.86492211393E+02 -0.52014394856E+02 -0.23740429160E+03  0.25801024703E+03  0.47000000000E+01 0. -1.
         -5    1    3    3    0  502 -0.48761978014E+03 -0.59430831956E+03 -0.18615123070E+04  0.20140073455E+04  0.47000000000E+01 0.  1.
         11    1    5    5    0    0  0.28990659676E+03  0.41097674919E+03 -0.33961588047E+03  0.60686626985E+03  0.00000000000E+00 0.  1.
        -11    1    5    5    0    0  0.28755380833E+03  0.31682634896E+03 -0.21583410320E+03  0.47921862254E+03  0.00000000000E+00 0. -1.
          2    1    6    6  503    0  0.35084797253E+02 -0.50436764985E+02 -0.36985922035E+02  0.71713099844E+02  0.00000000000E+00 0. -1.
         -2    1    6    6    0  503 -0.38433210809E+02 -0.31043618758E+02 -0.69437061093E+02  0.85219266671E+02  0.00000000000E+00 0.  1.
<mgrwt>
<rscale>  0 0.95572309E+03</rscale>
<asrwt>0</asrwt>
<pdfrwt beam="1">  1        2 0.48275574E+00 0.95572309E+03</pdfrwt>
<pdfrwt beam="2">  1       -2 0.58018866E-01 0.95572309E+03</pdfrwt>
<totfact> 0.40873090E+00</totfact>
</mgrwt>
</event>
<event>
12    1  0.3147868E-008  0.1228528E+04  0.7818608E-02  0.9088246E-01
          2   -1    0    0  501    0  0.00000000000E+00  0.00000000000E+00  0.11824969756E+04  0.11824969756E+04  0.00000000000E+00 0. -1.
         -2   -1    0    0    0  501 -0.00000000000E+00 -0.00000000000E+00 -0.16585554735E+04  0.16585554735E+04  0.00000000000E+00 0.  1.
         23    2    1    2    0    0  0.41456023464E+03  0.11076438647E+04  0.40018786178E+03  0.12518901224E+04  0.91342403661E+02 0.  0.
    5000000    2    1    2    0    0 -0.41456023464E+03 -0.11076438647E+04 -0.87624635971E+03  0.15891623267E+04  0.59907770663E+03 0.  0.
         23    2    4    4    0    0 -0.38989022127E+01 -0.67008591359E+03 -0.65927134247E+03  0.94462315261E+03  0.92972385207E+02 0.  0.
         23    2    4    4    0    0 -0.41066133243E+03 -0.43755795113E+03 -0.21697501724E+03  0.64453917412E+03  0.90845463938E+02 0.  0.
          5    1    3    3  502    0  0.32694915879E+03  0.76553776144E+03  0.29880482866E+03  0.88444911231E+03  0.47000000000E+01 0. -1.
         -5    1    3    3    0  502  0.87611075850E+02  0.34210610328E+03  0.10138303313E+03  0.36744101012E+03  0.47000000000E+01 0.  1.
         11    1    5    5    0    0 -0.20772444769E+02 -0.38505136210E+03 -0.31926562365E+03  0.50062619225E+03  0.00000000000E+00 0.  1.
        -11    1    5    5    0    0  0.16873542556E+02 -0.28503455149E+03 -0.34000571882E+03  0.44399696036E+03  0.00000000000E+00 0. -1.
          4    1    6    6  503    0 -0.28173844768E+03 -0.31070831045E+03 -0.19435330759E+03  0.46226552463E+03  0.00000000000E+00 0. -1.
         -4    1    6    6    0  503 -0.12892288475E+03 -0.12684964068E+03 -0.22621709645E+02  0.18227364949E+03  0.00000000000E+00 0.  1.
<mgrwt>
<rscale>  0 0.12285281E+04</rscale>
<asrwt>0</asrwt>
<pdfrwt beam="1">  1        2 0.18192261E+00 0.12285281E+04</pdfrwt>
<pdfrwt beam="2">  1       -2 0.25516238E+00 0.12285281E+04</pdfrwt>
<totfact> 0.11243548E+00</totfact>
</mgrwt>
</event>
<event>
12    1  0.3147868E-008  0.8947764E+03  0.7818608E-02  0.9432135E-01
         -1   -1    0    0    0  501 -0.00000000000E+00  0.00000000000E+00  0.95320422153E+03  0.95320422153E+03  0.00000000000E+00 0.  1.
          1   -1    0    0  501    0  0.00000000000E+00 -0.00000000000E+00 -0.12731758126E+04  0.12731758126E+04  0.00000000000E+00 0. -1.
         23    2    1    2    0    0 -0.31491437150E+02 -0.88816200002E+03 -0.64958791259E+03  0.11045640271E+04  0.90960347263E+02 0.  0.
    5000000    2    1    2    0    0  0.31491437150E+02  0.88816200002E+03  0.32961632149E+03  0.11218160071E+04  0.60000065457E+03 0.  0.
         23    2    4    4    0    0  0.37812002071E+02  0.65891219808E+03 -0.51565058000E+02  0.66794795163E+03  0.88884636447E+02 0.  0.
         23    2    4    4    0    0 -0.63205649208E+01  0.22924980194E+03  0.38118137949E+03  0.45386805547E+03  0.90008591118E+02 0.  0.
          5    1    3    3  502    0  0.15588696698E+02 -0.66682800664E+03 -0.48413426388E+03  0.82420305348E+03  0.47000000000E+01 0. -1.
         -5    1    3    3    0  502 -0.47080133848E+02 -0.22133399338E+03 -0.16545364871E+03  0.28036097357E+03  0.47000000000E+01 0.  1.
         13    1    5    5    0    0  0.37671073534E+02  0.66179860185E+03 -0.52405944255E+02  0.66493825442E+03  0.00000000000E+00 0.  1.
        -13    1    5    5    0    0  0.14092853634E+00 -0.28864037727E+01  0.84088625513E+00  0.30096972083E+01  0.00000000000E+00 0. -1.
          4    1    6    6  503    0 -0.23872177443E+01  0.22321756674E+03  0.30830093653E+03  0.38063269483E+03  0.00000000000E+00 0.  1.
         -4    1    6    6    0  503 -0.39333471764E+01  0.60322352011E+01  0.72880442965E+02  0.73235360641E+02  0.00000000000E+00 0. -1.
<mgrwt>
<rscale>  0 0.89477639E+03</rscale>
<asrwt>0</asrwt>
<pdfrwt beam="1">  1        1 0.19587320E+00 0.89477639E+03</pdfrwt>
<pdfrwt beam="2">  1       -1 0.14664680E+00 0.89477639E+03</pdfrwt>
<totfact> 0.35683576E+00</totfact>
</mgrwt>
</event>
<event>
12    1  0.3147868E-008  0.9109253E+03  0.7818608E-02  0.9412026E-01
         -1   -1    0    0    0  501 -0.00000000000E+00  0.00000000000E+00  0.35207760838E+03  0.35207760838E+03  0.00000000000E+00 0.  1.
          1   -1    0    0  501    0  0.00000000000E+00 -0.00000000000E+00 -0.27243573164E+04  0.27243573164E+04  0.00000000000E+00 0. -1.
         23    2    1    2    0    0 -0.80258449342E+03  0.20183348391E+03 -0.58497208784E+03  0.10174663476E+04  0.90370353229E+02 0.  0.
    5000000    2    1    2    0    0  0.80258449342E+03 -0.20183348391E+03 -0.17873076202E+04  0.20589685772E+04  0.60000370679E+03 0.  0.
         23    2    4    4    0    0  0.82825779671E+03 -0.60304632874E+02 -0.13475374359E+04  0.15854090016E+04  0.89537337482E+02 0.  0.
         23    2    4    4    0    0 -0.25673303288E+02 -0.14152885103E+03 -0.43977018433E+03  0.47355957553E+03  0.10085297404E+03 0.  0.
          5    1    3    3  502    0 -0.55526760754E+03  0.97381681047E+02 -0.38522856194E+03  0.68280922865E+03  0.47000000000E+01 0. -1.
         -5    1    3    3    0  502 -0.24731688588E+03  0.10445180286E+03 -0.19974352590E+03  0.33465711900E+03  0.47000000000E+01 0.  1.
         13    1    5    5    0    0  0.46881104722E+03  0.88645686152E+01 -0.77870941255E+03  0.90898334846E+03  0.00000000000E+00 0. -1.
        -13    1    5    5    0    0  0.35944674948E+03 -0.69169201489E+02 -0.56882802335E+03  0.67642565319E+03  0.00000000000E+00 0.  1.
          3    1    6    6  503    0 -0.21523084425E+02 -0.11229415330E+02 -0.19253363560E+03  0.19405809380E+03  0.00000000000E+00 0. -1.
         -3    1    6    6    0  503 -0.41502188626E+01 -0.13029943570E+03 -0.24723654873E+03  0.27950148173E+03  0.00000000000E+00 0.  1.
<mgrwt>
<rscale>  0 0.91092528E+03</rscale>
<asrwt>0</asrwt>
<pdfrwt beam="1">  1        1 0.41913188E+00 0.91092528E+03</pdfrwt>
<pdfrwt beam="2">  1       -1 0.54165788E-01 0.91092528E+03</pdfrwt>
<totfact> 0.33636657E+00</totfact>
</mgrwt>
</event>
<event>
12    1  0.3147868E-008  0.9009317E+03  0.7818608E-02  0.9424417E-01
          1   -1    0    0  501    0  0.00000000000E+00  0.00000000000E+00  0.99138564799E+03  0.99138564799E+03  0.00000000000E+00 0. -1.
         -1   -1    0    0    0  501 -0.00000000000E+00 -0.00000000000E+00 -0.10666035774E+04  0.10666035774E+04  0.00000000000E+00 0.  1.
         23    2    1    2    0    0  0.13592071308E+03  0.85996062371E+03 -0.38497136730E+03  0.95618908133E+03  0.89932702820E+02 0.  0.
    5000000    2    1    2    0    0 -0.13592071308E+03 -0.85996062371E+03  0.30975343788E+03  0.11018001441E+04  0.60000804212E+03 0.  0.
         23    2    4    4    0    0 -0.16599367345E+03 -0.78048651895E+03  0.44489612940E+03  0.91774576679E+03  0.87244602198E+02 0.  0.
         23    2    4    4    0    0  0.30072960367E+02 -0.79474104755E+02 -0.13514269152E+03  0.18405437728E+03  0.91607589482E+02 0.  0.
          5    1    3    3  502    0  0.80694751671E+02  0.27294430394E+03 -0.10429997045E+03  0.30316795648E+03  0.47000000000E+01 0. -1.
         -5    1    3    3    0  502  0.55225961414E+02  0.58701631977E+03 -0.28067139685E+03  0.65302112484E+03  0.47000000000E+01 0.  1.
         13    1    5    5    0    0 -0.11294439622E+03 -0.67748606487E+03  0.37975889424E+03  0.78483158861E+03  0.00000000000E+00 0. -1.
        -13    1    5    5    0    0 -0.53049277232E+02 -0.10300045408E+03  0.65137235161E+02  0.13291417818E+03  0.00000000000E+00 0.  1.
          1    1    6    6  503    0  0.22615736777E+02 -0.10026897851E+03 -0.10882704429E+03  0.14969524097E+03  0.00000000000E+00 0. -1.
         -1    1    6    6    0  503  0.74572235901E+01  0.20794873755E+02 -0.26315647234E+02  0.34359136303E+02  0.00000000000E+00 0.  1.
<mgrwt>
<rscale>  0 0.90093172E+03</rscale>
<asrwt>0</asrwt>
<pdfrwt beam="1">  1        1 0.15252087E+00 0.90093172E+03</pdfrwt>
<pdfrwt beam="2">  1       -1 0.16409286E+00 0.90093172E+03</pdfrwt>
<totfact> 0.42469822E+00</totfact>
</mgrwt>
</event>
<event>
12    1  0.3147868E-008  0.4646583E+03  0.7818608E-02  0.1023439E+00
         -1   -1    0    0    0  501 -0.00000000000E+00  0.00000000000E+00  0.15103405943E+04  0.15103405943E+04  0.00000000000E+00 0.  1.
          1   -1    0    0  501    0  0.00000000000E+00 -0.00000000000E+00 -0.38639899899E+03  0.38639899899E+03  0.00000000000E+00 0. -1.
         23    2    1    2    0    0 -0.18669544867E+03  0.25076593245E+03 -0.21914364843E+03  0.39278977072E+03  0.92309923073E+02 0.  0.
    5000000    2    1    2    0    0  0.18669544867E+03 -0.25076593245E+03  0.13430852437E+04  0.15039498226E+04  0.60020692549E+03 0.  0.
         23    2    4    4    0    0 -0.10379100202E+03  0.10600932263E+03  0.60794640625E+03  0.63191125176E+03  0.87763595235E+02 0.  0.
         23    2    4    4    0    0  0.29048645069E+03 -0.35677525508E+03  0.73513883750E+03  0.87203857081E+03  0.91384888811E+02 0.  0.
          5    1    3    3  502    0 -0.35918808179E+02  0.71673162618E+02 -0.14079610026E+02  0.81532376631E+02  0.47000000000E+01 0. -1.
         -5    1    3    3    0  502 -0.15077664049E+03  0.17909276983E+03 -0.20506403840E+03  0.31125739408E+03  0.47000000000E+01 0.  1.
         13    1    5    5    0    0 -0.20543972635E+02  0.38358908036E+02  0.63375232892E+02  0.76875748982E+02  0.00000000000E+00 0. -1.
        -13    1    5    5    0    0 -0.83247029389E+02  0.67650414594E+02  0.54457117336E+03  0.55503550278E+03  0.00000000000E+00 0.  1.
          1    1    6    6  503    0  0.28461301922E+03 -0.32609508325E+03  0.71171234821E+03  0.83299282147E+03  0.00000000000E+00 0. -1.
         -1    1    6    6    0  503  0.58734314694E+01 -0.30680171829E+02  0.23426489292E+02  0.39045749336E+02  0.00000000000E+00 0.  1.
<mgrwt>
<rscale>  0 0.46465825E+03</rscale>
<asrwt>0</asrwt>
<pdfrwt beam="1">  1        1 0.59446000E-01 0.46465825E+03</pdfrwt>
<pdfrwt beam="2">  1       -1 0.23236009E+00 0.46465825E+03</pdfrwt>
<totfact> 0.62322769E+00</totfact>
</mgrwt>
</event>
<event>
12    1  0.3147868E-008  0.1280938E+04  0.7818608E-02  0.9044820E-01
         -1   -1    0    0    0  501 -0.00000000000E+00  0.00000000000E+00  0.72384357696E+03  0.72384357696E+03  0.00000000000E+00 0.  1.
          1   -1    0    0  501    0  0.00000000000E+00 -0.00000000000E+00 -0.24499043001E+04  0.24499043001E+04  0.00000000000E+00 0. -1.
         23    2    1    2    0    0 -0.11997445943E+04  0.39226504615E+03 -0.79355318293E+03  0.14935533695E+04  0.87841080357E+02 0.  0.
    5000000    2    1    2    0    0  0.11997445943E+04 -0.39226504615E+03 -0.93250754017E+03  0.16801945075E+04  0.60018689811E+03 0.  0.
         23    2    4    4    0    0  0.17639375794E+03 -0.14558612144E+03  0.32899078988E+02  0.24894418505E+03  0.92632506588E+02 0.  0.
         23    2    4    4    0    0  0.10233508364E+04 -0.24667892470E+03 -0.96540661916E+03  0.14312503225E+04  0.91488354920E+02 0.  0.
          5    1    3    3  502    0 -0.82881410824E+03  0.30937437483E+03 -0.57425103647E+03  0.10547187647E+04  0.47000000000E+01 0. -1.
         -5    1    3    3    0  502 -0.37093048606E+03  0.82890671318E+02 -0.21930214646E+03  0.43883460474E+03  0.47000000000E+01 0.  1.
         11    1    5    5    0    0  0.10734736809E+03 -0.34789275879E+02  0.35723398097E+02  0.11836347547E+03  0.00000000000E+00 0.  1.
        -11    1    5    5    0    0  0.69046389843E+02 -0.11079684557E+03 -0.28243191087E+01  0.13058070959E+03  0.00000000000E+00 0. -1.
          2    1    6    6  503    0  0.25435440593E+03 -0.82112327721E+02 -0.29269088763E+03  0.39636669119E+03  0.00000000000E+00 0. -1.
         -2    1    6    6    0  503  0.76899643043E+03 -0.16456659698E+03 -0.67271573153E+03  0.10348836313E+04  0.00000000000E+00 0.  1.
<mgrwt>
<rscale>  0 0.12809377E+04</rscale>
<asrwt>0</asrwt>
<pdfrwt beam="1">  1        1 0.37690836E+00 0.12809377E+04</pdfrwt>
<pdfrwt beam="2">  1       -1 0.11136055E+00 0.12809377E+04</pdfrwt>
<totfact> 0.10645772E+00</totfact>
</mgrwt>
</event>
<event>
12    1  0.3147868E-008  0.7965615E+03  0.7818608E-02  0.9565008E-01
          1   -1    0    0  501    0  0.00000000000E+00  0.00000000000E+00  0.67605696900E+03  0.67605696900E+03  0.00000000000E+00 0. -1.
         -1   -1    0    0    0  501 -0.00000000000E+00 -0.00000000000E+00 -0.12366413538E+04  0.12366413538E+04  0.00000000000E+00 0.  1.
         23    2    1    2    0    0  0.13299416635E+03  0.72704545607E+03 -0.60467154593E+03  0.95937934850E+03  0.92187376596E+02 0.  0.
    5000000    2    1    2    0    0 -0.13299416635E+03 -0.72704545607E+03  0.44087161146E+02  0.95331897429E+03  0.60049216938E+03 0.  0.
         23    2    4    4    0    0 -0.26104424483E+03 -0.34745595822E+03 -0.18695582601E+03  0.48182443084E+03  0.91282860485E+02 0.  0.
         23    2    4    4    0    0  0.12805007848E+03 -0.37958949786E+03  0.23104298716E+03  0.47149454345E+03  0.91876183540E+02 0.  0.
          5    1    3    3  502    0 -0.16794799516E+01  0.17889515837E+03 -0.17130457656E+03  0.24773705070E+03  0.47000000000E+01 0. -1.
         -5    1    3    3    0  502  0.13467364630E+03  0.54815029771E+03 -0.43336696936E+03  0.71164229780E+03  0.47000000000E+01 0.  1.
         13    1    5    5    0    0 -0.95153097703E+02 -0.20257824529E+03 -0.92345784708E+02  0.24211526474E+03  0.00000000000E+00 0.  1.
        -13    1    5    5    0    0 -0.16589114712E+03 -0.14487771293E+03 -0.94610041305E+02  0.23970916610E+03  0.00000000000E+00 0. -1.
          2    1    6    6  503    0  0.84929864458E+02 -0.15320066153E+03  0.62508996368E+02  0.18598628766E+03  0.00000000000E+00 0. -1.
         -2    1    6    6    0  503  0.43120214024E+02 -0.22638883632E+03  0.16853399079E+03  0.28550825579E+03  0.00000000000E+00 0.  1.
<mgrwt>
<rscale>  0 0.79656154E+03</rscale>
<asrwt>0</asrwt>
<pdfrwt beam="1">  1        1 0.10400876E+00 0.79656154E+03</pdfrwt>
<pdfrwt beam="2">  1       -1 0.19025252E+00 0.79656154E+03</pdfrwt>
<totfact> 0.51992983E+00</totfact>
</mgrwt>
</event>
<event>
12    1  0.3147868E-008  0.1888453E+04  0.7818608E-02  0.8660626E-01
         -1   -1    0    0    0  501 -0.00000000000E+00  0.00000000000E+00  0.27392938308E+04  0.27392938308E+04  0.00000000000E+00 0. -1.
          1   -1    0    0  501    0  0.00000000000E+00 -0.00000000000E+00 -0.13067718540E+04  0.13067718540E+04  0.00000000000E+00 0.  1.
         23    2    1    2    0    0 -0.17791228456E+04  0.48197608679E+03  0.71137312720E+03  0.19778216813E+04  0.90265325681E+02 0.  0.
    5000000    2    1    2    0    0  0.17791228456E+04 -0.48197608679E+03  0.72114884958E+03  0.20682440035E+04  0.59999878903E+03 0.  0.
         23    2    4    4    0    0  0.58048973613E+03  0.10948541322E+03  0.18380007457E+03  0.62521883526E+03  0.90336787057E+02 0.  0.
         23    2    4    4    0    0  0.11986331095E+04 -0.59146150001E+03  0.53734877501E+03  0.14430251683E+04  0.83844457691E+02 0.  0.
          5    1    3    3  502    0 -0.10024859248E+04  0.28959791995E+03  0.35865666535E+03  0.11034045850E+04  0.47000000000E+01 0. -1.
         -5    1    3    3    0  502 -0.77663692082E+03  0.19237816685E+03  0.35271646185E+03  0.87441709631E+03  0.47000000000E+01 0.  1.
         11    1    5    5    0    0  0.44519285472E+03  0.11796923800E+03  0.12335667455E+03  0.47679166117E+03  0.00000000000E+00 0. -1.
        -11    1    5    5    0    0  0.13529688141E+03 -0.84838247854E+01  0.60443400018E+02  0.14842717409E+03  0.00000000000E+00 0.  1.
          1    1    6    6  503    0  0.99289736021E+03 -0.47352399200E+03  0.47219194629E+03  0.11970945548E+04  0.00000000000E+00 0. -1.
         -1    1    6    6    0  503  0.20573574927E+03 -0.11793750800E+03  0.65156828718E+02  0.24593061349E+03  0.00000000000E+00 0.  1.
<mgrwt>
<rscale>  0 0.18884526E+04</rscale>
<asrwt>0</asrwt>
<pdfrwt beam="1">  1        1 0.20104182E+00 0.18884526E+04</pdfrwt>
<pdfrwt beam="2">  1       -1 0.42142982E+00 0.18884526E+04</pdfrwt>
<totfact> 0.41340657E-02</totfact>
</mgrwt>
</event>
<event>
12    1  0.3147868E-008  0.1118196E+04  0.7818608E-02  0.9187636E-01
         -2   -1    0    0    0  501 -0.00000000000E+00  0.00000000000E+00  0.13443344276E+04  0.13443344276E+04  0.00000000000E+00 0.  1.
          2   -1    0    0  501    0  0.00000000000E+00 -0.00000000000E+00 -0.14665648500E+04  0.14665648500E+04  0.00000000000E+00 0. -1.
         23    2    1    2    0    0  0.31221645385E+02  0.11128770663E+04 -0.79962560050E+03  0.13762018648E+04  0.12272047894E+03 0.  0.
    5000000    2    1    2    0    0 -0.31221645385E+02 -0.11128770663E+04  0.67739517810E+03  0.14346974128E+04  0.60001856897E+03 0.  0.
         23    2    4    4    0    0  0.25123288183E+02 -0.22003712578E+03  0.44622085936E+03  0.50624497999E+03  0.90129951179E+02 0.  0.
         23    2    4    4    0    0 -0.56344933568E+02 -0.89283994052E+03  0.23117431873E+03  0.92845243280E+03  0.90798917426E+02 0.  0.
          5    1    3    3  502    0 -0.27493804390E+02  0.48511467818E+03 -0.29352789328E+03  0.56769082642E+03  0.47000000000E+01 0. -1.
         -5    1    3    3    0  502  0.58715449775E+02  0.62776238811E+03 -0.50609770723E+03  0.80851103841E+03  0.47000000000E+01 0.  1.
         13    1    5    5    0    0  0.13907249151E+02 -0.11260712705E+03  0.32318355537E+03  0.34252209725E+03  0.00000000000E+00 0. -1.
        -13    1    5    5    0    0  0.11216039031E+02 -0.10742999873E+03  0.12303730399E+03  0.16372288274E+03  0.00000000000E+00 0.  1.
          1    1    6    6  503    0 -0.69041300445E+02 -0.43344660135E+03  0.94204137268E+02  0.44890653467E+03  0.00000000000E+00 0. -1.
         -1    1    6    6    0  503  0.12696366878E+02 -0.45939333916E+03  0.13697018147E+03  0.47954589813E+03  0.00000000000E+00 0.  1.
<mgrwt>
<rscale>  0 0.11181959E+04</rscale>
<asrwt>0</asrwt>
<pdfrwt beam="1">  1        2 0.22562536E+00 0.11181959E+04</pdfrwt>
<pdfrwt beam="2">  1       -2 0.20682068E+00 0.11181959E+04</pdfrwt>
<totfact> 0.15587535E+00</totfact>
</mgrwt>
</event>
<event>
12    1  0.3147868E-008  0.1714839E+04  0.7818608E-02  0.8752946E-01
          2   -1    0    0  501    0  0.00000000000E+00  0.00000000000E+00  0.40850635485E+04  0.40850635485E+04  0.00000000000E+00 0.  1.
         -2   -1    0    0    0  501 -0.00000000000E+00 -0.00000000000E+00 -0.72376952701E+03  0.72376952701E+03  0.00000000000E+00 0. -1.
         23    2    1    2    0    0  0.16651262993E+04  0.34935391867E+02  0.15831988968E+04  0.22997987661E+04  0.93217721100E+02 0.  0.
    5000000    2    1    2    0    0 -0.16651262993E+04 -0.34935391867E+02  0.17780951247E+04  0.25090343094E+04  0.59980398385E+03 0.  0.
         23    2    4    4    0    0 -0.95005987032E+03 -0.30077512104E+03  0.10526740658E+04  0.14524594976E+04  0.91850273092E+02 0.  0.
         23    2    4    4    0    0 -0.71506642900E+03  0.26583972917E+03  0.72542105895E+03  0.10565748119E+04  0.90132462645E+02 0.  0.
          5    1    3    3  502    0  0.64577267885E+02 -0.43061820225E+01  0.40704286339E+02  0.76600885487E+02  0.47000000000E+01 0.  1.
         -5    1    3    3    0  502  0.16005490314E+04  0.39241573890E+02  0.15424946104E+04  0.22231978806E+04  0.47000000000E+01 0.  1.
         13    1    5    5    0    0 -0.80369373495E+03 -0.27074538313E+03  0.93458853695E+03  0.12620152200E+04  0.00000000000E+00 0. -1.
        -13    1    5    5    0    0 -0.14636613537E+03 -0.30029737914E+02  0.11808552883E+03  0.19044427757E+03  0.00000000000E+00 0.  1.
          2    1    6    6  503    0 -0.11610778915E+03  0.15679952147E+02  0.85199581246E+02  0.14486493104E+03  0.00000000000E+00 0.  1.
         -2    1    6    6    0  503 -0.59895863985E+03  0.25015977703E+03  0.64022147771E+03  0.91170988083E+03  0.00000000000E+00 0. -1.
<mgrwt>
<rscale>  0 0.17148388E+04</rscale>
<asrwt>0</asrwt>
<pdfrwt beam="1">  1        2 0.62847130E+00 0.17148388E+04</pdfrwt>
<pdfrwt beam="2">  1       -2 0.11134916E+00 0.17148388E+04</pdfrwt>
<totfact> 0.17530789E-01</totfact>
</mgrwt>
</event>
<event>
12    1  0.3147868E-008  0.4693582E+03  0.7818608E-02  0.1022102E+00
         -2   -1    0    0    0  501 -0.00000000000E+00  0.00000000000E+00  0.12886867887E+03  0.12886867887E+03  0.00000000000E+00 0.  1.
          2   -1    0    0  501    0  0.00000000000E+00 -0.00000000000E+00 -0.17856677429E+04  0.17856677429E+04  0.00000000000E+00 0. -1.
         23    2    1    2    0    0 -0.26918688569E+03 -0.75004628591E+02 -0.59063936810E+03  0.65955808806E+03  0.89859527185E+02 0.  0.
    5000000    2    1    2    0    0  0.26918688569E+03  0.75004628591E+02 -0.10661596959E+04  0.12549783337E+04  0.60015568576E+03 0.  0.
         23    2    4    4    0    0  0.28595994505E+03 -0.20848411645E+03 -0.61662091582E+03  0.71601672919E+03  0.84969910350E+02 0.  0.
         23    2    4    4    0    0 -0.16773059359E+02  0.28348874504E+03 -0.44953878010E+03  0.53896160453E+03  0.88018704004E+02 0.  0.
          5    1    3    3  502    0 -0.13235838987E+03 -0.88979338796E+00 -0.33517310302E+03  0.36039233356E+03  0.47000000000E+01 0. -1.
         -5    1    3    3    0  502 -0.13682849582E+03 -0.74114835203E+02 -0.25546626508E+03  0.29916575449E+03  0.47000000000E+01 0.  1.
         11    1    5    5    0    0  0.20637527610E+03 -0.14065936427E+03 -0.35302066244E+03  0.43243427182E+03  0.00000000000E+00 0.  1.
        -11    1    5    5    0    0  0.79584668955E+02 -0.67824752183E+02 -0.26360025339E+03  0.28358245737E+03  0.00000000000E+00 0. -1.
          1    1    6    6  503    0 -0.43440608674E+02  0.79914229586E+02 -0.11782782525E+03  0.14885149303E+03  0.00000000000E+00 0. -1.
         -1    1    6    6    0  503  0.26667549315E+02  0.20357451545E+03 -0.33171095485E+03  0.39011011150E+03  0.00000000000E+00 0.  1.
<mgrwt>
<rscale>  0 0.46935815E+03</rscale>
<asrwt>0</asrwt>
<pdfrwt beam="1">  1        2 0.27471808E+00 0.46935815E+03</pdfrwt>
<pdfrwt beam="2">  1       -2 0.19825953E-01 0.46935815E+03</pdfrwt>
<totfact> 0.19997210E+02</totfact>
</mgrwt>
</event>
<event>
12    1  0.3147868E-008  0.1042137E+04  0.7818608E-02  0.9263500E-01
         -2   -1    0    0    0  501 -0.00000000000E+00  0.00000000000E+00  0.88515935448E+03  0.88515935448E+03  0.00000000000E+00 0.  1.
          2   -1    0    0  501    0  0.00000000000E+00 -0.00000000000E+00 -0.15222358027E+04  0.15222358027E+04  0.00000000000E+00 0. -1.
         23    2    1    2    0    0 -0.28850915811E+03  0.91772519691E+03 -0.81012104991E+03  0.12609963470E+04  0.91425381206E+02 0.  0.
    5000000    2    1    2    0    0  0.28850915811E+03 -0.91772519691E+03  0.17304460165E+03  0.11463988102E+04  0.59902314357E+03 0.  0.
         23    2    4    4    0    0  0.86592429702E+02 -0.89624893595E+03  0.96610521244E+02  0.91010368697E+03  0.90524715699E+02 0.  0.
         23    2    4    4    0    0  0.20191672841E+03 -0.21476260958E+02  0.76434080409E+02  0.23629512323E+03  0.93603534227E+02 0.  0.
          5    1    3    3  502    0 -0.79621784255E+02  0.20270320382E+03 -0.13945569458E+03  0.25864685987E+03  0.47000000000E+01 0. -1.
         -5    1    3    3    0  502 -0.20888737386E+03  0.71502199309E+03 -0.67066535533E+03  0.10023494872E+04  0.47000000000E+01 0.  1.
         13    1    5    5    0    0  0.18623922322E+02 -0.59189311348E+03  0.82785131515E+02  0.59794455116E+03  0.00000000000E+00 0. -1.
        -13    1    5    5    0    0  0.67968507381E+02 -0.30435582247E+03  0.13825389729E+02  0.31215913581E+03  0.00000000000E+00 0.  1.
          2    1    6    6  503    0  0.78227885874E+02  0.29625713974E+02  0.56611122231E+02  0.10100546627E+03  0.00000000000E+00 0. -1.
         -2    1    6    6    0  503  0.12368884254E+03 -0.51101974932E+02  0.19822958178E+02  0.13528965696E+03  0.00000000000E+00 0.  1.
<mgrwt>
<rscale>  0 0.10421368E+04</rscale>
<asrwt>0</asrwt>
<pdfrwt beam="1">  1        2 0.23419012E+00 0.10421368E+04</pdfrwt>
<pdfrwt beam="2">  1       -2 0.13617836E+00 0.10421368E+04</pdfrwt>
<totfact> 0.47042457E+00</totfact>
</mgrwt>
</event>
<event>
12    1  0.3147868E-008  0.1010727E+04  0.7818608E-02  0.9296857E-01
          2   -1    0    0  501    0  0.00000000000E+00  0.00000000000E+00  0.10921620461E+04  0.10921620461E+04  0.00000000000E+00 0. -1.
         -2   -1    0    0    0  501 -0.00000000000E+00 -0.00000000000E+00 -0.10130377869E+04  0.10130377869E+04  0.00000000000E+00 0.  1.
         23    2    1    2    0    0  0.88388214425E+03 -0.34860781534E+03  0.19840085696E+03  0.97505115829E+03  0.92665027983E+02 0.  0.
    5000000    2    1    2    0    0 -0.88388214425E+03  0.34860781534E+03 -0.11927659774E+03  0.11301486748E+04  0.60019502373E+03 0.  0.
         23    2    4    4    0    0  0.84712620003E+01 -0.30880306063E+02  0.91712085259E+02  0.13353786322E+03  0.91629136999E+02 0.  0.
         23    2    4    4    0    0 -0.89235340625E+03  0.37948812140E+03 -0.21098868300E+03  0.99661081157E+03  0.91711773800E+02 0.  0.
          5    1    3    3  502    0  0.36690346716E+03 -0.98279771702E+02  0.65705833378E+02  0.38550799509E+03  0.47000000000E+01 0. -1.
         -5    1    3    3    0  502  0.51697867709E+03 -0.25032804364E+03  0.13269502358E+03  0.58954316320E+03  0.47000000000E+01 0.  1.
         11    1    5    5    0    0 -0.18841154734E+02 -0.56324064160E+02  0.61709791513E+02  0.85647461631E+02  0.00000000000E+00 0. -1.
        -11    1    5    5    0    0  0.27312416734E+02  0.25443758097E+02  0.30002293745E+02  0.47890401584E+02  0.00000000000E+00 0.  1.
          3    1    6    6  503    0 -0.39754279218E+03  0.18981724305E+03 -0.53411592379E+02  0.44376080896E+03  0.00000000000E+00 0. -1.
         -3    1    6    6    0  503 -0.49481061407E+03  0.18967087835E+03 -0.15757709062E+03  0.55285000260E+03  0.00000000000E+00 0.  1.
<mgrwt>
<rscale>  0 0.10107273E+04</rscale>
<asrwt>0</asrwt>
<pdfrwt beam="1">  1        2 0.16802493E+00 0.10107273E+04</pdfrwt>
<pdfrwt beam="2">  1       -2 0.15585197E+00 0.10107273E+04</pdfrwt>
<totfact> 0.59001934E+00</totfact>
</mgrwt>
</event>
<event>
12    1  0.3147868E-008  0.6877433E+03  0.7818608E-02  0.9738425E-01
         -2   -1    0    0    0  501 -0.00000000000E+00  0.00000000000E+00  0.67904614073E+03  0.67904614073E+03  0.00000000000E+00 0.  1.
          2   -1    0    0  501    0  0.00000000000E+00 -0.00000000000E+00 -0.14826793997E+04  0.14826793997E+04  0.00000000000E+00 0. -1.
         23    2    1    2    0    0  0.36025019059E+03  0.43770154274E+03 -0.11350932447E+04  0.12721870250E+04  0.93060797790E+02 0.  0.
    5000000    2    1    2    0    0 -0.36025019059E+03 -0.43770154274E+03  0.33145998571E+03  0.88953851545E+03  0.60004183854E+03 0.  0.
         23    2    4    4    0    0  0.13030858979E+03 -0.20849395460E+03  0.18921584280E+03  0.32240175457E+03  0.87693776909E+02 0.  0.
         23    2    4    4    0    0 -0.49055878038E+03 -0.22920758814E+03  0.14224414291E+03  0.56713676087E+03  0.90701013628E+02 0.  0.
          5    1    3    3  502    0  0.17546453342E+03  0.15054001673E+03 -0.41059053609E+03  0.47122900744E+03  0.47000000000E+01 0. -1.
         -5    1    3    3    0  502  0.18478565717E+03  0.28716152601E+03 -0.72450270863E+03  0.80095801759E+03  0.47000000000E+01 0.  1.
         11    1    5    5    0    0  0.53132601408E+02 -0.19387689147E+02  0.35556530114E+02  0.66807354809E+02  0.00000000000E+00 0. -1.
        -11    1    5    5    0    0  0.77175988383E+02 -0.18910626545E+03  0.15365931268E+03  0.25559439976E+03  0.00000000000E+00 0.  1.
          2    1    6    6  503    0 -0.15664136378E+03 -0.84800439973E+02  0.46560573504E+01  0.17818336155E+03  0.00000000000E+00 0. -1.
         -2    1    6    6    0  503 -0.33391741661E+03 -0.14440714817E+03  0.13758808556E+03  0.38895339932E+03  0.00000000000E+00 0.  1.
<mgrwt>
<rscale>  0 0.68774326E+03</rscale>
<asrwt>0</asrwt>
<pdfrwt beam="1">  1        2 0.22810452E+00 0.68774326E+03</pdfrwt>
<pdfrwt beam="2">  1       -2 0.10446864E+00 0.68774326E+03</pdfrwt>
<totfact> 0.99841864E+00</totfact>
</mgrwt>
</event>
<event>
12    1  0.3147868E-008  0.1046136E+04  0.7818608E-02  0.9259342E-01
          2   -1    0    0  501    0  0.00000000000E+00  0.00000000000E+00  0.22147605873E+04  0.22147605873E+04  0.00000000000E+00 0. -1.
         -2   -1    0    0    0  501 -0.00000000000E+00 -0.00000000000E+00 -0.81781152420E+03  0.81781152420E+03  0.00000000000E+00 0.  1.
         23    2    1    2    0    0 -0.74727034769E+03  0.68987950757E+03 -0.20614380304E+03  0.10414231541E+04  0.87864730335E+02 0.  0.
    5000000    2    1    2    0    0  0.74727034769E+03 -0.68987950757E+03  0.16030928662E+04  0.19911489574E+04  0.60035050233E+03 0.  0.
         23    2    4    4    0    0  0.42085981417E+02 -0.19128181418E+03  0.65618701012E+02  0.22534565642E+03  0.90082676900E+02 0.  0.
         23    2    4    4    0    0  0.70518436627E+03 -0.49859769339E+03  0.15374741652E+04  0.17658033010E+04  0.91377453797E+02 0.  0.
          5    1    3    3  502    0 -0.43973504824E+03  0.35805462497E+03 -0.88736062062E+02  0.57399146842E+03  0.47000000000E+01 0. -1.
         -5    1    3    3    0  502 -0.30753529945E+03  0.33182488261E+03 -0.11740774098E+03  0.46743168566E+03  0.47000000000E+01 0.  1.
         13    1    5    5    0    0  0.39360010260E+02 -0.38554464250E+02 -0.81804251710E+01  0.55700776271E+02  0.00000000000E+00 0.  1.
        -13    1    5    5    0    0  0.27259711570E+01 -0.15272734993E+03  0.73799126183E+02  0.16964488015E+03  0.00000000000E+00 0. -1.
          1    1    6    6  503    0  0.58324136778E+03 -0.43314091815E+03  0.13460773608E+04  0.15296096918E+04  0.00000000000E+00 0. -1.
         -1    1    6    6    0  503  0.12194299849E+03 -0.65456775244E+02  0.19139680440E+03  0.23619360923E+03  0.00000000000E+00 0.  1.
<mgrwt>
<rscale>  0 0.10461360E+04</rscale>
<asrwt>0</asrwt>
<pdfrwt beam="1">  1        2 0.34073239E+00 0.10461360E+04</pdfrwt>
<pdfrwt beam="2">  1       -2 0.12581716E+00 0.10461360E+04</pdfrwt>
<totfact> 0.23789679E+00</totfact>
</mgrwt>
</event>
<event>
12    1  0.3147868E-008  0.1129941E+04  0.7818608E-02  0.9176491E-01
         -2   -1    0    0    0  501 -0.00000000000E+00  0.00000000000E+00  0.16085033614E+04  0.16085033614E+04  0.00000000000E+00 0. -1.
          2   -1    0    0  501    0  0.00000000000E+00 -0.00000000000E+00 -0.87106878926E+03  0.87106878926E+03  0.00000000000E+00 0.  1.
         23    2    1    2    0    0  0.33958160688E+03  0.10520755561E+04  0.32934654816E+03  0.11571212161E+04  0.91003936156E+02 0.  0.
    5000000    2    1    2    0    0 -0.33958160688E+03 -0.10520755561E+04  0.40808802401E+03  0.13224509346E+04  0.60013498124E+03 0.  0.
         23    2    4    4    0    0 -0.29418922351E+03 -0.41613131571E+03  0.44021043041E+03  0.67854558765E+03  0.83224517627E+02 0.  0.
         23    2    4    4    0    0 -0.45392383365E+02 -0.63594424039E+03 -0.32122406398E+02  0.64390534698E+03  0.84241922647E+02 0.  0.
          5    1    3    3  502    0  0.78947435453E+02  0.32412480886E+03  0.13455475654E+03  0.35974527348E+03  0.47000000000E+01 0. -1.
         -5    1    3    3    0  502  0.26063417142E+03  0.72795074724E+03  0.19479179162E+03  0.79737594258E+03  0.47000000000E+01 0.  1.
         11    1    5    5    0    0 -0.25699844954E+03 -0.31559545583E+03  0.32202140921E+03  0.51898601406E+03  0.00000000000E+00 0.  1.
        -11    1    5    5    0    0 -0.37190773972E+02 -0.10053585988E+03  0.11818902120E+03  0.15955957358E+03  0.00000000000E+00 0. -1.
          3    1    6    6  503    0 -0.15183464773E+02 -0.46479237008E+03  0.97205561549E+01  0.46514188599E+03  0.00000000000E+00 0. -1.
         -3    1    6    6    0  503 -0.30208918592E+02 -0.17115187030E+03 -0.41842962553E+02  0.17876346099E+03  0.00000000000E+00 0.  1.
<mgrwt>
<rscale>  0 0.11299413E+04</rscale>
<asrwt>0</asrwt>
<pdfrwt beam="1">  1        2 0.13401058E+00 0.11299413E+04</pdfrwt>
<pdfrwt beam="2">  1       -2 0.24746206E+00 0.11299413E+04</pdfrwt>
<totfact> 0.20085771E+00</totfact>
</mgrwt>
</event>
<event>
12    1  0.3147868E-008  0.8065300E+03  0.7818608E-02  0.9550613E-01
         -2   -1    0    0    0  501 -0.00000000000E+00  0.00000000000E+00  0.38555831653E+03  0.38555831653E+03  0.00000000000E+00 0.  1.
          2   -1    0    0  501    0  0.00000000000E+00 -0.00000000000E+00 -0.26528390149E+04  0.26528390149E+04  0.00000000000E+00 0. -1.
         23    2    1    2    0    0  0.68743579201E+03  0.37262312420E+03 -0.30812399422E+03  0.84529903547E+03  0.90410744564E+02 0.  0.
    5000000    2    1    2    0    0 -0.68743579201E+03 -0.37262312420E+03 -0.19591567042E+04  0.21930982960E+04  0.59997431902E+03 0.  0.
         23    2    4    4    0    0 -0.64643828978E+03 -0.27286252975E+03 -0.10069162148E+04  0.12304797608E+04  0.88677817828E+02 0.  0.
         23    2    4    4    0    0 -0.40997502230E+02 -0.99760594451E+02 -0.95224048935E+03  0.96261853519E+03  0.90771820271E+02 0.  0.
          5    1    3    3  502    0  0.30842245271E+03  0.11673148088E+03 -0.12920948234E+03  0.35421438182E+03  0.47000000000E+01 0. -1.
         -5    1    3    3    0  502  0.37901333930E+03  0.25589164332E+03 -0.17891451189E+03  0.49108465365E+03  0.47000000000E+01 0.  1.
         13    1    5    5    0    0 -0.11788966496E+03 -0.65621940895E+02 -0.14196380221E+03  0.19585181482E+03  0.00000000000E+00 0. -1.
        -13    1    5    5    0    0 -0.52854862482E+03 -0.20724058885E+03 -0.86495241261E+03  0.10346279460E+04  0.00000000000E+00 0.  1.
          3    1    6    6  503    0  0.35502107709E+01 -0.69101294257E+02 -0.28861256688E+03  0.29679084660E+03  0.00000000000E+00 0. -1.
         -3    1    6    6    0  503 -0.44547713001E+02 -0.30659300194E+02 -0.66362792247E+03  0.66582768860E+03  0.00000000000E+00 0.  1.
<mgrwt>
<rscale>  0 0.80652998E+03</rscale>
<asrwt>0</asrwt>
<pdfrwt beam="1">  1        2 0.40812909E+00 0.80652998E+03</pdfrwt>
<pdfrwt beam="2">  1       -2 0.59316663E-01 0.80652998E+03</pdfrwt>
<totfact> 0.78439548E+00</totfact>
</mgrwt>
</event>
<event>
12    1  0.3147868E-008  0.1228165E+04  0.7818608E-02  0.9088555E-01
         -2   -1    0    0    0  501 -0.00000000000E+00  0.00000000000E+00  0.53705464619E+03  0.53705464619E+03  0.00000000000E+00 0.  1.
          2   -1    0    0  501    0  0.00000000000E+00 -0.00000000000E+00 -0.30643058015E+04  0.30643058015E+04  0.00000000000E+00 0. -1.
         23    2    1    2    0    0  0.11323989717E+04 -0.27629082725E+03 -0.73538749726E+03  0.13811305742E+04  0.89793315427E+02 0.  0.
    5000000    2    1    2    0    0 -0.11323989717E+04  0.27629082725E+03 -0.17918636581E+04  0.22202298736E+04  0.59998439155E+03 0.  0.
         23    2    4    4    0    0  0.21059043344E+02 -0.30023696550E+02 -0.57661815204E+02  0.11298240283E+03  0.89973511417E+02 0.  0.
         23    2    4    4    0    0 -0.11534580150E+04  0.30631452380E+03 -0.17342018429E+04  0.21072474707E+04  0.93498081361E+02 0.  0.
          5    1    3    3  502    0  0.60591732470E+03 -0.12996351834E+03 -0.43916101849E+03  0.75954645060E+03  0.47000000000E+01 0. -1.
         -5    1    3    3    0  502  0.52648164696E+03 -0.14632730891E+03 -0.29622647878E+03  0.62158412355E+03  0.47000000000E+01 0.  1.
         13    1    5    5    0    0  0.39393060817E+02 -0.53769669289E+02 -0.44975869888E+02  0.80410319289E+02  0.00000000000E+00 0. -1.
        -13    1    5    5    0    0 -0.18334017473E+02  0.23745972739E+02 -0.12685945316E+02  0.32572083546E+02  0.00000000000E+00 0.  1.
          4    1    6    6  503    0 -0.79611968415E+03  0.21723016518E+03 -0.12725077695E+04  0.15166646035E+04  0.00000000000E+00 0. -1.
         -4    1    6    6    0  503 -0.35733833086E+03  0.89084358621E+02 -0.46169407337E+03  0.59058286720E+03  0.00000000000E+00 0.  1.
<mgrwt>
<rscale>  0 0.12281652E+04</rscale>
<asrwt>0</asrwt>
<pdfrwt beam="1">  1        2 0.47143166E+00 0.12281652E+04</pdfrwt>
<pdfrwt beam="2">  1       -2 0.82623792E-01 0.12281652E+04</pdfrwt>
<totfact> 0.20188770E+00</totfact>
</mgrwt>
</event>
<event>
12    1  0.3147868E-008  0.1078666E+04  0.7818608E-02  0.9226239E-01
         -1   -1    0    0    0  501 -0.00000000000E+00  0.00000000000E+00  0.23003307313E+04  0.23003307313E+04  0.00000000000E+00 0.  1.
          1   -1    0    0  501    0  0.00000000000E+00 -0.00000000000E+00 -0.78560839544E+03  0.78560839544E+03  0.00000000000E+00 0. -1.
         23    2    1    2    0    0 -0.65846824355E+02 -0.10622530302E+04 -0.86715406376E+02  0.10716975053E+04  0.91097073608E+02 0.  0.
    5000000    2    1    2    0    0  0.65846824355E+02  0.10622530302E+04  0.16014377422E+04  0.20142416214E+04  0.59987428915E+03 0.  0.
         23    2    4    4    0    0 -0.21886698760E+02  0.21345200421E+03  0.45470872363E+02  0.23722450297E+03  0.90371892155E+02 0.  0.
         23    2    4    4    0    0  0.87733523114E+02  0.84880102596E+03  0.15559668698E+04  0.17770171184E+04  0.92717777974E+02 0.  0.
          5    1    3    3  502    0 -0.16208162291E+02 -0.78546289525E+03 -0.40562652639E+02  0.78669058920E+03  0.47000000000E+01 0. -1.
         -5    1    3    3    0  502 -0.49638662064E+02 -0.27679013492E+03 -0.46152753737E+02  0.28500691612E+03  0.47000000000E+01 0.  1.
         11    1    5    5    0    0 -0.56054640572E+02  0.15716985158E+03  0.35989637351E+02  0.17070365834E+03  0.00000000000E+00 0. -1.
        -11    1    5    5    0    0  0.34167941812E+02  0.56282152631E+02  0.94812350117E+01  0.66520844626E+02  0.00000000000E+00 0.  1.
          1    1    6    6  503    0  0.81955597104E+02  0.37299383885E+03  0.65955318283E+03  0.76213615890E+03  0.00000000000E+00 0. -1.
         -1    1    6    6    0  503  0.57779260109E+01  0.47580718711E+03  0.89641368700E+03  0.10148809595E+04  0.00000000000E+00 0.  1.
<mgrwt>
<rscale>  0 0.10786658E+04</rscale>
<asrwt>0</asrwt>
<pdfrwt beam="1">  1        1 0.12086283E+00 0.10786658E+04</pdfrwt>
<pdfrwt beam="2">  1       -1 0.35389703E+00 0.10786658E+04</pdfrwt>
<totfact> 0.33600000E-01</totfact>
</mgrwt>
</event>
<event>
12    1  0.3147868E-008  0.5292309E+03  0.7818608E-02  0.1006419E+00
          2   -1    0    0  501    0  0.00000000000E+00  0.00000000000E+00  0.24122244493E+04  0.24122244493E+04  0.00000000000E+00 0.  1.
         -2   -1    0    0    0  501 -0.00000000000E+00 -0.00000000000E+00 -0.14860114606E+03  0.14860114606E+03  0.00000000000E+00 0. -1.
         23    2    1    2    0    0 -0.33068110034E+03 -0.19571467112E+03  0.38840933672E+03  0.55493196688E+03  0.97125961562E+02 0.  0.
    5000000    2    1    2    0    0  0.33068110034E+03  0.19571467112E+03  0.18752139665E+04  0.20058936285E+04  0.59960620901E+03 0.  0.
         23    2    4    4    0    0  0.27100116368E+03  0.38608884303E+03  0.11329899297E+04  0.12306639369E+04  0.91440249682E+02 0.  0.
         23    2    4    4    0    0  0.59679936655E+02 -0.19037417191E+03  0.74222403679E+03  0.77522969158E+03  0.10139296692E+03 0.  0.
          5    1    3    3  502    0 -0.11896386074E+03 -0.54240168794E+02  0.73973824826E+02  0.15029508585E+03  0.47000000000E+01 0. -1.
         -5    1    3    3    0  502 -0.21171723960E+03 -0.14147450233E+03  0.31443551189E+03  0.40463688103E+03  0.47000000000E+01 0.  1.
         11    1    5    5    0    0  0.16818952734E+03  0.26782017074E+03  0.64932492001E+03  0.72224525800E+03  0.00000000000E+00 0. -1.
        -11    1    5    5    0    0  0.10281163634E+03  0.11826867229E+03  0.48366500974E+03  0.50841867891E+03  0.00000000000E+00 0.  1.
          2    1    6    6  503    0  0.20577561969E+02 -0.88755306733E+02  0.17136533086E+03  0.19407992465E+03  0.00000000000E+00 0.  1.
         -2    1    6    6    0  503  0.39102374686E+02 -0.10161886518E+03  0.57085870593E+03  0.58114976693E+03  0.00000000000E+00 0. -1.
<mgrwt>
<rscale>  0 0.52923092E+03</rscale>
<asrwt>0</asrwt>
<pdfrwt beam="1">  1        2 0.37111142E+00 0.52923092E+03</pdfrwt>
<pdfrwt beam="2">  1       -2 0.22861717E-01 0.52923092E+03</pdfrwt>
<totfact> 0.70576126E+01</totfact>
</mgrwt>
</event>
<event>
12    1  0.3147868E-008  0.8175655E+03  0.7818608E-02  0.9534934E-01
         -2   -1    0    0    0  501 -0.00000000000E+00  0.00000000000E+00  0.91485445206E+03  0.91485445206E+03  0.00000000000E+00 0.  1.
          2   -1    0    0  501    0  0.00000000000E+00 -0.00000000000E+00 -0.91233836109E+03  0.91233836109E+03  0.00000000000E+00 0. -1.
         23    2    1    2    0    0 -0.59085775779E+03  0.55720872993E+03  0.17949092440E+02  0.81741858673E+03  0.90865380454E+02 0.  0.
    5000000    2    1    2    0    0  0.59085775779E+03 -0.55720872993E+03 -0.15433001474E+02  0.10097742264E+04  0.59984277287E+03 0.  0.
         23    2    4    4    0    0  0.41506523064E+03 -0.36696318264E+03  0.26176717858E+03  0.61993523404E+03  0.94109061856E+02 0.  0.
         23    2    4    4    0    0  0.17579252715E+03 -0.19024554728E+03 -0.27720018005E+03  0.38983899238E+03  0.89655559220E+02 0.  0.
          5    1    3    3  502    0 -0.22635805635E+03  0.17579376525E+03 -0.26993660133E+02  0.28790999507E+03  0.47000000000E+01 0. -1.
         -5    1    3    3    0  502 -0.36449970144E+03  0.38141496468E+03  0.44942752573E+02  0.52950859166E+03  0.47000000000E+01 0.  1.
         11    1    5    5    0    0  0.35722407970E+03 -0.34743376833E+03  0.21357311068E+03  0.54215564195E+03  0.00000000000E+00 0.  1.
        -11    1    5    5    0    0  0.57841150940E+02 -0.19529414315E+02  0.48194067894E+02  0.77779592090E+02  0.00000000000E+00 0. -1.
          3    1    6    6  503    0  0.64979174230E+02 -0.45926753092E+02 -0.14335649830E+03  0.16395927951E+03  0.00000000000E+00 0. -1.
         -3    1    6    6    0  503  0.11081335292E+03 -0.14431879419E+03 -0.13384368175E+03  0.22587971287E+03  0.00000000000E+00 0.  1.
<mgrwt>
<rscale>  0 0.81756550E+03</rscale>
<asrwt>0</asrwt>
<pdfrwt beam="1">  1        2 0.14035975E+00 0.81756550E+03</pdfrwt>
<pdfrwt beam="2">  1       -2 0.14074684E+00 0.81756550E+03</pdfrwt>
<totfact> 0.10282623E+01</totfact>
</mgrwt>
</event>
<event>
12    1  0.3147868E-008  0.3943781E+03  0.7818608E-02  0.1045744E+00
          2   -1    0    0  501    0  0.00000000000E+00  0.00000000000E+00  0.10156948810E+04  0.10156948810E+04  0.00000000000E+00 0.  1.
         -2   -1    0    0    0  501 -0.00000000000E+00 -0.00000000000E+00 -0.34158871741E+03  0.34158871741E+03  0.00000000000E+00 0. -1.
         23    2    1    2    0    0 -0.74500351446E+02 -0.24794383577E+03  0.64766743663E+03  0.70327508341E+03  0.89979366624E+02 0.  0.
    5000000    2    1    2    0    0  0.74500351446E+02  0.24794383577E+03  0.26438726991E+02  0.65400851502E+03  0.60000140281E+03 0.  0.
         23    2    4    4    0    0  0.56417091984E+02  0.36846929819E+03  0.19288727575E+03  0.42973964688E+03  0.92293829551E+02 0.  0.
         23    2    4    4    0    0  0.18083259462E+02 -0.12052546243E+03 -0.16644854876E+03  0.22426886815E+03  0.87965984738E+02 0.  0.
          5    1    3    3  502    0 -0.41419083172E+02 -0.91465532401E+02  0.15038402739E+03  0.18088374654E+03  0.47000000000E+01 0. -1.
         -5    1    3    3    0  502 -0.33081268274E+02 -0.15647830337E+03  0.49728340924E+03  0.52239133687E+03  0.47000000000E+01 0.  1.
         13    1    5    5    0    0  0.57714134146E+02  0.14453580513E+03  0.47395020534E+02  0.16268929964E+03  0.00000000000E+00 0.  1.
        -13    1    5    5    0    0 -0.12970421614E+01  0.22393349306E+03  0.14549225521E+03  0.26705034724E+03  0.00000000000E+00 0. -1.
          3    1    6    6  503    0  0.52555323663E+02 -0.72051717120E+02 -0.11568731430E+03  0.14607212833E+03  0.00000000000E+00 0. -1.
         -3    1    6    6    0  503 -0.34472064201E+02 -0.48473745305E+02 -0.50761234458E+02  0.78196739816E+02  0.00000000000E+00 0.  1.
<mgrwt>
<rscale>  0 0.39437811E+03</rscale>
<asrwt>0</asrwt>
<pdfrwt beam="1">  1        2 0.15626075E+00 0.39437811E+03</pdfrwt>
<pdfrwt beam="2">  1       -2 0.52552111E-01 0.39437811E+03</pdfrwt>
<totfact> 0.88491683E+01</totfact>
</mgrwt>
</event>
<event>
12    1  0.3147868E-008  0.5230639E+03  0.7818608E-02  0.1007928E+00
          2   -1    0    0  501    0  0.00000000000E+00  0.00000000000E+00  0.39889450572E+04  0.39889450572E+04  0.00000000000E+00 0.  1.
         -2   -1    0    0    0  501 -0.00000000000E+00 -0.00000000000E+00 -0.10065103331E+03  0.10065103331E+03  0.00000000000E+00 0. -1.
         23    2    1    2    0    0 -0.21224144599E+03  0.43710249212E+03  0.16014630117E+04  0.16759867601E+04  0.90237587065E+02 0.  0.
    5000000    2    1    2    0    0  0.21224144599E+03 -0.43710249212E+03  0.22868310122E+04  0.24136093304E+04  0.59984073019E+03 0.  0.
         23    2    4    4    0    0  0.10147728914E+03 -0.42751229815E+03  0.22024211158E+04  0.22477400992E+04  0.92802892486E+02 0.  0.
         23    2    4    4    0    0  0.11076415685E+03 -0.95901939675E+01  0.84409896410E+02  0.16586923127E+03  0.89592974086E+02 0.  0.
          5    1    3    3  502    0 -0.11260441873E+03  0.23320086174E+03  0.10035790697E+04  0.10364629449E+04  0.47000000000E+01 0. -1.
         -5    1    3    3    0  502 -0.99637027260E+02  0.20390163038E+03  0.59788394204E+03  0.63952381521E+03  0.47000000000E+01 0.  1.
         13    1    5    5    0    0  0.24261472268E+02 -0.13710040818E+02  0.15684194122E+03  0.15929839542E+03  0.00000000000E+00 0.  1.
        -13    1    5    5    0    0  0.77215816870E+02 -0.41380225733E+03  0.20455791746E+04  0.20884417038E+04  0.00000000000E+00 0. -1.
          2    1    6    6  503    0  0.90473991546E+02 -0.56712458374E+01  0.10360459746E+03  0.13766487857E+03  0.00000000000E+00 0.  1.
         -2    1    6    6    0  503  0.20290165303E+02 -0.39189481301E+01 -0.19194701054E+02  0.28204352697E+02  0.00000000000E+00 0. -1.
<mgrwt>
<rscale>  0 0.52306395E+03</rscale>
<asrwt>0</asrwt>
<pdfrwt beam="1">  1        2 0.61368373E+00 0.52306395E+03</pdfrwt>
<pdfrwt beam="2">  1       -2 0.15484777E-01 0.52306395E+03</pdfrwt>
<totfact> 0.13462673E+01</totfact>
</mgrwt>
</event>
<event>
12    1  0.3147868E-008  0.1069283E+04  0.7818608E-02  0.9235659E-01
          1   -1    0    0  501    0  0.00000000000E+00  0.00000000000E+00  0.95831146014E+03  0.95831146014E+03  0.00000000000E+00 0. -1.
         -1   -1    0    0    0  501 -0.00000000000E+00 -0.00000000000E+00 -0.14939166110E+04  0.14939166110E+04  0.00000000000E+00 0.  1.
         23    2    1    2    0    0 -0.74283113730E+03 -0.65769763965E+03 -0.78183095598E+03  0.12669292547E+04  0.97395117317E+02 0.  0.
    5000000    2    1    2    0    0  0.74283113730E+03  0.65769763965E+03  0.24622580515E+03  0.11852988164E+04  0.59995154253E+03 0.  0.
         23    2    4    4    0    0  0.16835960736E+03  0.53013428560E+03  0.13822806040E+03  0.58018880969E+03  0.90137339892E+02 0.  0.
         23    2    4    4    0    0  0.57447152994E+03  0.12756335405E+03  0.10799774476E+03  0.60511000675E+03  0.90579574922E+02 0.  0.
          5    1    3    3  502    0 -0.27678184256E+03 -0.26242718101E+03 -0.35884979223E+03  0.52370934409E+03  0.47000000000E+01 0. -1.
         -5    1    3    3    0  502 -0.46604929474E+03 -0.39527045864E+03 -0.42298116375E+03  0.74321991059E+03  0.47000000000E+01 0.  1.
         13    1    5    5    0    0  0.13617538171E+03  0.37215557389E+03  0.13592048568E+03  0.41894854599E+03  0.00000000000E+00 0.  1.
        -13    1    5    5    0    0  0.32184225646E+02  0.15797871171E+03  0.23075747164E+01  0.16124026369E+03  0.00000000000E+00 0. -1.
          4    1    6    6  503    0  0.47016670242E+03  0.10685699567E+03  0.52072272345E+02  0.48496047997E+03  0.00000000000E+00 0. -1.
         -4    1    6    6    0  503  0.10430482752E+03  0.20706358375E+02  0.55925472410E+02  0.12014952678E+03  0.00000000000E+00 0.  1.
<mgrwt>
<rscale>  0 0.10692832E+04</rscale>
<asrwt>0</asrwt>
<pdfrwt beam="1">  1        1 0.14743253E+00 0.10692832E+04</pdfrwt>
<pdfrwt beam="2">  1       -1 0.22983333E+00 0.10692832E+04</pdfrwt>
<totfact> 0.15403064E+00</totfact>
</mgrwt>
</event>
<event>
12    1  0.3147868E-008  0.5331348E+03  0.7818608E-02  0.1005475E+00
          2   -1    0    0  501    0  0.00000000000E+00  0.00000000000E+00  0.73449090772E+03  0.73449090772E+03  0.00000000000E+00 0. -1.
         -2   -1    0    0    0  501 -0.00000000000E+00 -0.00000000000E+00 -0.54451321795E+03  0.54451321795E+03  0.00000000000E+00 0.  1.
         23    2    1    2    0    0 -0.13953953841E+03  0.34750787643E+03 -0.23705319331E+03  0.45268942567E+03  0.92198116531E+02 0.  0.
    5000000    2    1    2    0    0  0.13953953841E+03 -0.34750787643E+03  0.42703088309E+03  0.82631470000E+03  0.60017297621E+03 0.  0.
         23    2    4    4    0    0  0.27550895609E+03 -0.43033957256E+03  0.35421958248E+03  0.62814618723E+03  0.89435939729E+02 0.  0.
         23    2    4    4    0    0 -0.13596941768E+03  0.82831696136E+02  0.72811300608E+02  0.19816851278E+03  0.92846656004E+02 0.  0.
          5    1    3    3  502    0 -0.78886476081E+02  0.17531630580E+03 -0.17443115253E+03  0.25962896634E+03  0.47000000000E+01 0. -1.
         -5    1    3    3    0  502 -0.60653062330E+02  0.17219157063E+03 -0.62622040782E+02  0.19306045933E+03  0.47000000000E+01 0.  1.
         13    1    5    5    0    0  0.22318320362E+03 -0.29557041576E+03  0.28782424346E+03  0.46905800086E+03  0.00000000000E+00 0.  1.
        -13    1    5    5    0    0  0.52325752475E+02 -0.13476915680E+03  0.66395339018E+02  0.15908818636E+03  0.00000000000E+00 0. -1.
          1    1    6    6  503    0 -0.26432529389E+02 -0.14257577666E+02  0.36674076569E+02  0.47401951679E+02  0.00000000000E+00 0. -1.
         -1    1    6    6    0  503 -0.10953688829E+03  0.97089273802E+02  0.36137224039E+02  0.15076656110E+03  0.00000000000E+00 0.  1.
<mgrwt>
<rscale>  0 0.53313484E+03</rscale>
<asrwt>0</asrwt>
<pdfrwt beam="1">  1        2 0.11299860E+00 0.53313484E+03</pdfrwt>
<pdfrwt beam="2">  1       -2 0.83771265E-01 0.53313484E+03</pdfrwt>
<totfact> 0.49585205E+01</totfact>
</mgrwt>
</event>
<event>
12    1  0.3147868E-008  0.8758675E+03  0.7818608E-02  0.9456261E-01
          2   -1    0    0  501    0  0.00000000000E+00  0.00000000000E+00  0.10136616848E+04  0.10136616848E+04  0.00000000000E+00 0. -1.
         -2   -1    0    0    0  501 -0.00000000000E+00 -0.00000000000E+00 -0.85854776545E+03  0.85854776545E+03  0.00000000000E+00 0.  1.
         23    2    1    2    0    0  0.77353993563E+03 -0.81779697510E+02 -0.23112918919E+03  0.81665237510E+03  0.91915443352E+02 0.  0.
    5000000    2    1    2    0    0 -0.77353993563E+03  0.81779697510E+02  0.38624310848E+03  0.10555570751E+04  0.59997087347E+03 0.  0.
         23    2    4    4    0    0  0.69236794411E+02  0.69625613652E+01 -0.35740904460E+00  0.12071492564E+03  0.98639518293E+02 0.  0.
         23    2    4    4    0    0 -0.84277673004E+03  0.74817136145E+02  0.38660051753E+03  0.93484214947E+03  0.92734371767E+02 0.  0.
          5    1    3    3  502    0  0.14916041925E+03 -0.45518332030E+02 -0.68557477240E+02  0.17041997215E+03  0.47000000000E+01 0. -1.
         -5    1    3    3    0  502  0.62437951638E+03 -0.36261365480E+02 -0.16257171195E+03  0.64623240296E+03  0.47000000000E+01 0.  1.
         11    1    5    5    0    0  0.61574170508E+02  0.48350067470E+02  0.40540168860E+01  0.78393510898E+02  0.00000000000E+00 0. -1.
        -11    1    5    5    0    0  0.76626239032E+01 -0.41387506105E+02 -0.44114259306E+01  0.42321414738E+02  0.00000000000E+00 0.  1.
          1    1    6    6  503    0 -0.72670621843E+03  0.92155196882E+02  0.35046254096E+03  0.81204587360E+03  0.00000000000E+00 0. -1.
         -1    1    6    6    0  503 -0.11607051161E+03 -0.17338060737E+02  0.36137976565E+02  0.12279627587E+03  0.00000000000E+00 0.  1.
<mgrwt>
<rscale>  0 0.87586754E+03</rscale>
<asrwt>0</asrwt>
<pdfrwt beam="1">  1        2 0.15594795E+00 0.87586754E+03</pdfrwt>
<pdfrwt beam="2">  1       -2 0.13208427E+00 0.87586754E+03</pdfrwt>
<totfact> 0.10333678E+01</totfact>
</mgrwt>
</event>
<event>
12    1  0.3147868E-008  0.7320897E+03  0.7818608E-02  0.9663875E-01
         -1   -1    0    0    0  501 -0.00000000000E+00  0.00000000000E+00  0.20823634797E+03  0.20823634797E+03  0.00000000000E+00 0.  1.
          1   -1    0    0  501    0  0.00000000000E+00 -0.00000000000E+00 -0.27112877734E+04  0.27112877734E+04  0.00000000000E+00 0. -1.
         23    2    1    2    0    0 -0.57451078442E+03  0.21505336913E+03 -0.79853355615E+03  0.10112391464E+04  0.92941798857E+02 0.  0.
    5000000    2    1    2    0    0  0.57451078442E+03 -0.21505336913E+03 -0.17045178693E+04  0.19082849750E+04  0.59988314355E+03 0.  0.
         23    2    4    4    0    0  0.24520862744E+03 -0.38648257392E+03 -0.81800727684E+03  0.94305429866E+03  0.10353479777E+03 0.  0.
         23    2    4    4    0    0  0.32930215698E+03  0.17142920479E+03 -0.88651059249E+03  0.96523067632E+03  0.89114224891E+02 0.  0.
          5    1    3    3  502    0 -0.49281025277E+03  0.18680247907E+03 -0.73225700688E+03  0.90220813871E+03  0.47000000000E+01 0. -1.
         -5    1    3    3    0  502 -0.81700531650E+02  0.28250890052E+02 -0.66276549269E+02  0.10903100772E+03  0.47000000000E+01 0.  1.
         13    1    5    5    0    0  0.13949607073E+03 -0.30506557169E+03 -0.56749239189E+03  0.65922057889E+03  0.00000000000E+00 0. -1.
        -13    1    5    5    0    0  0.10571255671E+03 -0.81417002229E+02 -0.25051488495E+03  0.28383371977E+03  0.00000000000E+00 0.  1.
          4    1    6    6  503    0  0.31800535763E+03  0.13848211157E+03 -0.81229433611E+03  0.88324786509E+03  0.00000000000E+00 0.  1.
         -4    1    6    6    0  503  0.11296799347E+02  0.32947093224E+02 -0.74216256379E+02  0.81982811237E+02  0.00000000000E+00 0. -1.
<mgrwt>
<rscale>  0 0.73208969E+03</rscale>
<asrwt>0</asrwt>
<pdfrwt beam="1">  1        1 0.41712116E+00 0.73208969E+03</pdfrwt>
<pdfrwt beam="2">  1       -1 0.32036364E-01 0.73208969E+03</pdfrwt>
<totfact> 0.92860606E+00</totfact>
</mgrwt>
</event>
<event>
12    1  0.3147868E-008  0.4023695E+03  0.7818608E-02  0.1042962E+00
         -1   -1    0    0    0  501 -0.00000000000E+00  0.00000000000E+00  0.89038383078E+03  0.89038383078E+03  0.00000000000E+00 0.  1.
          1   -1    0    0  501    0  0.00000000000E+00 -0.00000000000E+00 -0.28110761143E+03  0.28110761143E+03  0.00000000000E+00 0. -1.
         23    2    1    2    0    0 -0.12826446769E+03  0.23558513851E+03  0.12378835400E+02  0.28353429544E+03  0.91029280819E+02 0.  0.
    5000000    2    1    2    0    0  0.12826446769E+03 -0.23558513851E+03  0.59689738395E+03  0.88795714677E+03  0.60019103324E+03 0.  0.
         23    2    4    4    0    0  0.27359206776E+03 -0.23113574475E+03  0.61455930016E+03  0.71695385692E+03  0.89796144096E+02 0.  0.
         23    2    4    4    0    0 -0.14532760007E+03 -0.44493937644E+01 -0.17661916206E+02  0.17100328986E+03  0.88262525509E+02 0.  0.
          5    1    3    3  502    0 -0.21340290495E+02  0.40270260099E+02 -0.32715326202E+02  0.56298174175E+02  0.47000000000E+01 0. -1.
         -5    1    3    3    0  502 -0.10692417719E+03  0.19531487841E+03  0.45094161602E+02  0.22723612127E+03  0.47000000000E+01 0.  1.
         11    1    5    5    0    0  0.10791389697E+03 -0.14621494309E+03  0.27305488036E+03  0.32799875980E+03  0.00000000000E+00 0. -1.
        -11    1    5    5    0    0  0.16567817079E+03 -0.84920801658E+02  0.34150441980E+03  0.38895509712E+03  0.00000000000E+00 0.  1.
          1    1    6    6  503    0 -0.15146967922E+01 -0.23223058836E+02 -0.11197664951E+02  0.25826197327E+02  0.00000000000E+00 0. -1.
         -1    1    6    6    0  503 -0.14381290328E+03  0.18773665071E+02 -0.64642512556E+01  0.14517709253E+03  0.00000000000E+00 0.  1.
<mgrwt>
<rscale>  0 0.40236951E+03</rscale>
<asrwt>0</asrwt>
<pdfrwt beam="1">  1        1 0.43247325E-01 0.40236951E+03</pdfrwt>
<pdfrwt beam="2">  1       -1 0.13698213E+00 0.40236951E+03</pdfrwt>
<totfact> 0.44885402E+01</totfact>
</mgrwt>
</event>
<event>
12    1  0.3147868E-008  0.4708761E+03  0.7818608E-02  0.1021673E+00
         -1   -1    0    0    0  501 -0.00000000000E+00  0.00000000000E+00  0.24348110769E+03  0.24348110769E+03  0.00000000000E+00 0.  1.
          1   -1    0    0  501    0  0.00000000000E+00 -0.00000000000E+00 -0.13617702664E+04  0.13617702664E+04  0.00000000000E+00 0. -1.
         23    2    1    2    0    0  0.12576256971E+03  0.36876966988E+03 -0.22026059404E+03  0.45655622152E+03  0.90119702419E+02 0.  0.
    5000000    2    1    2    0    0 -0.12576256971E+03 -0.36876966988E+03 -0.89802856469E+03  0.11486951526E+04  0.60103074563E+03 0.  0.
         23    2    4    4    0    0 -0.34883297290E+02 -0.40935338013E+03 -0.25576731340E+03  0.49232757175E+03  0.90457089543E+02 0.  0.
         23    2    4    4    0    0 -0.90879272417E+02  0.40583710253E+02 -0.64226125129E+03  0.65636758083E+03  0.91721352801E+02 0.  0.
          5    1    3    3  502    0  0.65331295632E+02  0.86873484279E+02 -0.85008129746E+02  0.13807118665E+03  0.47000000000E+01 0. -1.
         -5    1    3    3    0  502  0.60431274075E+02  0.28189618560E+03 -0.13525246429E+03  0.31848503487E+03  0.47000000000E+01 0.  1.
         11    1    5    5    0    0 -0.36966216304E+02 -0.17714808102E+03 -0.66654069424E+02  0.19284892721E+03  0.00000000000E+00 0.  1.
        -11    1    5    5    0    0  0.20829190145E+01 -0.23220529911E+03 -0.18911324398E+03  0.29947864454E+03  0.00000000000E+00 0. -1.
          3    1    6    6  503    0 -0.10509483376E+02  0.49471604346E+02 -0.17500715642E+03  0.18216858587E+03  0.00000000000E+00 0. -1.
         -3    1    6    6    0  503 -0.80369789040E+02 -0.88878940933E+01 -0.46725409487E+03  0.47419899496E+03  0.00000000000E+00 0.  1.
<mgrwt>
<rscale>  0 0.47087615E+03</rscale>
<asrwt>0</asrwt>
<pdfrwt beam="1">  1        1 0.20950312E+00 0.47087615E+03</pdfrwt>
<pdfrwt beam="2">  1       -1 0.37458631E-01 0.47087615E+03</pdfrwt>
<totfact> 0.59674581E+01</totfact>
</mgrwt>
</event>
<event>
12    1  0.3147868E-008  0.7006260E+03  0.7818608E-02  0.9716162E-01
         -1   -1    0    0    0  501 -0.00000000000E+00  0.00000000000E+00  0.98468258193E+03  0.98468258193E+03  0.00000000000E+00 0.  1.
          1   -1    0    0  501    0  0.00000000000E+00 -0.00000000000E+00 -0.60763018409E+03  0.60763018409E+03  0.00000000000E+00 0. -1.
         23    2    1    2    0    0  0.64124088275E+03 -0.61499310935E+02  0.47762135758E+02  0.65250488066E+03  0.92246207080E+02 0.  0.
    5000000    2    1    2    0    0 -0.64124088275E+03  0.61499310935E+02  0.32929026209E+03  0.93980788536E+03  0.59986227563E+03 0.  0.
         23    2    4    4    0    0 -0.17216657923E+03  0.17998974505E+03  0.35971256555E+03  0.44676898089E+03  0.90397749666E+02 0.  0.
         23    2    4    4    0    0 -0.46907430352E+03 -0.11849043412E+03 -0.30422303467E+02  0.49303890447E+03  0.89950873080E+02 0.  0.
          5    1    3    3  502    0  0.24627411129E+03 -0.48965313710E+01 -0.22285738773E+02  0.24737351932E+03  0.47000000000E+01 0. -1.
         -5    1    3    3    0  502  0.39496677146E+03 -0.56602779564E+02  0.70047874531E+02  0.40513136134E+03  0.47000000000E+01 0.  1.
         11    1    5    5    0    0 -0.53284941518E+02  0.11866508850E+03  0.19791769099E+03  0.23683770948E+03  0.00000000000E+00 0.  1.
        -11    1    5    5    0    0 -0.11888163771E+03  0.61324656556E+02  0.16179487456E+03  0.20993127142E+03  0.00000000000E+00 0. -1.
          3    1    6    6  503    0 -0.26781256848E+03 -0.21723867364E+02 -0.11888245219E+02  0.26895506804E+03  0.00000000000E+00 0. -1.
         -3    1    6    6    0  503 -0.20126173504E+03 -0.96766566755E+02 -0.18534058248E+02  0.22408383643E+03  0.00000000000E+00 0.  1.
<mgrwt>
<rscale>  0 0.70062596E+03</rscale>
<asrwt>0</asrwt>
<pdfrwt beam="1">  1        1 0.93481567E-01 0.70062596E+03</pdfrwt>
<pdfrwt beam="2">  1       -1 0.15148963E+00 0.70062596E+03</pdfrwt>
<totfact> 0.11833953E+01</totfact>
</mgrwt>
</event>
<event>
12    1  0.3147868E-008  0.4267203E+03  0.7818608E-02  0.1034901E+00
          1   -1    0    0  501    0  0.00000000000E+00  0.00000000000E+00  0.13416281411E+04  0.13416281411E+04  0.00000000000E+00 0. -1.
         -1   -1    0    0    0  501 -0.00000000000E+00 -0.00000000000E+00 -0.18860476680E+03  0.18860476680E+03  0.00000000000E+00 0.  1.
         23    2    1    2    0    0 -0.28151594612E+03 -0.10120646607E+03  0.22447619132E+03  0.38488768933E+03  0.90857009815E+02 0.  0.
    5000000    2    1    2    0    0  0.28151594612E+03  0.10120646607E+03  0.92854718293E+03  0.11453452185E+04  0.60010150974E+03 0.  0.
         23    2    4    4    0    0  0.24618162805E+03 -0.14652516177E+03  0.79357894171E+03  0.84850875976E+03  0.90136350351E+02 0.  0.
         23    2    4    4    0    0  0.35334318070E+02  0.24773162783E+03  0.13496824123E+03  0.29683645877E+03  0.85299376641E+02 0.  0.
          5    1    3    3  502    0 -0.12657937261E+03 -0.66441235145E+01  0.61783533404E+02  0.14108783416E+03  0.47000000000E+01 0. -1.
         -5    1    3    3    0  502 -0.15493657350E+03 -0.94562342552E+02  0.16269265792E+03  0.24379985516E+03  0.47000000000E+01 0.  1.
         11    1    5    5    0    0  0.10991106079E+03 -0.26263263176E+02  0.22842576857E+03  0.25485001869E+03  0.00000000000E+00 0.  1.
        -11    1    5    5    0    0  0.13627056726E+03 -0.12026189859E+03  0.56515317313E+03  0.59365874108E+03  0.00000000000E+00 0. -1.
          3    1    6    6  503    0  0.19207679711E+02  0.12048025931E+03  0.18149996756E+02  0.12334443736E+03  0.00000000000E+00 0. -1.
         -3    1    6    6    0  503  0.16126638359E+02  0.12725136852E+03  0.11681824447E+03  0.17349202142E+03  0.00000000000E+00 0.  1.
<mgrwt>
<rscale>  0 0.42672032E+03</rscale>
<asrwt>0</asrwt>
<pdfrwt beam="1">  1        1 0.20640432E+00 0.42672032E+03</pdfrwt>
<pdfrwt beam="2">  1       -1 0.29016119E-01 0.42672032E+03</pdfrwt>
<totfact> 0.96996765E+01</totfact>
</mgrwt>
</event>
<event>
12    1  0.3147868E-008  0.5610581E+03  0.7818608E-02  0.9989663E-01
          1   -1    0    0  501    0  0.00000000000E+00  0.00000000000E+00  0.74115969389E+02  0.74115969389E+02  0.00000000000E+00 0. -1.
         -1   -1    0    0    0  501 -0.00000000000E+00 -0.00000000000E+00 -0.46198104354E+04  0.46198104354E+04  0.00000000000E+00 0.  1.
         23    2    1    2    0    0  0.90086682758E+02 -0.40257805130E+03 -0.21108982808E+04  0.21526494602E+04  0.88450262565E+02 0.  0.
    5000000    2    1    2    0    0 -0.90086682758E+02  0.40257805130E+03 -0.24347961852E+04  0.25412769446E+04  0.59972606048E+03 0.  0.
         23    2    4    4    0    0 -0.15126569868E+03  0.52453014088E+03 -0.20336199572E+04  0.21075868753E+04  0.91099540308E+02 0.  0.
         23    2    4    4    0    0  0.61179015922E+02 -0.12195208958E+03 -0.40117622803E+03  0.43369006929E+03  0.92355433664E+02 0.  0.
          5    1    3    3  502    0  0.16156602594E+02 -0.29724650740E+02 -0.32203249060E+03  0.32383885757E+03  0.47000000000E+01 0. -1.
         -5    1    3    3    0  502  0.73930080164E+02 -0.37285340056E+03 -0.17888657902E+04  0.18288106026E+04  0.47000000000E+01 0.  1.
         13    1    5    5    0    0 -0.48301276285E+02  0.85156338168E+02 -0.27197271653E+03  0.28905669644E+03  0.00000000000E+00 0. -1.
        -13    1    5    5    0    0 -0.10296442240E+03  0.43937380271E+03 -0.17616472407E+04  0.18185301789E+04  0.00000000000E+00 0.  1.
          4    1    6    6  503    0  0.73175325390E+02 -0.57452685198E+02 -0.29046176305E+03  0.30499750012E+03  0.00000000000E+00 0. -1.
         -4    1    6    6    0  503 -0.11996309468E+02 -0.64499404379E+02 -0.11071446497E+03  0.12869256917E+03  0.00000000000E+00 0.  1.
<mgrwt>
<rscale>  0 0.56105814E+03</rscale>
<asrwt>0</asrwt>
<pdfrwt beam="1">  1        1 0.11402451E-01 0.56105814E+03</pdfrwt>
<pdfrwt beam="2">  1       -1 0.71074041E+00 0.56105814E+03</pdfrwt>
<totfact> 0.11286761E-01</totfact>
</mgrwt>
</event>
<event>
12    1  0.3147868E-008  0.8357247E+03  0.7818608E-02  0.9509700E-01
         -2   -1    0    0    0  501 -0.00000000000E+00  0.00000000000E+00  0.76417516170E+03  0.76417516170E+03  0.00000000000E+00 0.  1.
          2   -1    0    0  501    0  0.00000000000E+00 -0.00000000000E+00 -0.10996754536E+04  0.10996754536E+04  0.00000000000E+00 0. -1.
         23    2    1    2    0    0  0.62551522519E+03 -0.50155043397E+03  0.29522693047E+01  0.80679207156E+03  0.89903259501E+02 0.  0.
    5000000    2    1    2    0    0 -0.62551522519E+03  0.50155043397E+03 -0.33845256118E+03  0.10570585437E+04  0.60000041157E+03 0.  0.
         23    2    4    4    0    0 -0.59788785959E+01  0.11681634994E+03  0.12030885011E+03  0.19057584189E+03  0.90350016577E+02 0.  0.
         23    2    4    4    0    0 -0.61953634660E+03  0.38473408403E+03 -0.45876141129E+03  0.86648270181E+03  0.92112104976E+02 0.  0.
          5    1    3    3  502    0  0.33178431811E+03 -0.20994689388E+03  0.10524864507E+02  0.39279943326E+03  0.47000000000E+01 0. -1.
         -5    1    3    3    0  502  0.29373090708E+03 -0.29160354009E+03 -0.75725952025E+01  0.41399263830E+03  0.47000000000E+01 0.  1.
         13    1    5    5    0    0  0.30348417378E+02  0.47068600474E+02  0.90596008586E+02  0.10650876189E+03  0.00000000000E+00 0.  1.
        -13    1    5    5    0    0 -0.36327295974E+02  0.69747749469E+02  0.29712841525E+02  0.84067080003E+02  0.00000000000E+00 0. -1.
          3    1    6    6  503    0 -0.37621281901E+03  0.25482075393E+03 -0.23653788250E+03  0.51226933510E+03  0.00000000000E+00 0. -1.
         -3    1    6    6    0  503 -0.24332352759E+03  0.12991333011E+03 -0.22222352878E+03  0.35421336672E+03  0.00000000000E+00 0.  1.
<mgrwt>
<rscale>  0 0.83572473E+03</rscale>
<asrwt>0</asrwt>
<pdfrwt beam="1">  1        2 0.16918084E+00 0.83572473E+03</pdfrwt>
<pdfrwt beam="2">  1       -2 0.11756541E+00 0.83572473E+03</pdfrwt>
<totfact> 0.12279800E+01</totfact>
</mgrwt>
</event>
<event>
12    1  0.3147868E-008  0.5159209E+03  0.7818608E-02  0.1009705E+00
         -1   -1    0    0    0  501 -0.00000000000E+00  0.00000000000E+00  0.19289201529E+03  0.19289201529E+03  0.00000000000E+00 0.  1.
          1   -1    0    0  501    0  0.00000000000E+00 -0.00000000000E+00 -0.24895028115E+04  0.24895028115E+04  0.00000000000E+00 0. -1.
         23    2    1    2    0    0  0.57387399973E+02 -0.38887119034E+03 -0.17071004947E+03  0.43873295483E+03  0.93971103614E+02 0.  0.
    5000000    2    1    2    0    0 -0.57387399973E+02  0.38887119034E+03 -0.21259007468E+04  0.22436618720E+04  0.60004207718E+03 0.  0.
         23    2    4    4    0    0 -0.95589465053E+02 -0.94952219854E+02 -0.10176554413E+04  0.10302069809E+04  0.86893938330E+02 0.  0.
         23    2    4    4    0    0  0.38202065080E+02  0.48382341019E+03 -0.11082453055E+04  0.12134548911E+04  0.93384289245E+02 0.  0.
          5    1    3    3  502    0 -0.16297618351E+02 -0.47758266273E+02 -0.44985986768E+02  0.67766461962E+02  0.47000000000E+01 0. -1.
         -5    1    3    3    0  502  0.73685018324E+02 -0.34111292406E+03 -0.12572406270E+03  0.37096649287E+03  0.47000000000E+01 0.  1.
         13    1    5    5    0    0 -0.51736605595E+02 -0.73994303903E+02 -0.37499067895E+03  0.38570693884E+03  0.00000000000E+00 0. -1.
        -13    1    5    5    0    0 -0.43852859459E+02 -0.20957915951E+02 -0.64266476232E+03  0.64450004209E+03  0.00000000000E+00 0.  1.
          1    1    6    6  503    0  0.63826646533E+02  0.24940145600E+03 -0.54027271188E+03  0.59847266459E+03  0.00000000000E+00 0. -1.
         -1    1    6    6    0  503 -0.25624581453E+02  0.23442195419E+03 -0.56797259363E+03  0.61498222649E+03  0.00000000000E+00 0.  1.
<mgrwt>
<rscale>  0 0.51592089E+03</rscale>
<asrwt>0</asrwt>
<pdfrwt beam="1">  1        1 0.38300041E+00 0.51592089E+03</pdfrwt>
<pdfrwt beam="2">  1       -1 0.29675697E-01 0.51592089E+03</pdfrwt>
<totfact> 0.15709981E+01</totfact>
</mgrwt>
</event>
<event>
12    1  0.3147868E-008  0.4677171E+03  0.7818608E-02  0.1022567E+00
         -1   -1    0    0    0  501 -0.00000000000E+00  0.00000000000E+00  0.29258074795E+03  0.29258074795E+03  0.00000000000E+00 0.  1.
          1   -1    0    0  501    0  0.00000000000E+00 -0.00000000000E+00 -0.11251355165E+04  0.11251355165E+04  0.00000000000E+00 0. -1.
         23    2    1    2    0    0 -0.20605629363E+03  0.28350250808E+03 -0.56952629594E+03  0.67464139749E+03  0.89151249031E+02 0.  0.
    5000000    2    1    2    0    0  0.20605629363E+03 -0.28350250808E+03 -0.26302847259E+03  0.74307486694E+03  0.60011949831E+03 0.  0.
         23    2    4    4    0    0  0.26289507970E+03 -0.36274777242E+03 -0.10615975138E+02  0.45732520285E+03  0.91290048227E+02 0.  0.
         23    2    4    4    0    0 -0.56838786069E+02  0.79245264344E+02 -0.25241249745E+03  0.28574966409E+03  0.91816894603E+02 0.  0.
          5    1    3    3  502    0 -0.15811882249E+03  0.25482891629E+03 -0.51763909682E+03  0.59825718814E+03  0.47000000000E+01 0. -1.
         -5    1    3    3    0  502 -0.47937471137E+02  0.28673591789E+02 -0.51887199124E+02  0.76384209350E+02  0.47000000000E+01 0.  1.
         11    1    5    5    0    0  0.17310398004E+03 -0.26984440809E+03  0.29726962563E+02  0.32197000603E+03  0.00000000000E+00 0. -1.
        -11    1    5    5    0    0  0.89791099656E+02 -0.92903364335E+02 -0.40342937702E+02  0.13535519681E+03  0.00000000000E+00 0.  1.
          2    1    6    6  503    0 -0.83866939677E+01  0.80735152424E+02 -0.12120378203E+03  0.14587274678E+03  0.00000000000E+00 0. -1.
         -2    1    6    6    0  503 -0.48452092101E+02 -0.14898880798E+01 -0.13120871542E+03  0.13987691732E+03  0.00000000000E+00 0.  1.
<mgrwt>
<rscale>  0 0.46771710E+03</rscale>
<asrwt>0</asrwt>
<pdfrwt beam="1">  1        1 0.17309777E+00 0.46771710E+03</pdfrwt>
<pdfrwt beam="2">  1       -1 0.45012423E-01 0.46771710E+03</pdfrwt>
<totfact> 0.62934135E+01</totfact>
</mgrwt>
</event>
<event>
12    1  0.3147868E-008  0.5244517E+03  0.7818608E-02  0.1007587E+00
         -2   -1    0    0    0  501 -0.00000000000E+00  0.00000000000E+00  0.31695046631E+03  0.31695046631E+03  0.00000000000E+00 0.  1.
          2   -1    0    0  501    0  0.00000000000E+00 -0.00000000000E+00 -0.10178852196E+04  0.10178852196E+04  0.00000000000E+00 0. -1.
         23    2    1    2    0    0 -0.26188235294E+03 -0.28244613232E+03 -0.39422837686E+03  0.55873266871E+03  0.91695133584E+02 0.  0.
    5000000    2    1    2    0    0  0.26188235294E+03  0.28244613232E+03 -0.30670637645E+03  0.77610301721E+03  0.59992408480E+03 0.  0.
         23    2    4    4    0    0  0.24178591487E+03  0.42930645429E+03 -0.33137877598E+03  0.60052355848E+03  0.89734000207E+02 0.  0.
         23    2    4    4    0    0  0.20096438069E+02 -0.14686032197E+03  0.24672399530E+02  0.17557945873E+03  0.90816287280E+02 0.  0.
          5    1    3    3  502    0 -0.17750244286E+03 -0.15375862785E+03 -0.28822347365E+03  0.37181136833E+03  0.47000000000E+01 0. -1.
         -5    1    3    3    0  502 -0.84379910085E+02 -0.12868750447E+03 -0.10600490321E+03  0.18692130038E+03  0.47000000000E+01 0.  1.
         13    1    5    5    0    0  0.90093490063E+01  0.80720409878E+02 -0.44780656806E+02  0.92748370144E+02  0.00000000000E+00 0.  1.
        -13    1    5    5    0    0  0.23277656587E+03  0.34858604442E+03 -0.28659811918E+03  0.50777518834E+03  0.00000000000E+00 0. -1.
          2    1    6    6  503    0  0.40819180670E+02 -0.82180907586E+02  0.48266309144E+02  0.10368000618E+03  0.00000000000E+00 0. -1.
         -2    1    6    6    0  503 -0.20722742601E+02 -0.64679414389E+02 -0.23593909614E+02  0.71899452553E+02  0.00000000000E+00 0.  1.
<mgrwt>
<rscale>  0 0.52445167E+03</rscale>
<asrwt>0</asrwt>
<pdfrwt beam="1">  1        2 0.15659773E+00 0.52445167E+03</pdfrwt>
<pdfrwt beam="2">  1       -2 0.48761610E-01 0.52445167E+03</pdfrwt>
<totfact> 0.10102687E+02</totfact>
</mgrwt>
</event>
<event>
12    1  0.3147868E-008  0.6102339E+03  0.7818608E-02  0.9884399E-01
         -2   -1    0    0    0  501 -0.00000000000E+00  0.00000000000E+00  0.12445059192E+03  0.12445059192E+03  0.00000000000E+00 0.  1.
          2   -1    0    0  501    0  0.00000000000E+00 -0.00000000000E+00 -0.32191259512E+04  0.32191259512E+04  0.00000000000E+00 0. -1.
         23    2    1    2    0    0  0.28577798774E+03  0.36461537654E+03 -0.15927274923E+04  0.16611892840E+04  0.90308036388E+02 0.  0.
    5000000    2    1    2    0    0 -0.28577798774E+03 -0.36461537654E+03 -0.15019478669E+04  0.16823872591E+04  0.59997171890E+03 0.  0.
         23    2    4    4    0    0 -0.15667636045E+03 -0.50871683496E+03 -0.99759120733E+03  0.11345088892E+04  0.92638558988E+02 0.  0.
         23    2    4    4    0    0 -0.12910162729E+03  0.14410145842E+03 -0.50435665960E+03  0.54787836990E+03  0.91447294302E+02 0.  0.
          5    1    3    3  502    0  0.10726791625E+03  0.20938934550E+03 -0.80778315517E+03  0.84135962563E+03  0.47000000000E+01 0. -1.
         -5    1    3    3    0  502  0.17851007149E+03  0.15522603104E+03 -0.78494433717E+03  0.81982965840E+03  0.47000000000E+01 0.  1.
         11    1    5    5    0    0 -0.15907180990E+03 -0.50765070275E+03 -0.96592954985E+03  0.11027388503E+04  0.00000000000E+00 0. -1.
        -11    1    5    5    0    0  0.23954494422E+01 -0.10661322019E+01 -0.31661657479E+02  0.31770038877E+02  0.00000000000E+00 0.  1.
          3    1    6    6  503    0 -0.10525929470E+03  0.49393527569E+02 -0.26749986615E+03  0.29167690700E+03  0.00000000000E+00 0. -1.
         -3    1    6    6    0  503 -0.23842332585E+02  0.94707930846E+02 -0.23685679345E+03  0.25620146290E+03  0.00000000000E+00 0.  1.
<mgrwt>
<rscale>  0 0.61023385E+03</rscale>
<asrwt>0</asrwt>
<pdfrwt beam="1">  1        2 0.49525009E+00 0.61023385E+03</pdfrwt>
<pdfrwt beam="2">  1       -2 0.19146247E-01 0.61023385E+03</pdfrwt>
<totfact> 0.31675547E+01</totfact>
</mgrwt>
</event>
<event>
12    1  0.3147868E-008  0.6564039E+03  0.7818608E-02  0.9794836E-01
         -2   -1    0    0    0  501 -0.00000000000E+00  0.00000000000E+00  0.71623389177E+03  0.71623389177E+03  0.00000000000E+00 0. -1.
          2   -1    0    0  501    0  0.00000000000E+00 -0.00000000000E+00 -0.12150897237E+04  0.12150897237E+04  0.00000000000E+00 0.  1.
         23    2    1    2    0    0 -0.23566345292E+03  0.48572709975E+03  0.43309878319E+03  0.69840202942E+03  0.93395718433E+02 0.  0.
    5000000    2    1    2    0    0  0.23566345292E+03 -0.48572709975E+03 -0.93195461510E+03  0.12329215860E+04  0.60007345735E+03 0.  0.
         23    2    4    4    0    0 -0.14263388423E+03 -0.29670088140E+03 -0.58915978405E+03  0.68123002487E+03  0.92678248223E+02 0.  0.
         23    2    4    4    0    0  0.37829733715E+03 -0.18902621835E+03 -0.34279483105E+03  0.55169156115E+03  0.89529302105E+02 0.  0.
          5    1    3    3  502    0 -0.18925403155E+03  0.45106227409E+03  0.39682427900E+03  0.62989353225E+03  0.47000000000E+01 0. -1.
         -5    1    3    3    0  502 -0.46409421375E+02  0.34664825656E+02  0.36274504194E+02  0.68508497171E+02  0.47000000000E+01 0.  1.
         13    1    5    5    0    0 -0.15625410350E+03 -0.27019232879E+03 -0.54180527344E+03  0.62527769329E+03  0.00000000000E+00 0.  1.
        -13    1    5    5    0    0  0.13620219274E+02 -0.26508552610E+02 -0.47354510614E+02  0.55952331587E+02  0.00000000000E+00 0. -1.
          3    1    6    6  503    0  0.57424735852E+02 -0.19228907448E+02 -0.93165911534E+02  0.11111812742E+03  0.00000000000E+00 0. -1.
         -3    1    6    6    0  503  0.32087260130E+03 -0.16979731090E+03 -0.24962891951E+03  0.44057343373E+03  0.00000000000E+00 0.  1.
<mgrwt>
<rscale>  0 0.65640385E+03</rscale>
<asrwt>0</asrwt>
<pdfrwt beam="1">  1        2 0.18693688E+00 0.65640385E+03</pdfrwt>
<pdfrwt beam="2">  1       -2 0.11018983E+00 0.65640385E+03</pdfrwt>
<totfact> 0.12530724E+01</totfact>
</mgrwt>
</event>
<event>
12    1  0.3147868E-008  0.3127623E+03  0.7818608E-02  0.1079029E+00
          1   -1    0    0  501    0  0.00000000000E+00  0.00000000000E+00  0.26511153966E+03  0.26511153966E+03  0.00000000000E+00 0. -1.
         -1   -1    0    0    0  501 -0.00000000000E+00 -0.00000000000E+00 -0.59062031881E+03  0.59062031881E+03  0.00000000000E+00 0.  1.
         23    2    1    2    0    0 -0.13304934178E+03 -0.57790897772E+02 -0.47503964291E+02  0.17767062365E+03  0.90930240686E+02 0.  0.
    5000000    2    1    2    0    0  0.13304934178E+03  0.57790897772E+02 -0.27800481485E+03  0.67806123482E+03  0.60119750986E+03 0.  0.
         23    2    4    4    0    0  0.22005801213E+03  0.17291344139E+03  0.58702316866E+02  0.30040485062E+03  0.92046321788E+02 0.  0.
         23    2    4    4    0    0 -0.87008670344E+02 -0.11512254362E+03 -0.33670713172E+03  0.37765638420E+03  0.91809276299E+02 0.  0.
          5    1    3    3  502    0 -0.10610394274E+03 -0.19311801451E+01 -0.14353804626E+02  0.10719094099E+03  0.47000000000E+01 0. -1.
         -5    1    3    3    0  502 -0.26945399041E+02 -0.55859717627E+02 -0.33150159665E+02  0.70479682666E+02  0.47000000000E+01 0.  1.
         13    1    5    5    0    0  0.69732349021E+02  0.19862659337E+02 -0.14091786793E+02  0.73862738854E+02  0.00000000000E+00 0.  1.
        -13    1    5    5    0    0  0.15032566311E+03  0.15305078205E+03  0.72794103659E+02  0.22654211176E+03  0.00000000000E+00 0. -1.
          3    1    6    6  503    0 -0.30237452572E+02  0.10664551651E+02 -0.48926845349E+02  0.58496772524E+02  0.00000000000E+00 0. -1.
         -3    1    6    6    0  503 -0.56771217771E+02 -0.12578709527E+03 -0.28778028637E+03  0.31915961168E+03  0.00000000000E+00 0.  1.
<mgrwt>
<rscale>  0 0.31276231E+03</rscale>
<asrwt>0</asrwt>
<pdfrwt beam="1">  1        1 0.40786391E-01 0.31276231E+03</pdfrwt>
<pdfrwt beam="2">  1       -1 0.90864664E-01 0.31276231E+03</pdfrwt>
<totfact> 0.12802864E+02</totfact>
</mgrwt>
</event>
<event>
12    1  0.3147868E-008  0.3738852E+03  0.7818608E-02  0.1053217E+00
         -1   -1    0    0    0  501 -0.00000000000E+00  0.00000000000E+00  0.21458360831E+03  0.21458360831E+03  0.00000000000E+00 0.  1.
          1   -1    0    0  501    0  0.00000000000E+00 -0.00000000000E+00 -0.19215495503E+04  0.19215495503E+04  0.00000000000E+00 0. -1.
         23    2    1    2    0    0  0.47685126989E+02 -0.33281797400E+03 -0.12792374978E+04  0.13259675110E+04  0.93271589763E+02 0.  0.
    5000000    2    1    2    0    0 -0.47685126989E+02  0.33281797400E+03 -0.42772844416E+03  0.81016564753E+03  0.60031248474E+03 0.  0.
         23    2    4    4    0    0  0.42272370403E+02  0.26256080347E+03  0.72473757666E+02  0.28951551033E+03  0.88553127284E+02 0.  0.
         23    2    4    4    0    0 -0.89957497392E+02  0.70257170526E+02 -0.50020220183E+03  0.52065013720E+03  0.88577092436E+02 0.  0.
          5    1    3    3  502    0  0.42368344212E+02 -0.20803781605E+03 -0.63055005233E+03  0.66534973359E+03  0.47000000000E+01 0. -1.
         -5    1    3    3    0  502  0.53167827778E+01 -0.12478015795E+03 -0.64868744545E+03  0.66061777745E+03  0.47000000000E+01 0.  1.
         11    1    5    5    0    0  0.24540201497E+02  0.14591152931E+03 -0.55446047963E+01  0.14806464304E+03  0.00000000000E+00 0.  1.
        -11    1    5    5    0    0  0.17732168906E+02  0.11664927416E+03  0.78018362463E+02  0.14145086729E+03  0.00000000000E+00 0. -1.
          1    1    6    6  503    0 -0.80763571571E+02  0.75668581078E+01 -0.27973470234E+03  0.29125850293E+03  0.00000000000E+00 0. -1.
         -1    1    6    6    0  503 -0.91939258213E+01  0.62690312418E+02 -0.22046749949E+03  0.22939163427E+03  0.00000000000E+00 0.  1.
<mgrwt>
<rscale>  0 0.37388519E+03</rscale>
<asrwt>0</asrwt>
<pdfrwt beam="1">  1        1 0.29562301E+00 0.37388519E+03</pdfrwt>
<pdfrwt beam="2">  1       -1 0.33012862E-01 0.37388519E+03</pdfrwt>
<totfact> 0.32204733E+01</totfact>
</mgrwt>
</event>
<event>
12    1  0.3147868E-008  0.4915346E+03  0.7818608E-02  0.1016012E+00
          2   -1    0    0  501    0  0.00000000000E+00  0.00000000000E+00  0.97024083515E+03  0.97024083515E+03  0.00000000000E+00 0. -1.
         -2   -1    0    0    0  501 -0.00000000000E+00 -0.00000000000E+00 -0.25866442760E+03  0.25866442760E+03  0.00000000000E+00 0.  1.
         23    2    1    2    0    0  0.84081683256E+02  0.29451887660E+03  0.15804375236E+03  0.35698783064E+03  0.93012824013E+02 0.  0.
    5000000    2    1    2    0    0 -0.84081683256E+02 -0.29451887660E+03  0.55353265519E+03  0.87191743211E+03  0.60002542439E+03 0.  0.
         23    2    4    4    0    0 -0.93050456762E+02 -0.46176976962E+03  0.35859713282E+03  0.59901393832E+03  0.91302174091E+02 0.  0.
         23    2    4    4    0    0  0.89687735064E+01  0.16725089302E+03  0.19493552237E+03  0.27290349378E+03  0.91777769226E+02 0.  0.
          5    1    3    3  502    0  0.92479269027E+02  0.15816923165E+03  0.95504324776E+02  0.20667144721E+03  0.47000000000E+01 0. -1.
         -5    1    3    3    0  502 -0.83975857714E+01  0.13634964495E+03  0.62539427585E+02  0.15031638343E+03  0.47000000000E+01 0.  1.
         11    1    5    5    0    0 -0.92950050265E+02 -0.24030530033E+03  0.20891204512E+03  0.33170859472E+03  0.00000000000E+00 0.  1.
        -11    1    5    5    0    0 -0.10040649718E+00 -0.22146446929E+03  0.14968508770E+03  0.26730534361E+03  0.00000000000E+00 0. -1.
          1    1    6    6  503    0  0.26058120821E+02  0.13624280065E+02  0.82695757309E+01  0.30545581526E+02  0.00000000000E+00 0. -1.
         -1    1    6    6    0  503 -0.17089347315E+02  0.15362661296E+03  0.18666594664E+03  0.24235791226E+03  0.00000000000E+00 0.  1.
<mgrwt>
<rscale>  0 0.49153455E+03</rscale>
<asrwt>0</asrwt>
<pdfrwt beam="1">  1        2 0.14926782E+00 0.49153455E+03</pdfrwt>
<pdfrwt beam="2">  1       -2 0.39794528E-01 0.49153455E+03</pdfrwt>
<totfact> 0.16224568E+02</totfact>
</mgrwt>
</event>
<event>
12    1  0.3147868E-008  0.1448128E+04  0.7818608E-02  0.8919699E-01
          1   -1    0    0  501    0  0.00000000000E+00  0.00000000000E+00  0.13717489063E+04  0.13717489063E+04  0.00000000000E+00 0. -1.
         -1   -1    0    0    0  501 -0.00000000000E+00 -0.00000000000E+00 -0.17089484207E+04  0.17089484207E+04  0.00000000000E+00 0.  1.
         23    2    1    2    0    0  0.71406995529E+03 -0.12526122497E+04  0.12970575131E+03  0.14507007050E+04  0.93678195979E+02 0.  0.
    5000000    2    1    2    0    0 -0.71406995529E+03  0.12526122497E+04 -0.46690526568E+03  0.16299966220E+04  0.59996259161E+03 0.  0.
         23    2    4    4    0    0 -0.49146323902E+03  0.76522141067E+03 -0.64614434394E+00  0.91395004182E+03  0.90577805095E+02 0.  0.
         23    2    4    4    0    0 -0.22260671627E+03  0.48739083903E+03 -0.46625912134E+03  0.71604658014E+03  0.90672799694E+02 0.  0.
          5    1    3    3  502    0  0.50977292122E+03 -0.80599456852E+03  0.79570352596E+02  0.95700010799E+03  0.47000000000E+01 0. -1.
         -5    1    3    3    0  502  0.20429703408E+03 -0.44661768118E+03  0.50135398717E+02  0.49370059701E+03  0.47000000000E+01 0.  1.
         11    1    5    5    0    0 -0.30146532832E+03  0.54708495303E+03  0.26148223184E+01  0.62465200496E+03  0.00000000000E+00 0. -1.
        -11    1    5    5    0    0 -0.18999791070E+03  0.21813645764E+03 -0.32609666623E+01  0.28929803685E+03  0.00000000000E+00 0.  1.
          4    1    6    6  503    0 -0.62596251707E+02  0.18618455088E+03 -0.12085838514E+03  0.23062898121E+03  0.00000000000E+00 0. -1.
         -4    1    6    6    0  503 -0.16001046457E+03  0.30120628815E+03 -0.34540073620E+03  0.48541759893E+03  0.00000000000E+00 0.  1.
<mgrwt>
<rscale>  0 0.14481281E+04</rscale>
<asrwt>0</asrwt>
<pdfrwt beam="1">  1        1 0.21103829E+00 0.14481281E+04</pdfrwt>
<pdfrwt beam="2">  1       -1 0.26291514E+00 0.14481281E+04</pdfrwt>
<totfact> 0.43990367E-01</totfact>
</mgrwt>
</event>
<event>
12    1  0.3147868E-008  0.4144812E+03  0.7818608E-02  0.1038878E+00
         -1   -1    0    0    0  501 -0.00000000000E+00  0.00000000000E+00  0.43622724123E+03  0.43622724123E+03  0.00000000000E+00 0.  1.
          1   -1    0    0  501    0  0.00000000000E+00 -0.00000000000E+00 -0.46487733623E+03  0.46487733623E+03  0.00000000000E+00 0. -1.
         23    2    1    2    0    0  0.11156444848E+03  0.19975483977E+03 -0.74512571948E+02  0.25705959962E+03  0.90437227965E+02 0.  0.
    5000000    2    1    2    0    0 -0.11156444848E+03 -0.19975483977E+03  0.45862476939E+02  0.64404497784E+03  0.60028488613E+03 0.  0.
         23    2    4    4    0    0  0.22041290589E+03 -0.83080064158E+02 -0.69323788337E+02  0.26246524830E+03  0.92725793579E+02 0.  0.
         23    2    4    4    0    0 -0.33197735437E+03 -0.11667477561E+03  0.11518626528E+03  0.38157972954E+03  0.92267259694E+02 0.  0.
          5    1    3    3  502    0  0.96667298751E+02  0.15566191148E+03 -0.94462520842E+02  0.20620488641E+03  0.47000000000E+01 0. -1.
         -5    1    3    3    0  502  0.14897149730E+02  0.44092928287E+02  0.19949948895E+02  0.50854713212E+02  0.47000000000E+01 0.  1.
         13    1    5    5    0    0  0.14048145785E+03 -0.88115141491E+02 -0.16775998018E+02  0.16667558991E+03  0.00000000000E+00 0. -1.
        -13    1    5    5    0    0  0.79931448031E+02  0.50350773329E+01 -0.52547790319E+02  0.95789658395E+02  0.00000000000E+00 0.  1.
          1    1    6    6  503    0 -0.26692274763E+02 -0.17755333061E+02  0.41283094614E+02  0.52268760125E+02  0.00000000000E+00 0. -1.
         -1    1    6    6    0  503 -0.30528507960E+03 -0.98919442552E+02  0.73903170662E+02  0.32931096942E+03  0.00000000000E+00 0.  1.
<mgrwt>
<rscale>  0 0.41448119E+03</rscale>
<asrwt>0</asrwt>
<pdfrwt beam="1">  1        1 0.71519590E-01 0.41448119E+03</pdfrwt>
<pdfrwt beam="2">  1       -1 0.67111884E-01 0.41448119E+03</pdfrwt>
<totfact> 0.11518687E+02</totfact>
</mgrwt>
</event>
<event>
12    1  0.3147868E-008  0.4884266E+03  0.7818608E-02  0.1016845E+00
         -1   -1    0    0    0  501 -0.00000000000E+00  0.00000000000E+00  0.13527567664E+04  0.13527567664E+04  0.00000000000E+00 0.  1.
          1   -1    0    0  501    0  0.00000000000E+00 -0.00000000000E+00 -0.25811647747E+03  0.25811647747E+03  0.00000000000E+00 0. -1.
         23    2    1    2    0    0 -0.33071364494E+03  0.12769081138E+03  0.74776992625E+03  0.83233527360E+03  0.89138582108E+02 0.  0.
    5000000    2    1    2    0    0  0.33071364494E+03 -0.12769081138E+03  0.34687036273E+03  0.77853797031E+03  0.60010487784E+03 0.  0.
         23    2    4    4    0    0 -0.87804168832E+02 -0.13800270618E+03 -0.51111568703E+02  0.19433216571E+03  0.91642125675E+02 0.  0.
         23    2    4    4    0    0  0.41851781378E+03  0.10311894799E+02  0.39798193143E+03  0.58420580460E+03  0.87426018779E+02 0.  0.
          5    1    3    3  502    0 -0.25727308771E+03  0.13576498434E+03  0.61417656411E+03  0.67960026085E+03  0.47000000000E+01 0. -1.
         -5    1    3    3    0  502 -0.73440557234E+02 -0.80741729653E+01  0.13359336213E+03  0.15273501276E+03  0.47000000000E+01 0.  1.
         11    1    5    5    0    0 -0.43848411120E+02 -0.13560978326E+03 -0.30615994404E+02  0.14577391943E+03  0.00000000000E+00 0.  1.
        -11    1    5    5    0    0 -0.43955757711E+02 -0.23929229212E+01 -0.20495574299E+02  0.48558246282E+02  0.00000000000E+00 0. -1.
          2    1    6    6  503    0  0.12587728957E+03  0.37754204465E+02  0.95599068436E+02  0.16251047311E+03  0.00000000000E+00 0. -1.
         -2    1    6    6    0  503  0.29264052420E+03 -0.27442309666E+02  0.30238286300E+03  0.42169533149E+03  0.00000000000E+00 0.  1.
<mgrwt>
<rscale>  0 0.48842664E+03</rscale>
<asrwt>0</asrwt>
<pdfrwt beam="1">  1        1 0.39710228E-01 0.48842664E+03</pdfrwt>
<pdfrwt beam="2">  1       -1 0.20811642E+00 0.48842664E+03</pdfrwt>
<totfact> 0.15055322E+01</totfact>
</mgrwt>
</event>
<event>
12    1  0.3147868E-008  0.9037973E+03  0.7818608E-02  0.9420847E-01
          2   -1    0    0  501    0  0.00000000000E+00  0.00000000000E+00  0.59820377070E+03  0.59820377070E+03  0.00000000000E+00 0. -1.
         -2   -1    0    0    0  501 -0.00000000000E+00 -0.00000000000E+00 -0.14614726824E+04  0.14614726824E+04  0.00000000000E+00 0.  1.
         23    2    1    2    0    0 -0.76392750377E+03  0.30754473400E+03 -0.54676943078E+03  0.99272276003E+03  0.91502313762E+02 0.  0.
    5000000    2    1    2    0    0  0.76392750377E+03 -0.30754473400E+03 -0.31649948090E+03  0.10669536930E+04  0.60004105463E+03 0.  0.
         23    2    4    4    0    0  0.63432961571E+03 -0.44904699550E+03 -0.34184419543E+03  0.85288541031E+03  0.80862869241E+02 0.  0.
         23    2    4    4    0    0  0.12959788806E+03  0.14150226150E+03  0.25344714532E+02  0.21406828273E+03  0.91456943503E+02 0.  0.
          5    1    3    3  502    0 -0.59482571137E+02  0.23087120537E+02 -0.15979784059E+02  0.65944180201E+02  0.47000000000E+01 0. -1.
         -5    1    3    3    0  502 -0.70444493263E+03  0.28445761346E+03 -0.53078964672E+03  0.92677857983E+03  0.47000000000E+01 0.  1.
         13    1    5    5    0    0  0.11196343789E+03 -0.80594978349E+02 -0.95689642414E+02  0.16789243469E+03  0.00000000000E+00 0.  1.
        -13    1    5    5    0    0  0.52236617782E+03 -0.36845201715E+03 -0.24615455301E+03  0.68499297562E+03  0.00000000000E+00 0. -1.
          4    1    6    6  503    0  0.11807767042E+03  0.76516885307E+02 -0.63669513117E+01  0.14084639881E+03  0.00000000000E+00 0. -1.
         -4    1    6    6    0  503  0.11520217641E+02  0.64985376197E+02  0.31711665844E+02  0.73221883918E+02  0.00000000000E+00 0.  1.
<mgrwt>
<rscale>  0 0.90379735E+03</rscale>
<asrwt>0</asrwt>
<pdfrwt beam="1">  1        2 0.92031349E-01 0.90379735E+03</pdfrwt>
<pdfrwt beam="2">  1       -2 0.22484195E+00 0.90379735E+03</pdfrwt>
<totfact> 0.46131124E+00</totfact>
</mgrwt>
</event>
<event>
12    1  0.3147868E-008  0.1515535E+04  0.7818608E-02  0.8874188E-01
         -2   -1    0    0    0  501 -0.00000000000E+00  0.00000000000E+00  0.14762782997E+04  0.14762782997E+04  0.00000000000E+00 0.  1.
          2   -1    0    0  501    0  0.00000000000E+00 -0.00000000000E+00 -0.17227639064E+04  0.17227639064E+04  0.00000000000E+00 0. -1.
         23    2    1    2    0    0 -0.14820255406E+04 -0.22529408503E+03 -0.45914620616E+03  0.15704293062E+04  0.90971641011E+02 0.  0.
    5000000    2    1    2    0    0  0.14820255406E+04  0.22529408503E+03  0.21266059955E+03  0.16286128999E+04  0.59999859965E+03 0.  0.
         23    2    4    4    0    0  0.11570889699E+03  0.82854732065E+02  0.18565123678E+03  0.25158582667E+03  0.92604486903E+02 0.  0.
         23    2    4    4    0    0  0.13663166436E+04  0.14243935296E+03  0.27009362773E+02  0.13770270733E+04  0.91454442420E+02 0.  0.
          5    1    3    3  502    0 -0.11538325940E+04 -0.20648885656E+03 -0.38056313885E+03  0.12324032195E+04  0.47000000000E+01 0. -1.
         -5    1    3    3    0  502 -0.32819294657E+03 -0.18805228470E+02 -0.78583067314E+02  0.33802608666E+03  0.47000000000E+01 0.  1.
         11    1    5    5    0    0  0.15488646843E+02  0.46254143643E+02  0.11136020823E+03  0.12157483276E+03  0.00000000000E+00 0.  1.
        -11    1    5    5    0    0  0.10022025015E+03  0.36600588422E+02  0.74291028553E+02  0.13001099391E+03  0.00000000000E+00 0. -1.
          2    1    6    6  503    0  0.44325452103E+03  0.70143843866E+02 -0.26851739206E+02  0.44957284743E+03  0.00000000000E+00 0. -1.
         -2    1    6    6    0  503  0.92306212253E+03  0.72295509098E+02  0.53861101979E+02  0.92745422583E+03  0.00000000000E+00 0.  1.
<mgrwt>
<rscale>  0 0.15155350E+04</rscale>
<asrwt>0</asrwt>
<pdfrwt beam="1">  1        2 0.26504060E+00 0.15155350E+04</pdfrwt>
<pdfrwt beam="2">  1       -2 0.22711974E+00 0.15155350E+04</pdfrwt>
<totfact> 0.79612090E-01</totfact>
</mgrwt>
</event>
<event>
12    1  0.3147868E-008  0.5582230E+03  0.7818608E-02  0.9996083E-01
          2   -1    0    0  501    0  0.00000000000E+00  0.00000000000E+00  0.13158375032E+04  0.13158375032E+04  0.00000000000E+00 0. -1.
         -2   -1    0    0    0  501 -0.00000000000E+00 -0.00000000000E+00 -0.52332308396E+03  0.52332308396E+03  0.00000000000E+00 0.  1.
         23    2    1    2    0    0 -0.14170384043E+02  0.40858777582E+03  0.10004625567E+04  0.10839252344E+04  0.82606392580E+02 0.  0.
    5000000    2    1    2    0    0  0.14170384043E+02 -0.40858777582E+03 -0.20794813745E+03  0.75523535276E+03  0.59999436652E+03 0.  0.
         23    2    4    4    0    0 -0.25963422540E+03 -0.96864525593E+02 -0.20880914928E+02  0.29111313683E+03  0.86707430555E+02 0.  0.
         23    2    4    4    0    0  0.27380460944E+03 -0.31172325022E+03 -0.18706722252E+03  0.46412221593E+03  0.90966679043E+02 0.  0.
          5    1    3    3  502    0 -0.27600711560E+02  0.11327359254E+03  0.21431451872E+03  0.24401948483E+03  0.47000000000E+01 0. -1.
         -5    1    3    3    0  502  0.13430327518E+02  0.29531418328E+03  0.78614803802E+03  0.83990574961E+03  0.47000000000E+01 0.  1.
         11    1    5    5    0    0 -0.18471569648E+03 -0.50416193362E+02 -0.50675795065E+02  0.19806493199E+03  0.00000000000E+00 0. -1.
        -11    1    5    5    0    0 -0.74918528915E+02 -0.46448332231E+02  0.29794880137E+02  0.93048204841E+02  0.00000000000E+00 0.  1.
          4    1    6    6  503    0  0.23019439202E+03 -0.20142290693E+03 -0.12735171750E+03  0.33132930070E+03  0.00000000000E+00 0. -1.
         -4    1    6    6    0  503  0.43610217418E+02 -0.11030034329E+03 -0.59715505023E+02  0.13279291523E+03  0.00000000000E+00 0.  1.
<mgrwt>
<rscale>  0 0.55822304E+03</rscale>
<asrwt>0</asrwt>
<pdfrwt beam="1">  1        2 0.20243654E+00 0.55822304E+03</pdfrwt>
<pdfrwt beam="2">  1       -2 0.80511244E-01 0.55822304E+03</pdfrwt>
<totfact> 0.23085213E+01</totfact>
</mgrwt>
</event>
<event>
12    1  0.3147868E-008  0.1104135E+04  0.7818608E-02  0.9201171E-01
         -2   -1    0    0    0  501 -0.00000000000E+00  0.00000000000E+00  0.11455459693E+04  0.11455459693E+04  0.00000000000E+00 0.  1.
          2   -1    0    0  501    0  0.00000000000E+00 -0.00000000000E+00 -0.12093693587E+04  0.12093693587E+04  0.00000000000E+00 0. -1.
         23    2    1    2    0    0 -0.63581975044E+03  0.87407222812E+03 -0.22604169595E+03  0.11080932128E+04  0.92231799789E+02 0.  0.
    5000000    2    1    2    0    0  0.63581975044E+03 -0.87407222812E+03  0.16221830655E+03  0.12468221152E+04  0.59998466050E+03 0.  0.
         23    2    4    4    0    0  0.44921964636E+03 -0.79073772363E+03 -0.79023038260E+02  0.91740127443E+03  0.91192211873E+02 0.  0.
         23    2    4    4    0    0  0.18660010408E+03 -0.83334504493E+02  0.24124134481E+03  0.32942084072E+03  0.92501164182E+02 0.  0.
          5    1    3    3  502    0 -0.40828434965E+03  0.59474413247E+03 -0.18984660689E+03  0.74597621774E+03  0.47000000000E+01 0.  1.
         -5    1    3    3    0  502 -0.22753540079E+03  0.27932809565E+03 -0.36195089052E+02  0.36211699505E+03  0.47000000000E+01 0. -1.
         11    1    5    5    0    0  0.32944166075E+03 -0.64595503492E+03 -0.79816656046E+02  0.72949325806E+03  0.00000000000E+00 0.  1.
        -11    1    5    5    0    0  0.11977798561E+03 -0.14478268871E+03  0.79361778539E+00  0.18790801637E+03  0.00000000000E+00 0. -1.
          1    1    6    6  503    0  0.50581190739E+02  0.57953679825E+01  0.10721084582E+03  0.11868533443E+03  0.00000000000E+00 0. -1.
         -1    1    6    6    0  503  0.13601891334E+03 -0.89129872475E+02  0.13403049899E+03  0.21073550630E+03  0.00000000000E+00 0.  1.
<mgrwt>
<rscale>  0 0.11041350E+04</rscale>
<asrwt>0</asrwt>
<pdfrwt beam="1">  1        2 0.18605682E+00 0.11041350E+04</pdfrwt>
<pdfrwt beam="2">  1       -2 0.17623784E+00 0.11041350E+04</pdfrwt>
<totfact> 0.35308489E+00</totfact>
</mgrwt>
</event>
<event>
12    1  0.3147868E-008  0.3368399E+03  0.7818608E-02  0.1068150E+00
         -2   -1    0    0    0  501 -0.00000000000E+00  0.00000000000E+00  0.58309453339E+03  0.58309453339E+03  0.00000000000E+00 0.  1.
          2   -1    0    0  501    0  0.00000000000E+00 -0.00000000000E+00 -0.44041435011E+03  0.44041435011E+03  0.00000000000E+00 0. -1.
         23    2    1    2    0    0  0.15182621843E+02  0.20973485348E+03 -0.19772769520E+03  0.30234588895E+03  0.89986523137E+02 0.  0.
    5000000    2    1    2    0    0 -0.15182621843E+02 -0.20973485348E+03  0.34040787847E+03  0.72116299456E+03  0.59998276660E+03 0.  0.
         23    2    4    4    0    0 -0.15405020934E+03 -0.22149424035E+03  0.44154962006E+03  0.52542612359E+03  0.91188699261E+02 0.  0.
         23    2    4    4    0    0  0.13886758750E+03  0.11759386870E+02 -0.10114174159E+03  0.19573687096E+03  0.93063315682E+02 0.  0.
          5    1    3    3  502    0  0.42183714741E+02  0.94638633717E+02 -0.12897039402E+03  0.16550344200E+03  0.47000000000E+01 0. -1.
         -5    1    3    3    0  502 -0.27001092898E+02  0.11509621976E+03 -0.68757301178E+02  0.13684244694E+03  0.47000000000E+01 0.  1.
         11    1    5    5    0    0 -0.89450554147E+01 -0.83088790277E+02  0.11360358550E+03  0.14103026528E+03  0.00000000000E+00 0. -1.
        -11    1    5    5    0    0 -0.14510515393E+03 -0.13840545007E+03  0.32794603455E+03  0.38439585831E+03  0.00000000000E+00 0.  1.
          1    1    6    6  503    0  0.40463036878E+02 -0.39539618311E+02 -0.36003034455E+02  0.67058610630E+02  0.00000000000E+00 0. -1.
         -1    1    6    6    0  503  0.98404550622E+02  0.51299005181E+02 -0.65138707132E+02  0.12867826033E+03  0.00000000000E+00 0.  1.
<mgrwt>
<rscale>  0 0.33683988E+03</rscale>
<asrwt>0</asrwt>
<pdfrwt beam="1">  1        2 0.67756054E-01 0.33683988E+03</pdfrwt>
<pdfrwt beam="2">  1       -2 0.89706851E-01 0.33683988E+03</pdfrwt>
<totfact> 0.79263700E+01</totfact>
</mgrwt>
</event>
<event>
12    1  0.3147868E-008  0.4408813E+03  0.7818608E-02  0.1030477E+00
          1   -1    0    0  501    0  0.00000000000E+00  0.00000000000E+00  0.96549622503E+03  0.96549622503E+03  0.00000000000E+00 0. -1.
         -1   -1    0    0    0  501 -0.00000000000E+00 -0.00000000000E+00 -0.31528150510E+03  0.31528150510E+03  0.00000000000E+00 0.  1.
         23    2    1    2    0    0 -0.29917311045E+03 -0.23177991349E+03  0.16708931301E+03  0.42371764102E+03  0.91604161879E+02 0.  0.
    5000000    2    1    2    0    0  0.29917311045E+03  0.23177991349E+03  0.48312540692E+03  0.85706008911E+03  0.59826027715E+03 0.  0.
         23    2    4    4    0    0  0.28036490329E+03  0.46764260692E+02 -0.33556764947E+02  0.30097020504E+03  0.93089380568E+02 0.  0.
         23    2    4    4    0    0  0.18808207165E+02  0.18501565280E+03  0.51668217186E+03  0.55608988406E+03  0.87698072952E+02 0.  0.
          5    1    3    3  502    0 -0.17747995504E+03 -0.14302703999E+03  0.51326571751E+02  0.23369290870E+03  0.47000000000E+01 0. -1.
         -5    1    3    3    0  502 -0.12169315542E+03 -0.88752873497E+02  0.11576274126E+03  0.19002473232E+03  0.47000000000E+01 0.  1.
         13    1    5    5    0    0  0.23436512167E+03  0.27396785026E+01 -0.36618722763E+02  0.23722446533E+03  0.00000000000E+00 0. -1.
        -13    1    5    5    0    0  0.45999781622E+02  0.44024582189E+02  0.30619578161E+01  0.63745739715E+02  0.00000000000E+00 0.  1.
          2    1    6    6  503    0  0.48574371836E+02  0.15628513384E+03  0.42834297531E+03  0.45854358262E+03  0.00000000000E+00 0. -1.
         -2    1    6    6    0  503 -0.29766164672E+02  0.28730518957E+02  0.88339196549E+02  0.97546301446E+02  0.00000000000E+00 0.  1.
<mgrwt>
<rscale>  0 0.44088135E+03</rscale>
<asrwt>0</asrwt>
<pdfrwt beam="1">  1        1 0.14853788E+00 0.44088135E+03</pdfrwt>
<pdfrwt beam="2">  1       -1 0.48504847E-01 0.44088135E+03</pdfrwt>
<totfact> 0.72508356E+01</totfact>
</mgrwt>
</event>
<event>
12    1  0.3147868E-008  0.8904698E+03  0.7818608E-02  0.9437574E-01
          1   -1    0    0  501    0  0.00000000000E+00  0.00000000000E+00  0.80764525991E+03  0.80764525991E+03  0.00000000000E+00 0. -1.
         -1   -1    0    0    0  501 -0.00000000000E+00 -0.00000000000E+00 -0.10685699916E+04  0.10685699916E+04  0.00000000000E+00 0.  1.
         23    2    1    2    0    0 -0.15731164717E+03  0.81389082224E+03 -0.10909654753E+03  0.84103329341E+03  0.90937995815E+02 0.  0.
    5000000    2    1    2    0    0  0.15731164717E+03 -0.81389082224E+03 -0.15182818415E+03  0.10351819581E+04  0.60115277923E+03 0.  0.
         23    2    4    4    0    0  0.30605528929E+03 -0.60427180984E+03 -0.27424411482E+03  0.73637489241E+03  0.90685651541E+02 0.  0.
         23    2    4    4    0    0 -0.14874364212E+03 -0.20961901240E+03  0.12241593067E+03  0.29880706567E+03  0.90748008154E+02 0.  0.
          5    1    3    3  502    0 -0.16127395418E+02  0.17769731754E+03 -0.56534944812E+02  0.18722905632E+03  0.47000000000E+01 0. -1.
         -5    1    3    3    0  502 -0.14118425175E+03  0.63619350470E+03 -0.52561602717E+02  0.65380423710E+03  0.47000000000E+01 0.  1.
         13    1    5    5    0    0  0.17748737931E+02 -0.19225268589E+02  0.54160893789E+01  0.26720079989E+02  0.00000000000E+00 0. -1.
        -13    1    5    5    0    0  0.28830655136E+03 -0.58504654125E+03 -0.27966020420E+03  0.70965481242E+03  0.00000000000E+00 0.  1.
          3    1    6    6  503    0 -0.86719783512E+02 -0.18738892986E+03  0.87722607082E+02  0.22434390493E+03  0.00000000000E+00 0. -1.
         -3    1    6    6    0  503 -0.62023858604E+02 -0.22230082540E+02  0.34693323583E+02  0.74463160738E+02  0.00000000000E+00 0.  1.
<mgrwt>
<rscale>  0 0.89046979E+03</rscale>
<asrwt>0</asrwt>
<pdfrwt beam="1">  1        1 0.12425312E+00 0.89046979E+03</pdfrwt>
<pdfrwt beam="2">  1       -1 0.16439538E+00 0.89046979E+03</pdfrwt>
<totfact> 0.59857099E+00</totfact>
</mgrwt>
</event>
<event>
12    1  0.3147868E-008  0.3977038E+03  0.7818608E-02  0.1044578E+00
         -1   -1    0    0    0  501 -0.00000000000E+00  0.00000000000E+00  0.35443371441E+03  0.35443371441E+03  0.00000000000E+00 0.  1.
          1   -1    0    0  501    0  0.00000000000E+00 -0.00000000000E+00 -0.14941980254E+04  0.14941980254E+04  0.00000000000E+00 0. -1.
         23    2    1    2    0    0  0.65633232551E+02  0.19323278914E+03  0.24105879924E+03  0.32930703039E+03  0.93204847312E+02 0.  0.
    5000000    2    1    2    0    0 -0.65633232551E+02 -0.19323278914E+03 -0.13808231102E+04  0.15193247094E+04  0.60002373194E+03 0.  0.
         23    2    4    4    0    0 -0.30403519034E+03 -0.75740004584E+02 -0.95348599664E+03  0.10076892129E+04  0.90155747332E+02 0.  0.
         23    2    4    4    0    0  0.23840195779E+03 -0.11749278456E+03 -0.42733711355E+03  0.51163549646E+03  0.92270389208E+02 0.  0.
          5    1    3    3  502    0  0.16166228123E+02  0.53285154020E+02  0.13355061962E+02  0.57455219525E+02  0.47000000000E+01 0. -1.
         -5    1    3    3    0  502  0.49467004429E+02  0.13994763512E+03  0.22770373728E+03  0.27185181087E+03  0.47000000000E+01 0.  1.
         11    1    5    5    0    0 -0.88822608435E+02  0.15660703244E+02 -0.21764384415E+03  0.23559192747E+03  0.00000000000E+00 0. -1.
        -11    1    5    5    0    0 -0.21521258191E+03 -0.91400707828E+02 -0.73584215249E+03  0.77209728544E+03  0.00000000000E+00 0.  1.
          1    1    6    6  503    0  0.10452957473E+03 -0.37469824467E+02 -0.26086886950E+03  0.28351893555E+03  0.00000000000E+00 0. -1.
         -1    1    6    6    0  503  0.13387238306E+03 -0.80022960088E+02 -0.16646824404E+03  0.22811656091E+03  0.00000000000E+00 0.  1.
<mgrwt>
<rscale>  0 0.39770376E+03</rscale>
<asrwt>0</asrwt>
<pdfrwt beam="1">  1        1 0.22987662E+00 0.39770376E+03</pdfrwt>
<pdfrwt beam="2">  1       -1 0.54528264E-01 0.39770376E+03</pdfrwt>
<totfact> 0.24663138E+01</totfact>
</mgrwt>
</event>
<event>
12    1  0.3147868E-008  0.5476371E+03  0.7818608E-02  0.1002042E+00
         -4   -1    0    0    0  501 -0.00000000000E+00  0.00000000000E+00  0.68313712867E+03  0.68313712867E+03  0.00000000000E+00 0.  1.
          4   -1    0    0  501    0  0.00000000000E+00 -0.00000000000E+00 -0.55761922283E+03  0.55761922283E+03  0.00000000000E+00 0. -1.
         23    2    1    2    0    0  0.33432182833E+03 -0.22031206765E+03  0.28815434440E+03  0.50164211881E+03  0.91122978014E+02 0.  0.
    5000000    2    1    2    0    0 -0.33432182833E+03  0.22031206765E+03 -0.16263643856E+03  0.73911423268E+03  0.59960882729E+03 0.  0.
         23    2    4    4    0    0  0.47668290392E+02  0.29359240496E+03 -0.12773005803E+02  0.31246882242E+03  0.94893883602E+02 0.  0.
         23    2    4    4    0    0 -0.38199011872E+03 -0.73280337312E+02 -0.14986343276E+03  0.42664541027E+03  0.90998895545E+02 0.  0.
          5    1    3    3  502    0  0.69385804099E+02 -0.54906756586E+02  0.22082379640E+02  0.91317376331E+02  0.47000000000E+01 0. -1.
         -5    1    3    3    0  502  0.26493602423E+03 -0.16540531106E+03  0.26607196476E+03  0.41032474248E+03  0.47000000000E+01 0.  1.
         11    1    5    5    0    0  0.35908870572E+02  0.25773706455E+03 -0.43461170562E+02  0.26383084500E+03  0.00000000000E+00 0. -1.
        -11    1    5    5    0    0  0.11759419820E+02  0.35855340411E+02  0.30688164759E+02  0.48637977413E+02  0.00000000000E+00 0.  1.
          3    1    6    6  503    0 -0.13294857339E+03  0.11053835118E+02 -0.75988834895E+02  0.15353114820E+03  0.00000000000E+00 0. -1.
         -3    1    6    6    0  503 -0.24904154533E+03 -0.84334172430E+02 -0.73874597861E+02  0.27311426207E+03  0.00000000000E+00 0.  1.
<mgrwt>
<rscale>  0 0.54763707E+03</rscale>
<asrwt>0</asrwt>
<pdfrwt beam="1">  1        4 0.85787573E-01 0.54763707E+03</pdfrwt>
<pdfrwt beam="2">  1       -4 0.10509802E+00 0.54763707E+03</pdfrwt>
<totfact> 0.16917552E+00</totfact>
</mgrwt>
</event>
<event>
12    1  0.3147868E-008  0.7114906E+03  0.7818608E-02  0.9697781E-01
          1   -1    0    0  501    0  0.00000000000E+00  0.00000000000E+00  0.62617787202E+03  0.62617787202E+03  0.00000000000E+00 0. -1.
         -1   -1    0    0    0  501 -0.00000000000E+00 -0.00000000000E+00 -0.86599926514E+03  0.86599926514E+03  0.00000000000E+00 0.  1.
         23    2    1    2    0    0 -0.58259554909E+03  0.12208691474E+03  0.35256490822E+02  0.60317601799E+03  0.90859781867E+02 0.  0.
    5000000    2    1    2    0    0  0.58259554909E+03 -0.12208691474E+03 -0.27507788394E+03  0.88900111917E+03  0.60027690199E+03 0.  0.
         23    2    4    4    0    0  0.12665590297E+03 -0.30258590097E+03 -0.55985763065E+02  0.34385388691E+03  0.86609148783E+02 0.  0.
         23    2    4    4    0    0  0.45593964613E+03  0.18049898623E+03 -0.21909212088E+03  0.54514723226E+03  0.93398621312E+02 0.  0.
          5    1    3    3  502    0 -0.46098495968E+03  0.10737330296E+03  0.62904173001E+02  0.47750935512E+03  0.47000000000E+01 0. -1.
         -5    1    3    3    0  502 -0.12161058941E+03  0.14713611779E+02 -0.27647682179E+02  0.12566666288E+03  0.47000000000E+01 0.  1.
         13    1    5    5    0    0  0.11441991736E+03 -0.26106111794E+03 -0.77682700017E+02  0.29543091692E+03  0.00000000000E+00 0. -1.
        -13    1    5    5    0    0  0.12235985601E+02 -0.41524783032E+02  0.21696936952E+02  0.48422969989E+02  0.00000000000E+00 0.  1.
          3    1    6    6  503    0  0.26833085480E+03  0.57605639984E+02 -0.10887272516E+03  0.29525095712E+03  0.00000000000E+00 0. -1.
         -3    1    6    6    0  503  0.18760879133E+03  0.12289334625E+03 -0.11021939572E+03  0.24989627514E+03  0.00000000000E+00 0.  1.
<mgrwt>
<rscale>  0 0.71149059E+03</rscale>
<asrwt>0</asrwt>
<pdfrwt beam="1">  1        1 0.96335058E-01 0.71149059E+03</pdfrwt>
<pdfrwt beam="2">  1       -1 0.13323066E+00 0.71149059E+03</pdfrwt>
<totfact> 0.15832442E+01</totfact>
</mgrwt>
</event>
<event>
12    1  0.3147868E-008  0.3911812E+03  0.7818608E-02  0.1046877E+00
         -1   -1    0    0    0  501 -0.00000000000E+00  0.00000000000E+00  0.32165667440E+03  0.32165667440E+03  0.00000000000E+00 0.  1.
          1   -1    0    0  501    0  0.00000000000E+00 -0.00000000000E+00 -0.10134576708E+04  0.10134576708E+04  0.00000000000E+00 0. -1.
         23    2    1    2    0    0  0.36092248132E+03  0.11496996082E+03 -0.42633287359E+03  0.57750372203E+03  0.90926896139E+02 0.  0.
    5000000    2    1    2    0    0 -0.36092248132E+03 -0.11496996082E+03 -0.26546812286E+03  0.75761062322E+03  0.60001450212E+03 0.  0.
         23    2    4    4    0    0 -0.12580868625E+03 -0.27528157158E+02 -0.42036951530E+03  0.44908033260E+03  0.91525902134E+02 0.  0.
         23    2    4    4    0    0 -0.23511379507E+03 -0.87441803662E+02  0.15490139244E+03  0.30853029062E+03  0.90950168731E+02 0.  0.
          5    1    3    3  502    0  0.13720371635E+03  0.60254129457E+02 -0.23145531693E+03  0.27576996507E+03  0.47000000000E+01 0. -1.
         -5    1    3    3    0  502  0.22371876497E+03  0.54715831364E+02 -0.19487755665E+03  0.30173375696E+03  0.47000000000E+01 0.  1.
         11    1    5    5    0    0 -0.70538906187E+02 -0.46565436600E+02 -0.33579875669E+03  0.34627284353E+03  0.00000000000E+00 0.  1.
        -11    1    5    5    0    0 -0.55269780065E+02  0.19037279441E+02 -0.84570758609E+02  0.10280748907E+03  0.00000000000E+00 0. -1.
          1    1    6    6  503    0 -0.11634237758E+03 -0.88508595189E+01  0.33506649687E+02  0.12139432486E+03  0.00000000000E+00 0. -1.
         -1    1    6    6    0  503 -0.11877141749E+03 -0.78590944143E+02  0.12139474275E+03  0.18713596577E+03  0.00000000000E+00 0.  1.
<mgrwt>
<rscale>  0 0.39118119E+03</rscale>
<asrwt>0</asrwt>
<pdfrwt beam="1">  1        1 0.15591656E+00 0.39118119E+03</pdfrwt>
<pdfrwt beam="2">  1       -1 0.49485643E-01 0.39118119E+03</pdfrwt>
<totfact> 0.64720053E+01</totfact>
</mgrwt>
</event>
<event>
12    1  0.3147868E-008  0.1096528E+04  0.7818608E-02  0.9208583E-01
         -2   -1    0    0    0  501 -0.00000000000E+00  0.00000000000E+00  0.55165229252E+03  0.55165229252E+03  0.00000000000E+00 0.  1.
          2   -1    0    0  501    0  0.00000000000E+00 -0.00000000000E+00 -0.23655341209E+04  0.23655341209E+04  0.00000000000E+00 0. -1.
         23    2    1    2    0    0 -0.95972477445E+03  0.37070453404E+03 -0.51136756578E+03  0.11523110305E+04  0.88489713294E+02 0.  0.
    5000000    2    1    2    0    0  0.95972477445E+03 -0.37070453404E+03 -0.13025142626E+04  0.17648753829E+04  0.59979014564E+03 0.  0.
         23    2    4    4    0    0  0.92857502411E+03 -0.16639882752E+03 -0.91851633207E+03  0.13198895816E+04  0.92174346538E+02 0.  0.
         23    2    4    4    0    0  0.31149750341E+02 -0.20430570653E+03 -0.38399793052E+03  0.44498580133E+03  0.88582301165E+02 0.  0.
          5    1    3    3  502    0 -0.53330652445E+03  0.23091319435E+03 -0.32957847049E+03  0.66811736287E+03  0.47000000000E+01 0. -1.
         -5    1    3    3    0  502 -0.42641825000E+03  0.13979133969E+03 -0.18178909529E+03  0.48419366760E+03  0.47000000000E+01 0.  1.
         13    1    5    5    0    0  0.54055279114E+03 -0.50622165494E+02 -0.52970094948E+03  0.75851369106E+03  0.00000000000E+00 0.  1.
        -13    1    5    5    0    0  0.38802223297E+03 -0.11577666203E+03 -0.38881538259E+03  0.56137589055E+03  0.00000000000E+00 0. -1.
          3    1    6    6  503    0  0.46702056672E+02 -0.10728258214E+03 -0.27135968861E+03  0.29551093910E+03  0.00000000000E+00 0. -1.
         -3    1    6    6    0  503 -0.15552306331E+02 -0.97023124385E+02 -0.11263824191E+03  0.14947486223E+03  0.00000000000E+00 0.  1.
<mgrwt>
<rscale>  0 0.10965277E+04</rscale>
<asrwt>0</asrwt>
<pdfrwt beam="1">  1        2 0.36392833E+00 0.10965277E+04</pdfrwt>
<pdfrwt beam="2">  1       -2 0.84869582E-01 0.10965277E+04</pdfrwt>
<totfact> 0.50077078E+00</totfact>
</mgrwt>
</event>
<event>
12    1  0.3147868E-008  0.1428055E+04  0.7818608E-02  0.8933757E-01
          2   -1    0    0  501    0  0.00000000000E+00  0.00000000000E+00  0.19512728299E+04  0.19512728299E+04  0.00000000000E+00 0. -1.
         -2   -1    0    0    0  501 -0.00000000000E+00 -0.00000000000E+00 -0.13534689555E+04  0.13534689555E+04  0.00000000000E+00 0.  1.
         23    2    1    2    0    0  0.10767677923E+04  0.83847383880E+03  0.10747384872E+04  0.17395072404E+04  0.91407694521E+02 0.  0.
    5000000    2    1    2    0    0 -0.10767677923E+04 -0.83847383880E+03 -0.47693461285E+03  0.15652345450E+04  0.60002108224E+03 0.  0.
         23    2    4    4    0    0 -0.35562917381E+03 -0.63962950892E+03 -0.24404057602E+03  0.77648634108E+03  0.88188532124E+02 0.  0.
         23    2    4    4    0    0 -0.72113861846E+03 -0.19884432988E+03 -0.23289403684E+03  0.78874820392E+03  0.91126956733E+02 0.  0.
          5    1    3    3  502    0  0.59690936231E+03  0.50848287074E+03  0.65328420243E+03  0.10206164587E+04  0.47000000000E+01 0. -1.
         -5    1    3    3    0  502  0.47985842996E+03  0.32999096806E+03  0.42145428476E+03  0.71889078165E+03  0.47000000000E+01 0.  1.
         11    1    5    5    0    0 -0.30642155844E+03 -0.48109931336E+03 -0.17422481702E+03  0.59641010023E+03  0.00000000000E+00 0.  1.
        -11    1    5    5    0    0 -0.49207615369E+02 -0.15853019556E+03 -0.69815758998E+02  0.18007624085E+03  0.00000000000E+00 0. -1.
          3    1    6    6  503    0 -0.14630397261E+03 -0.44352739381E+01 -0.35286686061E+02  0.15056451862E+03  0.00000000000E+00 0. -1.
         -3    1    6    6    0  503 -0.57483464585E+03 -0.19440905594E+03 -0.19760735078E+03  0.63818368530E+03  0.00000000000E+00 0.  1.
<mgrwt>
<rscale>  0 0.14280553E+04</rscale>
<asrwt>0</asrwt>
<pdfrwt beam="1">  1        2 0.30019582E+00 0.14280553E+04</pdfrwt>
<pdfrwt beam="2">  1       -2 0.20822599E+00 0.14280553E+04</pdfrwt>
<totfact> 0.79091185E-01</totfact>
</mgrwt>
</event>
<event>
12    1  0.3147868E-008  0.7627521E+03  0.7818608E-02  0.9615554E-01
          2   -1    0    0  501    0  0.00000000000E+00  0.00000000000E+00  0.66713333215E+03  0.66713333215E+03  0.00000000000E+00 0. -1.
         -2   -1    0    0    0  501 -0.00000000000E+00 -0.00000000000E+00 -0.10423519084E+04  0.10423519084E+04  0.00000000000E+00 0.  1.
         23    2    1    2    0    0 -0.72229672141E+03 -0.25565838596E+02 -0.14691109978E+03  0.74277468126E+03  0.88120315583E+02 0.  0.
    5000000    2    1    2    0    0  0.72229672141E+03  0.25565838596E+02 -0.22830747649E+03  0.96671055932E+03  0.60003236231E+03 0.  0.
         23    2    4    4    0    0  0.53679608106E+03  0.15443960153E+03  0.81258475538E+02  0.57189892374E+03  0.91998999761E+02 0.  0.
         23    2    4    4    0    0  0.18550064034E+03 -0.12887376294E+03 -0.30956595203E+03  0.39481163558E+03  0.95006392397E+02 0.  0.
          5    1    3    3  502    0 -0.34879746251E+03 -0.45862465912E+02 -0.42446226343E+02  0.35438229042E+03  0.47000000000E+01 0. -1.
         -5    1    3    3    0  502 -0.37349925889E+03  0.20296627315E+02 -0.10446487344E+03  0.38839239083E+03  0.47000000000E+01 0.  1.
         11    1    5    5    0    0  0.38438186103E+03  0.82944598719E+02  0.89727201376E+02  0.40333632642E+03  0.00000000000E+00 0.  1.
        -11    1    5    5    0    0  0.15241422004E+03  0.71495002813E+02 -0.84687258381E+01  0.16856259732E+03  0.00000000000E+00 0. -1.
          2    1    6    6  503    0  0.14804366506E+03 -0.60251694533E+02 -0.24913527432E+03  0.29599928778E+03  0.00000000000E+00 0. -1.
         -2    1    6    6    0  503  0.37456975286E+02 -0.68622068403E+02 -0.60430677705E+02  0.98812347799E+02  0.00000000000E+00 0.  1.
<mgrwt>
<rscale>  0 0.76275208E+03</rscale>
<asrwt>0</asrwt>
<pdfrwt beam="1">  1        2 0.10263590E+00 0.76275208E+03</pdfrwt>
<pdfrwt beam="2">  1       -2 0.16036183E+00 0.76275208E+03</pdfrwt>
<totfact> 0.11054893E+01</totfact>
</mgrwt>
</event>
<event>
12    1  0.3147868E-008  0.4356425E+03  0.7818608E-02  0.1032092E+00
         -2   -1    0    0    0  501 -0.00000000000E+00  0.00000000000E+00  0.32841890086E+03  0.32841890086E+03  0.00000000000E+00 0. -1.
          2   -1    0    0  501    0  0.00000000000E+00 -0.00000000000E+00 -0.20282328174E+04  0.20282328174E+04  0.00000000000E+00 0.  1.
         23    2    1    2    0    0 -0.37890736999E+03  0.17635806961E+03  0.75510632790E+02  0.43661612799E+03  0.10128585193E+03 0.  0.
    5000000    2    1    2    0    0  0.37890736999E+03 -0.17635806961E+03 -0.17753245493E+04  0.19200355903E+04  0.60007203629E+03 0.  0.
         23    2    4    4    0    0  0.24372262155E+03 -0.10818340184E+03 -0.23026595211E+03  0.36495366631E+03  0.95207169698E+02 0.  0.
         23    2    4    4    0    0  0.13518474845E+03 -0.68174667770E+02 -0.15450585972E+04  0.15550819239E+04  0.90282998921E+02 0.  0.
          5    1    3    3  502    0 -0.24516792872E+03  0.13651702840E+03  0.93537858062E+02  0.29583041292E+03  0.47000000000E+01 0. -1.
         -5    1    3    3    0  502 -0.13373944127E+03  0.39841041211E+02 -0.18027225272E+02  0.14078571507E+03  0.47000000000E+01 0.  1.
         13    1    5    5    0    0  0.15799844089E+03 -0.31576433721E+02 -0.17336395290E+03  0.23667623170E+03  0.00000000000E+00 0. -1.
        -13    1    5    5    0    0  0.85724180661E+02 -0.76606968116E+02 -0.56901999214E+02  0.12827743460E+03  0.00000000000E+00 0.  1.
          1    1    6    6  503    0  0.95782222402E+02  0.45018288485E+00 -0.74890815497E+03  0.75500851742E+03  0.00000000000E+00 0. -1.
         -1    1    6    6    0  503  0.39402526043E+02 -0.68624850655E+02 -0.79615044222E+03  0.80007340653E+03  0.00000000000E+00 0.  1.
<mgrwt>
<rscale>  0 0.43564249E+03</rscale>
<asrwt>0</asrwt>
<pdfrwt beam="1">  1        2 0.31203582E+00 0.43564249E+03</pdfrwt>
<pdfrwt beam="2">  1       -2 0.50525985E-01 0.43564249E+03</pdfrwt>
<totfact> 0.26089300E+01</totfact>
</mgrwt>
</event>
<event>
12    1  0.3147868E-008  0.4959712E+03  0.7818608E-02  0.1014836E+00
          1   -1    0    0  501    0  0.00000000000E+00  0.00000000000E+00  0.17354013796E+04  0.17354013796E+04  0.00000000000E+00 0. -1.
         -1   -1    0    0    0  501 -0.00000000000E+00 -0.00000000000E+00 -0.14507981119E+03  0.14507981119E+03  0.00000000000E+00 0.  1.
         23    2    1    2    0    0 -0.15742795150E+03 -0.27125838221E+03  0.56489371049E+03  0.65171700441E+03  0.85237784205E+02 0.  0.
    5000000    2    1    2    0    0  0.15742795150E+03  0.27125838221E+03  0.10254278579E+04  0.12287641864E+04  0.59999538672E+03 0.  0.
         23    2    4    4    0    0 -0.12883755641E+03  0.32893010718E+03  0.63853258993E+03  0.73530575087E+03  0.90313606426E+02 0.  0.
         23    2    4    4    0    0  0.28626550792E+03 -0.57671724974E+02  0.38689526797E+03  0.49345843549E+03  0.92408388646E+02 0.  0.
          5    1    3    3  502    0 -0.41636165238E+02 -0.14810877768E+03  0.23342518934E+03  0.27960541715E+03  0.47000000000E+01 0. -1.
         -5    1    3    3    0  502 -0.11579178626E+03 -0.12314960453E+03  0.33146852115E+03  0.37211158726E+03  0.47000000000E+01 0.  1.
         13    1    5    5    0    0 -0.81881700670E+02  0.10011824538E+03  0.19437815069E+03  0.23347621170E+03  0.00000000000E+00 0. -1.
        -13    1    5    5    0    0 -0.46955855744E+02  0.22881186180E+03  0.44415443924E+03  0.50182953917E+03  0.00000000000E+00 0.  1.
          1    1    6    6  503    0 -0.31473347027E+01 -0.12736591526E+02  0.12556960809E+02  0.18160499558E+02  0.00000000000E+00 0. -1.
         -1    1    6    6    0  503  0.28941284262E+03 -0.44935133447E+02  0.37433830716E+03  0.47529793593E+03  0.00000000000E+00 0.  1.
<mgrwt>
<rscale>  0 0.49597117E+03</rscale>
<asrwt>0</asrwt>
<pdfrwt beam="1">  1        1 0.26698481E+00 0.49597117E+03</pdfrwt>
<pdfrwt beam="2">  1       -1 0.22319972E-01 0.49597117E+03</pdfrwt>
<totfact> 0.81206465E+01</totfact>
</mgrwt>
</event>
<event>
12    1  0.3147868E-008  0.5300787E+03  0.7818608E-02  0.1006213E+00
          2   -1    0    0  501    0  0.00000000000E+00  0.00000000000E+00  0.11090234475E+04  0.11090234475E+04  0.00000000000E+00 0.  1.
         -2   -1    0    0    0  501 -0.00000000000E+00 -0.00000000000E+00 -0.34698260565E+03  0.34698260565E+03  0.00000000000E+00 0. -1.
         23    2    1    2    0    0  0.41496784790E+03 -0.15977294232E+02  0.55154392611E+03  0.69665737689E+03  0.93151541114E+02 0.  0.
    5000000    2    1    2    0    0 -0.41496784790E+03  0.15977294232E+02  0.21049691570E+03  0.75934867624E+03  0.59987321316E+03 0.  0.
         23    2    4    4    0    0 -0.40563527149E+03 -0.16564908932E+03 -0.26267133548E+02  0.44840093237E+03  0.91617899888E+02 0.  0.
         23    2    4    4    0    0 -0.93325764127E+01  0.18162638355E+03  0.23676404925E+03  0.31094774387E+03  0.86925509574E+02 0.  0.
          5    1    3    3  502    0  0.36406763900E+03  0.10744765642E+02  0.50432571669E+03  0.62211511336E+03  0.47000000000E+01 0. -1.
         -5    1    3    3    0  502  0.50900208905E+02 -0.26722059874E+02  0.47218209420E+02  0.74542263524E+02  0.47000000000E+01 0.  1.
         13    1    5    5    0    0 -0.21819264925E+02 -0.35012134104E+02  0.59619506084E+01  0.41683026659E+02  0.00000000000E+00 0. -1.
        -13    1    5    5    0    0 -0.38381600657E+03 -0.13063695521E+03 -0.32229084156E+02  0.40671790571E+03  0.00000000000E+00 0.  1.
          2    1    6    6  503    0  0.25724871428E+02  0.76306243243E+02  0.53466035438E+02  0.96659343642E+02  0.00000000000E+00 0. -1.
         -2    1    6    6    0  503 -0.35057447840E+02  0.10532014030E+03  0.18329801381E+03  0.21428840022E+03  0.00000000000E+00 0.  1.
<mgrwt>
<rscale>  0 0.53007870E+03</rscale>
<asrwt>0</asrwt>
<pdfrwt beam="1">  1        2 0.17061899E+00 0.53007870E+03</pdfrwt>
<pdfrwt beam="2">  1       -2 0.53381940E-01 0.53007870E+03</pdfrwt>
<totfact> 0.73848223E+01</totfact>
</mgrwt>
</event>
<event>
12    1  0.3147868E-008  0.7042513E+03  0.7818608E-02  0.9709989E-01
         -2   -1    0    0    0  501 -0.00000000000E+00  0.00000000000E+00  0.84392043594E+03  0.84392043594E+03  0.00000000000E+00 0.  1.
          2   -1    0    0  501    0  0.00000000000E+00 -0.00000000000E+00 -0.73198860970E+03  0.73198860970E+03  0.00000000000E+00 0. -1.
         23    2    1    2    0    0 -0.49118031583E+03  0.43908401393E+03  0.15754303993E+03  0.68361896750E+03  0.91990267655E+02 0.  0.
    5000000    2    1    2    0    0  0.49118031583E+03 -0.43908401393E+03 -0.45611213696E+02  0.89229007813E+03  0.60004027096E+03 0.  0.
         23    2    4    4    0    0  0.50363051888E+03 -0.41345193798E+03 -0.21870074185E+03  0.69324414953E+03  0.90394865992E+02 0.  0.
         23    2    4    4    0    0 -0.12450203051E+02 -0.25632075946E+02  0.17308952816E+03  0.19904592861E+03  0.94060013094E+02 0.  0.
          5    1    3    3  502    0 -0.32853831368E+03  0.31263418327E+03  0.66715297274E+02  0.45842183303E+03  0.47000000000E+01 0. -1.
         -5    1    3    3    0  502 -0.16264200215E+03  0.12644983065E+03  0.90827742660E+02  0.22519713447E+03  0.47000000000E+01 0.  1.
         13    1    5    5    0    0  0.40798411182E+03 -0.31447286153E+03 -0.20684350838E+03  0.55509319316E+03  0.00000000000E+00 0.  1.
        -13    1    5    5    0    0  0.95646407068E+02 -0.98979076449E+02 -0.11857233471E+02  0.13815095637E+03  0.00000000000E+00 0. -1.
          1    1    6    6  503    0  0.36998321574E+02 -0.28353029032E+02  0.10470996973E+03  0.11461652506E+03  0.00000000000E+00 0. -1.
         -1    1    6    6    0  503 -0.49448524625E+02  0.27209530858E+01  0.68379558426E+02  0.84429403550E+02  0.00000000000E+00 0.  1.
<mgrwt>
<rscale>  0 0.70425128E+03</rscale>
<asrwt>0</asrwt>
<pdfrwt beam="1">  1        2 0.11261363E+00 0.70425128E+03</pdfrwt>
<pdfrwt beam="2">  1       -2 0.12983391E+00 0.70425128E+03</pdfrwt>
<totfact> 0.17183597E+01</totfact>
</mgrwt>
</event>
<event>
12    1  0.3147868E-008  0.5612109E+03  0.7818608E-02  0.9989318E-01
          2   -1    0    0  501    0  0.00000000000E+00  0.00000000000E+00  0.31475697963E+04  0.31475697963E+04  0.00000000000E+00 0. -1.
         -2   -1    0    0    0  501 -0.00000000000E+00 -0.00000000000E+00 -0.21425194503E+03  0.21425194503E+03  0.00000000000E+00 0.  1.
         23    2    1    2    0    0 -0.42257675547E+03  0.50302833043E+02  0.24345707705E+04  0.24731208526E+04  0.89946793955E+02 0.  0.
    5000000    2    1    2    0    0  0.42257675547E+03 -0.50302833043E+02  0.49874708082E+03  0.88870088876E+03  0.59994927267E+03 0.  0.
         23    2    4    4    0    0  0.28180183598E+03  0.22689591152E+03  0.40636265369E+03  0.55209780523E+03  0.93740870479E+02 0.  0.
         23    2    4    4    0    0  0.14077491950E+03 -0.27719874456E+03  0.92384427124E+02  0.33660308353E+03  0.90055713429E+02 0.  0.
          5    1    3    3  502    0 -0.10505279760E+03  0.48123105068E+02  0.55632538953E+03  0.56821822617E+03  0.47000000000E+01 0. -1.
         -5    1    3    3    0  502 -0.31752395787E+03  0.21797279759E+01  0.18782453810E+04  0.19049026264E+04  0.47000000000E+01 0.  1.
         11    1    5    5    0    0  0.15830580733E+03  0.85764280668E+02  0.24907722336E+03  0.30733646655E+03  0.00000000000E+00 0. -1.
        -11    1    5    5    0    0  0.12349602865E+03  0.14113163085E+03  0.15728543033E+03  0.24476133868E+03  0.00000000000E+00 0.  1.
          3    1    6    6  503    0  0.34398505918E+01 -0.86802432055E+02  0.84078094585E+01  0.87276491925E+02  0.00000000000E+00 0. -1.
         -3    1    6    6    0  503  0.13733506891E+03 -0.19039631251E+03  0.83976617665E+02  0.24932659161E+03  0.00000000000E+00 0.  1.
<mgrwt>
<rscale>  0 0.56121090E+03</rscale>
<asrwt>0</asrwt>
<pdfrwt beam="1">  1        2 0.48424148E+00 0.56121090E+03</pdfrwt>
<pdfrwt beam="2">  1       -2 0.32961840E-01 0.56121090E+03</pdfrwt>
<totfact> 0.13355774E+01</totfact>
</mgrwt>
</event>
<event>
12    1  0.3147868E-008  0.2133069E+04  0.7818608E-02  0.8546815E-01
         -2   -1    0    0    0  501 -0.00000000000E+00  0.00000000000E+00  0.26669468795E+04  0.26669468795E+04  0.00000000000E+00 0.  1.
          2   -1    0    0  501    0  0.00000000000E+00 -0.00000000000E+00 -0.17424274438E+04  0.17424274438E+04  0.00000000000E+00 0. -1.
         23    2    1    2    0    0 -0.20029119150E+04  0.62606632132E+03  0.20102669787E+03  0.21100702455E+04  0.91485135044E+02 0.  0.
    5000000    2    1    2    0    0  0.20029119150E+04 -0.62606632132E+03  0.72349273778E+03  0.22993040777E+04  0.59978523033E+03 0.  0.
         23    2    4    4    0    0  0.16987665984E+04 -0.31437631159E+03  0.50066640497E+03  0.18012925500E+04  0.96682885261E+02 0.  0.
         23    2    4    4    0    0  0.30414531654E+03 -0.31169000973E+03  0.22282633281E+03  0.49801152778E+03  0.93321334462E+02 0.  0.
          5    1    3    3  502    0 -0.26605138012E+03  0.97681914559E+02 -0.52213905225E+00  0.28345626810E+03  0.47000000000E+01 0. -1.
         -5    1    3    3    0  502 -0.17368605348E+04  0.52838440676E+03  0.20154883692E+03  0.18266139774E+04  0.47000000000E+01 0.  1.
         13    1    5    5    0    0  0.35904852267E+03 -0.91907018665E+02  0.75555300148E+02  0.37824772979E+03  0.00000000000E+00 0.  1.
        -13    1    5    5    0    0  0.13397180757E+04 -0.22246929293E+03  0.42511110482E+03  0.14230448202E+04  0.00000000000E+00 0. -1.
          4    1    6    6  503    0  0.26487359658E+01 -0.16072094049E+02  0.29315634744E+02  0.33537060840E+02  0.00000000000E+00 0. -1.
         -4    1    6    6    0  503  0.30149658058E+03 -0.29561791568E+03  0.19351069807E+03  0.46447446694E+03  0.00000000000E+00 0.  1.
<mgrwt>
<rscale>  0 0.21330689E+04</rscale>
<asrwt>0</asrwt>
<pdfrwt beam="1">  1        2 0.26806576E+00 0.21330689E+04</pdfrwt>
<pdfrwt beam="2">  1       -2 0.41029952E+00 0.21330689E+04</pdfrwt>
<totfact> 0.51811003E-02</totfact>
</mgrwt>
</event>
<event>
12    1  0.3147868E-008  0.1779861E+04  0.7818608E-02  0.8717083E-01
         -1   -1    0    0    0  501 -0.00000000000E+00  0.00000000000E+00  0.15238470184E+04  0.15238470184E+04  0.00000000000E+00 0.  1.
          1   -1    0    0  501    0  0.00000000000E+00 -0.00000000000E+00 -0.21231914068E+04  0.21231914068E+04  0.00000000000E+00 0. -1.
         23    2    1    2    0    0 -0.77181640980E+03 -0.15677233488E+04 -0.28220743243E+03  0.17724504980E+04  0.92101380117E+02 0.  0.
    5000000    2    1    2    0    0  0.77181640980E+03  0.15677233488E+04 -0.31713695600E+03  0.18745879271E+04  0.60003914794E+03 0.  0.
         23    2    4    4    0    0  0.69941719558E+03  0.95575890104E+03 -0.33125456557E+02  0.11883438445E+04  0.91675004489E+02 0.  0.
         23    2    4    4    0    0  0.72399214222E+02  0.61196444772E+03 -0.28401149944E+03  0.68624408267E+03  0.10259764953E+03 0.  0.
          5    1    3    3  502    0 -0.67570178185E+03 -0.13051696538E+04 -0.25244540369E+03  0.14912382422E+04  0.47000000000E+01 0. -1.
         -5    1    3    3    0  502 -0.96114627948E+02 -0.26255369498E+03 -0.29762028741E+02  0.28121225579E+03  0.47000000000E+01 0.  1.
         13    1    5    5    0    0  0.29411213836E+03  0.45047313511E+03 -0.50551965368E+02  0.54035497276E+03  0.00000000000E+00 0. -1.
        -13    1    5    5    0    0  0.40530505721E+03  0.50528576594E+03  0.17426508811E+02  0.64798887172E+03  0.00000000000E+00 0.  1.
          3    1    6    6  503    0  0.15315844916E+02  0.67551152834E+01 -0.94194471657E+01  0.19207620178E+02  0.00000000000E+00 0. -1.
         -3    1    6    6    0  503  0.57083369306E+02  0.60520933244E+03 -0.27459205228E+03  0.66703646249E+03  0.00000000000E+00 0.  1.
<mgrwt>
<rscale>  0 0.17798613E+04</rscale>
<asrwt>0</asrwt>
<pdfrwt beam="1">  1        1 0.32664483E+00 0.17798613E+04</pdfrwt>
<pdfrwt beam="2">  1       -1 0.23443800E+00 0.17798613E+04</pdfrwt>
<totfact> 0.19836828E-01</totfact>
</mgrwt>
</event>
<event>
12    1  0.3518926E-008  0.8951615E+03  0.7818608E-02  0.9431650E-01
         -1   -1    0    0    0  501 -0.00000000000E+00  0.00000000000E+00  0.10484882802E+04  0.10484882802E+04  0.00000000000E+00 0.  1.
          1   -1    0    0  501    0  0.00000000000E+00 -0.00000000000E+00 -0.90971265266E+03  0.90971265266E+03  0.00000000000E+00 0. -1.
         23    2    1    2    0    0  0.53371708293E+03  0.69242178547E+03 -0.54887623473E+02  0.88076948712E+03  0.91871565940E+02 0.  0.
    5000000    2    1    2    0    0 -0.53371708293E+03 -0.69242178547E+03  0.19366325104E+03  0.10774314458E+04  0.59920882162E+03 0.  0.
         23    2    4    4    0    0 -0.47844475286E+03 -0.50993667478E+03 -0.10385596061E+03  0.71281124503E+03  0.91482329752E+02 0.  0.
         23    2    4    4    0    0 -0.55272330064E+02 -0.18248511070E+03  0.29751921165E+03  0.36462020074E+03  0.89857461502E+02 0.  0.
          5    1    3    3  502    0  0.28105534042E+03  0.37669654584E+03 -0.74535300668E+02  0.47588863515E+03  0.47000000000E+01 0. -1.
         -5    1    3    3    0  502  0.25266174251E+03  0.31572523964E+03  0.19647677195E+02  0.40488085197E+03  0.47000000000E+01 0.  1.
         11    1    5    5    0    0 -0.22099497957E+03 -0.17060287835E+03 -0.46261042458E+02  0.28299153193E+03  0.00000000000E+00 0. -1.
        -11    1    5    5    0    0 -0.25744977330E+03 -0.33933379643E+03 -0.57594918150E+02  0.42981971310E+03  0.00000000000E+00 0.  1.
          3    1    6    6  503    0  0.20043096830E+02 -0.86379056914E+02  0.12685707591E+03  0.15477656448E+03  0.00000000000E+00 0. -1.
         -3    1    6    6    0  503 -0.75315426894E+02 -0.96106053784E+02  0.17066213574E+03  0.20984363626E+03  0.00000000000E+00 0.  1.
<mgrwt>
<rscale>  0 0.89516146E+03</rscale>
<asrwt>0</asrwt>
<pdfrwt beam="1">  1        1 0.13995579E+00 0.89516146E+03</pdfrwt>
<pdfrwt beam="2">  1       -1 0.16130589E+00 0.89516146E+03</pdfrwt>
<totfact> 0.51811699E+00</totfact>
</mgrwt>
</event>
<event>
12    1  0.3147868E-008  0.7892448E+03  0.7818608E-02  0.9575717E-01
          2   -1    0    0  501    0  0.00000000000E+00  0.00000000000E+00  0.11713366748E+04  0.11713366748E+04  0.00000000000E+00 0.  1.
         -2   -1    0    0    0  501 -0.00000000000E+00 -0.00000000000E+00 -0.65573617878E+03  0.65573617878E+03  0.00000000000E+00 0. -1.
         23    2    1    2    0    0  0.61404086251E+03 -0.32793736848E+03 -0.11745885238E+03  0.71108785515E+03  0.85207143318E+02 0.  0.
    5000000    2    1    2    0    0 -0.61404086251E+03  0.32793736848E+03  0.63305934839E+03  0.11159849984E+04  0.60005773023E+03 0.  0.
         23    2    4    4    0    0  0.14854683208E+02  0.23660360165E+03  0.29855244525E+03  0.39233412208E+03  0.92685354050E+02 0.  0.
         23    2    4    4    0    0 -0.62889554571E+03  0.91333766835E+02  0.33450690314E+03  0.72365087633E+03  0.89018302529E+02 0.  0.
          5    1    3    3  502    0  0.45236226019E+03 -0.27597327392E+03 -0.10883069954E+03  0.54097973485E+03  0.47000000000E+01 0. -1.
         -5    1    3    3    0  502  0.16167860232E+03 -0.51964094564E+02 -0.86281528425E+01  0.17010812030E+03  0.47000000000E+01 0.  1.
         13    1    5    5    0    0  0.14395691283E+02  0.17927682052E+03  0.27864368998E+03  0.33164698139E+03  0.00000000000E+00 0.  1.
        -13    1    5    5    0    0  0.45899192437E+00  0.57326781124E+02  0.19908755273E+02  0.60687140682E+02  0.00000000000E+00 0. -1.
          2    1    6    6  503    0 -0.40623289782E+03  0.16396280368E+02  0.22066075419E+03  0.46258531508E+03  0.00000000000E+00 0. -1.
         -2    1    6    6    0  503 -0.22266264789E+03  0.74937486467E+02  0.11384614896E+03  0.26106556126E+03  0.00000000000E+00 0.  1.
<mgrwt>
<rscale>  0 0.78924485E+03</rscale>
<asrwt>0</asrwt>
<pdfrwt beam="1">  1        2 0.18020564E+00 0.78924485E+03</pdfrwt>
<pdfrwt beam="2">  1       -2 0.10088249E+00 0.78924485E+03</pdfrwt>
<totfact> 0.16171776E+01</totfact>
</mgrwt>
</event>
<event>
12    1  0.3147868E-008  0.1472808E+04  0.7818608E-02  0.8902739E-01
         -2   -1    0    0    0  501 -0.00000000000E+00  0.00000000000E+00  0.96791251713E+03  0.96791251713E+03  0.00000000000E+00 0.  1.
          2   -1    0    0  501    0  0.00000000000E+00 -0.00000000000E+00 -0.23346338742E+04  0.23346338742E+04  0.00000000000E+00 0. -1.
         23    2    1    2    0    0  0.84346904517E+03 -0.11693977639E+04 -0.65485864767E+03  0.15862345914E+04  0.91483168533E+02 0.  0.
    5000000    2    1    2    0    0 -0.84346904517E+03  0.11693977639E+04 -0.71186270943E+03  0.17163118000E+04  0.60003876315E+03 0.  0.
         23    2    4    4    0    0 -0.53213290713E+03  0.10256708139E+04 -0.71355397593E+03  0.13612103455E+04  0.92564997798E+02 0.  0.
         23    2    4    4    0    0 -0.31133613804E+03  0.14372694999E+03  0.16912665059E+01  0.35510145446E+03  0.92230990309E+02 0.  0.
          5    1    3    3  502    0  0.26834926094E+03 -0.32337322348E+03 -0.22380459959E+03  0.47612199729E+03  0.47000000000E+01 0. -1.
         -5    1    3    3    0  502  0.57511978423E+03 -0.84602454042E+03 -0.43105404809E+03  0.11101125941E+04  0.47000000000E+01 0.  1.
         11    1    5    5    0    0 -0.16488278018E+03  0.34666150069E+03 -0.28645236502E+03  0.47897336532E+03  0.00000000000E+00 0.  1.
        -11    1    5    5    0    0 -0.36725012695E+03  0.67900931321E+03 -0.42710161091E+03  0.88223698019E+03  0.00000000000E+00 0. -1.
          2    1    6    6  503    0 -0.13281455315E+03  0.34423238000E+02 -0.37282956019E+02  0.14217835156E+03  0.00000000000E+00 0. -1.
         -2    1    6    6    0  503 -0.17852158489E+03  0.10930371199E+03  0.38974222525E+02  0.21292310290E+03  0.00000000000E+00 0.  1.
<mgrwt>
<rscale>  0 0.14728080E+04</rscale>
<asrwt>0</asrwt>
<pdfrwt beam="1">  1        2 0.35917444E+00 0.14728080E+04</pdfrwt>
<pdfrwt beam="2">  1       -2 0.14890962E+00 0.14728080E+04</pdfrwt>
<totfact> 0.12535466E+00</totfact>
</mgrwt>
</event>
<event>
12    1  0.3147868E-008  0.8686711E+03  0.7818608E-02  0.9465614E-01
          2   -1    0    0  501    0  0.00000000000E+00  0.00000000000E+00  0.18954850956E+04  0.18954850956E+04  0.00000000000E+00 0. -1.
         -2   -1    0    0    0  501 -0.00000000000E+00 -0.00000000000E+00 -0.46362392398E+03  0.46362392398E+03  0.00000000000E+00 0.  1.
         23    2    1    2    0    0 -0.75705802746E+03  0.36008063962E+03  0.66329260665E+03  0.10728874350E+04  0.91298642988E+02 0.  0.
    5000000    2    1    2    0    0  0.75705802746E+03 -0.36008063962E+03  0.76856856493E+03  0.12862215845E+04  0.60072739370E+03 0.  0.
         23    2    4    4    0    0  0.18512173752E+03 -0.23147407545E+03  0.59050419769E+03  0.66686609751E+03  0.90359721169E+02 0.  0.
         23    2    4    4    0    0  0.57193628993E+03 -0.12860656416E+03  0.17806436724E+03  0.61935548701E+03  0.90793900272E+02 0.  0.
          5    1    3    3  502    0 -0.13447413603E+03  0.94055092539E+02  0.10067708966E+03  0.19258146348E+03  0.47000000000E+01 0. -1.
         -5    1    3    3    0  502 -0.62258389143E+03  0.26602554708E+03  0.56261551699E+03  0.88030597153E+03  0.47000000000E+01 0.  1.
         11    1    5    5    0    0  0.91420216080E+02 -0.18250579466E+03  0.39213363762E+03  0.44208009539E+03  0.00000000000E+00 0. -1.
        -11    1    5    5    0    0  0.93701521441E+02 -0.48968280797E+02  0.19837056007E+03  0.22478600212E+03  0.00000000000E+00 0.  1.
          1    1    6    6  503    0  0.42557362171E+03 -0.92170431900E+02  0.89818779977E+02  0.44460736527E+03  0.00000000000E+00 0. -1.
         -1    1    6    6    0  503  0.14636266822E+03 -0.36436132261E+02  0.88245587259E+02  0.17474812175E+03  0.00000000000E+00 0.  1.
<mgrwt>
<rscale>  0 0.86867109E+03</rscale>
<asrwt>0</asrwt>
<pdfrwt beam="1">  1        2 0.29161309E+00 0.86867109E+03</pdfrwt>
<pdfrwt beam="2">  1       -2 0.71326758E-01 0.86867109E+03</pdfrwt>
<totfact> 0.13849625E+01</totfact>
</mgrwt>
</event>
<event>
12    1  0.3147868E-008  0.3600633E+03  0.7818608E-02  0.1058559E+00
         -1   -1    0    0    0  501 -0.00000000000E+00  0.00000000000E+00  0.37694890351E+03  0.37694890351E+03  0.00000000000E+00 0.  1.
          1   -1    0    0  501    0  0.00000000000E+00 -0.00000000000E+00 -0.54966633929E+03  0.54966633929E+03  0.00000000000E+00 0. -1.
         23    2    1    2    0    0  0.55664840488E+02  0.16204791868E+03 -0.22769068954E+03  0.29972251924E+03  0.92910903689E+02 0.  0.
    5000000    2    1    2    0    0 -0.55664840488E+02 -0.16204791868E+03  0.54973253758E+02  0.62689272356E+03  0.60051171996E+03 0.  0.
         23    2    4    4    0    0 -0.27777322503E+03 -0.13513420489E+03 -0.10217813709E+03  0.33829631737E+03  0.92654243122E+02 0.  0.
         23    2    4    4    0    0  0.22210838455E+03 -0.26913713783E+02  0.15715139085E+03  0.28859640619E+03  0.92384216981E+02 0.  0.
          5    1    3    3  502    0 -0.13655853123E+01  0.58359777077E+02 -0.14182062138E+03  0.15343698072E+03  0.47000000000E+01 0. -1.
         -5    1    3    3    0  502  0.57030425800E+02  0.10368814160E+03 -0.85870068159E+02  0.14628553852E+03  0.47000000000E+01 0.  1.
         11    1    5    5    0    0 -0.21176876232E+03 -0.12847078347E+03 -0.47226334549E+02  0.25215288532E+03  0.00000000000E+00 0.  1.
        -11    1    5    5    0    0 -0.66004462711E+02 -0.66634214280E+01 -0.54951802539E+02  0.86143432049E+02  0.00000000000E+00 0. -1.
          3    1    6    6  503    0  0.20542694758E+03 -0.38215338922E+02  0.10743706123E+03  0.23495396367E+03  0.00000000000E+00 0. -1.
         -3    1    6    6    0  503  0.16681436969E+02  0.11301625139E+02  0.49714329620E+02  0.53642442521E+02  0.00000000000E+00 0.  1.
<mgrwt>
<rscale>  0 0.36006332E+03</rscale>
<asrwt>0</asrwt>
<pdfrwt beam="1">  1        1 0.84564052E-01 0.36006332E+03</pdfrwt>
<pdfrwt beam="2">  1       -1 0.57992139E-01 0.36006332E+03</pdfrwt>
<totfact> 0.12311571E+02</totfact>
</mgrwt>
</event>
<event>
12    1  0.3147868E-008  0.7771412E+03  0.7818608E-02  0.9593707E-01
         -2   -1    0    0    0  501 -0.00000000000E+00  0.00000000000E+00  0.35931593809E+03  0.35931593809E+03  0.00000000000E+00 0. -1.
          2   -1    0    0  501    0  0.00000000000E+00 -0.00000000000E+00 -0.18727525109E+04  0.18727525109E+04  0.00000000000E+00 0.  1.
         23    2    1    2    0    0  0.14564273895E+03 -0.67918411849E+03 -0.47547811837E+03  0.84623249488E+03  0.86758977251E+02 0.  0.
    5000000    2    1    2    0    0 -0.14564273895E+03  0.67918411849E+03 -0.10379584545E+04  0.13858359541E+04  0.60056695244E+03 0.  0.
         23    2    4    4    0    0 -0.29364400396E+03  0.59731070738E+03 -0.97526056463E+03  0.11841318058E+04  0.89599567094E+02 0.  0.
         23    2    4    4    0    0  0.14800126501E+03  0.81873411104E+02 -0.62697889844E+02  0.20170414832E+03  0.90254685023E+02 0.  0.
          5    1    3    3  502    0  0.84536312794E+02 -0.32420928041E+03 -0.27823871295E+03  0.43554209564E+03  0.47000000000E+01 0. -1.
         -5    1    3    3    0  502  0.61106426160E+02 -0.35497483807E+03 -0.19723940542E+03  0.41069039924E+03  0.47000000000E+01 0.  1.
         13    1    5    5    0    0 -0.99705303484E+02  0.13470728310E+03 -0.20269518498E+03  0.26300672554E+03  0.00000000000E+00 0. -1.
        -13    1    5    5    0    0 -0.19393870048E+03  0.46260342428E+03 -0.77256537965E+03  0.92112508028E+03  0.00000000000E+00 0.  1.
          3    1    6    6  503    0  0.35676402487E+01 -0.15286555872E+02  0.23560653183E+01  0.15873181507E+02  0.00000000000E+00 0. -1.
         -3    1    6    6    0  503  0.14443362476E+03  0.97159966976E+02 -0.65053955163E+02  0.18583096681E+03  0.00000000000E+00 0.  1.
<mgrwt>
<rscale>  0 0.77714119E+03</rscale>
<asrwt>0</asrwt>
<pdfrwt beam="1">  1        2 0.28811576E+00 0.77714119E+03</pdfrwt>
<pdfrwt beam="2">  1       -2 0.55279377E-01 0.77714119E+03</pdfrwt>
<totfact> 0.24843742E+01</totfact>
</mgrwt>
</event>
<event>
12    1  0.3147868E-008  0.6369976E+03  0.7818608E-02  0.9831488E-01
         -2   -1    0    0    0  501 -0.00000000000E+00  0.00000000000E+00  0.27645949967E+03  0.27645949967E+03  0.00000000000E+00 0.  1.
          2   -1    0    0  501    0  0.00000000000E+00 -0.00000000000E+00 -0.19511404772E+04  0.19511404772E+04  0.00000000000E+00 0. -1.
         23    2    1    2    0    0 -0.40399846576E+02  0.49115434716E+03 -0.12412642336E+04  0.13383613355E+04  0.87232025645E+02 0.  0.
    5000000    2    1    2    0    0  0.40399846576E+02 -0.49115434716E+03 -0.43341674397E+03  0.88923864144E+03  0.60002545541E+03 0.  0.
         23    2    4    4    0    0 -0.24877664381E+03 -0.10280472267E+03 -0.15606305855E+03  0.32403209678E+03  0.90457127921E+02 0.  0.
         23    2    4    4    0    0  0.28917649038E+03 -0.38834962449E+03 -0.27735368542E+03  0.56520654467E+03  0.89971650460E+02 0.  0.
          5    1    3    3  502    0  0.14610964719E+02  0.26672147155E+03 -0.60279858088E+03  0.65934971206E+03  0.47000000000E+01 0. -1.
         -5    1    3    3    0  502 -0.55010811296E+02  0.22443287561E+03 -0.63846565271E+03  0.67901162339E+03  0.47000000000E+01 0.  1.
         11    1    5    5    0    0 -0.61399725853E+02  0.13931842743E+02 -0.40329689584E+02  0.74769689307E+02  0.00000000000E+00 0.  1.
        -11    1    5    5    0    0 -0.18737691795E+03 -0.11673656542E+03 -0.11573336896E+03  0.24926240747E+03  0.00000000000E+00 0. -1.
          2    1    6    6  503    0  0.19736999731E+03 -0.19259074530E+03 -0.16799952638E+03  0.32290858130E+03  0.00000000000E+00 0.  1.
         -2    1    6    6    0  503  0.91806493068E+02 -0.19575887919E+03 -0.10935415905E+03  0.24229796337E+03  0.00000000000E+00 0. -1.
<mgrwt>
<rscale>  0 0.63699760E+03</rscale>
<asrwt>0</asrwt>
<pdfrwt beam="1">  1        2 0.30017545E+00 0.63699760E+03</pdfrwt>
<pdfrwt beam="2">  1       -2 0.42532232E-01 0.63699760E+03</pdfrwt>
<totfact> 0.38994692E+01</totfact>
</mgrwt>
</event>
<event>
12    1  0.3147868E-008  0.2167043E+03  0.7818608E-02  0.1136364E+00
         -2   -1    0    0    0  501 -0.00000000000E+00  0.00000000000E+00  0.16688015110E+03  0.16688015110E+03  0.00000000000E+00 0.  1.
          2   -1    0    0  501    0  0.00000000000E+00 -0.00000000000E+00 -0.16427452444E+04  0.16427452444E+04  0.00000000000E+00 0. -1.
         23    2    1    2    0    0 -0.14039744346E+03  0.45746359237E+02 -0.10380165150E+04  0.10522443839E+04  0.89083031357E+02 0.  0.
    5000000    2    1    2    0    0  0.14039744346E+03 -0.45746359237E+02 -0.43784857827E+03  0.75738101160E+03  0.60009203271E+03 0.  0.
         23    2    4    4    0    0  0.33414425885E+02 -0.10846137299E+03  0.11417007928E+03  0.18429700377E+03  0.89722824889E+02 0.  0.
         23    2    4    4    0    0  0.10698301757E+03  0.62715013754E+02 -0.55201865756E+03  0.57308400783E+03  0.91225778953E+02 0.  0.
          5    1    3    3  502    0 -0.43868922081E+02 -0.17206167969E+02 -0.48633253328E+03  0.48863274293E+03  0.47000000000E+01 0. -1.
         -5    1    3    3    0  502 -0.96528521376E+02  0.62952527205E+02 -0.55168398176E+03  0.56361164098E+03  0.47000000000E+01 0.  1.
         13    1    5    5    0    0 -0.23254406394E+02 -0.74883132254E+02  0.55255593221E+02  0.95924092360E+02  0.00000000000E+00 0. -1.
        -13    1    5    5    0    0  0.56668832279E+02 -0.33578240737E+02  0.58914486060E+02  0.88372911407E+02  0.00000000000E+00 0.  1.
          4    1    6    6  503    0  0.80252111325E+02  0.58640820252E+02 -0.23823792868E+03  0.25814038396E+03  0.00000000000E+00 0. -1.
         -4    1    6    6    0  503  0.26730906247E+02  0.40741935026E+01 -0.31378072888E+03  0.31494362387E+03  0.00000000000E+00 0.  1.
<mgrwt>
<rscale>  0 0.21670434E+03</rscale>
<asrwt>0</asrwt>
<pdfrwt beam="1">  1        2 0.25273005E+00 0.21670434E+03</pdfrwt>
<pdfrwt beam="2">  1       -2 0.25673868E-01 0.21670434E+03</pdfrwt>
<totfact> 0.15894662E+02</totfact>
</mgrwt>
</event>
<event>
12    1  0.3147868E-008  0.5582604E+03  0.7818608E-02  0.9995999E-01
          1   -1    0    0  501    0  0.00000000000E+00  0.00000000000E+00  0.10766056933E+04  0.10766056933E+04  0.00000000000E+00 0.  1.
         -1   -1    0    0    0  501 -0.00000000000E+00 -0.00000000000E+00 -0.58143761506E+03  0.58143761506E+03  0.00000000000E+00 0. -1.
         23    2    1    2    0    0 -0.35729110490E+02 -0.41871652950E+03  0.76442168395E+03  0.87706976045E+03  0.91163328116E+02 0.  0.
    5000000    2    1    2    0    0  0.35729110490E+02  0.41871652950E+03 -0.26925360567E+03  0.78097354795E+03  0.60068467353E+03 0.  0.
         23    2    4    4    0    0  0.11705154822E+02 -0.12692953863E+03 -0.14197564889E+03  0.21143509635E+03  0.91102122169E+02 0.  0.
         23    2    4    4    0    0  0.24023955668E+02  0.54564606813E+03 -0.12727795678E+03  0.56953845160E+03  0.99335730977E+02 0.  0.
          5    1    3    3  502    0 -0.22131895386E+02 -0.20142888285E+03  0.27724632276E+03  0.34343999348E+03  0.47000000000E+01 0. -1.
         -5    1    3    3    0  502 -0.13597215104E+02 -0.21728764665E+03  0.48717536119E+03  0.53362976697E+03  0.47000000000E+01 0.  1.
         11    1    5    5    0    0 -0.16756355326E+02 -0.16272922061E+01  0.36486869939E+01  0.17226039606E+02  0.00000000000E+00 0. -1.
        -11    1    5    5    0    0  0.28461510148E+02 -0.12530224643E+03 -0.14562433589E+03  0.19420905674E+03  0.00000000000E+00 0.  1.
          2    1    6    6  503    0  0.45590622484E+02  0.23772349875E+03 -0.20530405262E+02  0.24292481194E+03  0.00000000000E+00 0. -1.
         -2    1    6    6    0  503 -0.21566666816E+02  0.30792256938E+03 -0.10674755152E+03  0.32661363965E+03  0.00000000000E+00 0.  1.
<mgrwt>
<rscale>  0 0.55826040E+03</rscale>
<asrwt>0</asrwt>
<pdfrwt beam="1">  1        1 0.16563165E+00 0.55826040E+03</pdfrwt>
<pdfrwt beam="2">  1       -1 0.89451941E-01 0.55826040E+03</pdfrwt>
<totfact> 0.17146538E+01</totfact>
</mgrwt>
</event>
<event>
12    1  0.3147868E-008  0.1051466E+04  0.7818608E-02  0.9253832E-01
         -2   -1    0    0    0  501 -0.00000000000E+00  0.00000000000E+00  0.11741581277E+04  0.11741581277E+04  0.00000000000E+00 0.  1.
          2   -1    0    0  501    0  0.00000000000E+00 -0.00000000000E+00 -0.10293222262E+04  0.10293222262E+04  0.00000000000E+00 0. -1.
         23    2    1    2    0    0 -0.49447305070E+02 -0.97896218004E+03 -0.19810935027E+03  0.10041216652E+04  0.90559471434E+02 0.  0.
    5000000    2    1    2    0    0  0.49447305070E+02  0.97896218004E+03  0.34294525180E+03  0.11993586888E+04  0.60003152642E+03 0.  0.
         23    2    4    4    0    0 -0.17810750813E+03  0.80151611687E+03  0.34717941352E+03  0.89615331740E+03  0.91688892844E+02 0.  0.
         23    2    4    4    0    0  0.22755481320E+03  0.17744606317E+03 -0.42341617253E+01  0.30320537137E+03  0.92990702526E+02 0.  0.
          5    1    3    3  502    0 -0.94465097741E+01 -0.36144704922E+02  0.72827238248E+01  0.38351066570E+02  0.47000000000E+01 0. -1.
         -5    1    3    3    0  502 -0.40000795296E+02 -0.94281747512E+03 -0.20539207410E+03  0.96577059859E+03  0.47000000000E+01 0.  1.
         11    1    5    5    0    0 -0.32587357631E+02  0.35562798893E+03  0.15307786342E+03  0.38854347846E+03  0.00000000000E+00 0. -1.
        -11    1    5    5    0    0 -0.14552015050E+03  0.44588812794E+03  0.19410155011E+03  0.50760983895E+03  0.00000000000E+00 0.  1.
          1    1    6    6  503    0  0.14198614492E+03  0.14764693228E+03  0.28606650382E+02  0.20682848549E+03  0.00000000000E+00 0. -1.
         -1    1    6    6    0  503  0.85568668280E+02  0.29799130887E+02 -0.32840812108E+02  0.96376885884E+02  0.00000000000E+00 0.  1.
<mgrwt>
<rscale>  0 0.10514658E+04</rscale>
<asrwt>0</asrwt>
<pdfrwt beam="1">  1        2 0.15835727E+00 0.10514658E+04</pdfrwt>
<pdfrwt beam="2">  1       -2 0.18063971E+00 0.10514658E+04</pdfrwt>
<totfact> 0.42699805E+00</totfact>
</mgrwt>
</event>
<event>
12    1  0.3147868E-008  0.6477605E+03  0.7818608E-02  0.9810990E-01
         -2   -1    0    0    0  501 -0.00000000000E+00  0.00000000000E+00  0.44438762655E+03  0.44438762655E+03  0.00000000000E+00 0.  1.
          2   -1    0    0  501    0  0.00000000000E+00 -0.00000000000E+00 -0.13092391694E+04  0.13092391694E+04  0.00000000000E+00 0. -1.
         23    2    1    2    0    0  0.38033404635E+03 -0.50738235084E+03 -0.47632735768E+03  0.79812627466E+03  0.89593313708E+02 0.  0.
    5000000    2    1    2    0    0 -0.38033404635E+03  0.50738235084E+03 -0.38852418521E+03  0.95550052134E+03  0.59994947039E+03 0.  0.
         23    2    4    4    0    0 -0.81381445598E+02  0.21621360715E+03  0.13284962750E+03  0.28106729140E+03  0.89322646429E+02 0.  0.
         23    2    4    4    0    0 -0.29895260075E+03  0.29116874369E+03 -0.52137381271E+03  0.67443322993E+03  0.94221198544E+02 0.  0.
          5    1    3    3  502    0  0.24086301407E+02 -0.14203143174E+02 -0.41681843194E+02  0.50411756997E+02  0.47000000000E+01 0. -1.
         -5    1    3    3    0  502  0.35624774494E+03 -0.49317920767E+03 -0.43464551449E+03  0.74771451766E+03  0.47000000000E+01 0.  1.
         11    1    5    5    0    0 -0.21607807319E+02  0.84810474716E+02  0.40693028751E+01  0.87614343487E+02  0.00000000000E+00 0. -1.
        -11    1    5    5    0    0 -0.59773638279E+02  0.13140313243E+03  0.12878032463E+03  0.19345294792E+03  0.00000000000E+00 0.  1.
          4    1    6    6  503    0 -0.69679265659E+02  0.21502515448E+02 -0.72970954353E+02  0.10316161308E+03  0.00000000000E+00 0. -1.
         -4    1    6    6    0  503 -0.22927333509E+03  0.26966622825E+03 -0.44840285836E+03  0.57127161686E+03  0.00000000000E+00 0.  1.
<mgrwt>
<rscale>  0 0.64776053E+03</rscale>
<asrwt>0</asrwt>
<pdfrwt beam="1">  1        2 0.20142141E+00 0.64776053E+03</pdfrwt>
<pdfrwt beam="2">  1       -2 0.68367328E-01 0.64776053E+03</pdfrwt>
<totfact> 0.32981327E+01</totfact>
</mgrwt>
</event>
<event>
12    1  0.3147868E-008  0.7581661E+03  0.7818608E-02  0.9622625E-01
         -2   -1    0    0    0  501 -0.00000000000E+00  0.00000000000E+00  0.14925170041E+04  0.14925170041E+04  0.00000000000E+00 0.  1.
          2   -1    0    0  501    0  0.00000000000E+00 -0.00000000000E+00 -0.10251390961E+04  0.10251390961E+04  0.00000000000E+00 0. -1.
         23    2    1    2    0    0 -0.44100908902E+03  0.48915573069E+03 -0.75436533503E+03  0.10055282517E+04  0.90871671763E+02 0.  0.
    5000000    2    1    2    0    0  0.44100908902E+03 -0.48915573069E+03  0.12217432431E+04  0.15121278485E+04  0.60009310338E+03 0.  0.
         23    2    4    4    0    0 -0.10052851285E+03 -0.21183097148E+03  0.52946525103E+03  0.58595891957E+03  0.89644079570E+02 0.  0.
         23    2    4    4    0    0  0.54153760187E+03 -0.27732475922E+03  0.69227799202E+03  0.92616892891E+03  0.91477157397E+02 0.  0.
          5    1    3    3  502    0 -0.29774710339E+03  0.30399455335E+03 -0.42515504527E+03  0.60153547572E+03  0.47000000000E+01 0. -1.
         -5    1    3    3    0  502 -0.14326198563E+03  0.18516117735E+03 -0.32921028977E+03  0.40399277594E+03  0.47000000000E+01 0.  1.
         13    1    5    5    0    0 -0.92022828858E+02 -0.12888794042E+03  0.41621805884E+03  0.44532883886E+03  0.00000000000E+00 0.  1.
        -13    1    5    5    0    0 -0.85056839898E+01 -0.82943031060E+02  0.11324719220E+03  0.14063008072E+03  0.00000000000E+00 0. -1.
          3    1    6    6  503    0  0.13169289108E+03 -0.11225736584E+03  0.20952547488E+03  0.27174557654E+03  0.00000000000E+00 0. -1.
         -3    1    6    6    0  503  0.40984471078E+03 -0.16506739338E+03  0.48275251715E+03  0.65442335237E+03  0.00000000000E+00 0.  1.
<mgrwt>
<rscale>  0 0.75816613E+03</rscale>
<asrwt>0</asrwt>
<pdfrwt beam="1">  1        2 0.15771371E+00 0.75816613E+03</pdfrwt>
<pdfrwt beam="2">  1       -2 0.22961800E+00 0.75816613E+03</pdfrwt>
<totfact> 0.21463356E+00</totfact>
</mgrwt>
</event>
<event>
12    1  0.3147868E-008  0.4428700E+03  0.7818608E-02  0.1029870E+00
         -4   -1    0    0    0  501 -0.00000000000E+00  0.00000000000E+00  0.61437787180E+03  0.61437787180E+03  0.00000000000E+00 0.  1.
          4   -1    0    0  501    0  0.00000000000E+00 -0.00000000000E+00 -0.87616377351E+03  0.87616377351E+03  0.00000000000E+00 0. -1.
         23    2    1    2    0    0  0.14465875811E+02  0.28838666993E+03  0.43271629778E+03  0.52825910064E+03  0.91859403909E+02 0.  0.
    5000000    2    1    2    0    0 -0.14465875811E+02 -0.28838666993E+03 -0.69450219949E+03  0.96228254467E+03  0.60023183665E+03 0.  0.
         23    2    4    4    0    0  0.22064544213E+03 -0.26607860529E+03 -0.59547794662E+03  0.69394161034E+03  0.86479698894E+02 0.  0.
         23    2    4    4    0    0 -0.23511131794E+03 -0.22308064643E+02 -0.99024252872E+02  0.26834093434E+03  0.80162789448E+02 0.  0.
          5    1    3    3  502    0 -0.33816653445E+02  0.11250036098E+03  0.20662878257E+03  0.23773397119E+03  0.47000000000E+01 0. -1.
         -5    1    3    3    0  502  0.48282529256E+02  0.17588630895E+03  0.22608751520E+03  0.29052512945E+03  0.47000000000E+01 0.  1.
         11    1    5    5    0    0  0.10131809940E+03 -0.91412634771E+02 -0.16360518719E+03  0.21304526359E+03  0.00000000000E+00 0. -1.
        -11    1    5    5    0    0  0.11932734273E+03 -0.17466597052E+03 -0.43187275942E+03  0.48089634675E+03  0.00000000000E+00 0.  1.
          1    1    6    6  503    0 -0.76578523932E+02 -0.20110418399E+02  0.39735170639E+01  0.79274763284E+02  0.00000000000E+00 0. -1.
         -1    1    6    6    0  503 -0.15853279401E+03 -0.21976462446E+01 -0.10299776994E+03  0.18906617105E+03  0.00000000000E+00 0.  1.
<mgrwt>
<rscale>  0 0.44287003E+03</rscale>
<asrwt>0</asrwt>
<pdfrwt beam="1">  1        4 0.13479443E+00 0.44287003E+03</pdfrwt>
<pdfrwt beam="2">  1       -4 0.94519673E-01 0.44287003E+03</pdfrwt>
<totfact> 0.72796268E-01</totfact>
</mgrwt>
</event>
<event>
12    1  0.3147868E-008  0.1056219E+04  0.7818608E-02  0.9248946E-01
         -1   -1    0    0    0  501 -0.00000000000E+00  0.00000000000E+00  0.53058633148E+03  0.53058633148E+03  0.00000000000E+00 0.  1.
          1   -1    0    0  501    0  0.00000000000E+00 -0.00000000000E+00 -0.21744853747E+04  0.21744853747E+04  0.00000000000E+00 0. -1.
         23    2    1    2    0    0 -0.92279806765E+03  0.31957386515E+03 -0.94867240227E+03  0.13645269964E+04  0.90944312730E+02 0.  0.
    5000000    2    1    2    0    0  0.92279806765E+03 -0.31957386515E+03 -0.69522664091E+03  0.13405447098E+04  0.60003025571E+03 0.  0.
         23    2    4    4    0    0  0.81347128562E+02 -0.27104525520E+03 -0.15823559122E+03  0.33702085747E+03  0.91987337973E+02 0.  0.
         23    2    4    4    0    0  0.84145093909E+03 -0.48528609955E+02 -0.53699104969E+03  0.10035238523E+04  0.91137401015E+02 0.  0.
          5    1    3    3  502    0 -0.20484901715E+03  0.35874622105E+02 -0.22420610364E+03  0.30584403746E+03  0.47000000000E+01 0. -1.
         -5    1    3    3    0  502 -0.71794905050E+03  0.28369924305E+03 -0.72446629862E+03  0.10586829589E+04  0.47000000000E+01 0.  1.
         11    1    5    5    0    0  0.32323441262E+01 -0.11462652315E+03 -0.25419441922E+02  0.11745567626E+03  0.00000000000E+00 0. -1.
        -11    1    5    5    0    0  0.78114784436E+02 -0.15641873204E+03 -0.13281614930E+03  0.21956518120E+03  0.00000000000E+00 0.  1.
          3    1    6    6  503    0  0.60871759868E+03 -0.30048658394E+02 -0.33892328199E+03  0.69735860781E+03  0.00000000000E+00 0. -1.
         -3    1    6    6    0  503  0.23273334041E+03 -0.18479951561E+02 -0.19806776770E+03  0.30616524452E+03  0.00000000000E+00 0.  1.
<mgrwt>
<rscale>  0 0.10562195E+04</rscale>
<asrwt>0</asrwt>
<pdfrwt beam="1">  1        1 0.33453622E+00 0.10562195E+04</pdfrwt>
<pdfrwt beam="2">  1       -1 0.81628665E-01 0.10562195E+04</pdfrwt>
<totfact> 0.34088884E+00</totfact>
</mgrwt>
</event>
<event>
12    1  0.3147868E-008  0.8627252E+03  0.7818608E-02  0.9473415E-01
          1   -1    0    0  501    0  0.00000000000E+00  0.00000000000E+00  0.14102371096E+04  0.14102371096E+04  0.00000000000E+00 0. -1.
         -1   -1    0    0    0  501 -0.00000000000E+00 -0.00000000000E+00 -0.64133119695E+03  0.64133119695E+03  0.00000000000E+00 0.  1.
         23    2    1    2    0    0 -0.73544627792E+02  0.78390896941E+03  0.70272511000E+03  0.10593796674E+04  0.92415446706E+02 0.  0.
    5000000    2    1    2    0    0  0.73544627792E+02 -0.78390896941E+03  0.66180802620E+02  0.99218863916E+03  0.60011358296E+03 0.  0.
         23    2    4    4    0    0  0.28034528205E+03 -0.50404286099E+03  0.18604820171E+03  0.61282348207E+03  0.91027489957E+02 0.  0.
         23    2    4    4    0    0 -0.20680065426E+03 -0.27986610842E+03 -0.11986739909E+03  0.37936515710E+03  0.91968363105E+02 0.  0.
          5    1    3    3  502    0 -0.41550799887E+01  0.29076112490E+03  0.31063064095E+03  0.42552647572E+03  0.47000000000E+01 0. -1.
         -5    1    3    3    0  502 -0.69389547803E+02  0.49314784451E+03  0.39209446905E+03  0.63385319164E+03  0.47000000000E+01 0.  1.
         11    1    5    5    0    0  0.27397659876E+03 -0.43770617607E+03  0.15386458330E+03  0.53881739322E+03  0.00000000000E+00 0. -1.
        -11    1    5    5    0    0  0.63686832932E+01 -0.66336684920E+02  0.32183618406E+02  0.74006088849E+02  0.00000000000E+00 0.  1.
          3    1    6    6  503    0 -0.12333584545E+03 -0.21499631158E+03 -0.11579959614E+03  0.27357757809E+03  0.00000000000E+00 0. -1.
         -3    1    6    6    0  503 -0.83464808813E+02 -0.64869796839E+02 -0.40678029431E+01  0.10578757901E+03  0.00000000000E+00 0.  1.
<mgrwt>
<rscale>  0 0.86272520E+03</rscale>
<asrwt>0</asrwt>
<pdfrwt beam="1">  1        1 0.21695955E+00 0.86272520E+03</pdfrwt>
<pdfrwt beam="2">  1       -1 0.98666338E-01 0.86272520E+03</pdfrwt>
<totfact> 0.75894417E+00</totfact>
</mgrwt>
</event>
<event>
12    1  0.3147868E-008  0.8909545E+03  0.7818608E-02  0.9436960E-01
         -2   -1    0    0    0  501 -0.00000000000E+00  0.00000000000E+00  0.59114079049E+03  0.59114079049E+03  0.00000000000E+00 0.  1.
          2   -1    0    0  501    0  0.00000000000E+00 -0.00000000000E+00 -0.21089424697E+04  0.21089424697E+04  0.00000000000E+00 0. -1.
         23    2    1    2    0    0 -0.15920322307E+03 -0.81197015475E+03 -0.14549250785E+04  0.16760562078E+04  0.87842070999E+02 0.  0.
    5000000    2    1    2    0    0  0.15920322307E+03  0.81197015475E+03 -0.62876600771E+02  0.10240270524E+04  0.60003061473E+03 0.  0.
         23    2    4    4    0    0  0.25062644436E+03  0.82129003541E+03 -0.13765404747E+03  0.87434080471E+03  0.90511154714E+02 0.  0.
         23    2    4    4    0    0 -0.91423221289E+02 -0.93198806579E+01  0.74777446698E+02  0.14968624766E+03  0.91483553913E+02 0.  0.
          5    1    3    3  502    0 -0.70107277121E+02 -0.32081638973E+03 -0.66384492125E+03  0.74064185386E+03  0.47000000000E+01 0. -1.
         -5    1    3    3    0  502 -0.89095945954E+02 -0.49115376502E+03 -0.79108015721E+03  0.93541435397E+03  0.47000000000E+01 0.  1.
         11    1    5    5    0    0  0.53449207591E+02  0.15393666931E+03  0.89303272375E+01  0.16319640528E+03  0.00000000000E+00 0.  1.
        -11    1    5    5    0    0  0.19717723677E+03  0.66735336610E+03 -0.14658437471E+03  0.71114439944E+03  0.00000000000E+00 0. -1.
          3    1    6    6  503    0 -0.85272794826E+02 -0.11947674340E+01  0.12040358235E+02  0.86126925135E+02  0.00000000000E+00 0. -1.
         -3    1    6    6    0  503 -0.61504264621E+01 -0.81251132239E+01  0.62737088463E+02  0.63559322521E+02  0.00000000000E+00 0.  1.
<mgrwt>
<rscale>  0 0.89095451E+03</rscale>
<asrwt>0</asrwt>
<pdfrwt beam="1">  1        2 0.32445268E+00 0.89095451E+03</pdfrwt>
<pdfrwt beam="2">  1       -2 0.90944738E-01 0.89095451E+03</pdfrwt>
<totfact> 0.60934986E+00</totfact>
</mgrwt>
</event>
<event>
12    1  0.3147868E-008  0.8759488E+03  0.7818608E-02  0.9456156E-01
         -2   -1    0    0    0  501 -0.00000000000E+00  0.00000000000E+00  0.10066194564E+04  0.10066194564E+04  0.00000000000E+00 0.  1.
          2   -1    0    0  501    0  0.00000000000E+00 -0.00000000000E+00 -0.82814344241E+03  0.82814344241E+03  0.00000000000E+00 0. -1.
         23    2    1    2    0    0  0.73395345027E+03  0.32598391621E+03 -0.37138006277E+02  0.80915633026E+03  0.91659994016E+02 0.  0.
    5000000    2    1    2    0    0 -0.73395345027E+03 -0.32598391621E+03  0.21561402029E+03  0.10256065686E+04  0.60035510073E+03 0.  0.
         23    2    4    4    0    0 -0.54586377563E+03 -0.45469167235E+03  0.28999826157E+02  0.71688322055E+03  0.91481055652E+02 0.  0.
         23    2    4    4    0    0 -0.18808967464E+03  0.12870775614E+03  0.18661419414E+03  0.30872334802E+03  0.92422053462E+02 0.  0.
          5    1    3    3  502    0  0.36942114048E+03  0.20954590409E+03 -0.91769157212E+00  0.42474038790E+03  0.47000000000E+01 0. -1.
         -5    1    3    3    0  502  0.36453230978E+03  0.11643801213E+03 -0.36220314704E+02  0.38441594236E+03  0.47000000000E+01 0.  1.
         13    1    5    5    0    0 -0.25134542022E+03 -0.26636503016E+03  0.27997305841E+02  0.36729919506E+03  0.00000000000E+00 0. -1.
        -13    1    5    5    0    0 -0.29451835541E+03 -0.18832664219E+03  0.10025203152E+01  0.34958402549E+03  0.00000000000E+00 0.  1.
          4    1    6    6  503    0 -0.33435369028E+02  0.14803281589E+02  0.82515135865E+02  0.90254133948E+02  0.00000000000E+00 0. -1.
         -4    1    6    6    0  503 -0.15465430561E+03  0.11390447455E+03  0.10409905827E+03  0.21846921407E+03  0.00000000000E+00 0.  1.
<mgrwt>
<rscale>  0 0.87594879E+03</rscale>
<asrwt>0</asrwt>
<pdfrwt beam="1">  1        2 0.12740668E+00 0.87594879E+03</pdfrwt>
<pdfrwt beam="2">  1       -2 0.15486453E+00 0.87594879E+03</pdfrwt>
<totfact> 0.90772002E+00</totfact>
</mgrwt>
</event>
<event>
12    1  0.3147868E-008  0.1832730E+04  0.7818608E-02  0.8689085E-01
         -1   -1    0    0    0  501 -0.00000000000E+00  0.00000000000E+00  0.20659179493E+04  0.20659179493E+04  0.00000000000E+00 0.  1.
          1   -1    0    0  501    0  0.00000000000E+00 -0.00000000000E+00 -0.17333761447E+04  0.17333761447E+04  0.00000000000E+00 0. -1.
         23    2    1    2    0    0  0.10810388418E+04 -0.14444322140E+04 -0.21712658135E+03  0.18201058203E+04  0.10301381736E+03 0.  0.
    5000000    2    1    2    0    0 -0.10810388418E+04  0.14444322140E+04  0.54966838601E+03  0.19791882737E+04  0.60001790793E+03 0.  0.
         23    2    4    4    0    0  0.85348680574E+01  0.17931205416E+03  0.17156646485E+03  0.26485527857E+03  0.92128225792E+02 0.  0.
         23    2    4    4    0    0 -0.10895737099E+04  0.12651201598E+04  0.37810192116E+03  0.17143329951E+04  0.90976191011E+02 0.  0.
          5    1    3    3  502    0  0.10076534678E+04 -0.13285113599E+04 -0.22530376222E+03  0.16825848626E+04  0.47000000000E+01 0. -1.
         -5    1    3    3    0  502  0.73385374011E+02 -0.11592085404E+03  0.81771808742E+01  0.13752095770E+03  0.47000000000E+01 0.  1.
         13    1    5    5    0    0 -0.25458627103E+02  0.10151372598E+03  0.13883640502E+03  0.17386410099E+03  0.00000000000E+00 0.  1.
        -13    1    5    5    0    0  0.33993495160E+02  0.77798328176E+02  0.32730059833E+02  0.90991177577E+02  0.00000000000E+00 0. -1.
          3    1    6    6  503    0 -0.35537358371E+03  0.46526430965E+03  0.10532173392E+03  0.59485622588E+03  0.00000000000E+00 0. -1.
         -3    1    6    6    0  503 -0.73420012615E+03  0.79985585017E+03  0.27278018724E+03  0.11194767692E+04  0.00000000000E+00 0.  1.
<mgrwt>
<rscale>  0 0.18327303E+04</rscale>
<asrwt>0</asrwt>
<pdfrwt beam="1">  1        1 0.26667325E+00 0.18327303E+04</pdfrwt>
<pdfrwt beam="2">  1       -1 0.31783353E+00 0.18327303E+04</pdfrwt>
<totfact> 0.10398063E-01</totfact>
</mgrwt>
</event>
<event>
12    1  0.3147868E-008  0.1051483E+04  0.7818608E-02  0.9253814E-01
         -1   -1    0    0    0  501 -0.00000000000E+00  0.00000000000E+00  0.19592190917E+04  0.19592190917E+04  0.00000000000E+00 0.  1.
          1   -1    0    0  501    0  0.00000000000E+00 -0.00000000000E+00 -0.67703202848E+03  0.67703202848E+03  0.00000000000E+00 0. -1.
         23    2    1    2    0    0 -0.63156519333E+03  0.77925484413E+03  0.16731220487E+03  0.10209582824E+04  0.90828051398E+02 0.  0.
    5000000    2    1    2    0    0  0.63156519333E+03 -0.77925484413E+03  0.11148748584E+04  0.16152928379E+04  0.60009357322E+03 0.  0.
         23    2    4    4    0    0  0.52732373051E+03 -0.81898005908E+03  0.78341080231E+03  0.12533658817E+04  0.91623656271E+02 0.  0.
         23    2    4    4    0    0  0.10424146282E+03  0.39725214947E+02  0.33146405608E+03  0.36192695612E+03  0.93157532275E+02 0.  0.
          5    1    3    3  502    0 -0.43156046799E+03  0.58720124149E+03  0.99936349827E+02  0.73556719581E+03  0.47000000000E+01 0. -1.
         -5    1    3    3    0  502 -0.20000472534E+03  0.19205360264E+03  0.67375855041E+02  0.28539108656E+03  0.47000000000E+01 0.  1.
         11    1    5    5    0    0  0.40052011673E+03 -0.54677889047E+03  0.52855650425E+03  0.85950886974E+03  0.00000000000E+00 0.  1.
        -11    1    5    5    0    0  0.12680361378E+03 -0.27220116861E+03  0.25485429806E+03  0.39385701200E+03  0.00000000000E+00 0. -1.
          3    1    6    6  503    0  0.47169099881E+02  0.39862266792E+02  0.27423761428E+03  0.28110530658E+03  0.00000000000E+00 0. -1.
         -3    1    6    6    0  503  0.57072362934E+02 -0.13705184461E+00  0.57226441799E+02  0.80821649544E+02  0.00000000000E+00 0.  1.
<mgrwt>
<rscale>  0 0.10514831E+04</rscale>
<asrwt>0</asrwt>
<pdfrwt beam="1">  1        1 0.10415877E+00 0.10514831E+04</pdfrwt>
<pdfrwt beam="2">  1       -1 0.30141832E+00 0.10514831E+04</pdfrwt>
<totfact> 0.93292484E-01</totfact>
</mgrwt>
</event>
<event>
12    1  0.3147868E-008  0.5406338E+03  0.7818608E-02  0.1003685E+00
          1   -1    0    0  501    0  0.00000000000E+00  0.00000000000E+00  0.57109308578E+03  0.57109308578E+03  0.00000000000E+00 0. -1.
         -1   -1    0    0    0  501 -0.00000000000E+00 -0.00000000000E+00 -0.64813476064E+03  0.64813476064E+03  0.00000000000E+00 0.  1.
         23    2    1    2    0    0 -0.39068969293E+03 -0.17201071375E+03  0.12892651992E+03  0.45491407984E+03  0.89992503534E+02 0.  0.
    5000000    2    1    2    0    0  0.39068969293E+03  0.17201071375E+03 -0.20596819479E+03  0.76431376658E+03  0.59960529911E+03 0.  0.
         23    2    4    4    0    0 -0.44164279745E+02  0.19607433436E+03 -0.22927243136E+03  0.31874796131E+03  0.92945074422E+02 0.  0.
         23    2    4    4    0    0  0.43485397267E+03 -0.24063620602E+02  0.23304236570E+02  0.44556580528E+03  0.91152421827E+02 0.  0.
          5    1    3    3  502    0 -0.22741238808E+03 -0.14661128899E+03  0.71327762105E+02  0.27985890009E+03  0.47000000000E+01 0. -1.
         -5    1    3    3    0  502 -0.16327730484E+03 -0.25399424765E+02  0.57598757817E+02  0.17505517975E+03  0.47000000000E+01 0.  1.
         13    1    5    5    0    0 -0.12923585716E+02  0.15864738788E+03 -0.21583041768E+03  0.26817677368E+03  0.00000000000E+00 0. -1.
        -13    1    5    5    0    0 -0.31240694029E+02  0.37426946477E+02 -0.13442013680E+02  0.50571187625E+02  0.00000000000E+00 0.  1.
          1    1    6    6  503    0  0.66781509224E+02  0.10992088407E+02  0.33858967849E+02  0.75677114675E+02  0.00000000000E+00 0. -1.
         -1    1    6    6    0  503  0.36807246345E+03 -0.35055709009E+02 -0.10554731278E+02  0.36988869060E+03  0.00000000000E+00 0.  1.
<mgrwt>
<rscale>  0 0.54063379E+03</rscale>
<asrwt>0</asrwt>
<pdfrwt beam="1">  1        1 0.87860475E-01 0.54063379E+03</pdfrwt>
<pdfrwt beam="2">  1       -1 0.99713040E-01 0.54063379E+03</pdfrwt>
<totfact> 0.36945462E+01</totfact>
</mgrwt>
</event>
<event>
12    1  0.3147868E-008  0.5805636E+03  0.7818608E-02  0.9946572E-01
          1   -1    0    0  501    0  0.00000000000E+00  0.00000000000E+00  0.16777482438E+04  0.16777482438E+04  0.00000000000E+00 0. -1.
         -1   -1    0    0    0  501 -0.00000000000E+00 -0.00000000000E+00 -0.29316554275E+03  0.29316554275E+03  0.00000000000E+00 0.  1.
         23    2    1    2    0    0  0.94146734299E+02 -0.52654144217E+03  0.83945509050E+03  0.99968717340E+03  0.92628817299E+02 0.  0.
    5000000    2    1    2    0    0 -0.94146734299E+02  0.52654144217E+03  0.54512761052E+03  0.97122661311E+03  0.60000627026E+03 0.  0.
         23    2    4    4    0    0  0.11145453381E+02  0.54007222409E+01 -0.96048644466E+02  0.13327284279E+03  0.91558285209E+02 0.  0.
         23    2    4    4    0    0 -0.10529218768E+03  0.52114071993E+03  0.64117625498E+03  0.83795377031E+03  0.91572028881E+02 0.  0.
          5    1    3    3  502    0  0.24867260357E+02 -0.20724787315E+03  0.40953540541E+03  0.45968619715E+03  0.47000000000E+01 0. -1.
         -5    1    3    3    0  502  0.69279473942E+02 -0.31929356902E+03  0.42991968509E+03  0.54000097626E+03  0.47000000000E+01 0.  1.
         11    1    5    5    0    0  0.30326876950E+02  0.39291173332E+02 -0.72178505570E+02  0.87597102884E+02  0.00000000000E+00 0.  1.
        -11    1    5    5    0    0 -0.19181423569E+02 -0.33890451091E+02 -0.23870138896E+02  0.45675739909E+02  0.00000000000E+00 0. -1.
          1    1    6    6  503    0 -0.81787950640E+02  0.21605917455E+03  0.31608453084E+03  0.39151023795E+03  0.00000000000E+00 0. -1.
         -1    1    6    6    0  503 -0.23504237040E+02  0.30508154538E+03  0.32509172414E+03  0.44644353237E+03  0.00000000000E+00 0.  1.
<mgrwt>
<rscale>  0 0.58056358E+03</rscale>
<asrwt>0</asrwt>
<pdfrwt beam="1">  1        1 0.25811511E+00 0.58056358E+03</pdfrwt>
<pdfrwt beam="2">  1       -1 0.45102392E-01 0.58056358E+03</pdfrwt>
<totfact> 0.25549118E+01</totfact>
</mgrwt>
</event>
<event>
12    1  0.3147868E-008  0.1036064E+04  0.7818608E-02  0.9269852E-01
         -2   -1    0    0    0  501 -0.00000000000E+00  0.00000000000E+00  0.76307943913E+03  0.76307943913E+03  0.00000000000E+00 0. -1.
          2   -1    0    0  501    0  0.00000000000E+00 -0.00000000000E+00 -0.18582510673E+04  0.18582510673E+04  0.00000000000E+00 0.  1.
         23    2    1    2    0    0 -0.95860969161E+03 -0.18527573215E+03  0.74817798983E+02  0.98357649972E+03  0.92549392140E+02 0.  0.
    5000000    2    1    2    0    0  0.95860969161E+03  0.18527573215E+03 -0.11699894271E+04  0.16377540067E+04  0.60008606803E+03 0.  0.
         23    2    4    4    0    0  0.58661952157E+03  0.35505556246E+03 -0.52462789615E+03  0.86821759514E+03  0.91544784571E+02 0.  0.
         23    2    4    4    0    0  0.37199017004E+03 -0.16977983031E+03 -0.64536153098E+03  0.76953641154E+03  0.92156961928E+02 0.  0.
          5    1    3    3  502    0 -0.71712519448E+03 -0.15252574990E+03  0.93510079560E+02  0.73912033792E+03  0.47000000000E+01 0. -1.
         -5    1    3    3    0  502 -0.24148449713E+03 -0.32749982252E+02 -0.18692280577E+02  0.24445616180E+03  0.47000000000E+01 0.  1.
         11    1    5    5    0    0  0.49242720688E+03  0.29456555880E+03 -0.47851869402E+03  0.74715029481E+03  0.00000000000E+00 0. -1.
        -11    1    5    5    0    0  0.94192314687E+02  0.60490003663E+02 -0.46109202123E+02  0.12106730033E+03  0.00000000000E+00 0.  1.
          3    1    6    6  503    0  0.61507707155E+02 -0.19558653967E+02 -0.17302469286E+03  0.18467074301E+03  0.00000000000E+00 0. -1.
         -3    1    6    6    0  503  0.31048246289E+03 -0.15022117634E+03 -0.47233683812E+03  0.58486566853E+03  0.00000000000E+00 0.  1.
<mgrwt>
<rscale>  0 0.10360637E+04</rscale>
<asrwt>0</asrwt>
<pdfrwt beam="1">  1        2 0.28588478E+00 0.10360637E+04</pdfrwt>
<pdfrwt beam="2">  1       -2 0.11739684E+00 0.10360637E+04</pdfrwt>
<totfact> 0.44596552E+00</totfact>
</mgrwt>
</event>
<event>
12    1  0.3147868E-008  0.5069059E+03  0.7818608E-02  0.1011992E+00
         -1   -1    0    0    0  501 -0.00000000000E+00  0.00000000000E+00  0.44797978744E+03  0.44797978744E+03  0.00000000000E+00 0.  1.
          1   -1    0    0  501    0  0.00000000000E+00 -0.00000000000E+00 -0.71766616229E+03  0.71766616229E+03  0.00000000000E+00 0. -1.
         23    2    1    2    0    0 -0.39084122986E+03 -0.70916723264E+02 -0.30282756300E+02  0.40747799529E+03  0.85645914798E+02 0.  0.
    5000000    2    1    2    0    0  0.39084122986E+03  0.70916723264E+02 -0.23940361855E+03  0.75816795444E+03  0.59976537577E+03 0.  0.
         23    2    4    4    0    0 -0.10349144214E+03  0.24459450164E+02 -0.21193935947E+03  0.25289960501E+03  0.87927099491E+02 0.  0.
         23    2    4    4    0    0  0.49433267200E+03  0.46457273100E+02 -0.27464259080E+02  0.50526834944E+03  0.89547476729E+02 0.  0.
          5    1    3    3  502    0 -0.67239427003E+02  0.28030843169E+01 -0.33969581368E+02  0.75531584676E+02  0.47000000000E+01 0. -1.
         -5    1    3    3    0  502 -0.32360180286E+03 -0.73719807581E+02  0.36868250680E+01  0.33194641062E+03  0.47000000000E+01 0.  1.
         11    1    5    5    0    0 -0.62126828262E+02  0.36560631423E+02 -0.19262437188E+03  0.20567102664E+03  0.00000000000E+00 0.  1.
        -11    1    5    5    0    0 -0.41364613875E+02 -0.12101181259E+02 -0.19314987591E+02  0.47228578366E+02  0.00000000000E+00 0. -1.
          1    1    6    6  503    0  0.58481720797E+02  0.22728290568E+02  0.20825483817E+02  0.66108907386E+02  0.00000000000E+00 0. -1.
         -1    1    6    6    0  503  0.43585095120E+03  0.23728982532E+02 -0.48289742897E+02  0.43915944205E+03  0.00000000000E+00 0.  1.
<mgrwt>
<rscale>  0 0.50690585E+03</rscale>
<asrwt>0</asrwt>
<pdfrwt beam="1">  1        1 0.11041018E+00 0.50690585E+03</pdfrwt>
<pdfrwt beam="2">  1       -1 0.68919968E-01 0.50690585E+03</pdfrwt>
<totfact> 0.58555886E+01</totfact>
</mgrwt>
</event>
<event>
12    1  0.3147868E-008  0.4214701E+03  0.7818608E-02  0.1036589E+00
         -2   -1    0    0    0  501 -0.00000000000E+00  0.00000000000E+00  0.54387941043E+03  0.54387941043E+03  0.00000000000E+00 0.  1.
          2   -1    0    0  501    0  0.00000000000E+00 -0.00000000000E+00 -0.90131976168E+03  0.90131976168E+03  0.00000000000E+00 0. -1.
         23    2    1    2    0    0  0.13571316138E+03 -0.34356142386E+03 -0.59117336909E+03  0.70288441425E+03  0.90044618550E+02 0.  0.
    5000000    2    1    2    0    0 -0.13571316138E+03  0.34356142386E+03  0.23373301784E+03  0.74231475786E+03  0.59995630005E+03 0.  0.
         23    2    4    4    0    0 -0.18199182514E+03  0.31789750141E+03 -0.99872738548E+02  0.39230807763E+03  0.98748255916E+02 0.  0.
         23    2    4    4    0    0  0.46278663762E+02  0.25663922450E+02  0.33360575639E+03  0.35000668023E+03  0.91714360245E+02 0.  0.
          5    1    3    3  502    0  0.20571403293E+02 -0.54060682335E+02 -0.42587549426E+02  0.71982840831E+02  0.47000000000E+01 0. -1.
         -5    1    3    3    0  502  0.11514175809E+03 -0.28950074153E+03 -0.54858581967E+03  0.63090157342E+03  0.47000000000E+01 0.  1.
         11    1    5    5    0    0 -0.15880543184E+03  0.19737370972E+03 -0.91285557869E+02  0.26927420884E+03  0.00000000000E+00 0. -1.
        -11    1    5    5    0    0 -0.23186393305E+02  0.12052379169E+03 -0.85871806786E+01  0.12303386879E+03  0.00000000000E+00 0.  1.
          2    1    6    6  503    0  0.67967165426E+02  0.31321307330E+02  0.18250821574E+03  0.19725569366E+03  0.00000000000E+00 0.  1.
         -2    1    6    6    0  503 -0.21688501664E+02 -0.56573848797E+01  0.15109754065E+03  0.15275098657E+03  0.00000000000E+00 0. -1.
<mgrwt>
<rscale>  0 0.42147009E+03</rscale>
<asrwt>0</asrwt>
<pdfrwt beam="1">  1        2 0.13866458E+00 0.42147009E+03</pdfrwt>
<pdfrwt beam="2">  1       -2 0.83673756E-01 0.42147009E+03</pdfrwt>
<totfact> 0.38535572E+01</totfact>
</mgrwt>
</event>
<event>
12    1  0.3147868E-008  0.3349621E+03  0.7818608E-02  0.1068962E+00
         -1   -1    0    0    0  501 -0.00000000000E+00  0.00000000000E+00  0.36593454274E+03  0.36593454274E+03  0.00000000000E+00 0.  1.
          1   -1    0    0  501    0  0.00000000000E+00 -0.00000000000E+00 -0.64156994552E+03  0.64156994552E+03  0.00000000000E+00 0. -1.
         23    2    1    2    0    0 -0.27834516681E+03 -0.73099861150E+02 -0.69267109848E+02  0.31012990288E+03  0.92536493145E+02 0.  0.
    5000000    2    1    2    0    0  0.27834516681E+03  0.73099861150E+02 -0.20636829293E+03  0.69737458539E+03  0.60076935544E+03 0.  0.
         23    2    4    4    0    0  0.10633570288E+03 -0.53596096269E+02  0.18756669001E+03  0.24011871867E+03  0.91081900578E+02 0.  0.
         23    2    4    4    0    0  0.17200946393E+03  0.12669595742E+03 -0.39393498293E+03  0.45725586672E+03  0.90879236135E+02 0.  0.
          5    1    3    3  502    0 -0.63588599827E+02 -0.41285116798E+02 -0.52488393024E+02  0.92331426390E+02  0.47000000000E+01 0. -1.
         -5    1    3    3    0  502 -0.21475656698E+03 -0.31814744351E+02 -0.16778716824E+02  0.21779847649E+03  0.47000000000E+01 0.  1.
         13    1    5    5    0    0  0.80436753234E+02  0.96389443407E+01  0.91229074827E+02  0.12200706788E+03  0.00000000000E+00 0.  1.
        -13    1    5    5    0    0  0.25898949646E+02 -0.63235040609E+02  0.96337615181E+02  0.11811165079E+03  0.00000000000E+00 0. -1.
          2    1    6    6  503    0  0.11843975251E+03  0.12732193819E+03 -0.33610110215E+03  0.37842146052E+03  0.00000000000E+00 0. -1.
         -2    1    6    6    0  503  0.53569711418E+02 -0.62598076887E+00 -0.57833880786E+02  0.78834406195E+02  0.00000000000E+00 0.  1.
<mgrwt>
<rscale>  0 0.33496207E+03</rscale>
<asrwt>0</asrwt>
<pdfrwt beam="1">  1        1 0.98703068E-01 0.33496207E+03</pdfrwt>
<pdfrwt beam="2">  1       -1 0.56297622E-01 0.33496207E+03</pdfrwt>
<totfact> 0.10528947E+02</totfact>
</mgrwt>
</event>
<event>
12    1  0.3147868E-008  0.1765839E+04  0.7818608E-02  0.8724680E-01
          2   -1    0    0  501    0  0.00000000000E+00  0.00000000000E+00  0.29013636347E+04  0.29013636347E+04  0.00000000000E+00 0.  1.
         -2   -1    0    0    0  501 -0.00000000000E+00 -0.00000000000E+00 -0.12860192422E+04  0.12860192422E+04  0.00000000000E+00 0. -1.
         23    2    1    2    0    0  0.67219228899E+03 -0.16296953049E+04  0.68337339353E+02  0.17664118260E+04  0.88269399735E+02 0.  0.
    5000000    2    1    2    0    0 -0.67219228899E+03  0.16296953049E+04  0.15470070531E+04  0.24209710509E+04  0.60010061421E+03 0.  0.
         23    2    4    4    0    0 -0.24745107092E+03  0.68223635937E+03  0.10147354688E+04  0.12508618390E+04  0.91042770800E+02 0.  0.
         23    2    4    4    0    0 -0.42474121807E+03  0.94745894550E+03  0.53227158429E+03  0.11701092119E+04  0.88085031129E+02 0.  0.
          5    1    3    3  502    0  0.55777397422E+03 -0.14237052709E+04  0.47521331561E+02  0.15298133454E+04  0.47000000000E+01 0. -1.
         -5    1    3    3    0  502  0.11441831477E+03 -0.20599003397E+03  0.20816007791E+02  0.23659848062E+03  0.47000000000E+01 0.  1.
         13    1    5    5    0    0 -0.15185665923E+03  0.32386655222E+03  0.44345524731E+03  0.56973901478E+03  0.00000000000E+00 0. -1.
        -13    1    5    5    0    0 -0.95594411692E+02  0.35836980715E+03  0.57128022147E+03  0.68112282421E+03  0.00000000000E+00 0.  1.
          4    1    6    6  503    0 -0.37350929283E+03  0.83726042113E+03  0.50042427656E+03  0.10444800913E+04  0.00000000000E+00 0. -1.
         -4    1    6    6    0  503 -0.51231925234E+02  0.11019852437E+03  0.31847307732E+02  0.12562912061E+03  0.00000000000E+00 0.  1.
<mgrwt>
<rscale>  0 0.17658393E+04</rscale>
<asrwt>0</asrwt>
<pdfrwt beam="1">  1        2 0.44636363E+00 0.17658393E+04</pdfrwt>
<pdfrwt beam="2">  1       -2 0.19784912E+00 0.17658393E+04</pdfrwt>
<totfact> 0.25200113E-01</totfact>
</mgrwt>
</event>
<event>
12    1  0.3147868E-008  0.4501625E+03  0.7818608E-02  0.1027674E+00
          1   -1    0    0  501    0  0.00000000000E+00  0.00000000000E+00  0.59692268955E+03  0.59692268955E+03  0.00000000000E+00 0. -1.
         -1   -1    0    0    0  501 -0.00000000000E+00 -0.00000000000E+00 -0.81948947056E+03  0.81948947056E+03  0.00000000000E+00 0.  1.
         23    2    1    2    0    0  0.38185617815E+03 -0.10141624207E+03  0.31970746614E+03  0.51665359707E+03  0.92836848880E+02 0.  0.
    5000000    2    1    2    0    0 -0.38185617815E+03  0.10141624207E+03 -0.54227424715E+03  0.89975856304E+03  0.59950372618E+03 0.  0.
         23    2    4    4    0    0 -0.10548477907E+03  0.15671966589E+03  0.68633440684E+02  0.22073993986E+03  0.91255024951E+02 0.  0.
         23    2    4    4    0    0 -0.27637139908E+03 -0.55303423813E+02 -0.61090768783E+03  0.67901862318E+03  0.91752213384E+02 0.  0.
          5    1    3    3  502    0  0.28445073797E+03 -0.10700778575E+03  0.20822627926E+03  0.36843338871E+03  0.47000000000E+01 0. -1.
         -5    1    3    3    0  502  0.97405440186E+02  0.55915436800E+01  0.11148118687E+03  0.14822020836E+03  0.47000000000E+01 0.  1.
         11    1    5    5    0    0  0.13107781772E+02  0.42250907417E+02  0.22222047031E+02  0.49505277443E+02  0.00000000000E+00 0.  1.
        -11    1    5    5    0    0 -0.11859256084E+03  0.11446875847E+03  0.46411393652E+02  0.17123466242E+03  0.00000000000E+00 0. -1.
          2    1    6    6  503    0 -0.21280602235E+03 -0.12844963514E+02 -0.37912959801E+03  0.43496051352E+03  0.00000000000E+00 0. -1.
         -2    1    6    6    0  503 -0.63565376737E+02 -0.42458460299E+02 -0.23177808982E+03  0.24405810966E+03  0.00000000000E+00 0.  1.
<mgrwt>
<rscale>  0 0.45016254E+03</rscale>
<asrwt>0</asrwt>
<pdfrwt beam="1">  1        1 0.91834261E-01 0.45016254E+03</pdfrwt>
<pdfrwt beam="2">  1       -1 0.12607530E+00 0.45016254E+03</pdfrwt>
<totfact> 0.20247832E+01</totfact>
</mgrwt>
</event>
<event>
12    1  0.3291704E-008  0.9897932E+03  0.7818608E-02  0.9319811E-01
          2   -1    0    0  501    0  0.00000000000E+00  0.00000000000E+00  0.29235698384E+04  0.29235698384E+04  0.00000000000E+00 0. -1.
         -2   -1    0    0    0  501 -0.00000000000E+00 -0.00000000000E+00 -0.48212367448E+03  0.48212367448E+03  0.00000000000E+00 0.  1.
         23    2    1    2    0    0 -0.21691668361E+03 -0.95934997288E+03  0.18805816866E+04  0.21243039788E+04  0.93138048719E+02 0.  0.
    5000000    2    1    2    0    0  0.21691668361E+03  0.95934997288E+03  0.56086447731E+03  0.12813895341E+04  0.59998746496E+03 0.  0.
         23    2    4    4    0    0  0.19209538639E+03  0.56647683780E+03  0.62640832247E+03  0.87087244862E+03  0.90745744035E+02 0.  0.
         23    2    4    4    0    0  0.24821297221E+02  0.39287313508E+03 -0.65543845160E+02  0.41051708549E+03  0.96243881770E+02 0.  0.
          5    1    3    3  502    0 -0.91928903468E+02 -0.60004746769E+03  0.11870972840E+04  0.13333153935E+04  0.47000000000E+01 0. -1.
         -5    1    3    3    0  502 -0.12498778014E+03 -0.35930250519E+03  0.69348440264E+03  0.79098858533E+03  0.47000000000E+01 0.  1.
         11    1    5    5    0    0  0.13888527227E+03  0.39873057873E+03  0.37980369048E+03  0.56791375804E+03  0.00000000000E+00 0. -1.
        -11    1    5    5    0    0  0.53210114119E+02  0.16774625908E+03  0.24660463199E+03  0.30295869058E+03  0.00000000000E+00 0.  1.
          2    1    6    6  503    0  0.12970795264E+02  0.29284828439E+03 -0.53646509788E+01  0.29318447892E+03  0.00000000000E+00 0. -1.
         -2    1    6    6    0  503  0.11850501957E+02  0.10002485069E+03 -0.60179194181E+02  0.11733260657E+03  0.00000000000E+00 0.  1.
<mgrwt>
<rscale>  0 0.98979322E+03</rscale>
<asrwt>0</asrwt>
<pdfrwt beam="1">  1        2 0.44977996E+00 0.98979322E+03</pdfrwt>
<pdfrwt beam="2">  1       -2 0.74172875E-01 0.98979322E+03</pdfrwt>
<totfact> 0.32476740E+00</totfact>
</mgrwt>
</event>
<event>
12    1  0.3147868E-008  0.1442945E+04  0.7818608E-02  0.8923306E-01
         -2   -1    0    0    0  501 -0.00000000000E+00  0.00000000000E+00  0.96615717196E+03  0.96615717196E+03  0.00000000000E+00 0. -1.
          2   -1    0    0  501    0  0.00000000000E+00 -0.00000000000E+00 -0.24748603865E+04  0.24748603865E+04  0.00000000000E+00 0.  1.
         23    2    1    2    0    0 -0.11935976107E+04 -0.76096080306E+03 -0.22114081211E+03  0.14356192253E+04  0.91447805062E+02 0.  0.
    5000000    2    1    2    0    0  0.11935976107E+04  0.76096080306E+03 -0.12875624024E+04  0.20053983332E+04  0.60005744257E+03 0.  0.
         23    2    4    4    0    0  0.65741418301E+03  0.18548475246E+03 -0.87163928335E+03  0.11111471503E+04  0.91076604294E+02 0.  0.
         23    2    4    4    0    0  0.53618342774E+03  0.57547605060E+03 -0.41592311905E+03  0.89425118289E+03  0.89597902575E+02 0.  0.
          5    1    3    3  502    0 -0.21459926008E+03 -0.11888276884E+03 -0.73700341603E+01  0.24548393544E+03  0.47000000000E+01 0. -1.
         -5    1    3    3    0  502 -0.97899835067E+03 -0.64207803421E+03 -0.21377077795E+03  0.11901352898E+04  0.47000000000E+01 0.  1.
         13    1    5    5    0    0  0.51442398926E+03  0.14771347298E+03 -0.61803008418E+03  0.81756497954E+03  0.00000000000E+00 0. -1.
        -13    1    5    5    0    0  0.14299019375E+03  0.37771279478E+02 -0.25360919917E+03  0.29358217073E+03  0.00000000000E+00 0.  1.
          3    1    6    6  503    0  0.12091468852E+03  0.13662305103E+03 -0.14037146967E+03  0.23019637154E+03  0.00000000000E+00 0.  1.
         -3    1    6    6    0  503  0.41526873922E+03  0.43885299957E+03 -0.27555164938E+03  0.66405481135E+03  0.00000000000E+00 0. -1.
<mgrwt>
<rscale>  0 0.14429447E+04</rscale>
<asrwt>0</asrwt>
<pdfrwt beam="1">  1        2 0.38074775E+00 0.14429447E+04</pdfrwt>
<pdfrwt beam="2">  1       -2 0.14863957E+00 0.14429447E+04</pdfrwt>
<totfact> 0.10503212E+00</totfact>
</mgrwt>
</event>
<event>
12    1  0.3147868E-008  0.1116479E+04  0.7818608E-02  0.9189278E-01
          2   -1    0    0  501    0  0.00000000000E+00  0.00000000000E+00  0.31263253849E+04  0.31263253849E+04  0.00000000000E+00 0. -1.
         -2   -1    0    0    0  501 -0.00000000000E+00 -0.00000000000E+00 -0.41260567613E+03  0.41260567613E+03  0.00000000000E+00 0.  1.
         23    2    1    2    0    0 -0.21406866400E+03 -0.10287564901E+04  0.14000097206E+04  0.17528633560E+04  0.91309463378E+02 0.  0.
    5000000    2    1    2    0    0  0.21406866400E+03  0.10287564901E+04  0.13137099882E+04  0.17860677050E+04  0.60003216997E+03 0.  0.
         23    2    4    4    0    0 -0.84812337976E+02  0.11343057192E+02  0.55221445724E+02  0.13784469088E+03  0.92897540961E+02 0.  0.
         23    2    4    4    0    0  0.29888100198E+03  0.10174134329E+04  0.12584885424E+04  0.16482230141E+04  0.91573718911E+02 0.  0.
          5    1    3    3  502    0 -0.16239039828E+03 -0.63971819712E+03  0.82190985537E+03  0.10541194968E+04  0.47000000000E+01 0. -1.
         -5    1    3    3    0  502 -0.51678265723E+02 -0.38903829302E+03  0.57809986522E+03  0.69874385918E+03  0.47000000000E+01 0.  1.
         11    1    5    5    0    0 -0.35534786500E+02  0.46636978355E+02  0.49911976345E+02  0.76999572624E+02  0.00000000000E+00 0. -1.
        -11    1    5    5    0    0 -0.49277551475E+02 -0.35293921163E+02  0.53094693793E+01  0.60845118256E+02  0.00000000000E+00 0.  1.
          2    1    6    6  503    0  0.76339710147E+02  0.32783107890E+03  0.34156021492E+03  0.47954598117E+03  0.00000000000E+00 0. -1.
         -2    1    6    6    0  503  0.22254129183E+03  0.68958235405E+03  0.91692832753E+03  0.11686770330E+04  0.00000000000E+00 0.  1.
<mgrwt>
<rscale>  0 0.11164788E+04</rscale>
<asrwt>0</asrwt>
<pdfrwt beam="1">  1        2 0.48097312E+00 0.11164788E+04</pdfrwt>
<pdfrwt beam="2">  1       -2 0.63477798E-01 0.11164788E+04</pdfrwt>
<totfact> 0.33550487E+00</totfact>
</mgrwt>
</event>
<event>
12    1  0.3147868E-008  0.7157622E+03  0.7818608E-02  0.9690650E-01
         -1   -1    0    0    0  501 -0.00000000000E+00  0.00000000000E+00  0.11211101684E+04  0.11211101684E+04  0.00000000000E+00 0.  1.
          1   -1    0    0  501    0  0.00000000000E+00 -0.00000000000E+00 -0.50788032248E+03  0.50788032248E+03  0.00000000000E+00 0. -1.
         23    2    1    2    0    0  0.62080411476E+03  0.86150241380E+01  0.38452692643E+03  0.73590661656E+03  0.90695223740E+02 0.  0.
    5000000    2    1    2    0    0 -0.62080411476E+03 -0.86150241380E+01  0.22870291947E+03  0.89308387430E+03  0.59985149297E+03 0.  0.
         23    2    4    4    0    0  0.78242234879E+02 -0.39680973672E+02  0.12958021167E+03  0.18038778885E+03  0.89734587071E+02 0.  0.
         23    2    4    4    0    0 -0.69904634964E+03  0.31065949534E+02  0.99122707801E+02  0.71269608546E+03  0.92084237844E+02 0.  0.
          5    1    3    3  502    0  0.13304589232E+03  0.38457160467E+02  0.92489926832E+02  0.16660323892E+03  0.47000000000E+01 0. -1.
         -5    1    3    3    0  502  0.48775822244E+03 -0.29842136329E+02  0.29203699960E+03  0.56930337764E+03  0.47000000000E+01 0.  1.
         13    1    5    5    0    0  0.90883729092E+01 -0.33525798863E+02  0.15806763136E+01  0.34771773742E+02  0.00000000000E+00 0. -1.
        -13    1    5    5    0    0  0.69153861970E+02 -0.61551748089E+01  0.12799953536E+03  0.14561601510E+03  0.00000000000E+00 0.  1.
          1    1    6    6  503    0 -0.49817733513E+03  0.32301690119E+02  0.29479764378E+02  0.50009310426E+03  0.00000000000E+00 0. -1.
         -1    1    6    6    0  503 -0.20086901451E+03 -0.12357405849E+01  0.69642943422E+02  0.21260298119E+03  0.00000000000E+00 0.  1.
<mgrwt>
<rscale>  0 0.71576221E+03</rscale>
<asrwt>0</asrwt>
<pdfrwt beam="1">  1        1 0.78135434E-01 0.71576221E+03</pdfrwt>
<pdfrwt beam="2">  1       -1 0.17247849E+00 0.71576221E+03</pdfrwt>
<totfact> 0.10590090E+01</totfact>
</mgrwt>
</event>
<event>
12    1  0.3147868E-008  0.1194671E+04  0.7818608E-02  0.9117534E-01
          1   -1    0    0  501    0  0.00000000000E+00  0.00000000000E+00  0.93647388622E+03  0.93647388622E+03  0.00000000000E+00 0. -1.
         -1   -1    0    0    0  501 -0.00000000000E+00 -0.00000000000E+00 -0.15859296540E+04  0.15859296540E+04  0.00000000000E+00 0.  1.
         23    2    1    2    0    0 -0.10267775157E+04  0.45494983631E+03 -0.86294050573E+02  0.11300298370E+04  0.90935962295E+02 0.  0.
    5000000    2    1    2    0    0  0.10267775157E+04 -0.45494983631E+03 -0.56316171720E+03  0.13923737032E+04  0.60025160503E+03 0.  0.
         23    2    4    4    0    0  0.70336219235E+03 -0.14148988267E+01 -0.34123485116E+03  0.78686369032E+03  0.89402840744E+02 0.  0.
         23    2    4    4    0    0  0.32341532330E+03 -0.45353493749E+03 -0.22192686604E+03  0.60551001285E+03  0.84258120776E+02 0.  0.
          5    1    3    3  502    0 -0.39515442805E+03  0.12833691780E+03 -0.23134199232E+02  0.41614260494E+03  0.47000000000E+01 0. -1.
         -5    1    3    3    0  502 -0.63162308761E+03  0.32661291852E+03 -0.63159851341E+02  0.71388723211E+03  0.47000000000E+01 0.  1.
         13    1    5    5    0    0  0.15484137616E+02  0.29987592357E+01 -0.25475082180E+02  0.29962157578E+02  0.00000000000E+00 0. -1.
        -13    1    5    5    0    0  0.68787805474E+03 -0.44136580624E+01 -0.31575976898E+03  0.75690153274E+03  0.00000000000E+00 0.  1.
          2    1    6    6  503    0  0.24624582496E+03 -0.30775349588E+03 -0.18980661215E+03  0.43746516496E+03  0.00000000000E+00 0.  1.
         -2    1    6    6    0  503  0.77169498340E+02 -0.14578144160E+03 -0.32120253895E+02  0.16804484788E+03  0.00000000000E+00 0. -1.
<mgrwt>
<rscale>  0 0.11946705E+04</rscale>
<asrwt>0</asrwt>
<pdfrwt beam="1">  1        1 0.14407291E+00 0.11946705E+04</pdfrwt>
<pdfrwt beam="2">  1       -1 0.24398918E+00 0.11946705E+04</pdfrwt>
<totfact> 0.12751946E+00</totfact>
</mgrwt>
</event>
<event>
12    1  0.3147868E-008  0.1008628E+04  0.7818608E-02  0.9299132E-01
         -2   -1    0    0    0  501 -0.00000000000E+00  0.00000000000E+00  0.17637495845E+04  0.17637495845E+04  0.00000000000E+00 0.  1.
          2   -1    0    0  501    0  0.00000000000E+00 -0.00000000000E+00 -0.98751007681E+03  0.98751007681E+03  0.00000000000E+00 0. -1.
         23    2    1    2    0    0 -0.90507397512E+03 -0.28872869234E+03 -0.47775086422E+03  0.10675385861E+04  0.94178480934E+02 0.  0.
    5000000    2    1    2    0    0  0.90507397512E+03  0.28872869234E+03  0.12539903719E+04  0.16837210752E+04  0.59991803450E+03 0.  0.
         23    2    4    4    0    0  0.93764529892E+03  0.25367528822E+03  0.94397498620E+03  0.13571159771E+04  0.84528943618E+02 0.  0.
         23    2    4    4    0    0 -0.32571323795E+02  0.35053404127E+02  0.31001538569E+03  0.32660509811E+03  0.90948988313E+02 0.  0.
          5    1    3    3  502    0 -0.41843784162E+03 -0.15742070219E+03 -0.27033583563E+03  0.52247015112E+03  0.47000000000E+01 0. -1.
         -5    1    3    3    0  502 -0.48663613350E+03 -0.13130799016E+03 -0.20741502858E+03  0.54506843496E+03  0.47000000000E+01 0.  1.
         11    1    5    5    0    0  0.40482311643E+03  0.69349821127E+02  0.41940113342E+03  0.58701657899E+03  0.00000000000E+00 0. -1.
        -11    1    5    5    0    0  0.53282218248E+03  0.18432546709E+03  0.52457385278E+03  0.77009939812E+03  0.00000000000E+00 0.  1.
          3    1    6    6  503    0 -0.82955580462E+01  0.57748993889E+02  0.11688536624E+03  0.13063671543E+03  0.00000000000E+00 0. -1.
         -3    1    6    6    0  503 -0.24275765749E+02 -0.22695589762E+02  0.19313001945E+03  0.19596838268E+03  0.00000000000E+00 0.  1.
<mgrwt>
<rscale>  0 0.10086278E+04</rscale>
<asrwt>0</asrwt>
<pdfrwt beam="1">  1        2 0.15192463E+00 0.10086278E+04</pdfrwt>
<pdfrwt beam="2">  1       -2 0.27134609E+00 0.10086278E+04</pdfrwt>
<totfact> 0.12185548E+00</totfact>
</mgrwt>
</event>
<event>
12    1  0.3147868E-008  0.5616790E+03  0.7818608E-02  0.9988263E-01
         -1   -1    0    0    0  501 -0.00000000000E+00  0.00000000000E+00  0.48517558876E+03  0.48517558876E+03  0.00000000000E+00 0.  1.
          1   -1    0    0  501    0  0.00000000000E+00 -0.00000000000E+00 -0.87448461908E+03  0.87448461908E+03  0.00000000000E+00 0. -1.
         23    2    1    2    0    0 -0.28270446458E+03  0.35978038454E+03 -0.38612392622E+03  0.60502196131E+03  0.87155882646E+02 0.  0.
    5000000    2    1    2    0    0  0.28270446458E+03 -0.35978038454E+03 -0.31851041073E+01  0.75463824654E+03  0.60008749267E+03 0.  0.
         23    2    4    4    0    0  0.63612105078E+02 -0.41744573311E+03 -0.16577334484E+03  0.46218983759E+03  0.88494090833E+02 0.  0.
         23    2    4    4    0    0  0.21909235950E+03  0.57665348573E+02  0.16258824073E+03  0.29244840895E+03  0.88115727617E+02 0.  0.
          5    1    3    3  502    0 -0.67272773295E+02  0.11490901537E+03 -0.15956753516E+03  0.20787880151E+03  0.47000000000E+01 0. -1.
         -5    1    3    3    0  502 -0.21543169128E+03  0.24487136916E+03 -0.22655639105E+03  0.39714315979E+03  0.47000000000E+01 0.  1.
         11    1    5    5    0    0 -0.20215053296E+02 -0.14414746132E+03 -0.57730541842E+02  0.15658848759E+03  0.00000000000E+00 0. -1.
        -11    1    5    5    0    0  0.83827158374E+02 -0.27329827179E+03 -0.10804280299E+03  0.30560135000E+03  0.00000000000E+00 0.  1.
          3    1    6    6  503    0  0.18632982083E+03  0.67706484405E+02  0.10226518197E+03  0.22307204577E+03  0.00000000000E+00 0. -1.
         -3    1    6    6    0  503  0.32762538666E+02 -0.10041135832E+02  0.60323058761E+02  0.69376363172E+02  0.00000000000E+00 0.  1.
<mgrwt>
<rscale>  0 0.56167897E+03</rscale>
<asrwt>0</asrwt>
<pdfrwt beam="1">  1        1 0.13453610E+00 0.56167897E+03</pdfrwt>
<pdfrwt beam="2">  1       -1 0.74642398E-01 0.56167897E+03</pdfrwt>
<totfact> 0.36170987E+01</totfact>
</mgrwt>
</event>
<event>
12    1  0.3147868E-008  0.7739491E+03  0.7818608E-02  0.9598509E-01
         -2   -1    0    0    0  501 -0.00000000000E+00  0.00000000000E+00  0.41753040521E+03  0.41753040521E+03  0.00000000000E+00 0.  1.
          2   -1    0    0  501    0  0.00000000000E+00 -0.00000000000E+00 -0.15967679447E+04  0.15967679447E+04  0.00000000000E+00 0. -1.
         23    2    1    2    0    0  0.67609156225E+03 -0.71237928931E+02 -0.73409320920E+03  0.10043546448E+04  0.87525823154E+02 0.  0.
    5000000    2    1    2    0    0 -0.67609156225E+03  0.71237928931E+02 -0.44514433028E+03  0.10099437051E+04  0.59971507365E+03 0.  0.
         23    2    4    4    0    0 -0.86688005759E+02 -0.18944575013E+03 -0.22992252470E+03  0.32374942227E+03  0.92438187278E+02 0.  0.
         23    2    4    4    0    0 -0.58940355649E+03  0.26068367907E+03 -0.21522180558E+03  0.68619428281E+03  0.95862585092E+02 0.  0.
          5    1    3    3  502    0  0.16993530759E+03  0.12340831052E+02 -0.15120437128E+03  0.22784897799E+03  0.47000000000E+01 0. -1.
         -5    1    3    3    0  502  0.50615625466E+03 -0.83578759983E+02 -0.58288883792E+03  0.77650566683E+03  0.47000000000E+01 0.  1.
         11    1    5    5    0    0 -0.15274492468E+02 -0.98014317935E+02 -0.16010891068E+03  0.18834802871E+03  0.00000000000E+00 0.  1.
        -11    1    5    5    0    0 -0.71413513291E+02 -0.91431432199E+02 -0.69813614024E+02  0.13540139356E+03  0.00000000000E+00 0. -1.
          2    1    6    6  503    0 -0.81080545050E+02  0.78030337055E+01 -0.47017868417E+02  0.94051167303E+02  0.00000000000E+00 0. -1.
         -2    1    6    6    0  503 -0.50832301144E+03  0.25288064536E+03 -0.16820393717E+03  0.59214311550E+03  0.00000000000E+00 0.  1.
<mgrwt>
<rscale>  0 0.77394911E+03</rscale>
<asrwt>0</asrwt>
<pdfrwt beam="1">  1        2 0.24565660E+00 0.77394911E+03</pdfrwt>
<pdfrwt beam="2">  1       -2 0.64235448E-01 0.77394911E+03</pdfrwt>
<totfact> 0.25639219E+01</totfact>
</mgrwt>
</event>
<event>
12    1  0.3147868E-008  0.7300362E+03  0.7818608E-02  0.9667202E-01
          2   -1    0    0  501    0  0.00000000000E+00  0.00000000000E+00  0.44550287338E+03  0.44550287338E+03  0.00000000000E+00 0. -1.
         -2   -1    0    0    0  501 -0.00000000000E+00 -0.00000000000E+00 -0.14006869299E+04  0.14006869299E+04  0.00000000000E+00 0.  1.
         23    2    1    2    0    0 -0.21770703261E+03  0.63358041536E+03 -0.47899697499E+03  0.82853520395E+03  0.90620016317E+02 0.  0.
    5000000    2    1    2    0    0  0.21770703261E+03 -0.63358041536E+03 -0.47618708156E+03  0.10176545994E+04  0.60003854223E+03 0.  0.
         23    2    4    4    0    0  0.16027339763E+03 -0.40766809131E+02 -0.35698095458E+03  0.40358497504E+03  0.89977416233E+02 0.  0.
         23    2    4    4    0    0  0.57433634984E+02 -0.59281360623E+03 -0.11920612698E+03  0.61406962431E+03  0.90248593552E+02 0.  0.
          5    1    3    3  502    0 -0.17906771619E+02  0.17104610514E+03 -0.12908484656E+03  0.21508698279E+03  0.47000000000E+01 0. -1.
         -5    1    3    3    0  502 -0.19980026100E+03  0.46253431022E+03 -0.34991212842E+03  0.61344822116E+03  0.47000000000E+01 0.  1.
         11    1    5    5    0    0  0.12440750667E+03 -0.68976537691E+02 -0.25877070725E+03  0.29529183768E+03  0.00000000000E+00 0. -1.
        -11    1    5    5    0    0  0.35865890958E+02  0.28209728560E+02 -0.98210247325E+02  0.10829313736E+03  0.00000000000E+00 0.  1.
          3    1    6    6  503    0  0.24115026360E+02 -0.12641972469E+03  0.96397034004E+01  0.12905969615E+03  0.00000000000E+00 0. -1.
         -3    1    6    6    0  503  0.33318608624E+02 -0.46639388153E+03 -0.12884583038E+03  0.48500992817E+03  0.00000000000E+00 0.  1.
<mgrwt>
<rscale>  0 0.73003619E+03</rscale>
<asrwt>0</asrwt>
<pdfrwt beam="1">  1        2 0.68538904E-01 0.73003619E+03</pdfrwt>
<pdfrwt beam="2">  1       -2 0.21549030E+00 0.73003619E+03</pdfrwt>
<totfact> 0.76059781E+00</totfact>
</mgrwt>
</event>
<event>
12    1  0.3147868E-008  0.8761870E+03  0.7818608E-02  0.9455848E-01
          1   -1    0    0  501    0  0.00000000000E+00  0.00000000000E+00  0.14594720366E+04  0.14594720366E+04  0.00000000000E+00 0. -1.
         -1   -1    0    0    0  501 -0.00000000000E+00 -0.00000000000E+00 -0.68551488911E+03  0.68551488911E+03  0.00000000000E+00 0.  1.
         23    2    1    2    0    0 -0.21763671542E+03 -0.75875885652E+03  0.83340571264E+03  0.11517280195E+04  0.93976629293E+02 0.  0.
    5000000    2    1    2    0    0  0.21763671542E+03  0.75875885652E+03 -0.59448565126E+02  0.99325890621E+03  0.59995698232E+03 0.  0.
         23    2    4    4    0    0  0.21994524807E+03  0.46527994702E+02 -0.12327537205E+03  0.27236021594E+03  0.91883096559E+02 0.  0.
         23    2    4    4    0    0 -0.23085326550E+01  0.71223086182E+03  0.63826806922E+02  0.72089869027E+03  0.91339643690E+02 0.  0.
          5    1    3    3  502    0 -0.18659493461E+03 -0.51366442794E+03  0.60397043954E+03  0.81453741227E+03  0.47000000000E+01 0. -1.
         -5    1    3    3    0  502 -0.31041780803E+02 -0.24509442858E+03  0.22943527310E+03  0.33719060725E+03  0.47000000000E+01 0.  1.
         13    1    5    5    0    0  0.62492698117E+02 -0.28064080422E+02 -0.38863197913E+02  0.78760891818E+02  0.00000000000E+00 0. -1.
        -13    1    5    5    0    0  0.15745254995E+03  0.74592075125E+02 -0.84412174135E+02  0.19359932412E+03  0.00000000000E+00 0.  1.
          2    1    6    6  503    0 -0.37051332587E+02  0.44466709425E+03  0.13350528355E+02  0.44640773130E+03  0.00000000000E+00 0. -1.
         -2    1    6    6    0  503  0.34742799932E+02  0.26756376757E+03  0.50476278566E+02  0.27449095898E+03  0.00000000000E+00 0.  1.
<mgrwt>
<rscale>  0 0.87618698E+03</rscale>
<asrwt>0</asrwt>
<pdfrwt beam="1">  1        1 0.22453416E+00 0.87618698E+03</pdfrwt>
<pdfrwt beam="2">  1       -1 0.10546383E+00 0.87618698E+03</pdfrwt>
<totfact> 0.60061842E+00</totfact>
</mgrwt>
</event>
<event>
12    1  0.3147868E-008  0.1241458E+04  0.7818608E-02  0.9077323E-01
         -2   -1    0    0    0  501 -0.00000000000E+00  0.00000000000E+00  0.52606272381E+03  0.52606272381E+03  0.00000000000E+00 0.  1.
          2   -1    0    0  501    0  0.00000000000E+00 -0.00000000000E+00 -0.29627203876E+04  0.29627203876E+04  0.00000000000E+00 0. -1.
         23    2    1    2    0    0  0.73070765710E+03  0.91831397769E+03 -0.11992720659E+04  0.16804265641E+04  0.91354844479E+02 0.  0.
    5000000    2    1    2    0    0 -0.73070765710E+03 -0.91831397769E+03 -0.12373855979E+04  0.18083565472E+04  0.60149483990E+03 0.  0.
         23    2    4    4    0    0 -0.56268861571E+03 -0.96557231334E+03 -0.10356275757E+04  0.15265606447E+04  0.94416925491E+02 0.  0.
         23    2    4    4    0    0 -0.16801904139E+03  0.47258335650E+02 -0.20175802218E+03  0.28179590258E+03  0.90768290918E+02 0.  0.
          5    1    3    3  502    0  0.28189320266E+03  0.40277980408E+03 -0.45477086907E+03  0.66972679627E+03  0.47000000000E+01 0. -1.
         -5    1    3    3    0  502  0.44881445443E+03  0.51553417361E+03 -0.74450119684E+03  0.10106997679E+04  0.47000000000E+01 0.  1.
         11    1    5    5    0    0 -0.76311101043E+02 -0.17471774809E+03 -0.21583390182E+03  0.28798254949E+03  0.00000000000E+00 0.  1.
        -11    1    5    5    0    0 -0.48637751466E+03 -0.79085456525E+03 -0.81979367386E+03  0.12385780952E+04  0.00000000000E+00 0. -1.
          1    1    6    6  503    0 -0.13645934308E+02  0.30410080584E+02 -0.72332430758E+02  0.79642733904E+02  0.00000000000E+00 0. -1.
         -1    1    6    6    0  503 -0.15437310708E+03  0.16848255066E+02 -0.12942559142E+03  0.20215316867E+03  0.00000000000E+00 0.  1.
<mgrwt>
<rscale>  0 0.12414578E+04</rscale>
<asrwt>0</asrwt>
<pdfrwt beam="1">  1        2 0.45580314E+00 0.12414578E+04</pdfrwt>
<pdfrwt beam="2">  1       -2 0.80932726E-01 0.12414578E+04</pdfrwt>
<totfact> 0.24434959E+00</totfact>
</mgrwt>
</event>
<event>
12    1  0.3147868E-008  0.3373559E+03  0.7818608E-02  0.1067928E+00
          2   -1    0    0  501    0  0.00000000000E+00  0.00000000000E+00  0.81344689381E+03  0.81344689381E+03  0.00000000000E+00 0. -1.
         -2   -1    0    0    0  501 -0.00000000000E+00 -0.00000000000E+00 -0.51930401717E+03  0.51930401717E+03  0.00000000000E+00 0.  1.
         23    2    1    2    0    0 -0.12686874959E+03 -0.18357498400E+03  0.58259133424E+03  0.63063597011E+03  0.92160781729E+02 0.  0.
    5000000    2    1    2    0    0  0.12686874959E+03  0.18357498400E+03 -0.28844845760E+03  0.70211494086E+03  0.59997285198E+03 0.  0.
         23    2    4    4    0    0 -0.75352235419E+01  0.25804076463E+03  0.86140068383E+02  0.28686870065E+03  0.90728850035E+02 0.  0.
         23    2    4    4    0    0  0.13440397313E+03 -0.74465780624E+02 -0.37458852598E+03  0.41524624021E+03  0.92213316460E+02 0.  0.
          5    1    3    3  502    0 -0.11945057412E+03 -0.10737431449E+03  0.33706354057E+03  0.37340541433E+03  0.47000000000E+01 0. -1.
         -5    1    3    3    0  502 -0.74181754695E+01 -0.76200669512E+02  0.24552779367E+03  0.25723055578E+03  0.47000000000E+01 0.  1.
         11    1    5    5    0    0 -0.42839305472E+01  0.43201457182E+02  0.54515845050E+02  0.69689994440E+02  0.00000000000E+00 0. -1.
        -11    1    5    5    0    0 -0.32512929947E+01  0.21483930745E+03  0.31624223333E+02  0.21717870621E+03  0.00000000000E+00 0.  1.
          2    1    6    6  503    0  0.77666405770E+02 -0.91296510301E+02 -0.24250020170E+03  0.27050595410E+03  0.00000000000E+00 0. -1.
         -2    1    6    6    0  503  0.56737567359E+02  0.16830729677E+02 -0.13208832428E+03  0.14474028611E+03  0.00000000000E+00 0.  1.
<mgrwt>
<rscale>  0 0.33735591E+03</rscale>
<asrwt>0</asrwt>
<pdfrwt beam="1">  1        2 0.12514568E+00 0.33735591E+03</pdfrwt>
<pdfrwt beam="2">  1       -2 0.79892925E-01 0.33735591E+03</pdfrwt>
<totfact> 0.49680671E+01</totfact>
</mgrwt>
</event>
<event>
12    1  0.3147868E-008  0.4946664E+03  0.7818608E-02  0.1015181E+00
          2   -1    0    0  501    0  0.00000000000E+00  0.00000000000E+00  0.27128919643E+04  0.27128919643E+04  0.00000000000E+00 0. -1.
         -2   -1    0    0    0  501 -0.00000000000E+00 -0.00000000000E+00 -0.12118719010E+03  0.12118719010E+03  0.00000000000E+00 0.  1.
         23    2    1    2    0    0 -0.34475932652E+03  0.17558764460E+03  0.61464368411E+03  0.73204186134E+03  0.91697405554E+02 0.  0.
    5000000    2    1    2    0    0  0.34475932652E+03 -0.17558764460E+03  0.19770610901E+04  0.21020372931E+04  0.60008350531E+03 0.  0.
         23    2    4    4    0    0  0.11282354216E+02  0.11763052941E+03  0.11424884138E+04  0.11523627743E+04  0.93252103627E+02 0.  0.
         23    2    4    4    0    0  0.33347697230E+03 -0.29321817401E+03  0.83457267627E+03  0.94967451880E+03  0.90478456328E+02 0.  0.
          5    1    3    3  502    0 -0.15900315327E+03  0.10504921733E+03  0.22708931120E+03  0.29649449585E+03  0.47000000000E+01 0. -1.
         -5    1    3    3    0  502 -0.18575617325E+03  0.70538427274E+02  0.38755437291E+03  0.43554736549E+03  0.47000000000E+01 0.  1.
         11    1    5    5    0    0 -0.36369603316E+02  0.26299605703E+02  0.45353121122E+03  0.45574661475E+03  0.00000000000E+00 0.  1.
        -11    1    5    5    0    0  0.47651957531E+02  0.91330923709E+02  0.68895720262E+03  0.69661615954E+03  0.00000000000E+00 0. -1.
          3    1    6    6  503    0  0.22657429126E+03 -0.14388879395E+03  0.46228502656E+03  0.53455340263E+03  0.00000000000E+00 0. -1.
         -3    1    6    6    0  503  0.10690268104E+03 -0.14932938006E+03  0.37228764971E+03  0.41512111617E+03  0.00000000000E+00 0.  1.
<mgrwt>
<rscale>  0 0.49466641E+03</rscale>
<asrwt>0</asrwt>
<pdfrwt beam="1">  1        2 0.41736795E+00 0.49466641E+03</pdfrwt>
<pdfrwt beam="2">  1       -2 0.18644185E-01 0.49466641E+03</pdfrwt>
<totfact> 0.68592063E+01</totfact>
</mgrwt>
</event>
<event>
12    1  0.3147868E-008  0.1263055E+04  0.7818608E-02  0.9059387E-01
         -2   -1    0    0    0  501 -0.00000000000E+00  0.00000000000E+00  0.41979626450E+03  0.41979626450E+03  0.00000000000E+00 0. -1.
          2   -1    0    0  501    0  0.00000000000E+00 -0.00000000000E+00 -0.39356617637E+04  0.39356617637E+04  0.00000000000E+00 0.  1.
         23    2    1    2    0    0 -0.79713446244E+03  0.89051160831E+03 -0.13072956475E+04  0.17735453130E+04  0.89480676158E+02 0.  0.
    5000000    2    1    2    0    0  0.79713446244E+03 -0.89051160831E+03 -0.22085698517E+04  0.25819127152E+04  0.60004850097E+03 0.  0.
         23    2    4    4    0    0  0.20299100321E+03 -0.65352874325E+03 -0.11362572016E+04  0.13299655213E+04  0.97070561374E+02 0.  0.
         23    2    4    4    0    0  0.59414345923E+03 -0.23698286506E+03 -0.10723126501E+04  0.12519471940E+04  0.91378490302E+02 0.  0.
          5    1    3    3  502    0 -0.27681200379E+03  0.29836769062E+03 -0.38482308893E+03  0.56014200344E+03  0.47000000000E+01 0. -1.
         -5    1    3    3    0  502 -0.52032245865E+03  0.59214391769E+03 -0.92247255856E+03  0.12134033095E+04  0.47000000000E+01 0.  1.
         13    1    5    5    0    0  0.12080096628E+03 -0.43339947132E+03 -0.82824623400E+03  0.94256023645E+03  0.00000000000E+00 0. -1.
        -13    1    5    5    0    0  0.82190036933E+02 -0.22012927193E+03 -0.30801096760E+03  0.38740528480E+03  0.00000000000E+00 0.  1.
          3    1    6    6  503    0  0.59119056760E+03 -0.22337687322E+03 -0.10437315976E+04  0.12201553846E+04  0.00000000000E+00 0. -1.
         -3    1    6    6    0  503  0.29528916255E+01 -0.13605991833E+02 -0.28581052491E+02  0.31791809388E+02  0.00000000000E+00 0.  1.
<mgrwt>
<rscale>  0 0.12630547E+04</rscale>
<asrwt>0</asrwt>
<pdfrwt beam="1">  1        2 0.60548640E+00 0.12630547E+04</pdfrwt>
<pdfrwt beam="2">  1       -2 0.64584044E-01 0.12630547E+04</pdfrwt>
<totfact> 0.85930287E-01</totfact>
</mgrwt>
</event>
<event>
12    1  0.3147868E-008  0.7270454E+03  0.7818608E-02  0.9672067E-01
         -1   -1    0    0    0  501 -0.00000000000E+00  0.00000000000E+00  0.93411243587E+03  0.93411243587E+03  0.00000000000E+00 0.  1.
          1   -1    0    0  501    0  0.00000000000E+00 -0.00000000000E+00 -0.82247788104E+03  0.82247788104E+03  0.00000000000E+00 0. -1.
         23    2    1    2    0    0  0.32037475606E+03 -0.53188731121E+03  0.50671308065E+03  0.80707647972E+03  0.95237607467E+02 0.  0.
    5000000    2    1    2    0    0 -0.32037475606E+03  0.53188731121E+03 -0.39507852582E+03  0.94951383718E+03  0.59995448935E+03 0.  0.
         23    2    4    4    0    0  0.14516355400E+03  0.58354570113E+02 -0.15275036672E+03  0.23688067534E+03  0.91115676766E+02 0.  0.
         23    2    4    4    0    0 -0.46553831006E+03  0.47353274110E+03 -0.24232815910E+03  0.71263316184E+03  0.90354367010E+02 0.  0.
          5    1    3    3  502    0  0.12591934800E+03 -0.29821413742E+03  0.24683548248E+03  0.40710833862E+03  0.47000000000E+01 0. -1.
         -5    1    3    3    0  502  0.19445540806E+03 -0.23367317379E+03  0.25987759816E+03  0.39996814110E+03  0.47000000000E+01 0.  1.
         11    1    5    5    0    0  0.84212912070E+02  0.55361750767E+02 -0.39518522579E+02  0.10825179737E+03  0.00000000000E+00 0. -1.
        -11    1    5    5    0    0  0.60950641934E+02  0.29928193462E+01 -0.11323184414E+03  0.12862887797E+03  0.00000000000E+00 0.  1.
          2    1    6    6  503    0 -0.21224995662E+03  0.23348944241E+03 -0.16132511850E+03  0.35439124941E+03  0.00000000000E+00 0. -1.
         -2    1    6    6    0  503 -0.25328835344E+03  0.24004329869E+03 -0.81003040601E+02  0.35824191243E+03  0.00000000000E+00 0.  1.
<mgrwt>
<rscale>  0 0.72704542E+03</rscale>
<asrwt>0</asrwt>
<pdfrwt beam="1">  1        1 0.12653506E+00 0.72704542E+03</pdfrwt>
<pdfrwt beam="2">  1       -1 0.14370961E+00 0.72704542E+03</pdfrwt>
<totfact> 0.85646556E+00</totfact>
</mgrwt>
</event>
<event>
12    1  0.3147868E-008  0.1095321E+04  0.7818608E-02  0.9209765E-01
          1   -1    0    0  501    0  0.00000000000E+00  0.00000000000E+00  0.20887197502E+04  0.20887197502E+04  0.00000000000E+00 0. -1.
         -1   -1    0    0    0  501 -0.00000000000E+00 -0.00000000000E+00 -0.66449517163E+03  0.66449517163E+03  0.00000000000E+00 0.  1.
         23    2    1    2    0    0 -0.19293727781E+03  0.10076854974E+04  0.20395112549E+03  0.10500368751E+04  0.91249782183E+02 0.  0.
    5000000    2    1    2    0    0  0.19293727781E+03 -0.10076854974E+04  0.12202734530E+04  0.17031780467E+04  0.59924394334E+03 0.  0.
         23    2    4    4    0    0  0.18963978274E+03 -0.73148263608E+02  0.39201729920E+03  0.45111393332E+03  0.92262139030E+02 0.  0.
         23    2    4    4    0    0  0.32974950704E+01 -0.93453723377E+03  0.82825615383E+03  0.12520641133E+04  0.91025121507E+02 0.  0.
          5    1    3    3  502    0 -0.42078418056E+02  0.40977826935E+03  0.10871240579E+03  0.42606255464E+03  0.47000000000E+01 0. -1.
         -5    1    3    3    0  502 -0.15085885976E+03  0.59790722803E+03  0.95238719699E+02  0.62397432049E+03  0.47000000000E+01 0.  1.
         13    1    5    5    0    0  0.13044924562E+03 -0.18817749916E+01  0.22211061163E+03  0.25759206230E+03  0.00000000000E+00 0. -1.
        -13    1    5    5    0    0  0.59190537127E+02 -0.71266488616E+02  0.16990668757E+03  0.19352187103E+03  0.00000000000E+00 0.  1.
          2    1    6    6  503    0 -0.16653472548E+02 -0.31282785378E+02  0.28807329843E+02  0.45670702443E+02  0.00000000000E+00 0. -1.
         -2    1    6    6    0  503  0.19950967618E+02 -0.90325444840E+03  0.79944882399E+03  0.12063934109E+04  0.00000000000E+00 0.  1.
<mgrwt>
<rscale>  0 0.10953207E+04</rscale>
<asrwt>0</asrwt>
<pdfrwt beam="1">  1        1 0.32134150E+00 0.10953207E+04</pdfrwt>
<pdfrwt beam="2">  1       -1 0.10223003E+00 0.10953207E+04</pdfrwt>
<totfact> 0.23482323E+00</totfact>
</mgrwt>
</event>
<event>
12    1  0.3147868E-008  0.6053463E+03  0.7818608E-02  0.9894376E-01
         -2   -1    0    0    0  501 -0.00000000000E+00  0.00000000000E+00  0.89846369037E+03  0.89846369037E+03  0.00000000000E+00 0. -1.
          2   -1    0    0  501    0  0.00000000000E+00 -0.00000000000E+00 -0.12536678963E+04  0.12536678963E+04  0.00000000000E+00 0.  1.
         23    2    1    2    0    0 -0.43211714356E+02  0.46490135975E+03  0.70312922948E+03  0.84904656396E+03  0.92134835265E+02 0.  0.
    5000000    2    1    2    0    0  0.43211714356E+02 -0.46490135975E+03 -0.10583334355E+04  0.13030850228E+04  0.59996699023E+03 0.  0.
         23    2    4    4    0    0 -0.14361528328E+03 -0.50410115209E+03 -0.63027905938E+03  0.82539255145E+03  0.96321597528E+02 0.  0.
         23    2    4    4    0    0  0.18682699764E+03  0.39199792346E+02 -0.42805437607E+03  0.47769247131E+03  0.92296248584E+02 0.  0.
          5    1    3    3  502    0 -0.35123778081E+02  0.11395792567E+03  0.12614907334E+03  0.17365416008E+03  0.47000000000E+01 0. -1.
         -5    1    3    3    0  502 -0.80879362745E+01  0.35094343408E+03  0.57698015614E+03  0.67539240388E+03  0.47000000000E+01 0.  1.
         11    1    5    5    0    0 -0.47960996067E+02 -0.29070215407E+03 -0.40363847936E+03  0.49973194969E+03  0.00000000000E+00 0. -1.
        -11    1    5    5    0    0 -0.95654287216E+02 -0.21339899802E+03 -0.22664058003E+03  0.32566060175E+03  0.00000000000E+00 0.  1.
          3    1    6    6  503    0  0.13791125606E+03 -0.15072232213E+02 -0.26940767241E+03  0.30302999965E+03  0.00000000000E+00 0. -1.
         -3    1    6    6    0  503  0.48915741577E+02  0.54272024560E+02 -0.15864670366E+03  0.17466247166E+03  0.00000000000E+00 0.  1.
<mgrwt>
<rscale>  0 0.60534631E+03</rscale>
<asrwt>0</asrwt>
<pdfrwt beam="1">  1        2 0.19287198E+00 0.60534631E+03</pdfrwt>
<pdfrwt beam="2">  1       -2 0.13822518E+00 0.60534631E+03</pdfrwt>
<totfact> 0.68226822E+00</totfact>
</mgrwt>
</event>
<event>
12    1  0.3147868E-008  0.6065482E+03  0.7818608E-02  0.9891913E-01
         -2   -1    0    0    0  501 -0.00000000000E+00  0.00000000000E+00  0.13271417501E+04  0.13271417501E+04  0.00000000000E+00 0.  1.
          2   -1    0    0  501    0  0.00000000000E+00 -0.00000000000E+00 -0.11604967934E+04  0.11604967934E+04  0.00000000000E+00 0. -1.
         23    2    1    2    0    0 -0.58352545281E+03 -0.17237661759E+02 -0.93388212305E+03  0.11050975434E+04  0.91135446725E+02 0.  0.
    5000000    2    1    2    0    0  0.58352545281E+03  0.17237661759E+02  0.11005270798E+04  0.13825410001E+04  0.59955039197E+03 0.  0.
         23    2    4    4    0    0  0.47882295780E+03 -0.67087397577E+02  0.32336184251E+03  0.58855620115E+03  0.89796307775E+02 0.  0.
         23    2    4    4    0    0  0.10470249501E+03  0.84325059335E+02  0.77716523726E+03  0.79398479893E+03  0.91393253703E+02 0.  0.
          5    1    3    3  502    0 -0.48652466923E+03 -0.31837980390E+02 -0.82628683682E+03  0.95942271053E+03  0.47000000000E+01 0. -1.
         -5    1    3    3    0  502 -0.97000783579E+02  0.14600318632E+02 -0.10759528623E+03  0.14567483289E+03  0.47000000000E+01 0.  1.
         13    1    5    5    0    0  0.29462014749E+03 -0.39917434555E+02  0.24991982492E+03  0.38839973195E+03  0.00000000000E+00 0. -1.
        -13    1    5    5    0    0  0.18420281031E+03 -0.27169963022E+02  0.73442017596E+02  0.20015646920E+03  0.00000000000E+00 0.  1.
          2    1    6    6  503    0  0.33695619349E+02  0.18391790842E+00  0.63591964647E+02  0.71967816118E+02  0.00000000000E+00 0. -1.
         -2    1    6    6    0  503  0.71006875663E+02  0.84141141427E+02  0.71357327261E+03  0.72201698281E+03  0.00000000000E+00 0.  1.
<mgrwt>
<rscale>  0 0.60654824E+03</rscale>
<asrwt>0</asrwt>
<pdfrwt beam="1">  1        2 0.17853797E+00 0.60654824E+03</pdfrwt>
<pdfrwt beam="2">  1       -2 0.20417565E+00 0.60654824E+03</pdfrwt>
<totfact> 0.26330801E+00</totfact>
</mgrwt>
</event>
<event>
12    1  0.3147868E-008  0.5550368E+03  0.7818608E-02  0.1000335E+00
         -2   -1    0    0    0  501 -0.00000000000E+00  0.00000000000E+00  0.53797433798E+03  0.53797433798E+03  0.00000000000E+00 0.  1.
          2   -1    0    0  501    0  0.00000000000E+00 -0.00000000000E+00 -0.10398102186E+04  0.10398102186E+04  0.00000000000E+00 0. -1.
         23    2    1    2    0    0  0.89460079966E+02 -0.52016475133E+03 -0.56116484840E+03  0.77651135651E+03  0.97413681143E+02 0.  0.
    5000000    2    1    2    0    0 -0.89460079966E+02  0.52016475133E+03  0.59328967818E+02  0.80127320004E+03  0.59995361509E+03 0.  0.
         23    2    4    4    0    0 -0.33961099788E+02  0.44890826830E+03  0.28661731562E+03  0.54104034554E+03  0.88899832634E+02 0.  0.
         23    2    4    4    0    0 -0.55498980177E+02  0.71256483029E+02 -0.22728834780E+03  0.26023285451E+03  0.88901756695E+02 0.  0.
          5    1    3    3  502    0  0.10275292813E+03 -0.33148701989E+03 -0.34814739326E+03  0.49159994510E+03  0.47000000000E+01 0. -1.
         -5    1    3    3    0  502 -0.13292848160E+02 -0.18867773144E+03 -0.21301745514E+03  0.28491141140E+03  0.47000000000E+01 0.  1.
         13    1    5    5    0    0  0.13344335561E+02  0.19086751523E+03  0.16154471751E+03  0.25041001461E+03  0.00000000000E+00 0. -1.
        -13    1    5    5    0    0 -0.47305435349E+02  0.25804075307E+03  0.12507259811E+03  0.29063033093E+03  0.00000000000E+00 0.  1.
          4    1    6    6  503    0 -0.65644986004E+02  0.21113216447E+02 -0.87688895049E+02  0.11155435631E+03  0.00000000000E+00 0. -1.
         -4    1    6    6    0  503  0.10146005827E+02  0.50143266582E+02 -0.13959945275E+03  0.14867849820E+03  0.00000000000E+00 0.  1.
<mgrwt>
<rscale>  0 0.55503678E+03</rscale>
<asrwt>0</asrwt>
<pdfrwt beam="1">  1        2 0.15997080E+00 0.55503678E+03</pdfrwt>
<pdfrwt beam="2">  1       -2 0.82765282E-01 0.55503678E+03</pdfrwt>
<totfact> 0.31606514E+01</totfact>
</mgrwt>
</event>
<event>
12    1  0.3147868E-008  0.1799981E+04  0.7818608E-02  0.8706309E-01
         -2   -1    0    0    0  501 -0.00000000000E+00  0.00000000000E+00  0.20040006440E+04  0.20040006440E+04  0.00000000000E+00 0.  1.
          2   -1    0    0  501    0  0.00000000000E+00 -0.00000000000E+00 -0.24312487393E+04  0.24312487393E+04  0.00000000000E+00 0. -1.
         23    2    1    2    0    0  0.90921000691E+03  0.15101633062E+04  0.10535031188E+04  0.20561941622E+04  0.10396904869E+03 0.  0.
    5000000    2    1    2    0    0 -0.90921000691E+03 -0.15101633062E+04 -0.14807512142E+04  0.23790552211E+04  0.60001961519E+03 0.  0.
         23    2    4    4    0    0 -0.42292469121E+02 -0.45822388094E+03 -0.56523714753E+03  0.73447189733E+03  0.90543674612E+02 0.  0.
         23    2    4    4    0    0 -0.86691753779E+03 -0.10519394253E+04 -0.91551406663E+03  0.16445833238E+04  0.91464368959E+02 0.  0.
          5    1    3    3  502    0  0.56435399479E+03  0.10315711031E+04  0.69621676107E+03  0.13665190231E+04  0.47000000000E+01 0. -1.
         -5    1    3    3    0  502  0.34485601212E+03  0.47859220313E+03  0.35728635775E+03  0.68967513905E+03  0.47000000000E+01 0.  1.
         13    1    5    5    0    0 -0.69299506984E+02 -0.35933944479E+03 -0.45560762681E+03  0.58438477723E+03  0.00000000000E+00 0.  1.
        -13    1    5    5    0    0  0.27007037863E+02 -0.98884436155E+02 -0.10962952072E+03  0.15008712010E+03  0.00000000000E+00 0. -1.
          3    1    6    6  503    0 -0.37479603695E+03 -0.52074100205E+03 -0.40843413670E+03  0.76056669961E+03  0.00000000000E+00 0.  1.
         -3    1    6    6    0  503 -0.49212150084E+03 -0.53119842322E+03 -0.50707992993E+03  0.88401662414E+03  0.00000000000E+00 0. -1.
<mgrwt>
<rscale>  0 0.17999815E+04</rscale>
<asrwt>0</asrwt>
<pdfrwt beam="1">  1        2 0.37403827E+00 0.17999815E+04</pdfrwt>
<pdfrwt beam="2">  1       -2 0.30830779E+00 0.17999815E+04</pdfrwt>
<totfact> 0.97572367E-02</totfact>
</mgrwt>
</event>
<event>
12    1  0.3147868E-008  0.5497640E+03  0.7818608E-02  0.1001549E+00
          1   -1    0    0  501    0  0.00000000000E+00  0.00000000000E+00  0.20233290954E+04  0.20233290954E+04  0.00000000000E+00 0. -1.
         -1   -1    0    0    0  501 -0.00000000000E+00 -0.00000000000E+00 -0.20271608048E+03  0.20271608048E+03  0.00000000000E+00 0.  1.
         23    2    1    2    0    0 -0.81300242303E+02  0.47115716946E+03  0.49609305986E+03  0.69522667817E+03  0.92913950814E+02 0.  0.
    5000000    2    1    2    0    0  0.81300242303E+02 -0.47115716946E+03  0.13245199551E+04  0.15308184977E+04  0.60037767603E+03 0.  0.
         23    2    4    4    0    0  0.11617904399E+03 -0.10890328021E+02  0.84897117972E+03  0.86260082037E+03  0.98549184685E+02 0.  0.
         23    2    4    4    0    0 -0.34878801690E+02 -0.46026684144E+03  0.47554877536E+03  0.66821767736E+03  0.85475905735E+02 0.  0.
          5    1    3    3  502    0 -0.97779149900E+02  0.37864143130E+03  0.42292469058E+03  0.57603600543E+03  0.47000000000E+01 0. -1.
         -5    1    3    3    0  502  0.16478907597E+02  0.92515738163E+02  0.73168369285E+02  0.11919067274E+03  0.47000000000E+01 0.  1.
         11    1    5    5    0    0  0.24987957009E+02 -0.48120910851E+02  0.30724765000E+03  0.31199541421E+03  0.00000000000E+00 0. -1.
        -11    1    5    5    0    0  0.91191086983E+02  0.37230582830E+02  0.54172352972E+03  0.55060540616E+03  0.00000000000E+00 0.  1.
          2    1    6    6  503    0 -0.16676070465E+02 -0.26036238071E+03  0.32791944224E+03  0.41904393709E+03  0.00000000000E+00 0. -1.
         -2    1    6    6    0  503 -0.18202731225E+02 -0.19990446073E+03  0.14762933312E+03  0.24917374027E+03  0.00000000000E+00 0.  1.
<mgrwt>
<rscale>  0 0.54976404E+03</rscale>
<asrwt>0</asrwt>
<pdfrwt beam="1">  1        1 0.31128139E+00 0.54976404E+03</pdfrwt>
<pdfrwt beam="2">  1       -1 0.31187091E-01 0.54976404E+03</pdfrwt>
<totfact> 0.29318592E+01</totfact>
</mgrwt>
</event>
<event>
12    1  0.3147868E-008  0.6239925E+03  0.7818608E-02  0.9856843E-01
         -2   -1    0    0    0  501 -0.00000000000E+00  0.00000000000E+00  0.27644631201E+03  0.27644631201E+03  0.00000000000E+00 0.  1.
          2   -1    0    0  501    0  0.00000000000E+00 -0.00000000000E+00 -0.21244832592E+04  0.21244832592E+04  0.00000000000E+00 0. -1.
         23    2    1    2    0    0  0.50005084320E+03  0.99560808915E+02 -0.16424439241E+03  0.54213530934E+03  0.83494147939E+02 0.  0.
    5000000    2    1    2    0    0 -0.50005084320E+03 -0.99560808915E+02 -0.16837925548E+04  0.18587942619E+04  0.59999628331E+03 0.  0.
         23    2    4    4    0    0 -0.29570976275E+03 -0.31746349890E+03 -0.71876580538E+03  0.84453399468E+03  0.91575369315E+02 0.  0.
         23    2    4    4    0    0 -0.20434108045E+03  0.21790268999E+03 -0.96502674944E+03  0.10142602672E+04  0.90611274578E+02 0.  0.
          5    1    3    3  502    0  0.66028361877E+02  0.29151694848E+02 -0.49636301428E+02  0.87723533355E+02  0.47000000000E+01 0. -1.
         -5    1    3    3    0  502  0.43402248132E+03  0.70409114067E+02 -0.11460809098E+03  0.45441177599E+03  0.47000000000E+01 0.  1.
         11    1    5    5    0    0 -0.11686764317E+03 -0.10409294600E+03 -0.34157986897E+03  0.37572622255E+03  0.00000000000E+00 0. -1.
        -11    1    5    5    0    0 -0.17884211958E+03 -0.21337055291E+03 -0.37718593641E+03  0.46880777213E+03  0.00000000000E+00 0.  1.
          4    1    6    6  503    0 -0.17881663599E+03  0.16993391991E+03 -0.87498289266E+03  0.90909184843E+03  0.00000000000E+00 0. -1.
         -4    1    6    6    0  503 -0.25524444463E+02  0.47968770081E+02 -0.90043856787E+02  0.10516841880E+03  0.00000000000E+00 0.  1.
<mgrwt>
<rscale>  0 0.62399251E+03</rscale>
<asrwt>0</asrwt>
<pdfrwt beam="1">  1        2 0.32684358E+00 0.62399251E+03</pdfrwt>
<pdfrwt beam="2">  1       -2 0.42530202E-01 0.62399251E+03</pdfrwt>
<totfact> 0.31455342E+01</totfact>
</mgrwt>
</event>
<event>
12    1  0.3147868E-008  0.6033073E+03  0.7818608E-02  0.9898568E-01
          1   -1    0    0  501    0  0.00000000000E+00  0.00000000000E+00  0.52553695201E+03  0.52553695201E+03  0.00000000000E+00 0. -1.
         -1   -1    0    0    0  501 -0.00000000000E+00 -0.00000000000E+00 -0.73213318327E+03  0.73213318327E+03  0.00000000000E+00 0.  1.
         23    2    1    2    0    0 -0.33775803896E+03  0.31811829554E+03 -0.53332478006E+01  0.47293645116E+03  0.91436866014E+02 0.  0.
    5000000    2    1    2    0    0  0.33775803896E+03 -0.31811829554E+03 -0.20126298346E+03  0.78473368413E+03  0.60001701947E+03 0.  0.
         23    2    4    4    0    0  0.47152108221E+03 -0.32727885327E+03 -0.21830848384E+03  0.62097117470E+03  0.92211858908E+02 0.  0.
         23    2    4    4    0    0 -0.13376304325E+03  0.91605577308E+01  0.17045500375E+02  0.16376250943E+03  0.92472389679E+02 0.  0.
          5    1    3    3  502    0 -0.14713421041E+03  0.19571691139E+03  0.15528856102E+02  0.24539115846E+03  0.47000000000E+01 0. -1.
         -5    1    3    3    0  502 -0.19062382855E+03  0.12240138415E+03 -0.20862103902E+02  0.22754529270E+03  0.47000000000E+01 0.  1.
         11    1    5    5    0    0  0.30124486936E+03 -0.15867248937E+03 -0.10821464292E+03  0.35726158364E+03  0.00000000000E+00 0.  1.
        -11    1    5    5    0    0  0.17027621285E+03 -0.16860636390E+03 -0.11009384092E+03  0.26370959106E+03  0.00000000000E+00 0. -1.
          2    1    6    6  503    0 -0.12356139991E+03 -0.19051238771E+02 -0.71439297594E+01  0.12522541666E+03  0.00000000000E+00 0. -1.
         -2    1    6    6    0  503 -0.10201643350E+02  0.28211796502E+02  0.24189430135E+02  0.38537092770E+02  0.00000000000E+00 0.  1.
<mgrwt>
<rscale>  0 0.60330734E+03</rscale>
<asrwt>0</asrwt>
<pdfrwt beam="1">  1        1 0.80851838E-01 0.60330734E+03</pdfrwt>
<pdfrwt beam="2">  1       -1 0.11263587E+00 0.60330734E+03</pdfrwt>
<totfact> 0.31035003E+01</totfact>
</mgrwt>
</event>
<event>
12    1  0.3147868E-008  0.6794011E+03  0.7818608E-02  0.9753122E-01
          2   -1    0    0  501    0  0.00000000000E+00  0.00000000000E+00  0.13466367982E+04  0.13466367982E+04  0.00000000000E+00 0. -1.
         -2   -1    0    0    0  501 -0.00000000000E+00 -0.00000000000E+00 -0.39103431971E+03  0.39103431971E+03  0.00000000000E+00 0.  1.
         23    2    1    2    0    0  0.58302774929E+03  0.66304062491E+02  0.53290537686E+03  0.79796456314E+03  0.91878823404E+02 0.  0.
    5000000    2    1    2    0    0 -0.58302774929E+03 -0.66304062491E+02  0.42269710166E+03  0.93970655482E+03  0.60004831829E+03 0.  0.
         23    2    4    4    0    0 -0.35324990965E+03 -0.27380487345E+03  0.41711242738E+03  0.61768956926E+03  0.88334701580E+02 0.  0.
         23    2    4    4    0    0 -0.22977783964E+03  0.20750081096E+03  0.55846742805E+01  0.32201698556E+03  0.88370290626E+02 0.  0.
          5    1    3    3  502    0  0.51900204331E+03  0.43361606812E+02  0.50105096156E+03  0.72271536997E+03  0.47000000000E+01 0. -1.
         -5    1    3    3    0  502  0.64025705975E+02  0.22942455679E+02  0.31854415302E+02  0.75249193168E+02  0.47000000000E+01 0.  1.
         11    1    5    5    0    0 -0.32830399175E+03 -0.23531441778E+03  0.40073543704E+03  0.56898618324E+03  0.00000000000E+00 0. -1.
        -11    1    5    5    0    0 -0.24945917895E+02 -0.38490455666E+02  0.16376990341E+02  0.48703386018E+02  0.00000000000E+00 0.  1.
          2    1    6    6  503    0 -0.74021753457E+02  0.20852332981E+02  0.16574754466E+02  0.78668686663E+02  0.00000000000E+00 0. -1.
         -2    1    6    6    0  503 -0.15575608618E+03  0.18664847798E+03 -0.10990080186E+02  0.24334829890E+03  0.00000000000E+00 0.  1.
<mgrwt>
<rscale>  0 0.67940109E+03</rscale>
<asrwt>0</asrwt>
<pdfrwt beam="1">  1        2 0.20717489E+00 0.67940109E+03</pdfrwt>
<pdfrwt beam="2">  1       -2 0.60159127E-01 0.67940109E+03</pdfrwt>
<totfact> 0.41120873E+01</totfact>
</mgrwt>
</event>
<event>
12    1  0.3147868E-008  0.1005249E+04  0.7818608E-02  0.9302806E-01
         -2   -1    0    0    0  501 -0.00000000000E+00  0.00000000000E+00  0.41472111658E+03  0.41472111658E+03  0.00000000000E+00 0.  1.
          2   -1    0    0  501    0  0.00000000000E+00 -0.00000000000E+00 -0.27968501530E+04  0.27968501530E+04  0.00000000000E+00 0. -1.
         23    2    1    2    0    0  0.56532137469E+03  0.81141284510E+03 -0.12058696351E+04  0.15620530199E+04  0.88932548061E+02 0.  0.
    5000000    2    1    2    0    0 -0.56532137469E+03 -0.81141284510E+03 -0.11762594013E+04  0.16495182498E+04  0.59945409763E+03 0.  0.
         23    2    4    4    0    0 -0.37490059761E+03 -0.35159278007E+03 -0.97309800787E+03  0.11042286869E+04  0.90737638156E+02 0.  0.
         23    2    4    4    0    0 -0.19042077709E+03 -0.45982006503E+03 -0.20316139348E+03  0.54528956286E+03  0.91496398916E+02 0.  0.
          5    1    3    3  502    0  0.41779214914E+03  0.58578463179E+03 -0.81444772702E+03  0.10867571508E+04  0.47000000000E+01 0. -1.
         -5    1    3    3    0  502  0.14752922555E+03  0.22562821330E+03 -0.39142190809E+03  0.47529586908E+03  0.47000000000E+01 0.  1.
         13    1    5    5    0    0 -0.36799176034E+03 -0.32767735001E+03 -0.88778849089E+03  0.10153614066E+04  0.00000000000E+00 0. -1.
        -13    1    5    5    0    0 -0.69088372667E+01 -0.23915430060E+02 -0.85309516976E+02  0.88867280334E+02  0.00000000000E+00 0.  1.
          2    1    6    6  503    0 -0.14797552894E+03 -0.25742401290E+03 -0.14517855102E+03  0.33051579577E+03  0.00000000000E+00 0. -1.
         -2    1    6    6    0  503 -0.42445248150E+02 -0.20239605213E+03 -0.57982842460E+02  0.21477376708E+03  0.00000000000E+00 0.  1.
<mgrwt>
<rscale>  0 0.10052495E+04</rscale>
<asrwt>0</asrwt>
<pdfrwt beam="1">  1        2 0.43028465E+00 0.10052495E+04</pdfrwt>
<pdfrwt beam="2">  1       -2 0.63803247E-01 0.10052495E+04</pdfrwt>
<totfact> 0.53666160E+00</totfact>
</mgrwt>
</event>
<event>
12    1  0.3147868E-008  0.5805837E+03  0.7818608E-02  0.9946528E-01
         -1   -1    0    0    0  501 -0.00000000000E+00  0.00000000000E+00  0.11149312359E+04  0.11149312359E+04  0.00000000000E+00 0.  1.
          1   -1    0    0  501    0  0.00000000000E+00 -0.00000000000E+00 -0.50140133373E+03  0.50140133373E+03  0.00000000000E+00 0. -1.
         23    2    1    2    0    0 -0.38195070863E+03 -0.37038686147E+03 -0.93324380200E+02  0.54780827041E+03  0.91168471586E+02 0.  0.
    5000000    2    1    2    0    0  0.38195070863E+03  0.37038686147E+03  0.70685428240E+03  0.10685242992E+04  0.59918981180E+03 0.  0.
         23    2    4    4    0    0  0.40526727244E+03  0.25596964258E+03  0.17828462562E+03  0.51958877067E+03  0.91788141017E+02 0.  0.
         23    2    4    4    0    0 -0.23316563812E+02  0.11441721888E+03  0.52856965678E+03  0.54893552858E+03  0.91155747738E+02 0.  0.
          5    1    3    3  502    0 -0.34136477937E+03 -0.32722959033E+03 -0.11111049215E+03  0.48577438060E+03  0.47000000000E+01 0. -1.
         -5    1    3    3    0  502 -0.40585929264E+02 -0.43157271140E+02  0.17786111947E+02  0.62033889808E+02  0.47000000000E+01 0.  1.
         13    1    5    5    0    0  0.12343148177E+03  0.10011230324E+03  0.10126348309E+03  0.18844653608E+03  0.00000000000E+00 0.  1.
        -13    1    5    5    0    0  0.28183579067E+03  0.15585733934E+03  0.77021142531E+02  0.33114223459E+03  0.00000000000E+00 0. -1.
          2    1    6    6  503    0  0.35388515942E+01  0.12030803019E+03  0.41645515931E+03  0.43349907187E+03  0.00000000000E+00 0.  1.
         -2    1    6    6    0  503 -0.26855415406E+02 -0.58908113064E+01  0.11211449747E+03  0.11543645671E+03  0.00000000000E+00 0. -1.
<mgrwt>
<rscale>  0 0.58058375E+03</rscale>
<asrwt>0</asrwt>
<pdfrwt beam="1">  1        1 0.77138667E-01 0.58058375E+03</pdfrwt>
<pdfrwt beam="2">  1       -1 0.17152788E+00 0.58058375E+03</pdfrwt>
<totfact> 0.11165355E+01</totfact>
</mgrwt>
</event>
<event>
12    1  0.3147868E-008  0.9444526E+03  0.7818608E-02  0.9371658E-01
         -2   -1    0    0    0  501 -0.00000000000E+00  0.00000000000E+00  0.14789474594E+04  0.14789474594E+04  0.00000000000E+00 0.  1.
          2   -1    0    0  501    0  0.00000000000E+00 -0.00000000000E+00 -0.20428660245E+04  0.20428660245E+04  0.00000000000E+00 0. -1.
         23    2    1    2    0    0  0.11785226761E+03  0.86682892019E+03  0.11853384136E+04  0.14760418727E+04  0.91601972765E+02 0.  0.
    5000000    2    1    2    0    0 -0.11785226761E+03 -0.86682892019E+03 -0.17492569787E+04  0.20457716112E+04  0.59999997812E+03 0.  0.
         23    2    4    4    0    0 -0.53944802732E+02  0.41280711244E+02 -0.39708583329E+03  0.41316402110E+03  0.91723554622E+02 0.  0.
         23    2    4    4    0    0 -0.63907464878E+02 -0.90810963143E+03 -0.13521711454E+04  0.16326075901E+04  0.91068490422E+02 0.  0.
          5    1    3    3  502    0  0.92296639422E+02  0.42229879029E+03  0.53413672020E+03  0.68715286785E+03  0.47000000000E+01 0. -1.
         -5    1    3    3    0  502  0.25555628188E+02  0.44453012989E+03  0.65120169337E+03  0.78888900484E+03  0.47000000000E+01 0.  1.
         11    1    5    5    0    0  0.67318047565E+01 -0.15812284695E+02 -0.17706926147E+03  0.17790128976E+03  0.00000000000E+00 0.  1.
        -11    1    5    5    0    0 -0.60676607488E+02  0.57092995940E+02 -0.22001657182E+03  0.23526273134E+03  0.00000000000E+00 0. -1.
          3    1    6    6  503    0 -0.56021996187E+02 -0.59915122188E+03 -0.81850332627E+03  0.10159076463E+04  0.00000000000E+00 0. -1.
         -3    1    6    6    0  503 -0.78854686915E+01 -0.30895840955E+03 -0.53366781916E+03  0.61669994378E+03  0.00000000000E+00 0.  1.
<mgrwt>
<rscale>  0 0.94445258E+03</rscale>
<asrwt>0</asrwt>
<pdfrwt beam="1">  1        2 0.31428708E+00 0.94445258E+03</pdfrwt>
<pdfrwt beam="2">  1       -2 0.22753038E+00 0.94445258E+03</pdfrwt>
<totfact> 0.56635082E-01</totfact>
</mgrwt>
</event>
<event>
12    1  0.3147868E-008  0.9475473E+03  0.7818608E-02  0.9368022E-01
         -2   -1    0    0    0  501 -0.00000000000E+00  0.00000000000E+00  0.61602370885E+03  0.61602370885E+03  0.00000000000E+00 0.  1.
          2   -1    0    0  501    0  0.00000000000E+00 -0.00000000000E+00 -0.15618548627E+04  0.15618548627E+04  0.00000000000E+00 0. -1.
         23    2    1    2    0    0 -0.55228775512E+03  0.66132513658E+03 -0.66256304194E+03  0.10903554310E+04  0.86674567230E+02 0.  0.
    5000000    2    1    2    0    0  0.55228775512E+03 -0.66132513658E+03 -0.28326811186E+03  0.10875231405E+04  0.60007754270E+03 0.  0.
         23    2    4    4    0    0 -0.86560812253E+02 -0.22845271536E+03 -0.14431585646E+03  0.29807318943E+03  0.91307953936E+02 0.  0.
         23    2    4    4    0    0  0.63884856737E+03 -0.43287242121E+03 -0.13895225540E+03  0.78944995110E+03  0.91746776104E+02 0.  0.
          5    1    3    3  502    0 -0.18976069777E+03  0.24249835026E+03 -0.28811199835E+03  0.42171694997E+03  0.47000000000E+01 0. -1.
         -5    1    3    3    0  502 -0.36252705736E+03  0.41882678632E+03 -0.37445104359E+03  0.66863848102E+03  0.47000000000E+01 0.  1.
         13    1    5    5    0    0 -0.68311977740E+02 -0.70922826897E+02 -0.31251968128E+02  0.10331146688E+03  0.00000000000E+00 0. -1.
        -13    1    5    5    0    0 -0.18248834513E+02 -0.15752988847E+03 -0.11306388834E+03  0.19476172254E+03  0.00000000000E+00 0.  1.
          2    1    6    6  503    0  0.46732391621E+03 -0.27062185260E+03 -0.78247717552E+02  0.54566522252E+03  0.00000000000E+00 0. -1.
         -2    1    6    6    0  503  0.17152465116E+03 -0.16225056861E+03 -0.60704537847E+02  0.24378472858E+03  0.00000000000E+00 0.  1.
<mgrwt>
<rscale>  0 0.94754733E+03</rscale>
<asrwt>0</asrwt>
<pdfrwt beam="1">  1        2 0.24028536E+00 0.94754733E+03</pdfrwt>
<pdfrwt beam="2">  1       -2 0.94772879E-01 0.94754733E+03</pdfrwt>
<totfact> 0.10999136E+01</totfact>
</mgrwt>
</event>
<event>
12    1  0.3147868E-008  0.3189106E+03  0.7818608E-02  0.1076152E+00
          2   -1    0    0  501    0  0.00000000000E+00  0.00000000000E+00  0.11821895698E+04  0.11821895698E+04  0.00000000000E+00 0. -1.
         -2   -1    0    0    0  501 -0.00000000000E+00 -0.00000000000E+00 -0.39090326155E+03  0.39090326155E+03  0.00000000000E+00 0.  1.
         23    2    1    2    0    0 -0.17190562970E+02 -0.25469631040E+03 -0.23396758119E+03  0.35793930714E+03  0.90631079463E+02 0.  0.
    5000000    2    1    2    0    0  0.17190562970E+02  0.25469631040E+03  0.10252538895E+04  0.12151535242E+04  0.60023897209E+03 0.  0.
         23    2    4    4    0    0  0.13300723607E+02  0.29101343237E+03  0.10670899072E+04  0.11099350042E+04  0.91701235000E+02 0.  0.
         23    2    4    4    0    0  0.38898393629E+01 -0.36317121964E+02 -0.41836017732E+02  0.10521852001E+03  0.89367893427E+02 0.  0.
          5    1    3    3  502    0 -0.17992938112E+02 -0.12969365569E+03 -0.61122190352E+02  0.14457593957E+03  0.47000000000E+01 0. -1.
         -5    1    3    3    0  502  0.80237514148E+00 -0.12500265471E+03 -0.17284539083E+03  0.21336336757E+03  0.47000000000E+01 0.  1.
         13    1    5    5    0    0  0.33728095798E+02  0.12220716280E+03  0.58951350040E+03  0.60299116265E+03  0.00000000000E+00 0.  1.
        -13    1    5    5    0    0 -0.20427372190E+02  0.16880626956E+03  0.47757640679E+03  0.50694384157E+03  0.00000000000E+00 0. -1.
          2    1    6    6  503    0 -0.26266212489E+02  0.11249088155E+02 -0.39628142501E+02  0.48855353657E+02  0.00000000000E+00 0. -1.
         -2    1    6    6    0  503  0.30156051852E+02 -0.47566210119E+02 -0.22078752310E+01  0.56363166354E+02  0.00000000000E+00 0.  1.
<mgrwt>
<rscale>  0 0.31891057E+03</rscale>
<asrwt>0</asrwt>
<pdfrwt beam="1">  1        2 0.18187532E+00 0.31891057E+03</pdfrwt>
<pdfrwt beam="2">  1       -2 0.60138964E-01 0.31891057E+03</pdfrwt>
<totfact> 0.54045613E+01</totfact>
</mgrwt>
</event>
<event>
12    1  0.3147868E-008  0.9637872E+03  0.7818608E-02  0.9349179E-01
          1   -1    0    0  501    0  0.00000000000E+00  0.00000000000E+00  0.12209863696E+04  0.12209863696E+04  0.00000000000E+00 0. -1.
         -1   -1    0    0    0  501 -0.00000000000E+00 -0.00000000000E+00 -0.10234793472E+04  0.10234793472E+04  0.00000000000E+00 0.  1.
         23    2    1    2    0    0  0.62220332184E+03 -0.61378308165E+03  0.64890834328E+03  0.10922777033E+04  0.90121574071E+02 0.  0.
    5000000    2    1    2    0    0 -0.62220332184E+03  0.61378308165E+03 -0.45140132093E+03  0.11521880135E+04  0.59992284573E+03 0.  0.
         23    2    4    4    0    0 -0.69579711464E+02 -0.99900713185E+02 -0.30332892767E+02  0.15204609599E+03  0.85886216477E+02 0.  0.
         23    2    4    4    0    0 -0.55262361038E+03  0.71368379483E+03 -0.42106842816E+03  0.10001419175E+04  0.90817510180E+02 0.  0.
          5    1    3    3  502    0  0.28646428377E+03 -0.26491796455E+03  0.34304890600E+03  0.51956516023E+03  0.47000000000E+01 0. -1.
         -5    1    3    3    0  502  0.33573903808E+03 -0.34886511709E+03  0.30585943728E+03  0.57271254307E+03  0.47000000000E+01 0.  1.
         11    1    5    5    0    0 -0.64753629800E+01 -0.83332214537E+02 -0.13502286891E+02  0.84666995085E+02  0.00000000000E+00 0. -1.
        -11    1    5    5    0    0 -0.63104348484E+02 -0.16568498648E+02 -0.16830605876E+02  0.67379100908E+02  0.00000000000E+00 0.  1.
          1    1    6    6  503    0 -0.29571320217E+03  0.42676013970E+03 -0.28072023996E+03  0.59023246937E+03  0.00000000000E+00 0. -1.
         -1    1    6    6    0  503 -0.25691040821E+03  0.28692365513E+03 -0.14034818820E+03  0.40990944811E+03  0.00000000000E+00 0.  1.
<mgrwt>
<rscale>  0 0.96378718E+03</rscale>
<asrwt>0</asrwt>
<pdfrwt beam="1">  1        1 0.18784406E+00 0.96378718E+03</pdfrwt>
<pdfrwt beam="2">  1       -1 0.15745836E+00 0.96378718E+03</pdfrwt>
<totfact> 0.31782015E+00</totfact>
</mgrwt>
</event>
<event>
12    1  0.3147868E-008  0.5012945E+03  0.7818608E-02  0.1013442E+00
         -1   -1    0    0    0  501 -0.00000000000E+00  0.00000000000E+00  0.71293360962E+03  0.71293360962E+03  0.00000000000E+00 0.  1.
          1   -1    0    0  501    0  0.00000000000E+00 -0.00000000000E+00 -0.22343735116E+04  0.22343735116E+04  0.00000000000E+00 0. -1.
         23    2    1    2    0    0  0.40229731492E+03 -0.22351316566E+03 -0.19987314626E+04  0.20530813176E+04  0.91728796150E+02 0.  0.
    5000000    2    1    2    0    0 -0.40229731492E+03  0.22351316566E+03  0.47729156069E+03  0.89422580360E+03  0.60002607369E+03 0.  0.
         23    2    4    4    0    0 -0.38891062594E+03  0.97421431175E+02  0.57783924794E+03  0.70905485221E+03  0.90100925397E+02 0.  0.
         23    2    4    4    0    0 -0.13386688977E+02  0.12609173449E+03 -0.10054768725E+03  0.18517095140E+03  0.90000638234E+02 0.  0.
          5    1    3    3  502    0  0.13339526734E+03 -0.11840372838E+03 -0.67135004509E+03  0.69465582362E+03  0.47000000000E+01 0. -1.
         -5    1    3    3    0  502  0.26890204758E+03 -0.10510943729E+03 -0.13273814175E+04  0.13584254940E+04  0.47000000000E+01 0.  1.
         11    1    5    5    0    0 -0.25033262670E+03  0.80758050104E+02  0.44164230779E+03  0.51403911785E+03  0.00000000000E+00 0.  1.
        -11    1    5    5    0    0 -0.13857799924E+03  0.16663381071E+02  0.13619694015E+03  0.19501573436E+03  0.00000000000E+00 0. -1.
          1    1    6    6  503    0  0.11424114715E+02  0.76466096592E+02 -0.86145753135E+01  0.77793220996E+02  0.00000000000E+00 0. -1.
         -1    1    6    6    0  503 -0.24810803692E+02  0.49625637897E+02 -0.91933111932E+02  0.10737773040E+03  0.00000000000E+00 0.  1.
<mgrwt>
<rscale>  0 0.50129455E+03</rscale>
<asrwt>0</asrwt>
<pdfrwt beam="1">  1        1 0.34374977E+00 0.50129455E+03</pdfrwt>
<pdfrwt beam="2">  1       -1 0.10968209E+00 0.50129455E+03</pdfrwt>
<totfact> 0.17897257E+00</totfact>
</mgrwt>
</event>
<event>
12    1  0.3147868E-008  0.6671945E+03  0.7818608E-02  0.9775039E-01
          2   -1    0    0  501    0  0.00000000000E+00  0.00000000000E+00  0.52641141315E+03  0.52641141315E+03  0.00000000000E+00 0. -1.
         -2   -1    0    0    0  501 -0.00000000000E+00 -0.00000000000E+00 -0.97252530527E+03  0.97252530527E+03  0.00000000000E+00 0.  1.
         23    2    1    2    0    0 -0.50097112641E+03 -0.24152736059E+03 -0.37665042521E+03  0.67786524424E+03  0.91259033104E+02 0.  0.
    5000000    2    1    2    0    0  0.50097112641E+03  0.24152736059E+03 -0.69463466908E+02  0.82107147419E+03  0.60002138053E+03 0.  0.
         23    2    4    4    0    0  0.59129210246E+03  0.88415756553E+02  0.13531472066E+02  0.60488127513E+03  0.90854608239E+02 0.  0.
         23    2    4    4    0    0 -0.90320976049E+02  0.15311160404E+03 -0.82994938974E+02  0.21619019906E+03  0.90824007111E+02 0.  0.
          5    1    3    3  502    0 -0.20165204931E+03 -0.11166593737E+03 -0.10525252064E+03  0.25344232808E+03  0.47000000000E+01 0. -1.
         -5    1    3    3    0  502 -0.29931907710E+03 -0.12986142322E+03 -0.27139790457E+03  0.42442291616E+03  0.47000000000E+01 0.  1.
         13    1    5    5    0    0  0.81839132964E+02 -0.19411708630E+01  0.30078023497E+02  0.87212953890E+02  0.00000000000E+00 0. -1.
        -13    1    5    5    0    0  0.50945296949E+03  0.90356927416E+02 -0.16546551431E+02  0.51766832124E+03  0.00000000000E+00 0.  1.
          1    1    6    6  503    0 -0.24539514711E+02  0.53876281337E+02  0.16029277033E+02  0.61333344888E+02  0.00000000000E+00 0. -1.
         -1    1    6    6    0  503 -0.65781461338E+02  0.99235322700E+02 -0.99024216008E+02  0.15485685417E+03  0.00000000000E+00 0.  1.
<mgrwt>
<rscale>  0 0.66719450E+03</rscale>
<asrwt>0</asrwt>
<pdfrwt beam="1">  1        2 0.80986371E-01 0.66719450E+03</pdfrwt>
<pdfrwt beam="2">  1       -2 0.14961928E+00 0.66719450E+03</pdfrwt>
<totfact> 0.17872488E+01</totfact>
</mgrwt>
</event>
<event>
12    1  0.4963140E-008  0.1108822E+04  0.7818608E-02  0.9196636E-01
          2   -1    0    0  501    0  0.00000000000E+00  0.00000000000E+00  0.11527178415E+04  0.11527178415E+04  0.00000000000E+00 0. -1.
         -2   -1    0    0    0  501 -0.00000000000E+00 -0.00000000000E+00 -0.12438832191E+04  0.12438832191E+04  0.00000000000E+00 0.  1.
         23    2    1    2    0    0  0.97607373224E+03  0.45519487363E+03  0.26583004001E+03  0.11130490213E+04  0.91050589215E+02 0.  0.
    5000000    2    1    2    0    0 -0.97607373224E+03 -0.45519487363E+03 -0.35699541765E+03  0.12835520394E+04  0.60011482716E+03 0.  0.
         23    2    4    4    0    0 -0.91125015267E+03 -0.46309091499E+03 -0.46577860408E+03  0.11268656854E+04  0.89702444424E+02 0.  0.
         23    2    4    4    0    0 -0.64823579575E+02  0.78960413637E+01  0.10878318643E+03  0.15668635400E+03  0.91936869335E+02 0.  0.
          5    1    3    3  502    0  0.50317116812E+03  0.28117084676E+03  0.15855480528E+03  0.59782939521E+03  0.47000000000E+01 0. -1.
         -5    1    3    3    0  502  0.47290256412E+03  0.17402402687E+03  0.10727523473E+03  0.51521962605E+03  0.47000000000E+01 0.  1.
         13    1    5    5    0    0 -0.44418767903E+03 -0.26901444463E+03 -0.21085174156E+03  0.56047294541E+03  0.00000000000E+00 0. -1.
        -13    1    5    5    0    0 -0.46706247364E+03 -0.19407647036E+03 -0.25492686252E+03  0.56639273995E+03  0.00000000000E+00 0.  1.
          4    1    6    6  503    0 -0.20988047350E+01 -0.35743438515E+02  0.27679610036E+02  0.45256592779E+02  0.00000000000E+00 0. -1.
         -4    1    6    6    0  503 -0.62724774840E+02  0.43639479879E+02  0.81103576391E+02  0.11142976122E+03  0.00000000000E+00 0.  1.
<mgrwt>
<rscale>  0 0.11088219E+04</rscale>
<asrwt>0</asrwt>
<pdfrwt beam="1">  1        2 0.17734121E+00 0.11088219E+04</pdfrwt>
<pdfrwt beam="2">  1       -2 0.19136665E+00 0.11088219E+04</pdfrwt>
<totfact> 0.30086455E+00</totfact>
</mgrwt>
</event>
<event>
12    1  0.3147868E-008  0.5616750E+03  0.7818608E-02  0.9988272E-01
          1   -1    0    0  501    0  0.00000000000E+00  0.00000000000E+00  0.72241550937E+03  0.72241550937E+03  0.00000000000E+00 0. -1.
         -1   -1    0    0    0  501 -0.00000000000E+00 -0.00000000000E+00 -0.72447062789E+03  0.72447062789E+03  0.00000000000E+00 0.  1.
         23    2    1    2    0    0  0.36860320010E+03  0.38131700108E+03 -0.26903810437E+03  0.60276271978E+03  0.98338295300E+02 0.  0.
    5000000    2    1    2    0    0 -0.36860320010E+03 -0.38131700108E+03  0.26698298586E+03  0.84412341747E+03  0.59999454560E+03 0.  0.
         23    2    4    4    0    0 -0.59488717546E+02 -0.38788364689E+02 -0.16740170396E+03  0.20374110072E+03  0.91889394830E+02 0.  0.
         23    2    4    4    0    0 -0.30911448256E+03 -0.34252863639E+03  0.43438468982E+03  0.64038231675E+03  0.92313719396E+02 0.  0.
          5    1    3    3  502    0  0.49646803303E+02  0.10283691821E+03 -0.38332615116E+02  0.12054756824E+03  0.47000000000E+01 0. -1.
         -5    1    3    3    0  502  0.31895639680E+03  0.27848008286E+03 -0.23070548925E+03  0.48221515155E+03  0.47000000000E+01 0.  1.
         11    1    5    5    0    0  0.16599206131E+02  0.15316851956E+02 -0.28223489376E+02  0.36148374107E+02  0.00000000000E+00 0. -1.
        -11    1    5    5    0    0 -0.76087923678E+02 -0.54105216645E+02 -0.13917821459E+03  0.16759272661E+03  0.00000000000E+00 0.  1.
          2    1    6    6  503    0 -0.97916062815E+02 -0.53149775173E+02  0.86919814773E+02  0.14130643353E+03  0.00000000000E+00 0. -1.
         -2    1    6    6    0  503 -0.21119841974E+03 -0.28937886121E+03  0.34746487504E+03  0.49907588322E+03  0.00000000000E+00 0.  1.
<mgrwt>
<rscale>  0 0.56167499E+03</rscale>
<asrwt>0</asrwt>
<pdfrwt beam="1">  1        1 0.11114085E+00 0.56167499E+03</pdfrwt>
<pdfrwt beam="2">  1       -1 0.11145702E+00 0.56167499E+03</pdfrwt>
<totfact> 0.20218386E+01</totfact>
</mgrwt>
</event>
<event>
12    1  0.3147868E-008  0.4060049E+03  0.7818608E-02  0.1041720E+00
          1   -1    0    0  501    0  0.00000000000E+00  0.00000000000E+00  0.79539133851E+03  0.79539133851E+03  0.00000000000E+00 0. -1.
         -1   -1    0    0    0  501 -0.00000000000E+00 -0.00000000000E+00 -0.24611371379E+03  0.24611371379E+03  0.00000000000E+00 0.  1.
         23    2    1    2    0    0  0.13325622078E+03 -0.17814819527E+03  0.19168418324E+03  0.30686127983E+03  0.89033808743E+02 0.  0.
    5000000    2    1    2    0    0 -0.13325622078E+03  0.17814819527E+03  0.35759344148E+03  0.73464377247E+03  0.60194219256E+03 0.  0.
         23    2    4    4    0    0  0.20194452723E+03  0.13369931362E+03  0.26793493837E+03  0.37302034194E+03  0.93262778027E+02 0.  0.
         23    2    4    4    0    0 -0.33520074800E+03  0.44448881648E+02  0.89658503118E+02  0.36162343053E+03  0.91638495097E+02 0.  0.
          5    1    3    3  502    0  0.11858177080E+03 -0.14080328437E+03  0.19258139829E+03  0.26645240892E+03  0.47000000000E+01 0. -1.
         -5    1    3    3    0  502  0.14674449981E+02 -0.37344910906E+02 -0.89721505473E+00  0.40408870903E+02  0.47000000000E+01 0.  1.
         11    1    5    5    0    0  0.65416770855E+02  0.78108132151E+02  0.16244585659E+03  0.19175215915E+03  0.00000000000E+00 0. -1.
        -11    1    5    5    0    0  0.13652775637E+03  0.55591181474E+02  0.10548908178E+03  0.18126818279E+03  0.00000000000E+00 0.  1.
          4    1    6    6  503    0 -0.11321532444E+03  0.12656999033E+02  0.76025344734E+02  0.13695898056E+03  0.00000000000E+00 0. -1.
         -4    1    6    6    0  503 -0.22198542356E+03  0.31791882615E+02  0.13633158384E+02  0.22466444997E+03  0.00000000000E+00 0.  1.
<mgrwt>
<rscale>  0 0.40600492E+03</rscale>
<asrwt>0</asrwt>
<pdfrwt beam="1">  1        1 0.12236790E+00 0.40600492E+03</pdfrwt>
<pdfrwt beam="2">  1       -1 0.37863649E-01 0.40600492E+03</pdfrwt>
<totfact> 0.15709142E+02</totfact>
</mgrwt>
</event>
<event>
12    1  0.3147868E-008  0.1630157E+04  0.7818608E-02  0.8802233E-01
         -2   -1    0    0    0  501 -0.00000000000E+00  0.00000000000E+00  0.94512176206E+03  0.94512176206E+03  0.00000000000E+00 0.  1.
          2   -1    0    0  501    0  0.00000000000E+00 -0.00000000000E+00 -0.29493093290E+04  0.29493093290E+04  0.00000000000E+00 0. -1.
         23    2    1    2    0    0 -0.12408268635E+04 -0.98163231844E+03 -0.59719330697E+03  0.16938207882E+04  0.95580870974E+02 0.  0.
    5000000    2    1    2    0    0  0.12408268635E+04  0.98163231844E+03 -0.14069942600E+04  0.22006103029E+04  0.59983292979E+03 0.  0.
         23    2    4    4    0    0  0.59514803529E+03  0.14867597518E+03 -0.39370691472E+03  0.73544802804E+03  0.97841390770E+02 0.  0.
         23    2    4    4    0    0  0.64567882821E+03  0.83295634326E+03 -0.10132873453E+04  0.14651622748E+04  0.96082404860E+02 0.  0.
          5    1    3    3  502    0 -0.11450420647E+04 -0.89801637344E+03 -0.52172874376E+03  0.15458905877E+04  0.47000000000E+01 0. -1.
         -5    1    3    3    0  502 -0.95784798794E+02 -0.83615944995E+02 -0.75464563207E+02  0.14793020056E+03  0.47000000000E+01 0.  1.
         13    1    5    5    0    0  0.53025975055E+03  0.15988314611E+03 -0.33530319171E+03  0.64743050116E+03  0.00000000000E+00 0.  1.
        -13    1    5    5    0    0  0.64888284736E+02 -0.11207170929E+02 -0.58403723011E+02  0.88017526878E+02  0.00000000000E+00 0. -1.
          4    1    6    6  503    0  0.26805145024E+03  0.42342464186E+03 -0.47114472200E+03  0.68783526835E+03  0.00000000000E+00 0. -1.
         -4    1    6    6    0  503  0.37762737797E+03  0.40953170139E+03 -0.54214262326E+03  0.77732700648E+03  0.00000000000E+00 0.  1.
<mgrwt>
<rscale>  0 0.16301565E+04</rscale>
<asrwt>0</asrwt>
<pdfrwt beam="1">  1        2 0.45373990E+00 0.16301565E+04</pdfrwt>
<pdfrwt beam="2">  1       -2 0.14540335E+00 0.16301565E+04</pdfrwt>
<totfact> 0.56960758E-01</totfact>
</mgrwt>
</event>
<event>
12    1  0.3147868E-008  0.2226295E+04  0.7818608E-02  0.8507563E-01
          1   -1    0    0  501    0  0.00000000000E+00  0.00000000000E+00  0.14954898468E+04  0.14954898468E+04  0.00000000000E+00 0. -1.
         -1   -1    0    0    0  501 -0.00000000000E+00 -0.00000000000E+00 -0.34334371901E+04  0.34334371901E+04  0.00000000000E+00 0.  1.
         23    2    1    2    0    0 -0.21560849712E+04  0.54143309252E+03 -0.10621703104E+04  0.24654199111E+04  0.90759976792E+02 0.  0.
    5000000    2    1    2    0    0  0.21560849712E+04 -0.54143309252E+03 -0.87577703285E+03  0.24635071257E+04  0.60002479182E+03 0.  0.
         23    2    4    4    0    0  0.30484914553E+03 -0.12760875055E+03 -0.35617889988E+03  0.49461105096E+03  0.92518583360E+02 0.  0.
         23    2    4    4    0    0  0.18512358256E+04 -0.41382434196E+03 -0.51959813297E+03  0.19688960748E+04  0.90801241215E+02 0.  0.
          5    1    3    3  502    0 -0.15569420077E+04  0.38797517483E+03 -0.81092743132E+03  0.17978371841E+04  0.47000000000E+01 0. -1.
         -5    1    3    3    0  502 -0.59914296344E+03  0.15345791769E+03 -0.25124287912E+03  0.66758272704E+03  0.47000000000E+01 0.  1.
         11    1    5    5    0    0  0.28962304889E+03 -0.12277375359E+03 -0.29455321162E+03  0.43094837219E+03  0.00000000000E+00 0. -1.
        -11    1    5    5    0    0  0.15226096635E+02 -0.48349969640E+01 -0.61625688262E+02  0.63662678770E+02  0.00000000000E+00 0.  1.
          1    1    6    6  503    0  0.51001754830E+03 -0.73765515789E+02 -0.15068131720E+03  0.53690232840E+03  0.00000000000E+00 0. -1.
         -1    1    6    6    0  503  0.13412182773E+04 -0.34005882617E+03 -0.36891681577E+03  0.14319937464E+04  0.00000000000E+00 0.  1.
<mgrwt>
<rscale>  0 0.22262948E+04</rscale>
<asrwt>0</asrwt>
<pdfrwt beam="1">  1        1 0.23007536E+00 0.22262948E+04</pdfrwt>
<pdfrwt beam="2">  1       -1 0.52822110E+00 0.22262948E+04</pdfrwt>
<totfact> 0.56514558E-03</totfact>
</mgrwt>
</event>
<event>
12    1  0.3147868E-008  0.8874190E+03  0.7818608E-02  0.9441446E-01
          1   -1    0    0  501    0  0.00000000000E+00  0.00000000000E+00  0.16003925466E+04  0.16003925466E+04  0.00000000000E+00 0. -1.
         -1   -1    0    0    0  501 -0.00000000000E+00 -0.00000000000E+00 -0.10254879341E+04  0.10254879341E+04  0.00000000000E+00 0.  1.
         23    2    1    2    0    0  0.56002383578E+03  0.57077359684E+03 -0.65741615457E+03  0.10390571343E+04  0.89635554695E+02 0.  0.
    5000000    2    1    2    0    0 -0.56002383578E+03 -0.57077359684E+03  0.12323207671E+04  0.15868233464E+04  0.59998721985E+03 0.  0.
         23    2    4    4    0    0  0.98571922701E+02 -0.18895196138E+03  0.25578843305E+03  0.34523779328E+03  0.91335336925E+02 0.  0.
         23    2    4    4    0    0 -0.65859575848E+03 -0.38182163545E+03  0.97653233407E+03  0.12415855531E+04  0.91559552954E+02 0.  0.
          5    1    3    3  502    0  0.28989620111E+03  0.29288323837E+03 -0.39615468909E+03  0.57164764184E+03  0.47000000000E+01 0. -1.
         -5    1    3    3    0  502  0.27012763467E+03  0.27789035847E+03 -0.26126146548E+03  0.46740949251E+03  0.47000000000E+01 0.  1.
         13    1    5    5    0    0  0.80662709802E+02 -0.13794376287E+03  0.24104647383E+03  0.28920296854E+03  0.00000000000E+00 0. -1.
        -13    1    5    5    0    0  0.17909212900E+02 -0.51008198511E+02  0.14741959224E+02  0.56034824741E+02  0.00000000000E+00 0.  1.
          2    1    6    6  503    0 -0.19207175779E+03 -0.11375825297E+03  0.35672910708E+03  0.42081843602E+03  0.00000000000E+00 0. -1.
         -2    1    6    6    0  503 -0.46652400069E+03 -0.26806338248E+03  0.61980322699E+03  0.82076711706E+03  0.00000000000E+00 0.  1.
<mgrwt>
<rscale>  0 0.88741900E+03</rscale>
<asrwt>0</asrwt>
<pdfrwt beam="1">  1        1 0.24621424E+00 0.88741900E+03</pdfrwt>
<pdfrwt beam="2">  1       -1 0.15776738E+00 0.88741900E+03</pdfrwt>
<totfact> 0.17353578E+00</totfact>
</mgrwt>
</event>
<event>
12    1  0.3147868E-008  0.3549316E+03  0.7818608E-02  0.1060609E+00
          1   -1    0    0  501    0  0.00000000000E+00  0.00000000000E+00  0.18909545823E+03  0.18909545823E+03  0.00000000000E+00 0. -1.
         -1   -1    0    0    0  501 -0.00000000000E+00 -0.00000000000E+00 -0.11453042590E+04  0.11453042590E+04  0.00000000000E+00 0.  1.
         23    2    1    2    0    0 -0.23483539457E+03  0.11561660597E+03 -0.29495081686E+03  0.40392176027E+03  0.87418201361E+02 0.  0.
    5000000    2    1    2    0    0  0.23483539457E+03 -0.11561660597E+03 -0.66125798394E+03  0.93047795701E+03  0.60001020410E+03 0.  0.
         23    2    4    4    0    0 -0.54458969013E+02  0.40533496268E+02 -0.56682818749E+03  0.57647916952E+03  0.80157938674E+02 0.  0.
         23    2    4    4    0    0  0.28929436359E+03 -0.15615010224E+03 -0.94429796456E+02  0.35399878749E+03  0.91236351607E+02 0.  0.
          5    1    3    3  502    0 -0.80060600902E+02  0.11490991272E+02 -0.13830719673E+03  0.16028946741E+03  0.47000000000E+01 0. -1.
         -5    1    3    3    0  502 -0.15477479367E+03  0.10412561470E+03 -0.15664362014E+03  0.24363229285E+03  0.47000000000E+01 0.  1.
         13    1    5    5    0    0  0.19876645472E+02  0.16461195476E+00 -0.13351524485E+03  0.13498677246E+03  0.00000000000E+00 0. -1.
        -13    1    5    5    0    0 -0.74335614485E+02  0.40368884313E+02 -0.43331294264E+03  0.44149239705E+03  0.00000000000E+00 0.  1.
          4    1    6    6  503    0  0.21548310984E+03 -0.75195812608E+02 -0.40129767740E+02  0.23172781258E+03  0.00000000000E+00 0.  1.
         -4    1    6    6    0  503  0.73811253742E+02 -0.80954289627E+02 -0.54300028716E+02  0.12227097491E+03  0.00000000000E+00 0. -1.
<mgrwt>
<rscale>  0 0.35493161E+03</rscale>
<asrwt>0</asrwt>
<pdfrwt beam="1">  1        1 0.29091609E-01 0.35493161E+03</pdfrwt>
<pdfrwt beam="2">  1       -1 0.17620065E+00 0.35493161E+03</pdfrwt>
<totfact> 0.37992928E+01</totfact>
</mgrwt>
</event>
<event>
12    1  0.3147868E-008  0.1618246E+04  0.7818608E-02  0.8809417E-01
          2   -1    0    0  501    0  0.00000000000E+00  0.00000000000E+00  0.36323185551E+04  0.36323185551E+04  0.00000000000E+00 0.  1.
         -2   -1    0    0    0  501 -0.00000000000E+00 -0.00000000000E+00 -0.74200258117E+03  0.74200258117E+03  0.00000000000E+00 0. -1.
         23    2    1    2    0    0 -0.13587863799E+04  0.78162794847E+03  0.17112142117E+04  0.23231014474E+04  0.10631829949E+03 0.  0.
    5000000    2    1    2    0    0  0.13587863799E+04 -0.78162794847E+03  0.11791017623E+04  0.20512196888E+04  0.59998214141E+03 0.  0.
         23    2    4    4    0    0  0.12892244247E+04 -0.83974992051E+03  0.10253550976E+04  0.18512635899E+04  0.92435150357E+02 0.  0.
         23    2    4    4    0    0  0.69561955213E+02  0.58121972034E+02  0.15374666466E+03  0.19995609889E+03  0.90151956960E+02 0.  0.
          5    1    3    3  502    0 -0.42046563221E+03  0.29756850888E+03  0.54391645704E+03  0.74913654802E+03  0.47000000000E+01 0. -1.
         -5    1    3    3    0  502 -0.93832074770E+03  0.48405943959E+03  0.11672977546E+04  0.15739648994E+04  0.47000000000E+01 0.  1.
         11    1    5    5    0    0  0.46548198017E+03 -0.35364342467E+03  0.40700213443E+03  0.71231164746E+03  0.00000000000E+00 0.  1.
        -11    1    5    5    0    0  0.82374244454E+03 -0.48610649584E+03  0.61835296318E+03  0.11389519425E+04  0.00000000000E+00 0. -1.
          2    1    6    6  503    0  0.51580415278E+02  0.80593777041E+02  0.96585338169E+02  0.13595816889E+03  0.00000000000E+00 0. -1.
         -2    1    6    6    0  503  0.17981539935E+02 -0.22471805007E+02  0.57161326488E+02  0.63997930002E+02  0.00000000000E+00 0.  1.
<mgrwt>
<rscale>  0 0.16182460E+04</rscale>
<asrwt>0</asrwt>
<pdfrwt beam="1">  1        2 0.55881823E+00 0.16182460E+04</pdfrwt>
<pdfrwt beam="2">  1       -2 0.11415424E+00 0.16182460E+04</pdfrwt>
<totfact> 0.37228097E-01</totfact>
</mgrwt>
</event>
<event>
12    1  0.3147868E-008  0.3696277E+03  0.7818608E-02  0.1054835E+00
          1   -1    0    0  501    0  0.00000000000E+00  0.00000000000E+00  0.16640103874E+04  0.16640103874E+04  0.00000000000E+00 0. -1.
         -1   -1    0    0    0  501 -0.00000000000E+00 -0.00000000000E+00 -0.22086561308E+03  0.22086561308E+03  0.00000000000E+00 0.  1.
         23    2    1    2    0    0  0.22685351682E+03 -0.82685853960E+02 -0.45611557302E+02  0.26174827087E+03  0.90179125087E+02 0.  0.
    5000000    2    1    2    0    0 -0.22685351682E+03  0.82685853960E+02  0.14887563317E+04  0.16231277297E+04  0.59987393939E+03 0.  0.
         23    2    4    4    0    0 -0.50177857782E+02  0.24103168246E+03  0.12394657014E+04  0.12671235806E+04  0.93342671238E+02 0.  0.
         23    2    4    4    0    0 -0.17667565904E+03 -0.15834582850E+03  0.24929063027E+03  0.35600414904E+03  0.91134219085E+02 0.  0.
          5    1    3    3  502    0  0.11516519340E+03 -0.32151821642E+02 -0.67116983183E+02  0.13719890976E+03  0.47000000000E+01 0. -1.
         -5    1    3    3    0  502  0.11168832342E+03 -0.50534032318E+02  0.21505425881E+02  0.12454936111E+03  0.47000000000E+01 0.  1.
         13    1    5    5    0    0 -0.64556652849E+02  0.18935535769E+03  0.10927034669E+04  0.11108662744E+04  0.00000000000E+00 0. -1.
        -13    1    5    5    0    0  0.14378795067E+02  0.51676324768E+02  0.14676223447E+03  0.15625730625E+03  0.00000000000E+00 0.  1.
          3    1    6    6  503    0 -0.14146885408E+03 -0.15163012173E+03  0.24326303754E+03  0.31965924970E+03  0.00000000000E+00 0. -1.
         -3    1    6    6    0  503 -0.35206804963E+02 -0.67157067707E+01  0.60275927332E+01  0.36344899330E+02  0.00000000000E+00 0.  1.
<mgrwt>
<rscale>  0 0.36962773E+03</rscale>
<asrwt>0</asrwt>
<pdfrwt beam="1">  1        1 0.25600159E+00 0.36962773E+03</pdfrwt>
<pdfrwt beam="2">  1       -1 0.33979326E-01 0.36962773E+03</pdfrwt>
<totfact> 0.45275878E+01</totfact>
</mgrwt>
</event>
<event>
12    1  0.3147868E-008  0.1060644E+04  0.7818608E-02  0.9244423E-01
         -2   -1    0    0    0  501 -0.00000000000E+00  0.00000000000E+00  0.52856874448E+03  0.52856874448E+03  0.00000000000E+00 0.  1.
          2   -1    0    0  501    0  0.00000000000E+00 -0.00000000000E+00 -0.24157930033E+04  0.24157930033E+04  0.00000000000E+00 0. -1.
         23    2    1    2    0    0  0.99253866828E+03 -0.67184933820E+02 -0.13118932029E+04  0.16478887144E+04  0.69473850035E+02 0.  0.
    5000000    2    1    2    0    0 -0.99253866828E+03  0.67184933820E+02 -0.57533105593E+03  0.12964730334E+04  0.60015804507E+03 0.  0.
         23    2    4    4    0    0 -0.10339627905E+04  0.11841695421E+03 -0.48436907332E+03  0.11513883871E+04  0.89331917833E+02 0.  0.
         23    2    4    4    0    0  0.41424122230E+02 -0.51232020393E+02 -0.90961982614E+02  0.14508464631E+03  0.91841137283E+02 0.  0.
          5    1    3    3  502    0  0.87679034120E+03 -0.80297752593E+02 -0.11683048858E+04  0.14629311083E+04  0.47000000000E+01 0. -1.
         -5    1    3    3    0  502  0.11574832708E+03  0.13112818773E+02 -0.14358831715E+03  0.18495760612E+03  0.47000000000E+01 0.  1.
         13    1    5    5    0    0 -0.45316171084E+02 -0.12036633772E+02 -0.14966312741E+02  0.49218151442E+02  0.00000000000E+00 0. -1.
        -13    1    5    5    0    0 -0.98864661942E+03  0.13045358799E+03 -0.46940276058E+03  0.11021702357E+04  0.00000000000E+00 0.  1.
          2    1    6    6  503    0  0.62997107266E+01 -0.43770400260E+02  0.31713891355E+01  0.44334997499E+02  0.00000000000E+00 0. -1.
         -2    1    6    6    0  503  0.35124411503E+02 -0.74616201334E+01 -0.94133371750E+02  0.10074964881E+03  0.00000000000E+00 0.  1.
<mgrwt>
<rscale>  0 0.10606445E+04</rscale>
<asrwt>0</asrwt>
<pdfrwt beam="1">  1        2 0.37166046E+00 0.10606445E+04</pdfrwt>
<pdfrwt beam="2">  1       -2 0.81318270E-01 0.10606445E+04</pdfrwt>
<totfact> 0.51916542E+00</totfact>
</mgrwt>
</event>
<event>
12    1  0.3147868E-008  0.5179380E+03  0.7818608E-02  0.1009200E+00
         -2   -1    0    0    0  501 -0.00000000000E+00  0.00000000000E+00  0.18727855554E+03  0.18727855554E+03  0.00000000000E+00 0.  1.
          2   -1    0    0  501    0  0.00000000000E+00 -0.00000000000E+00 -0.18126670716E+04  0.18126670716E+04  0.00000000000E+00 0. -1.
         23    2    1    2    0    0  0.36411400915E+03  0.80255379071E+02 -0.26313831107E+03  0.46540209227E+03  0.91309359890E+02 0.  0.
    5000000    2    1    2    0    0 -0.36411400915E+03 -0.80255379071E+02 -0.13622502050E+04  0.15345435349E+04  0.60006524806E+03 0.  0.
         23    2    4    4    0    0 -0.63112070372E+02  0.20853161185E+03 -0.76189519889E+03  0.79744070360E+03  0.89212191457E+02 0.  0.
         23    2    4    4    0    0 -0.30100193878E+03 -0.28878699092E+03 -0.60035500613E+03  0.73710283131E+03  0.94309900132E+02 0.  0.
          5    1    3    3  502    0  0.32061651917E+03  0.43741721761E+02 -0.24396686701E+03  0.40527794510E+03  0.47000000000E+01 0. -1.
         -5    1    3    3    0  502  0.43497489985E+02  0.36513657310E+02 -0.19171444055E+02  0.60124147165E+02  0.47000000000E+01 0.  1.
         13    1    5    5    0    0 -0.55435095365E+01  0.13204121584E+03 -0.33910902524E+03  0.36395129369E+03  0.00000000000E+00 0. -1.
        -13    1    5    5    0    0 -0.57568560836E+02  0.76490396008E+02 -0.42278617365E+03  0.43348940991E+03  0.00000000000E+00 0.  1.
          2    1    6    6  503    0 -0.20364936316E+03 -0.13154780510E+03 -0.35379996951E+03  0.42889661524E+03  0.00000000000E+00 0.  1.
         -2    1    6    6    0  503 -0.97352575616E+02 -0.15723918583E+03 -0.24655503662E+03  0.30820621607E+03  0.00000000000E+00 0. -1.
<mgrwt>
<rscale>  0 0.51793802E+03</rscale>
<asrwt>0</asrwt>
<pdfrwt beam="1">  1        2 0.27887186E+00 0.51793802E+03</pdfrwt>
<pdfrwt beam="2">  1       -2 0.28812085E-01 0.51793802E+03</pdfrwt>
<totfact> 0.98712380E+01</totfact>
</mgrwt>
</event>
<event>
12    1  0.3147868E-008  0.6041765E+03  0.7818608E-02  0.9896779E-01
          2   -1    0    0  501    0  0.00000000000E+00  0.00000000000E+00  0.27496965163E+04  0.27496965163E+04  0.00000000000E+00 0. -1.
         -2   -1    0    0    0  501 -0.00000000000E+00 -0.00000000000E+00 -0.15333363297E+03  0.15333363297E+03  0.00000000000E+00 0.  1.
         23    2    1    2    0    0 -0.43906888047E+03  0.23856770206E+03  0.84685301236E+03  0.98724264505E+03  0.88272223307E+02 0.  0.
    5000000    2    1    2    0    0  0.43906888047E+03 -0.23856770206E+03  0.17495098710E+04  0.19157875042E+04  0.59980075227E+03 0.  0.
         23    2    4    4    0    0  0.35525163391E+03 -0.38211632870E+03  0.90028440255E+03  0.10451726181E+04  0.98270972902E+02 0.  0.
         23    2    4    4    0    0  0.83817246565E+02  0.14354862664E+03  0.84922546842E+03  0.87061488611E+03  0.95680952494E+02 0.  0.
          5    1    3    3  502    0 -0.49671273515E+02  0.44036507387E+02  0.16922062121E+03  0.18183552469E+03  0.47000000000E+01 0. -1.
         -5    1    3    3    0  502 -0.38939760696E+03  0.19453119467E+03  0.67763239115E+03  0.80540712037E+03  0.47000000000E+01 0.  1.
         11    1    5    5    0    0  0.20687108906E+03 -0.16101543760E+03  0.39605958485E+03  0.47495769642E+03  0.00000000000E+00 0. -1.
        -11    1    5    5    0    0  0.14838054485E+03 -0.22110089110E+03  0.50422481770E+03  0.57021492169E+03  0.00000000000E+00 0.  1.
          2    1    6    6  503    0  0.34186276897E+02  0.10029172292E+02  0.33936558760E+03  0.34123054945E+03  0.00000000000E+00 0.  1.
         -2    1    6    6    0  503  0.49630969668E+02  0.13351945435E+03  0.50985988081E+03  0.52938433666E+03  0.00000000000E+00 0. -1.
<mgrwt>
<rscale>  0 0.60417649E+03</rscale>
<asrwt>0</asrwt>
<pdfrwt beam="1">  1        2 0.42303020E+00 0.60417649E+03</pdfrwt>
<pdfrwt beam="2">  1       -2 0.23589792E-01 0.60417649E+03</pdfrwt>
<totfact> 0.42354838E+01</totfact>
</mgrwt>
</event>
<event>
12    1  0.3147868E-008  0.4190158E+03  0.7818608E-02  0.1037387E+00
         -2   -1    0    0    0  501 -0.00000000000E+00  0.00000000000E+00  0.22959142049E+03  0.22959142049E+03  0.00000000000E+00 0.  1.
          2   -1    0    0  501    0  0.00000000000E+00 -0.00000000000E+00 -0.14520778421E+04  0.14520778421E+04  0.00000000000E+00 0. -1.
         23    2    1    2    0    0 -0.29811415260E+03 -0.14320509075E+03 -0.84500624967E+02  0.35338747542E+03  0.91447286265E+02 0.  0.
    5000000    2    1    2    0    0  0.29811415260E+03  0.14320509075E+03 -0.11379857967E+04  0.13282817872E+04  0.59995090363E+03 0.  0.
         23    2    4    4    0    0  0.36194663159E+03  0.34840573286E+02 -0.11046347934E+04  0.11666349067E+04  0.92734832007E+02 0.  0.
         23    2    4    4    0    0 -0.63832478987E+02  0.10836451747E+03 -0.33351003267E+02  0.16164688049E+03  0.95916476865E+02 0.  0.
          5    1    3    3  502    0 -0.20612512737E+03 -0.73965628500E+02 -0.92727254610E+02  0.23786322978E+03  0.47000000000E+01 0. -1.
         -5    1    3    3    0  502 -0.91989025233E+02 -0.69239462251E+02  0.82266296430E+01  0.11552424564E+03  0.47000000000E+01 0.  1.
         11    1    5    5    0    0  0.10147264150E+03 -0.17354643097E+02 -0.41568568802E+03  0.42824347262E+03  0.00000000000E+00 0. -1.
        -11    1    5    5    0    0  0.26047399009E+03  0.52195216383E+02 -0.68894910539E+03  0.73839143410E+03  0.00000000000E+00 0.  1.
          2    1    6    6  503    0 -0.13086389531E+01  0.48752804493E+02  0.27490681432E+02  0.55984694761E+02  0.00000000000E+00 0. -1.
         -2    1    6    6    0  503 -0.62523840034E+02  0.59611712973E+02 -0.60841684700E+02  0.10566218573E+03  0.00000000000E+00 0.  1.
<mgrwt>
<rscale>  0 0.41901577E+03</rscale>
<asrwt>0</asrwt>
<pdfrwt beam="1">  1        2 0.22339659E+00 0.41901577E+03</pdfrwt>
<pdfrwt beam="2">  1       -2 0.35321757E-01 0.41901577E+03</pdfrwt>
<totfact> 0.10754871E+02</totfact>
</mgrwt>
</event>
<event>
12    1  0.3147868E-008  0.8802917E+03  0.7818608E-02  0.9450559E-01
         -2   -1    0    0    0  501 -0.00000000000E+00  0.00000000000E+00  0.97119632856E+03  0.97119632856E+03  0.00000000000E+00 0.  1.
          2   -1    0    0  501    0  0.00000000000E+00 -0.00000000000E+00 -0.11396395819E+04  0.11396395819E+04  0.00000000000E+00 0. -1.
         23    2    1    2    0    0  0.74020474059E+03  0.31200106561E+03  0.45728703581E+03  0.92887927490E+03  0.91964945951E+02 0.  0.
    5000000    2    1    2    0    0 -0.74020474059E+03 -0.31200106561E+03 -0.62573028920E+03  0.11819566356E+04  0.60019611021E+03 0.  0.
         23    2    4    4    0    0  0.37729862835E+02  0.72357164767E+02 -0.13038445246E+03  0.17858308604E+03  0.90734289723E+02 0.  0.
         23    2    4    4    0    0 -0.77793460343E+03 -0.38435823037E+03 -0.49534583674E+03  0.10033735496E+04  0.92073261854E+02 0.  0.
          5    1    3    3  502    0  0.15012529938E+03  0.24768444752E+02  0.85365737741E+02  0.17452931143E+03  0.47000000000E+01 0. -1.
         -5    1    3    3    0  502  0.59007944121E+03  0.28723262085E+03  0.37192129807E+03  0.75434996347E+03  0.47000000000E+01 0.  1.
         11    1    5    5    0    0  0.25082305814E+02  0.56910983001E+02 -0.14232554867E+03  0.15532077728E+03  0.00000000000E+00 0.  1.
        -11    1    5    5    0    0  0.12647557021E+02  0.15446181767E+02  0.11941096211E+02  0.23262308752E+02  0.00000000000E+00 0. -1.
          2    1    6    6  503    0 -0.33491888457E+03 -0.19978736903E+03 -0.26122295748E+03  0.46938586002E+03  0.00000000000E+00 0. -1.
         -2    1    6    6    0  503 -0.44301571885E+03 -0.18457086134E+03 -0.23412287925E+03  0.53398768956E+03  0.00000000000E+00 0.  1.
<mgrwt>
<rscale>  0 0.88029173E+03</rscale>
<asrwt>0</asrwt>
<pdfrwt beam="1">  1        2 0.17532917E+00 0.88029173E+03</pdfrwt>
<pdfrwt beam="2">  1       -2 0.14941482E+00 0.88029173E+03</pdfrwt>
<totfact> 0.62612795E+00</totfact>
</mgrwt>
</event>
<event>
12    1  0.3147868E-008  0.1271079E+04  0.7818608E-02  0.9052819E-01
         -1   -1    0    0    0  501 -0.00000000000E+00  0.00000000000E+00  0.21814778970E+04  0.21814778970E+04  0.00000000000E+00 0.  1.
          1   -1    0    0  501    0  0.00000000000E+00 -0.00000000000E+00 -0.87920052206E+03  0.87920052206E+03  0.00000000000E+00 0. -1.
         23    2    1    2    0    0 -0.65917303129E+03 -0.10025883508E+04  0.12244800076E+04  0.17168963294E+04  0.93216043342E+02 0.  0.
    5000000    2    1    2    0    0  0.65917303129E+03  0.10025883508E+04  0.77797367374E+02  0.13437820897E+04  0.60000448987E+03 0.  0.
         23    2    4    4    0    0  0.63431398718E+03  0.10532648080E+04  0.85796457622E+02  0.12359154327E+04  0.91678429806E+02 0.  0.
         23    2    4    4    0    0  0.24859044113E+02 -0.50676457283E+02 -0.79990902479E+01  0.10786665695E+03  0.91570491092E+02 0.  0.
          5    1    3    3  502    0 -0.83507785569E+02 -0.18854208972E+03  0.19856881289E+03  0.28630985540E+03  0.47000000000E+01 0. -1.
         -5    1    3    3    0  502 -0.57566524572E+03 -0.81404626103E+03  0.10259111947E+04  0.14305864740E+04  0.47000000000E+01 0.  1.
         11    1    5    5    0    0  0.16439918270E+03  0.33851935844E+03  0.89374162236E+00  0.37632864107E+03  0.00000000000E+00 0.  1.
        -11    1    5    5    0    0  0.46991480448E+03  0.71474544959E+03  0.84902716000E+02  0.85958679164E+03  0.00000000000E+00 0. -1.
          4    1    6    6  503    0  0.58142647253E+02 -0.44685118585E+02 -0.10299662289E+01  0.73337494387E+02  0.00000000000E+00 0. -1.
         -4    1    6    6    0  503 -0.33283603140E+02 -0.59913386981E+01 -0.69691240189E+01  0.34529162558E+02  0.00000000000E+00 0.  1.
<mgrwt>
<rscale>  0 0.12710794E+04</rscale>
<asrwt>0</asrwt>
<pdfrwt beam="1">  1        1 0.13526162E+00 0.12710794E+04</pdfrwt>
<pdfrwt beam="2">  1       -1 0.33561198E+00 0.12710794E+04</pdfrwt>
<totfact> 0.35869257E-01</totfact>
</mgrwt>
</event>
<event>
12    1  0.3147868E-008  0.1111573E+04  0.7818608E-02  0.9193985E-01
         -2   -1    0    0    0  501 -0.00000000000E+00  0.00000000000E+00  0.20802474224E+04  0.20802474224E+04  0.00000000000E+00 0.  1.
          2   -1    0    0  501    0  0.00000000000E+00 -0.00000000000E+00 -0.90417942734E+03  0.90417942734E+03  0.00000000000E+00 0. -1.
         23    2    1    2    0    0 -0.71841443703E+03 -0.74282762026E+03  0.14260479399E+04  0.17635749590E+04  0.93122137661E+02 0.  0.
    5000000    2    1    2    0    0  0.71841443703E+03  0.74282762026E+03 -0.24997994476E+03  0.12208518908E+04  0.60006432125E+03 0.  0.
         23    2    4    4    0    0  0.78693659475E+03  0.73746559128E+03 -0.19717003485E+03  0.10995461038E+04  0.83671435823E+02 0.  0.
         23    2    4    4    0    0 -0.68522157724E+02  0.53620289886E+01 -0.52809909909E+02  0.12130578700E+03  0.84865599169E+02 0.  0.
          5    1    3    3  502    0 -0.24880590552E+03 -0.22326870966E+03  0.40051512459E+03  0.52171615880E+03  0.47000000000E+01 0. -1.
         -5    1    3    3    0  502 -0.46960853150E+03 -0.51955891061E+03  0.10255328153E+04  0.12418588002E+04  0.47000000000E+01 0.  1.
         13    1    5    5    0    0  0.39421999039E+03  0.33016612716E+03 -0.12480929667E+03  0.52914689159E+03  0.00000000000E+00 0. -1.
        -13    1    5    5    0    0  0.39271660436E+03  0.40729946411E+03 -0.72360738185E+02  0.57039921217E+03  0.00000000000E+00 0.  1.
          1    1    6    6  503    0 -0.26390752710E+00 -0.31078229347E+02 -0.21721740025E+02  0.37917805531E+02  0.00000000000E+00 0. -1.
         -1    1    6    6    0  503 -0.68258250197E+02  0.36440258336E+02 -0.31088169883E+02  0.83387981474E+02  0.00000000000E+00 0.  1.
<mgrwt>
<rscale>  0 0.11115728E+04</rscale>
<asrwt>0</asrwt>
<pdfrwt beam="1">  1        2 0.13910453E+00 0.11115728E+04</pdfrwt>
<pdfrwt beam="2">  1       -2 0.32003806E+00 0.11115728E+04</pdfrwt>
<totfact> 0.69152029E-01</totfact>
</mgrwt>
</event>
<event>
12    1  0.3147868E-008  0.4745512E+03  0.7818608E-02  0.1020643E+00
          1   -1    0    0  501    0  0.00000000000E+00  0.00000000000E+00  0.62805675608E+03  0.62805675608E+03  0.00000000000E+00 0. -1.
         -1   -1    0    0    0  501 -0.00000000000E+00 -0.00000000000E+00 -0.37355955803E+03  0.37355955803E+03  0.00000000000E+00 0.  1.
         23    2    1    2    0    0  0.27704390874E+03  0.81183455366E+02  0.64433107673E+02  0.30972272333E+03  0.91828422550E+02 0.  0.
    5000000    2    1    2    0    0 -0.27704390874E+03 -0.81183455366E+02  0.19006409038E+03  0.69189359078E+03  0.59937325743E+03 0.  0.
         23    2    4    4    0    0  0.17605273349E+03 -0.14480010736E+02  0.70221121949E+02  0.20917837991E+03  0.87294633141E+02 0.  0.
         23    2    4    4    0    0 -0.45309664224E+03 -0.66703444631E+02  0.11984296843E+03  0.48271521087E+03  0.94370127644E+02 0.  0.
          5    1    3    3  502    0  0.22124125260E+03  0.83538514929E+02  0.83005861444E+02  0.25067596287E+03  0.47000000000E+01 0. -1.
         -5    1    3    3    0  502  0.55802656147E+02 -0.23550595630E+01 -0.18572753771E+02  0.59046760464E+02  0.47000000000E+01 0.  1.
         13    1    5    5    0    0 -0.65901921089E+01  0.14786952817E+01  0.16966959192E+02  0.18261842076E+02  0.00000000000E+00 0.  1.
        -13    1    5    5    0    0  0.18264292560E+03 -0.15958706018E+02  0.53254162757E+02  0.19091653784E+03  0.00000000000E+00 0. -1.
          3    1    6    6  503    0 -0.25568219562E+03 -0.81763385499E+02  0.52011015206E+02  0.27342966567E+03  0.00000000000E+00 0. -1.
         -3    1    6    6    0  503 -0.19741444662E+03  0.15059940868E+02  0.67831953219E+02  0.20928554520E+03  0.00000000000E+00 0.  1.
<mgrwt>
<rscale>  0 0.47455116E+03</rscale>
<asrwt>0</asrwt>
<pdfrwt beam="1">  1        1 0.96624116E-01 0.47455116E+03</pdfrwt>
<pdfrwt beam="2">  1       -1 0.57470701E-01 0.47455116E+03</pdfrwt>
<totfact> 0.10246369E+02</totfact>
</mgrwt>
</event>
<event>
12    1  0.3147868E-008  0.7272695E+03  0.7818608E-02  0.9671702E-01
         -1   -1    0    0    0  501 -0.00000000000E+00  0.00000000000E+00  0.31750969875E+03  0.31750969875E+03  0.00000000000E+00 0.  1.
          1   -1    0    0  501    0  0.00000000000E+00 -0.00000000000E+00 -0.21138388728E+04  0.21138388728E+04  0.00000000000E+00 0. -1.
         23    2    1    2    0    0  0.60582758252E+03 -0.19376418301E+03 -0.12381813135E+04  0.13949959617E+04  0.91373681311E+02 0.  0.
    5000000    2    1    2    0    0 -0.60582758252E+03  0.19376418301E+03 -0.55814786054E+03  0.10363526099E+04  0.59826923653E+03 0.  0.
         23    2    4    4    0    0 -0.50140448943E+03  0.35701985112E+03 -0.53603805430E+03  0.82067140499E+03  0.85411493248E+02 0.  0.
         23    2    4    4    0    0 -0.10442309308E+03 -0.16325566811E+03 -0.22109806234E+02  0.21568120487E+03  0.92048590763E+02 0.  0.
          5    1    3    3  502    0  0.26372747301E+03 -0.90711992489E+02 -0.64134085328E+03  0.69937187940E+03  0.47000000000E+01 0. -1.
         -5    1    3    3    0  502  0.34210010950E+03 -0.10305219052E+03 -0.59684046023E+03  0.69562408229E+03  0.47000000000E+01 0.  1.
         11    1    5    5    0    0 -0.43138213319E+03  0.29037657310E+03 -0.41215740994E+03  0.66353811466E+03  0.00000000000E+00 0.  1.
        -11    1    5    5    0    0 -0.70022356240E+02  0.66643278023E+02 -0.12388064436E+03  0.15713329032E+03  0.00000000000E+00 0. -1.
          3    1    6    6  503    0 -0.64867914196E+02 -0.14333072461E+03  0.14809091193E+02  0.15802168234E+03  0.00000000000E+00 0. -1.
         -3    1    6    6    0  503 -0.39555178889E+02 -0.19924943506E+02 -0.36918897427E+02  0.57659522526E+02  0.00000000000E+00 0.  1.
<mgrwt>
<rscale>  0 0.72726953E+03</rscale>
<asrwt>0</asrwt>
<pdfrwt beam="1">  1        1 0.32520598E+00 0.72726953E+03</pdfrwt>
<pdfrwt beam="2">  1       -1 0.48847646E-01 0.72726953E+03</pdfrwt>
<totfact> 0.10994862E+01</totfact>
</mgrwt>
</event>
<event>
12    1  0.3147868E-008  0.9897887E+03  0.7818608E-02  0.9319816E-01
          2   -1    0    0  501    0  0.00000000000E+00  0.00000000000E+00  0.10611408462E+04  0.10611408462E+04  0.00000000000E+00 0. -1.
         -2   -1    0    0    0  501 -0.00000000000E+00 -0.00000000000E+00 -0.10478083036E+04  0.10478083036E+04  0.00000000000E+00 0.  1.
         23    2    1    2    0    0 -0.68244691658E+03  0.67428352339E+03  0.12357923449E+03  0.97156574530E+03  0.90973107984E+02 0.  0.
    5000000    2    1    2    0    0  0.68244691658E+03 -0.67428352339E+03 -0.11024669187E+03  0.11373834045E+04  0.60091148423E+03 0.  0.
         23    2    4    4    0    0  0.22227234367E+03 -0.49926754276E+02  0.18003274019E+03  0.30395154503E+03  0.89872568857E+02 0.  0.
         23    2    4    4    0    0  0.46017457290E+03 -0.62435676911E+03 -0.29027943206E+03  0.83343185946E+03  0.93618924360E+02 0.  0.
          5    1    3    3  502    0 -0.31183704451E+03  0.28376389184E+03  0.12559474367E+02  0.42183423170E+03  0.47000000000E+01 0. -1.
         -5    1    3    3    0  502 -0.37060987207E+03  0.39051963155E+03  0.11101976012E+03  0.54973151360E+03  0.47000000000E+01 0.  1.
         11    1    5    5    0    0  0.58251821710E+02  0.25067033245E+02  0.34424372256E+02  0.72157246992E+02  0.00000000000E+00 0. -1.
        -11    1    5    5    0    0  0.16402052197E+03 -0.74993787521E+02  0.14560836793E+03  0.23179429804E+03  0.00000000000E+00 0.  1.
          3    1    6    6  503    0  0.35650702276E+03 -0.47313894396E+03 -0.17859209663E+03  0.61875104408E+03  0.00000000000E+00 0. -1.
         -3    1    6    6    0  503  0.10366755014E+03 -0.15121782515E+03 -0.11168733543E+03  0.21468081538E+03  0.00000000000E+00 0.  1.
<mgrwt>
<rscale>  0 0.98978868E+03</rscale>
<asrwt>0</asrwt>
<pdfrwt beam="1">  1        2 0.16325244E+00 0.98978868E+03</pdfrwt>
<pdfrwt beam="2">  1       -2 0.16120128E+00 0.98978868E+03</pdfrwt>
<totfact> 0.56400512E+00</totfact>
</mgrwt>
</event>
<event>
12    1  0.3147868E-008  0.1528447E+04  0.7818608E-02  0.8865753E-01
          2   -1    0    0  501    0  0.00000000000E+00  0.00000000000E+00  0.24244796077E+04  0.24244796077E+04  0.00000000000E+00 0. -1.
         -2   -1    0    0    0  501 -0.00000000000E+00 -0.00000000000E+00 -0.10100822491E+04  0.10100822491E+04  0.00000000000E+00 0.  1.
         23    2    1    2    0    0 -0.14266984922E+03  0.14665303289E+04  0.10236977183E+04  0.17963728563E+04  0.89064744572E+02 0.  0.
    5000000    2    1    2    0    0  0.14266984922E+03 -0.14665303289E+04  0.39069964022E+03  0.16381890004E+04  0.59995924922E+03 0.  0.
         23    2    4    4    0    0  0.29533689426E+03 -0.41122961457E+03  0.19791310895E+03  0.55109005737E+03  0.90537150514E+02 0.  0.
         23    2    4    4    0    0 -0.15266704505E+03 -0.10553007144E+04  0.19278653127E+03  0.10870989431E+04  0.87467942718E+02 0.  0.
          5    1    3    3  502    0  0.11793790739E+02  0.95071284901E+02  0.71460230829E+02  0.11960893488E+03  0.47000000000E+01 0. -1.
         -5    1    3    3    0  502 -0.15446363996E+03  0.13714590440E+04  0.95223748752E+03  0.16767639214E+04  0.47000000000E+01 0.  1.
         13    1    5    5    0    0  0.12135611172E+03 -0.22826420309E+03  0.13140327812E+03  0.28999771338E+03  0.00000000000E+00 0. -1.
        -13    1    5    5    0    0  0.17398078255E+03 -0.18296541148E+03  0.66509830830E+02  0.26109234399E+03  0.00000000000E+00 0.  1.
          2    1    6    6  503    0 -0.82176965241E+02 -0.29349361080E+03  0.58306929675E+02  0.31030831643E+03  0.00000000000E+00 0. -1.
         -2    1    6    6    0  503 -0.70490079805E+02 -0.76180710357E+03  0.13447960160E+03  0.77679062665E+03  0.00000000000E+00 0.  1.
<mgrwt>
<rscale>  0 0.15284467E+04</rscale>
<asrwt>0</asrwt>
<pdfrwt beam="1">  1        2 0.37299686E+00 0.15284467E+04</pdfrwt>
<pdfrwt beam="2">  1       -2 0.15539727E+00 0.15284467E+04</pdfrwt>
<totfact> 0.98765720E-01</totfact>
</mgrwt>
</event>
<event>
12    1  0.3147868E-008  0.7918343E+03  0.7818608E-02  0.9571912E-01
          1   -1    0    0  501    0  0.00000000000E+00  0.00000000000E+00  0.13121762980E+04  0.13121762980E+04  0.00000000000E+00 0. -1.
         -1   -1    0    0    0  501 -0.00000000000E+00 -0.00000000000E+00 -0.55014003110E+03  0.55014003110E+03  0.00000000000E+00 0.  1.
         23    2    1    2    0    0  0.76928223742E-01 -0.70307355537E+03  0.78207851061E+02  0.71253965488E+03  0.85345542512E+02 0.  0.
    5000000    2    1    2    0    0 -0.76928223742E-01  0.70307355537E+03  0.68382841581E+03  0.11497766742E+04  0.60004388847E+03 0.  0.
         23    2    4    4    0    0 -0.67105091813E+02 -0.51883387350E+02  0.22907733451E+03  0.26125640273E+03  0.92647199370E+02 0.  0.
         23    2    4    4    0    0  0.67028163589E+02  0.75495694272E+03  0.45475108130E+03  0.88852027147E+03  0.90647486415E+02 0.  0.
          5    1    3    3  502    0 -0.32906728450E+00 -0.43163026975E+03  0.89433612639E+02  0.44082338767E+03  0.47000000000E+01 0. -1.
         -5    1    3    3    0  502  0.40599550825E+00 -0.27144328562E+03 -0.11225761578E+02  0.27171626720E+03  0.47000000000E+01 0.  1.
         11    1    5    5    0    0 -0.45614026388E+02 -0.75987380514E+02  0.13237416250E+03  0.15930361044E+03  0.00000000000E+00 0.  1.
        -11    1    5    5    0    0 -0.21491065425E+02  0.24103993164E+02  0.96703172010E+02  0.10195279229E+03  0.00000000000E+00 0. -1.
          2    1    6    6  503    0  0.30780483858E+02  0.12974501086E+03  0.11471321742E+03  0.17589863069E+03  0.00000000000E+00 0. -1.
         -2    1    6    6    0  503  0.36247679731E+02  0.62521193187E+03  0.34003786388E+03  0.71262164078E+03  0.00000000000E+00 0.  1.
<mgrwt>
<rscale>  0 0.79183430E+03</rscale>
<asrwt>0</asrwt>
<pdfrwt beam="1">  1        1 0.20187328E+00 0.79183430E+03</pdfrwt>
<pdfrwt beam="2">  1       -1 0.84636928E-01 0.79183430E+03</pdfrwt>
<totfact> 0.12606571E+01</totfact>
</mgrwt>
</event>
<event>
12    1  0.3147868E-008  0.8716097E+03  0.7818608E-02  0.9461783E-01
          2   -1    0    0  501    0  0.00000000000E+00  0.00000000000E+00  0.15726917109E+04  0.15726917109E+04  0.00000000000E+00 0.  1.
         -2   -1    0    0    0  501 -0.00000000000E+00 -0.00000000000E+00 -0.10241801679E+04  0.10241801679E+04  0.00000000000E+00 0. -1.
         23    2    1    2    0    0 -0.76664999998E+03  0.25091582892E+03  0.11631692101E+04  0.14185043102E+04  0.92091753851E+02 0.  0.
    5000000    2    1    2    0    0  0.76664999998E+03 -0.25091582892E+03 -0.61465766709E+03  0.11783675686E+04  0.60002925199E+03 0.  0.
         23    2    4    4    0    0  0.25179758022E+03  0.13623983895E+03 -0.26142142581E+02  0.30172596803E+03  0.91606948665E+02 0.  0.
         23    2    4    4    0    0  0.51485241976E+03 -0.38715566787E+03 -0.58851552451E+03  0.87664160052E+03  0.84778817430E+02 0.  0.
          5    1    3    3  502    0 -0.40355029322E+03  0.10315577948E+03  0.66304190728E+03  0.78303295895E+03  0.47000000000E+01 0. -1.
         -5    1    3    3    0  502 -0.36309970676E+03  0.14776004944E+03  0.50012730283E+03  0.63547135128E+03  0.47000000000E+01 0.  1.
         13    1    5    5    0    0  0.76041152323E+02  0.36790916117E+02 -0.50346172564E+02  0.98339033182E+02  0.00000000000E+00 0.  1.
        -13    1    5    5    0    0  0.17575642790E+03  0.99448922834E+02  0.24204029984E+02  0.20338693485E+03  0.00000000000E+00 0. -1.
          2    1    6    6  503    0  0.47550572543E+03 -0.32990759673E+03 -0.50575398154E+03  0.76859079303E+03  0.00000000000E+00 0. -1.
         -2    1    6    6    0  503  0.39346694329E+02 -0.57248071142E+02 -0.82761542974E+02  0.10805080749E+03  0.00000000000E+00 0.  1.
<mgrwt>
<rscale>  0 0.87160971E+03</rscale>
<asrwt>0</asrwt>
<pdfrwt beam="1">  1        2 0.24195257E+00 0.87160971E+03</pdfrwt>
<pdfrwt beam="2">  1       -2 0.15756618E+00 0.87160971E+03</pdfrwt>
<totfact> 0.30634943E+00</totfact>
</mgrwt>
</event>
<event>
12    1  0.3147868E-008  0.4539210E+03  0.7818608E-02  0.1026559E+00
         -2   -1    0    0    0  501 -0.00000000000E+00  0.00000000000E+00  0.31201509136E+03  0.31201509136E+03  0.00000000000E+00 0.  1.
          2   -1    0    0  501    0  0.00000000000E+00 -0.00000000000E+00 -0.16614913130E+04  0.16614913130E+04  0.00000000000E+00 0. -1.
         23    2    1    2    0    0  0.27192810824E+03  0.35163093553E+03 -0.10938146408E+04  0.11840818545E+04  0.89611152997E+02 0.  0.
    5000000    2    1    2    0    0 -0.27192810824E+03 -0.35163093553E+03 -0.25566158085E+03  0.78942454992E+03  0.60019918796E+03 0.  0.
         23    2    4    4    0    0 -0.19591898901E+03 -0.20721305815E+03 -0.43619475102E+03  0.52843276081E+03  0.87486114061E+02 0.  0.
         23    2    4    4    0    0 -0.76009119230E+02 -0.14441787737E+03  0.18053317017E+03  0.26099178911E+03  0.94289866596E+02 0.  0.
          5    1    3    3  502    0  0.14170898523E+03  0.24942400775E+03 -0.72960344883E+03  0.78398791743E+03  0.47000000000E+01 0. -1.
         -5    1    3    3    0  502  0.13021912300E+03  0.10220692778E+03 -0.36421119200E+03  0.40009393704E+03  0.47000000000E+01 0.  1.
         13    1    5    5    0    0 -0.23644254457E+02 -0.63367256719E+02 -0.60182674320E+02  0.90534050397E+02  0.00000000000E+00 0. -1.
        -13    1    5    5    0    0 -0.17227473455E+03 -0.14384580144E+03 -0.37601207670E+03  0.43789871041E+03  0.00000000000E+00 0.  1.
          3    1    6    6  503    0 -0.41632418345E+02 -0.83870475654E+02  0.35549223561E+02  0.10015618922E+03  0.00000000000E+00 0. -1.
         -3    1    6    6    0  503 -0.34376700885E+02 -0.60547401717E+02  0.14498394661E+03  0.16083559989E+03  0.00000000000E+00 0.  1.
<mgrwt>
<rscale>  0 0.45392102E+03</rscale>
<asrwt>0</asrwt>
<pdfrwt beam="1">  1        2 0.25561404E+00 0.45392102E+03</pdfrwt>
<pdfrwt beam="2">  1       -2 0.48002322E-01 0.45392102E+03</pdfrwt>
<totfact> 0.45306396E+01</totfact>
</mgrwt>
</event>
<event>
12    1  0.3147868E-008  0.8229589E+03  0.7818608E-02  0.9527367E-01
          1   -1    0    0  501    0  0.00000000000E+00  0.00000000000E+00  0.16339783073E+04  0.16339783073E+04  0.00000000000E+00 0. -1.
         -1   -1    0    0    0  501 -0.00000000000E+00 -0.00000000000E+00 -0.48405988129E+03  0.48405988129E+03  0.00000000000E+00 0.  1.
         23    2    1    2    0    0 -0.60638592147E+03  0.47464698979E+03  0.32832852483E+03  0.84210000279E+03  0.91318912671E+02 0.  0.
    5000000    2    1    2    0    0  0.60638592147E+03 -0.47464698979E+03  0.82158990115E+03  0.12759381858E+04  0.60001219784E+03 0.  0.
         23    2    4    4    0    0  0.12378670353E+03  0.58586078008E+02 -0.20550718190E+02  0.16470614387E+03  0.89164484526E+02 0.  0.
         23    2    4    4    0    0  0.48259921793E+03 -0.53323306779E+03  0.84214061934E+03  0.11112320419E+04  0.91631427265E+02 0.  0.
          5    1    3    3  502    0 -0.38312904847E+03  0.24308194189E+03  0.19187508031E+03  0.49266097339E+03  0.47000000000E+01 0. -1.
         -5    1    3    3    0  502 -0.22325687300E+03  0.23156504789E+03  0.13645344452E+03  0.34943902940E+03  0.47000000000E+01 0.  1.
         11    1    5    5    0    0  0.20153756305E+02  0.38881087916E+02  0.24292952501E+02  0.50080539453E+02  0.00000000000E+00 0.  1.
        -11    1    5    5    0    0  0.10363294723E+03  0.19704990093E+02 -0.44843670691E+02  0.11462560441E+03  0.00000000000E+00 0. -1.
          2    1    6    6  503    0  0.40889534305E+03 -0.42082910593E+03  0.63782849766E+03  0.86667048547E+03  0.00000000000E+00 0. -1.
         -2    1    6    6    0  503  0.73703874882E+02 -0.11240396187E+03  0.20431212168E+03  0.24456155642E+03  0.00000000000E+00 0.  1.
<mgrwt>
<rscale>  0 0.82295886E+03</rscale>
<asrwt>0</asrwt>
<pdfrwt beam="1">  1        1 0.25138128E+00 0.82295886E+03</pdfrwt>
<pdfrwt beam="2">  1       -1 0.74470752E-01 0.82295886E+03</pdfrwt>
<totfact> 0.98790661E+00</totfact>
</mgrwt>
</event>
<event>
12    1  0.3147868E-008  0.6476061E+03  0.7818608E-02  0.9811282E-01
          1   -1    0    0  501    0  0.00000000000E+00  0.00000000000E+00  0.10916145815E+04  0.10916145815E+04  0.00000000000E+00 0. -1.
         -1   -1    0    0    0  501 -0.00000000000E+00 -0.00000000000E+00 -0.47631904181E+03  0.47631904181E+03  0.00000000000E+00 0.  1.
         23    2    1    2    0    0 -0.50448158056E+03 -0.12556578427E+03 -0.52376864220E+02  0.53061151522E+03  0.92394874705E+02 0.  0.
    5000000    2    1    2    0    0  0.50448158056E+03  0.12556578427E+03  0.66767240392E+03  0.10373221081E+04  0.59998523788E+03 0.  0.
         23    2    4    4    0    0  0.59205349883E+03  0.21658631517E+03  0.51933857887E+03  0.82180058021E+03  0.90590599562E+02 0.  0.
         23    2    4    4    0    0 -0.87571918273E+02 -0.91020530896E+02  0.14833382504E+03  0.21552152788E+03  0.92157622656E+02 0.  0.
          5    1    3    3  502    0 -0.21910048404E+03 -0.10147121982E+03 -0.19287878025E+02  0.24227163020E+03  0.47000000000E+01 0. -1.
         -5    1    3    3    0  502 -0.28538109652E+03 -0.24094564448E+02 -0.33088986195E+02  0.28833988502E+03  0.47000000000E+01 0.  1.
         11    1    5    5    0    0  0.43933450464E+03  0.11901455718E+03  0.35650310720E+03  0.57816410925E+03  0.00000000000E+00 0.  1.
        -11    1    5    5    0    0  0.15271899420E+03  0.97571757989E+02  0.16283547167E+03  0.24363647096E+03  0.00000000000E+00 0. -1.
          2    1    6    6  503    0 -0.80444803345E+01 -0.28800389696E+02 -0.65671488536E+01  0.30615413676E+02  0.00000000000E+00 0. -1.
         -2    1    6    6    0  503 -0.79527437938E+02 -0.62220141199E+02  0.15490097390E+03  0.18490611420E+03  0.00000000000E+00 0.  1.
<mgrwt>
<rscale>  0 0.64760613E+03</rscale>
<asrwt>0</asrwt>
<pdfrwt beam="1">  1        1 0.16794070E+00 0.64760613E+03</pdfrwt>
<pdfrwt beam="2">  1       -1 0.73279853E-01 0.64760613E+03</pdfrwt>
<totfact> 0.25165624E+01</totfact>
</mgrwt>
</event>
<event>
12    1  0.3147868E-008  0.8404166E+03  0.7818608E-02  0.9503291E-01
          1   -1    0    0  501    0  0.00000000000E+00  0.00000000000E+00  0.21791496874E+04  0.21791496874E+04  0.00000000000E+00 0. -1.
         -1   -1    0    0    0  501 -0.00000000000E+00 -0.00000000000E+00 -0.35230491344E+03  0.35230491344E+03  0.00000000000E+00 0.  1.
         23    2    1    2    0    0 -0.61274145439E+03 -0.45249918609E+03  0.97807183142E+03  0.12430046793E+04  0.90711200710E+02 0.  0.
    5000000    2    1    2    0    0  0.61274145439E+03  0.45249918609E+03  0.84877294254E+03  0.12884499216E+04  0.59956658434E+03 0.  0.
         23    2    4    4    0    0 -0.63965789499E+02  0.12444753352E+03  0.33152797080E+03  0.37107642854E+03  0.90598617940E+02 0.  0.
         23    2    4    4    0    0  0.67670724389E+03  0.32805165257E+03  0.51724497174E+03  0.91737349302E+03  0.92093345195E+02 0.  0.
          5    1    3    3  502    0 -0.35385825868E+03 -0.26105771656E+03  0.63580261726E+03  0.77306782156E+03  0.47000000000E+01 0. -1.
         -5    1    3    3    0  502 -0.25888319571E+03 -0.19144146953E+03  0.34226921415E+03  0.46993685771E+03  0.47000000000E+01 0.  1.
         13    1    5    5    0    0 -0.26328246078E+02  0.12603488040E+03  0.26499669145E+03  0.29462045770E+03  0.00000000000E+00 0. -1.
        -13    1    5    5    0    0 -0.37637543421E+02 -0.15873468798E+01  0.66531279350E+02  0.76455970838E+02  0.00000000000E+00 0.  1.
          2    1    6    6  503    0  0.17889916752E+03  0.72120918275E+02  0.18032737580E+03  0.26405359580E+03  0.00000000000E+00 0. -1.
         -2    1    6    6    0  503  0.49780807637E+03  0.25593073429E+03  0.33691759594E+03  0.65331989722E+03  0.00000000000E+00 0.  1.
<mgrwt>
<rscale>  0 0.84041655E+03</rscale>
<asrwt>0</asrwt>
<pdfrwt beam="1">  1        1 0.33525379E+00 0.84041655E+03</pdfrwt>
<pdfrwt beam="2">  1       -1 0.54200758E-01 0.84041655E+03</pdfrwt>
<totfact> 0.80115080E+00</totfact>
</mgrwt>
</event>
<event>
12    1  0.3147868E-008  0.4820643E+03  0.7818608E-02  0.1018569E+00
          2   -1    0    0  501    0  0.00000000000E+00  0.00000000000E+00  0.64046295257E+03  0.64046295257E+03  0.00000000000E+00 0. -1.
         -2   -1    0    0    0  501 -0.00000000000E+00 -0.00000000000E+00 -0.75776811533E+03  0.75776811533E+03  0.00000000000E+00 0.  1.
         23    2    1    2    0    0  0.27306937452E+03  0.24337481785E+03  0.38140280592E+03  0.53655836097E+03  0.92890199116E+02 0.  0.
    5000000    2    1    2    0    0 -0.27306937452E+03 -0.24337481785E+03 -0.49870796869E+03  0.86167270693E+03  0.59997669170E+03 0.  0.
         23    2    4    4    0    0  0.57574946479E+02  0.94013821888E+02 -0.31870255716E+03  0.34942311144E+03  0.91497091206E+02 0.  0.
         23    2    4    4    0    0 -0.33064432100E+03 -0.33738863973E+03 -0.18000541153E+03  0.51224959550E+03  0.82709967203E+02 0.  0.
          5    1    3    3  502    0  0.13648709835E+03  0.14342153548E+03  0.14354510690E+03  0.24459303459E+03  0.47000000000E+01 0. -1.
         -5    1    3    3    0  502  0.13658227617E+03  0.99953282368E+02  0.23785769902E+03  0.29196532637E+03  0.47000000000E+01 0.  1.
         13    1    5    5    0    0  0.53846912162E+02  0.34121542072E+02 -0.74953848935E+02  0.98396387398E+02  0.00000000000E+00 0. -1.
        -13    1    5    5    0    0  0.37280343167E+01  0.59892279815E+02 -0.24374870822E+03  0.25102672404E+03  0.00000000000E+00 0.  1.
          4    1    6    6  503    0 -0.16607552178E+03 -0.18675149965E+03 -0.52799388978E+02  0.25543096334E+03  0.00000000000E+00 0. -1.
         -4    1    6    6    0  503 -0.16456879922E+03 -0.15063714008E+03 -0.12720602255E+03  0.25681863216E+03  0.00000000000E+00 0.  1.
<mgrwt>
<rscale>  0 0.48206432E+03</rscale>
<asrwt>0</asrwt>
<pdfrwt beam="1">  1        2 0.98532762E-01 0.48206432E+03</pdfrwt>
<pdfrwt beam="2">  1       -2 0.11657971E+00 0.48206432E+03</pdfrwt>
<totfact> 0.27216898E+01</totfact>
</mgrwt>
</event>
<event>
12    1  0.3147868E-008  0.1269301E+04  0.7818608E-02  0.9054270E-01
          2   -1    0    0  501    0  0.00000000000E+00  0.00000000000E+00  0.13453752961E+04  0.13453752961E+04  0.00000000000E+00 0. -1.
         -2   -1    0    0    0  501 -0.00000000000E+00 -0.00000000000E+00 -0.24974003111E+04  0.24974003111E+04  0.00000000000E+00 0.  1.
         23    2    1    2    0    0  0.10462943997E+04  0.63946030634E+03 -0.19173146590E+04  0.22777321222E+04  0.91250558419E+02 0.  0.
    5000000    2    1    2    0    0 -0.10462943997E+04 -0.63946030634E+03  0.76528964403E+03  0.15650434851E+04  0.60004284576E+03 0.  0.
         23    2    4    4    0    0 -0.30667084578E+03  0.35086973961E+02  0.40343548772E+02  0.32554011041E+03  0.95240002953E+02 0.  0.
         23    2    4    4    0    0 -0.73962355392E+03 -0.67454728030E+03  0.72494609526E+03  0.12395033747E+04  0.93620189903E+02 0.  0.
          5    1    3    3  502    0  0.74428414355E+03  0.45798481674E+03 -0.14400518805E+04  0.16844822609E+04  0.47000000000E+01 0. -1.
         -5    1    3    3    0  502  0.30201025615E+03  0.18147548961E+03 -0.47726277851E+03  0.59324986127E+03  0.47000000000E+01 0.  1.
         11    1    5    5    0    0 -0.24325016297E+03  0.42217203966E+02  0.67856716446E+02  0.25604192637E+03  0.00000000000E+00 0. -1.
        -11    1    5    5    0    0 -0.63420682815E+02 -0.71302300051E+01 -0.27513167674E+02  0.69498184034E+02  0.00000000000E+00 0.  1.
          2    1    6    6  503    0 -0.60082905889E+03 -0.52952283631E+03  0.62115109445E+03  0.10135179694E+04  0.00000000000E+00 0. -1.
         -2    1    6    6    0  503 -0.13879449503E+03 -0.14502444400E+03  0.10379500081E+03  0.22598540529E+03  0.00000000000E+00 0.  1.
<mgrwt>
<rscale>  0 0.12693011E+04</rscale>
<asrwt>0</asrwt>
<pdfrwt beam="1">  1        2 0.20698081E+00 0.12693011E+04</pdfrwt>
<pdfrwt beam="2">  1       -2 0.38421543E+00 0.12693011E+04</pdfrwt>
<totfact> 0.14234017E-01</totfact>
</mgrwt>
</event>
<event>
12    1  0.3147868E-008  0.5217345E+03  0.7818608E-02  0.1008257E+00
         -1   -1    0    0    0  501 -0.00000000000E+00  0.00000000000E+00  0.23290395987E+03  0.23290395987E+03  0.00000000000E+00 0.  1.
          1   -1    0    0  501    0  0.00000000000E+00 -0.00000000000E+00 -0.18852178925E+04  0.18852178925E+04  0.00000000000E+00 0. -1.
         23    2    1    2    0    0  0.37593768584E+02  0.50758769417E+03 -0.85140035998E+03  0.99548395993E+03  0.83947500271E+02 0.  0.
    5000000    2    1    2    0    0 -0.37593768584E+02 -0.50758769417E+03 -0.80091357268E+03  0.11226378925E+04  0.59982891561E+03 0.  0.
         23    2    4    4    0    0 -0.54003716179E+02 -0.24199603998E+03 -0.79904900217E+03  0.84143885638E+03  0.89786170575E+02 0.  0.
         23    2    4    4    0    0  0.16409947595E+02 -0.26559165419E+03 -0.18645705115E+01  0.28119903610E+03  0.90891188372E+02 0.  0.
          5    1    3    3  502    0  0.15000132068E+02  0.72331578304E+02 -0.18434655018E+03  0.19865196134E+03  0.47000000000E+01 0. -1.
         -5    1    3    3    0  502  0.22593636516E+02  0.43525611587E+03 -0.66705380980E+03  0.79683199859E+03  0.47000000000E+01 0.  1.
         13    1    5    5    0    0  0.24010095667E+02 -0.64081119270E+02 -0.24185875133E+03  0.25135339690E+03  0.00000000000E+00 0. -1.
        -13    1    5    5    0    0 -0.78013811846E+02 -0.17791492071E+03 -0.55719025084E+03  0.59008545947E+03  0.00000000000E+00 0.  1.
          3    1    6    6  503    0  0.23458752140E+02 -0.50579658294E+02 -0.31502985428E+02  0.64039464208E+02  0.00000000000E+00 0. -1.
         -3    1    6    6    0  503 -0.70488045451E+01 -0.21501199589E+03  0.29638414917E+02  0.21715957189E+03  0.00000000000E+00 0.  1.
<mgrwt>
<rscale>  0 0.52173446E+03</rscale>
<asrwt>0</asrwt>
<pdfrwt beam="1">  1        1 0.29003352E+00 0.52173446E+03</pdfrwt>
<pdfrwt beam="2">  1       -1 0.35831378E-01 0.52173446E+03</pdfrwt>
<totfact> 0.28504194E+01</totfact>
</mgrwt>
</event>
<event>
12    1  0.3147868E-008  0.1108126E+04  0.7818608E-02  0.9197308E-01
          1   -1    0    0  501    0  0.00000000000E+00  0.00000000000E+00  0.38007718001E+04  0.38007718001E+04  0.00000000000E+00 0. -1.
         -1   -1    0    0    0  501 -0.00000000000E+00 -0.00000000000E+00 -0.98092658734E+03  0.98092658734E+03  0.00000000000E+00 0.  1.
         23    2    1    2    0    0 -0.26645783188E+03  0.10408043394E+04  0.32915307561E+04  0.34638311404E+04  0.98376837631E+02 0.  0.
    5000000    2    1    2    0    0  0.26645783188E+03 -0.10408043394E+04 -0.47168554332E+03  0.13178672470E+04  0.60001114966E+03 0.  0.
         23    2    4    4    0    0  0.14192722201E+03 -0.85354428789E+02 -0.26810831539E+03  0.32899742738E+03  0.94490865030E+02 0.  0.
         23    2    4    4    0    0  0.12453060987E+03 -0.95544991065E+03 -0.20357722792E+03  0.98886981960E+03  0.89595914165E+02 0.  0.
          5    1    3    3  502    0 -0.24639186991E+03  0.84040319722E+03  0.27468909291E+04  0.28831264894E+04  0.47000000000E+01 0. -1.
         -5    1    3    3    0  502 -0.20065961975E+02  0.20040114222E+03  0.54463982699E+03  0.58070465108E+03  0.47000000000E+01 0.  1.
         11    1    5    5    0    0  0.98085828085E+02 -0.30120463789E+02 -0.86583859380E+02  0.13425660771E+03  0.00000000000E+00 0.  1.
        -11    1    5    5    0    0  0.43841393930E+02 -0.55233965000E+02 -0.18152445601E+03  0.19474081966E+03  0.00000000000E+00 0. -1.
          1    1    6    6  503    0  0.14386519572E+02 -0.36246783177E+03 -0.10583052689E+03  0.37787564282E+03  0.00000000000E+00 0. -1.
         -1    1    6    6    0  503  0.11014409029E+03 -0.59298207889E+03 -0.97746701029E+02  0.61099417679E+03  0.00000000000E+00 0.  1.
<mgrwt>
<rscale>  0 0.11081256E+04</rscale>
<asrwt>0</asrwt>
<pdfrwt beam="1">  1        1 0.58473411E+00 0.11081256E+04</pdfrwt>
<pdfrwt beam="2">  1       -1 0.15091178E+00 0.11081256E+04</pdfrwt>
<totfact> 0.50047796E-02</totfact>
</mgrwt>
</event>
<event>
12    1  0.3147868E-008  0.4804780E+03  0.7818608E-02  0.1019004E+00
         -2   -1    0    0    0  501 -0.00000000000E+00  0.00000000000E+00  0.21828369453E+03  0.21828369453E+03  0.00000000000E+00 0.  1.
          2   -1    0    0  501    0  0.00000000000E+00 -0.00000000000E+00 -0.14896291019E+04  0.14896291019E+04  0.00000000000E+00 0. -1.
         23    2    1    2    0    0 -0.10305953498E+02  0.30033753522E+03 -0.87285132822E+03  0.92748192959E+03  0.89690806714E+02 0.  0.
    5000000    2    1    2    0    0  0.10305953498E+02 -0.30033753522E+03 -0.39849407912E+03  0.78043086681E+03  0.59997163187E+03 0.  0.
         23    2    4    4    0    0 -0.18754307565E+03  0.80756891237E+02 -0.74239086982E+02  0.23489792364E+03  0.89283323130E+02 0.  0.
         23    2    4    4    0    0  0.19784902915E+03 -0.38109442645E+03 -0.32425499214E+03  0.54553294317E+03  0.89931595951E+02 0.  0.
          5    1    3    3  502    0  0.12308443625E+00  0.22920180915E+03 -0.75793612863E+03  0.79184768078E+03  0.47000000000E+01 0. -1.
         -5    1    3    3    0  502 -0.10429037934E+02  0.71135726069E+02 -0.11491519959E+03  0.13563424882E+03  0.47000000000E+01 0.  1.
         11    1    5    5    0    0 -0.77223239852E+02 -0.10295588858E+02 -0.11692507490E+02  0.78779074980E+02  0.00000000000E+00 0. -1.
        -11    1    5    5    0    0 -0.11031983580E+03  0.91052480095E+02 -0.62546579492E+02  0.15611884866E+03  0.00000000000E+00 0.  1.
          1    1    6    6  503    0  0.87898536181E+02 -0.26324511619E+03 -0.20478209407E+03  0.34490556666E+03  0.00000000000E+00 0. -1.
         -1    1    6    6    0  503  0.10995049297E+03 -0.11784931026E+03 -0.11947289807E+03  0.20062737651E+03  0.00000000000E+00 0.  1.
<mgrwt>
<rscale>  0 0.48047801E+03</rscale>
<asrwt>0</asrwt>
<pdfrwt beam="1">  1        2 0.22917370E+00 0.48047801E+03</pdfrwt>
<pdfrwt beam="2">  1       -2 0.33582108E-01 0.48047801E+03</pdfrwt>
<totfact> 0.11178335E+02</totfact>
</mgrwt>
</event>
<event>
12    1  0.3147868E-008  0.6542762E+03  0.7818608E-02  0.9798788E-01
          1   -1    0    0  501    0  0.00000000000E+00  0.00000000000E+00  0.38691350169E+04  0.38691350169E+04  0.00000000000E+00 0. -1.
         -1   -1    0    0    0  501 -0.00000000000E+00 -0.00000000000E+00 -0.13680718531E+03  0.13680718531E+03  0.00000000000E+00 0.  1.
         23    2    1    2    0    0 -0.59142376737E+03  0.83603350852E+02  0.17047164731E+04  0.18086590755E+04  0.91748597597E+02 0.  0.
    5000000    2    1    2    0    0  0.59142376737E+03 -0.83603350852E+02  0.20276113586E+04  0.21972831267E+04  0.60006143406E+03 0.  0.
         23    2    4    4    0    0  0.45283935035E+03 -0.21183063810E+03  0.18614652332E+04  0.19296119842E+04  0.91727305037E+02 0.  0.
         23    2    4    4    0    0  0.13858441702E+03  0.12822728725E+03  0.16614612534E+03  0.26767114254E+03  0.91626566817E+02 0.  0.
          5    1    3    3  502    0 -0.20117009598E+03  0.51939911945E+02  0.70506457529E+03  0.73505462878E+03  0.47000000000E+01 0. -1.
         -5    1    3    3    0  502 -0.39025367139E+03  0.31663438907E+02  0.99965189776E+03  0.10736044468E+04  0.47000000000E+01 0.  1.
         11    1    5    5    0    0  0.30232337397E+03 -0.15552734254E+03  0.14096135579E+04  0.14500339856E+04  0.00000000000E+00 0. -1.
        -11    1    5    5    0    0  0.15051597638E+03 -0.56303295560E+02  0.45185167528E+03  0.47957799855E+03  0.00000000000E+00 0.  1.
          4    1    6    6  503    0  0.88716875015E+02  0.22408566417E+02  0.88272878657E+02  0.12714137355E+03  0.00000000000E+00 0. -1.
         -4    1    6    6    0  503  0.49867542005E+02  0.10581872083E+03  0.77873246687E+02  0.14052976899E+03  0.00000000000E+00 0.  1.
<mgrwt>
<rscale>  0 0.65427624E+03</rscale>
<asrwt>0</asrwt>
<pdfrwt beam="1">  1        1 0.59525146E+00 0.65427624E+03</pdfrwt>
<pdfrwt beam="2">  1       -1 0.21047262E-01 0.65427624E+03</pdfrwt>
<totfact> 0.26122811E+00</totfact>
</mgrwt>
</event>
<event>
12    1  0.3147868E-008  0.7527654E+03  0.7818608E-02  0.9631022E-01
         -2   -1    0    0    0  501 -0.00000000000E+00  0.00000000000E+00  0.11452492753E+04  0.11452492753E+04  0.00000000000E+00 0.  1.
          2   -1    0    0  501    0  0.00000000000E+00 -0.00000000000E+00 -0.52446878963E+03  0.52446878963E+03  0.00000000000E+00 0. -1.
         23    2    1    2    0    0 -0.64505939441E+03 -0.50971293702E+02  0.15406260996E+03  0.67145425790E+03  0.91737874206E+02 0.  0.
    5000000    2    1    2    0    0  0.64505939441E+03  0.50971293702E+02  0.46671787574E+03  0.99826380705E+03  0.60000446484E+03 0.  0.
         23    2    4    4    0    0  0.70956818221E+03 -0.66986412437E+02  0.40313035795E+03  0.82376245427E+03  0.89979502734E+02 0.  0.
         23    2    4    4    0    0 -0.64508787794E+02  0.11795770614E+03  0.63587517788E+02  0.17450135278E+03  0.91279491473E+02 0.  0.
          5    1    3    3  502    0 -0.20996757744E+03 -0.38384386863E+02  0.13102080875E+02  0.21390067614E+03  0.47000000000E+01 0.  1.
         -5    1    3    3    0  502 -0.43509181697E+03 -0.12586906839E+02  0.14096052908E+03  0.45755358176E+03  0.47000000000E+01 0. -1.
         11    1    5    5    0    0  0.32903251147E+03  0.80887902826E+01  0.15970337622E+03  0.36583191565E+03  0.00000000000E+00 0.  1.
        -11    1    5    5    0    0  0.38053567074E+03 -0.75075202720E+02  0.24342698173E+03  0.45793053862E+03  0.00000000000E+00 0. -1.
          2    1    6    6  503    0 -0.20970754990E+02  0.98188377989E+01  0.52525858227E+02  0.57403379021E+02  0.00000000000E+00 0. -1.
         -2    1    6    6    0  503 -0.43538032804E+02  0.10813886834E+03  0.11061659561E+02  0.11709797376E+03  0.00000000000E+00 0.  1.
<mgrwt>
<rscale>  0 0.75276541E+03</rscale>
<asrwt>0</asrwt>
<pdfrwt beam="1">  1        2 0.80687507E-01 0.75276541E+03</pdfrwt>
<pdfrwt beam="2">  1       -2 0.17619220E+00 0.75276541E+03</pdfrwt>
<totfact> 0.11402797E+01</totfact>
</mgrwt>
</event>
<event>
12    1  0.3147868E-008  0.4828299E+03  0.7818608E-02  0.1018360E+00
          2   -1    0    0  501    0  0.00000000000E+00  0.00000000000E+00  0.39050374747E+04  0.39050374747E+04  0.00000000000E+00 0. -1.
         -2   -1    0    0    0  501 -0.00000000000E+00 -0.00000000000E+00 -0.15760508069E+03  0.15760508069E+03  0.00000000000E+00 0.  1.
         23    2    1    2    0    0  0.18804647441E+03 -0.24416282727E+03  0.76696212839E+02  0.33042831976E+03  0.91233780352E+02 0.  0.
    5000000    2    1    2    0    0 -0.18804647441E+03  0.24416282727E+03  0.36707361811E+04  0.37322142356E+04  0.60011834342E+03 0.  0.
         23    2    4    4    0    0  0.19762051384E+03  0.32868083579E+02  0.99219779993E+03  0.10163092538E+04  0.91070559222E+02 0.  0.
         23    2    4    4    0    0 -0.38566698825E+03  0.21129474369E+03  0.26785383812E+04  0.27159049818E+04  0.90484893898E+02 0.  0.
          5    1    3    3  502    0  0.12079336565E+03 -0.82861412918E+02  0.33005793859E+02  0.15022823757E+03  0.47000000000E+01 0. -1.
         -5    1    3    3    0  502  0.67253108763E+02 -0.16130141435E+03  0.43690418980E+02  0.18020008219E+03  0.47000000000E+01 0.  1.
         11    1    5    5    0    0  0.95253121884E+02  0.26062832274E+02  0.28313967458E+03  0.29986747703E+03  0.00000000000E+00 0.  1.
        -11    1    5    5    0    0  0.10236739195E+03  0.68052513050E+01  0.70905812535E+03  0.71644177677E+03  0.00000000000E+00 0. -1.
          3    1    6    6  503    0 -0.18434884815E+03  0.13117789424E+03  0.15893554314E+04  0.16053793399E+04  0.00000000000E+00 0. -1.
         -3    1    6    6    0  503 -0.20131814011E+03  0.80116849454E+02  0.10891829498E+04  0.11105256419E+04  0.00000000000E+00 0.  1.
<mgrwt>
<rscale>  0 0.48282987E+03</rscale>
<asrwt>0</asrwt>
<pdfrwt beam="1">  1        2 0.60077493E+00 0.48282987E+03</pdfrwt>
<pdfrwt beam="2">  1       -2 0.24246938E-01 0.48282987E+03</pdfrwt>
<totfact> 0.72701849E+00</totfact>
</mgrwt>
</event>
<event>
12    1  0.4216151E-008  0.1462729E+04  0.7818608E-02  0.8909623E-01
          3   -1    0    0  501    0  0.00000000000E+00  0.00000000000E+00  0.20314999343E+04  0.20314999343E+04  0.00000000000E+00 0. -1.
         -3   -1    0    0    0  501 -0.00000000000E+00 -0.00000000000E+00 -0.11400959956E+04  0.11400959956E+04  0.00000000000E+00 0.  1.
         23    2    1    2    0    0 -0.14375593629E+04  0.15435790473E+03  0.20752659048E+03  0.14633297689E+04  0.88676051566E+02 0.  0.
    5000000    2    1    2    0    0  0.14375593629E+04 -0.15435790473E+03  0.68387734826E+03  0.17082661611E+04  0.60006813369E+03 0.  0.
         23    2    4    4    0    0  0.58936289629E+03  0.69162765372E+02  0.13361717078E+02  0.60058758114E+03  0.91623116599E+02 0.  0.
         23    2    4    4    0    0  0.84819646658E+03 -0.22352067010E+03  0.67051563118E+03  0.11076785799E+04  0.89229417278E+02 0.  0.
          5    1    3    3  502    0 -0.86142818202E+03  0.49954000011E+02  0.11446708269E+03  0.87044742398E+03  0.47000000000E+01 0. -1.
         -5    1    3    3    0  502 -0.57613118085E+03  0.10440390472E+03  0.93059507798E+02  0.59288234487E+03  0.47000000000E+01 0.  1.
         11    1    5    5    0    0  0.15564656848E+03 -0.33669490635E+01 -0.30582177101E+02  0.15865831268E+03  0.00000000000E+00 0.  1.
        -11    1    5    5    0    0  0.43371632781E+03  0.72529714435E+02  0.43943894179E+02  0.44192926846E+03  0.00000000000E+00 0. -1.
          3    1    6    6  503    0  0.41235583524E+03 -0.62937813703E+02  0.32406566923E+03  0.52822065581E+03  0.00000000000E+00 0. -1.
         -3    1    6    6    0  503  0.43584063134E+03 -0.16058285640E+03  0.34644996195E+03  0.57945792412E+03  0.00000000000E+00 0.  1.
<mgrwt>
<rscale>  0 0.14627287E+04</rscale>
<asrwt>0</asrwt>
<pdfrwt beam="1">  1        3 0.31253845E+00 0.14627287E+04</pdfrwt>
<pdfrwt beam="2">  1       -3 0.17539938E+00 0.14627287E+04</pdfrwt>
<totfact> 0.16968885E-02</totfact>
</mgrwt>
</event>
<event>
12    1  0.3147868E-008  0.9269402E+03  0.7818608E-02  0.9392518E-01
         -1   -1    0    0    0  501 -0.00000000000E+00  0.00000000000E+00  0.16449624241E+04  0.16449624241E+04  0.00000000000E+00 0.  1.
          1   -1    0    0  501    0  0.00000000000E+00 -0.00000000000E+00 -0.60380495830E+03  0.60380495830E+03  0.00000000000E+00 0. -1.
         23    2    1    2    0    0  0.64011833854E+03 -0.54428962698E+03  0.85014419606E+03  0.11988029726E+04  0.91546313997E+02 0.  0.
    5000000    2    1    2    0    0 -0.64011833854E+03  0.54428962698E+03  0.19101326975E+03  0.10499644098E+04  0.59994708709E+03 0.  0.
         23    2    4    4    0    0 -0.66270020537E+03  0.60287500463E+03  0.98474277557E+02  0.90580639055E+03  0.90322756836E+02 0.  0.
         23    2    4    4    0    0  0.22581866833E+02 -0.58585377655E+02  0.92538992195E+02  0.14415801928E+03  0.90971876207E+02 0.  0.
          5    1    3    3  502    0  0.38074687474E+03 -0.27883693219E+03  0.51753174459E+03  0.70041374490E+03  0.47000000000E+01 0. -1.
         -5    1    3    3    0  502  0.25937146380E+03 -0.26545269478E+03  0.33261245147E+03  0.49838922769E+03  0.47000000000E+01 0.  1.
         13    1    5    5    0    0 -0.62639315260E+03  0.53635594683E+03  0.89258345191E+02  0.82946557223E+03  0.00000000000E+00 0. -1.
        -13    1    5    5    0    0 -0.36307052770E+02  0.66519057807E+02  0.92159323657E+01  0.76340818319E+02  0.00000000000E+00 0.  1.
          3    1    6    6  503    0  0.50988218351E+02 -0.70300361755E+01  0.47522457745E+02  0.70054291870E+02  0.00000000000E+00 0. -1.
         -3    1    6    6    0  503 -0.28406351519E+02 -0.51555341480E+02  0.45016534451E+02  0.74103727407E+02  0.00000000000E+00 0.  1.
<mgrwt>
<rscale>  0 0.92694021E+03</rscale>
<asrwt>0</asrwt>
<pdfrwt beam="1">  1        1 0.92893071E-01 0.92694021E+03</pdfrwt>
<pdfrwt beam="2">  1       -1 0.25307114E+00 0.92694021E+03</pdfrwt>
<totfact> 0.22999450E+00</totfact>
</mgrwt>
</event>
<event>
12    1  0.3147868E-008  0.1025625E+04  0.7818608E-02  0.9280878E-01
         -1   -1    0    0    0  501 -0.00000000000E+00  0.00000000000E+00  0.62632082394E+03  0.62632082394E+03  0.00000000000E+00 0.  1.
          1   -1    0    0  501    0  0.00000000000E+00 -0.00000000000E+00 -0.23855709514E+04  0.23855709514E+04  0.00000000000E+00 0. -1.
         23    2    1    2    0    0  0.93596690013E+03  0.26478674273E+03 -0.15765258157E+04  0.18545482893E+04  0.88145632844E+02 0.  0.
    5000000    2    1    2    0    0 -0.93596690013E+03 -0.26478674273E+03 -0.18272431177E+03  0.11573434860E+04  0.59992475635E+03 0.  0.
         23    2    4    4    0    0 -0.95172536205E+03 -0.24782096436E+03 -0.27477104235E+03  0.10252862046E+04  0.92283695855E+02 0.  0.
         23    2    4    4    0    0  0.15758461920E+02 -0.16965778377E+02  0.92046730576E+02  0.13205728142E+03  0.91816982131E+02 0.  0.
          5    1    3    3  502    0  0.53920695181E+03  0.15204439516E+03 -0.82480027397E+03  0.99708536090E+03  0.47000000000E+01 0. -1.
         -5    1    3    3    0  502  0.39675994831E+03  0.11274234757E+03 -0.75172554173E+03  0.85746292842E+03  0.47000000000E+01 0.  1.
         13    1    5    5    0    0 -0.21343412830E+03 -0.90125487153E+02 -0.85707684149E+02  0.24702740269E+03  0.00000000000E+00 0. -1.
        -13    1    5    5    0    0 -0.73829123375E+03 -0.15769547720E+03 -0.18906335820E+03  0.77825880192E+03  0.00000000000E+00 0.  1.
          1    1    6    6  503    0  0.23025745737E+02  0.33631165832E+02  0.57029266991E+02  0.70096915592E+02  0.00000000000E+00 0. -1.
         -1    1    6    6    0  503 -0.72672838177E+01 -0.50596944208E+02  0.35017463585E+02  0.61960365826E+02  0.00000000000E+00 0.  1.
<mgrwt>
<rscale>  0 0.10256246E+04</rscale>
<asrwt>0</asrwt>
<pdfrwt beam="1">  1        1 0.36701091E+00 0.10256246E+04</pdfrwt>
<pdfrwt beam="2">  1       -1 0.96357051E-01 0.10256246E+04</pdfrwt>
<totfact> 0.17074629E+00</totfact>
</mgrwt>
</event>
<event>
12    1  0.3147868E-008  0.1283874E+04  0.7818608E-02  0.9042452E-01
          1   -1    0    0  501    0  0.00000000000E+00  0.00000000000E+00  0.17815023953E+04  0.17815023953E+04  0.00000000000E+00 0. -1.
         -1   -1    0    0    0  501 -0.00000000000E+00 -0.00000000000E+00 -0.13328514587E+04  0.13328514587E+04  0.00000000000E+00 0.  1.
         23    2    1    2    0    0  0.11441029325E+04 -0.43634405951E+03  0.10575874478E+04  0.16206579106E+04  0.93129990711E+02 0.  0.
    5000000    2    1    2    0    0 -0.11441029325E+04  0.43634405951E+03 -0.60893651129E+03  0.14936959434E+04  0.60079633661E+03 0.  0.
         23    2    4    4    0    0 -0.40370969916E+01  0.13384555455E+03 -0.16302662917E+03  0.22966769710E+03  0.90766946902E+02 0.  0.
         23    2    4    4    0    0 -0.11400658355E+04  0.30249850497E+03 -0.44590988212E+03  0.12640282463E+04  0.87614665700E+02 0.  0.
          5    1    3    3  502    0  0.69177398383E+03 -0.31081171907E+03  0.66631402666E+03  0.10095304064E+04  0.47000000000E+01 0. -1.
         -5    1    3    3    0  502  0.45232894863E+03 -0.12553234044E+03  0.39127342118E+03  0.61112750420E+03  0.47000000000E+01 0.  1.
         11    1    5    5    0    0  0.34695046966E+02  0.10831217666E+03 -0.10024560169E+03  0.15160624840E+03  0.00000000000E+00 0.  1.
        -11    1    5    5    0    0 -0.38732143958E+02  0.25533377892E+02 -0.62781027478E+02  0.78061448702E+02  0.00000000000E+00 0. -1.
          3    1    6    6  503    0 -0.26006535351E+03  0.58399003985E+02 -0.63727144483E+02  0.27405397408E+03  0.00000000000E+00 0.  1.
         -3    1    6    6    0  503 -0.88000048196E+03  0.24409950098E+03 -0.38218273764E+03  0.98997427218E+03  0.00000000000E+00 0. -1.
<mgrwt>
<rscale>  0 0.12838735E+04</rscale>
<asrwt>0</asrwt>
<pdfrwt beam="1">  1        1 0.27407729E+00 0.12838735E+04</pdfrwt>
<pdfrwt beam="2">  1       -1 0.20505407E+00 0.12838735E+04</pdfrwt>
<totfact> 0.56508876E-01</totfact>
</mgrwt>
</event>
<event>
12    1  0.3147868E-008  0.1005537E+04  0.7818608E-02  0.9302493E-01
         -2   -1    0    0    0  501 -0.00000000000E+00  0.00000000000E+00  0.15090555222E+04  0.15090555222E+04  0.00000000000E+00 0.  1.
          2   -1    0    0  501    0  0.00000000000E+00 -0.00000000000E+00 -0.78784395882E+03  0.78784395882E+03  0.00000000000E+00 0. -1.
         23    2    1    2    0    0  0.63561288720E+03  0.67697102640E+03  0.74031018132E+03  0.11913689117E+04  0.94906302063E+02 0.  0.
    5000000    2    1    2    0    0 -0.63561288720E+03 -0.67697102640E+03 -0.19098617934E+02  0.11055305694E+04  0.59961618525E+03 0.  0.
         23    2    4    4    0    0  0.88636241718E+02 -0.17065952726E+03  0.43738280471E+02  0.21603259712E+03  0.88181564107E+02 0.  0.
         23    2    4    4    0    0 -0.72424912891E+03 -0.50631149913E+03 -0.62836898405E+02  0.88949797223E+03  0.79812479689E+02 0.  0.
          5    1    3    3  502    0  0.39036662927E+03  0.47359383336E+03  0.46040286054E+03  0.76724840061E+03  0.47000000000E+01 0. -1.
         -5    1    3    3    0  502  0.24524625792E+03  0.20337719304E+03  0.27990732078E+03  0.42412051106E+03  0.47000000000E+01 0.  1.
         13    1    5    5    0    0  0.38590217021E+02 -0.10536796127E+03 -0.17377256106E+02  0.11354990595E+03  0.00000000000E+00 0. -1.
        -13    1    5    5    0    0  0.50046024698E+02 -0.65291565990E+02  0.61115536577E+02  0.10248269117E+03  0.00000000000E+00 0.  1.
          3    1    6    6  503    0 -0.27743032325E+03 -0.21205055325E+03 -0.61040980826E+02  0.35448416429E+03  0.00000000000E+00 0. -1.
         -3    1    6    6    0  503 -0.44681880567E+03 -0.29426094588E+03 -0.17959175793E+01  0.53501380794E+03  0.00000000000E+00 0.  1.
<mgrwt>
<rscale>  0 0.10055369E+04</rscale>
<asrwt>0</asrwt>
<pdfrwt beam="1">  1        2 0.12120676E+00 0.10055369E+04</pdfrwt>
<pdfrwt beam="2">  1       -2 0.23216239E+00 0.10055369E+04</pdfrwt>
<totfact> 0.28987583E+00</totfact>
</mgrwt>
</event>
<event>
12    1  0.3147868E-008  0.5318086E+03  0.7818608E-02  0.1005794E+00
         -1   -1    0    0    0  501 -0.00000000000E+00  0.00000000000E+00  0.83446400657E+03  0.83446400657E+03  0.00000000000E+00 0.  1.
          1   -1    0    0  501    0  0.00000000000E+00 -0.00000000000E+00 -0.50231285874E+03  0.50231285874E+03  0.00000000000E+00 0. -1.
         23    2    1    2    0    0  0.62193654804E+02  0.49598905133E+03  0.19297021083E+03  0.54343556924E+03  0.90617470233E+02 0.  0.
    5000000    2    1    2    0    0 -0.62193654804E+02 -0.49598905133E+03  0.13918093701E+03  0.79334129606E+03  0.60012156191E+03 0.  0.
         23    2    4    4    0    0  0.74491084489E+02 -0.11009362873E+03  0.30201426527E+03  0.34220008180E+03  0.90657326248E+02 0.  0.
         23    2    4    4    0    0 -0.13668473929E+03 -0.38589542261E+03 -0.16283332826E+03  0.45114121427E+03  0.97034567411E+02 0.  0.
          5    1    3    3  502    0 -0.16561374801E+02  0.69089743409E+02  0.47461179875E+02  0.85570587089E+02  0.47000000000E+01 0. -1.
         -5    1    3    3    0  502  0.78755029605E+02  0.42689930792E+03  0.14550903095E+03  0.45786498215E+03  0.47000000000E+01 0.  1.
         11    1    5    5    0    0  0.69029895491E+02 -0.56755473808E+02  0.25732398227E+03  0.27240033431E+03  0.00000000000E+00 0. -1.
        -11    1    5    5    0    0  0.54611889977E+01 -0.53338154918E+02  0.44690282995E+02  0.69799747489E+02  0.00000000000E+00 0.  1.
          4    1    6    6  503    0 -0.10215740508E+03 -0.18382200865E+03 -0.11853847413E+03  0.24140844253E+03  0.00000000000E+00 0. -1.
         -4    1    6    6    0  503 -0.34527334211E+02 -0.20207341396E+03 -0.44294854129E+02  0.20973277173E+03  0.00000000000E+00 0.  1.
<mgrwt>
<rscale>  0 0.53180857E+03</rscale>
<asrwt>0</asrwt>
<pdfrwt beam="1">  1        1 0.77278901E-01 0.53180857E+03</pdfrwt>
<pdfrwt beam="2">  1       -1 0.12837908E+00 0.53180857E+03</pdfrwt>
<totfact> 0.24269412E+01</totfact>
</mgrwt>
</event>
<event>
12    1  0.3147868E-008  0.1285347E+04  0.7818608E-02  0.9041267E-01
         -1   -1    0    0    0  501 -0.00000000000E+00  0.00000000000E+00  0.12839600541E+04  0.12839600541E+04  0.00000000000E+00 0.  1.
          1   -1    0    0  501    0  0.00000000000E+00 -0.00000000000E+00 -0.23318241407E+04  0.23318241407E+04  0.00000000000E+00 0. -1.
         23    2    1    2    0    0  0.97855547794E+03  0.81612774303E+03 -0.16475753036E+04  0.20848867072E+04  0.92805626872E+02 0.  0.
    5000000    2    1    2    0    0 -0.97855547794E+03 -0.81612774303E+03  0.59971121698E+03  0.15308974877E+04  0.60029847383E+03 0.  0.
         23    2    4    4    0    0 -0.24072492167E+03 -0.12596994360E+03 -0.93487210780E+02  0.30230431634E+03  0.93974073525E+02 0.  0.
         23    2    4    4    0    0 -0.73783055627E+03 -0.69015779943E+03  0.69319842776E+03  0.12285931714E+04  0.90583677082E+02 0.  0.
          5    1    3    3  502    0  0.71404609773E+03  0.56449789265E+03 -0.11188344093E+04  0.14423356842E+04  0.47000000000E+01 0. -1.
         -5    1    3    3    0  502  0.26450938021E+03  0.25162985038E+03 -0.52874089429E+03  0.64255102297E+03  0.47000000000E+01 0.  1.
         13    1    5    5    0    0 -0.22895893090E+03 -0.13538237888E+03 -0.71117056629E+02  0.27533291902E+03  0.00000000000E+00 0.  1.
        -13    1    5    5    0    0 -0.11765990763E+02  0.94124352821E+01 -0.22370154150E+02  0.26971397318E+02  0.00000000000E+00 0. -1.
          3    1    6    6  503    0 -0.48454707052E+02 -0.80716287269E+02  0.68626764367E+02  0.11650154700E+03  0.00000000000E+00 0. -1.
         -3    1    6    6    0  503 -0.68937584922E+03 -0.60944151216E+03  0.62457166339E+03  0.11120916244E+04  0.00000000000E+00 0.  1.
<mgrwt>
<rscale>  0 0.12853466E+04</rscale>
<asrwt>0</asrwt>
<pdfrwt beam="1">  1        1 0.35874217E+00 0.12853466E+04</pdfrwt>
<pdfrwt beam="2">  1       -1 0.19753232E+00 0.12853466E+04</pdfrwt>
<totfact> 0.26928310E-01</totfact>
</mgrwt>
</event>
<event>
12    1  0.3147868E-008  0.1054437E+04  0.7818608E-02  0.9250775E-01
         -2   -1    0    0    0  501 -0.00000000000E+00  0.00000000000E+00  0.80324021040E+03  0.80324021040E+03  0.00000000000E+00 0.  1.
          2   -1    0    0  501    0  0.00000000000E+00 -0.00000000000E+00 -0.33878333421E+04  0.33878333421E+04  0.00000000000E+00 0. -1.
         23    2    1    2    0    0 -0.22017970280E+03  0.99255599001E+03  0.30851624099E+03  0.10663741674E+04  0.91241980978E+02 0.  0.
    5000000    2    1    2    0    0  0.22017970280E+03 -0.99255599001E+03 -0.28931093727E+04  0.31246993851E+04  0.60001492491E+03 0.  0.
         23    2    4    4    0    0  0.58318194850E+02 -0.86517620055E+03 -0.26656245443E+04  0.28045929571E+04  0.90865692508E+02 0.  0.
         23    2    4    4    0    0  0.16186150795E+03 -0.12737978947E+03 -0.22748482837E+03  0.32010642798E+03  0.91071508017E+02 0.  0.
          5    1    3    3  502    0 -0.11437318263E+03  0.56773385416E+03  0.13010005872E+03  0.59359166887E+03  0.47000000000E+01 0. -1.
         -5    1    3    3    0  502 -0.10580652017E+03  0.42482213585E+03  0.17841618226E+03  0.47278249853E+03  0.47000000000E+01 0.  1.
         13    1    5    5    0    0  0.43015715186E+02 -0.19146860041E+03 -0.67874939400E+03  0.70654887768E+03  0.00000000000E+00 0. -1.
        -13    1    5    5    0    0  0.15302479664E+02 -0.67370760014E+03 -0.19868751503E+04  0.20980440795E+04  0.00000000000E+00 0.  1.
          3    1    6    6  503    0  0.44711301793E+02  0.50050122420E+01 -0.25598022600E+02  0.51763012050E+02  0.00000000000E+00 0. -1.
         -3    1    6    6    0  503  0.11715020616E+03 -0.13238480171E+03 -0.20188680577E+03  0.26834341593E+03  0.00000000000E+00 0.  1.
<mgrwt>
<rscale>  0 0.10544368E+04</rscale>
<asrwt>0</asrwt>
<pdfrwt beam="1">  1        2 0.52120512E+00 0.10544368E+04</pdfrwt>
<pdfrwt beam="2">  1       -2 0.12357542E+00 0.10544368E+04</pdfrwt>
<totfact> 0.48837222E-01</totfact>
</mgrwt>
</event>
<event>
12    1  0.3147868E-008  0.5276392E+03  0.7818608E-02  0.1006806E+00
         -2   -1    0    0    0  501 -0.00000000000E+00  0.00000000000E+00  0.11653105724E+03  0.11653105724E+03  0.00000000000E+00 0.  1.
          2   -1    0    0  501    0  0.00000000000E+00 -0.00000000000E+00 -0.33237348376E+04  0.33237348376E+04  0.00000000000E+00 0. -1.
         23    2    1    2    0    0 -0.42533855980E+03 -0.62754049500E+02 -0.69871136986E+03  0.82542818066E+03  0.91011767788E+02 0.  0.
    5000000    2    1    2    0    0  0.42533855980E+03  0.62754049500E+02 -0.25084924105E+04  0.26148377142E+04  0.59999261392E+03 0.  0.
         23    2    4    4    0    0  0.10415805074E+03 -0.18104936751E+03 -0.34983583190E+03  0.41698492849E+03  0.88676650225E+02 0.  0.
         23    2    4    4    0    0  0.32118050906E+03  0.24380341701E+03 -0.21586565786E+04  0.21978527857E+04  0.90341671903E+02 0.  0.
          5    1    3    3  502    0 -0.32771186971E+03 -0.20392956658E+02 -0.57510892119E+03  0.66225622191E+03  0.47000000000E+01 0. -1.
         -5    1    3    3    0  502 -0.97626690087E+02 -0.42361092842E+02 -0.12360244868E+03  0.16317195875E+03  0.47000000000E+01 0.  1.
         13    1    5    5    0    0  0.62312959967E+02 -0.11850529334E+03 -0.13843210714E+03  0.19258727325E+03  0.00000000000E+00 0. -1.
        -13    1    5    5    0    0  0.41845090773E+02 -0.62544074169E+02 -0.21140372476E+03  0.22439765524E+03  0.00000000000E+00 0.  1.
          2    1    6    6  503    0  0.31212542121E+02  0.60806367260E+02 -0.44636329955E+03  0.45156597776E+03  0.00000000000E+00 0. -1.
         -2    1    6    6    0  503  0.28996796694E+03  0.18299704975E+03 -0.17122932790E+04  0.17462868079E+04  0.00000000000E+00 0.  1.
<mgrwt>
<rscale>  0 0.52763917E+03</rscale>
<asrwt>0</asrwt>
<pdfrwt beam="1">  1        2 0.51134383E+00 0.52763917E+03</pdfrwt>
<pdfrwt beam="2">  1       -2 0.17927855E-01 0.52763917E+03</pdfrwt>
<totfact> 0.30950569E+01</totfact>
</mgrwt>
</event>
<event>
12    1  0.3147868E-008  0.5968989E+03  0.7818608E-02  0.9911861E-01
         -1   -1    0    0    0  501 -0.00000000000E+00  0.00000000000E+00  0.14792247637E+04  0.14792247637E+04  0.00000000000E+00 0.  1.
          1   -1    0    0  501    0  0.00000000000E+00 -0.00000000000E+00 -0.31952896915E+03  0.31952896915E+03  0.00000000000E+00 0. -1.
         23    2    1    2    0    0 -0.22381264202E+03  0.39824867599E+03  0.66323156829E+02  0.47056159088E+03  0.91298099792E+02 0.  0.
    5000000    2    1    2    0    0  0.22381264202E+03 -0.39824867599E+03  0.10933726377E+04  0.13281921419E+04  0.59994710968E+03 0.  0.
         23    2    4    4    0    0 -0.18400084286E+03 -0.72943106608E+02  0.41122743450E+03  0.46491104126E+03  0.88641223074E+02 0.  0.
         23    2    4    4    0    0  0.40781348488E+03 -0.32530556938E+03  0.68214520319E+03  0.86328110068E+03  0.88298520024E+02 0.  0.
          5    1    3    3  502    0 -0.12384624499E+03  0.23432971559E+03 -0.64975530058E+01  0.26516526206E+03  0.47000000000E+01 0. -1.
         -5    1    3    3    0  502 -0.99966397035E+02  0.16391896040E+03  0.72820709835E+02  0.20539632882E+03  0.47000000000E+01 0.  1.
         13    1    5    5    0    0 -0.82421526469E+02  0.10818130870E+02  0.12869979004E+03  0.15321219252E+03  0.00000000000E+00 0. -1.
        -13    1    5    5    0    0 -0.10157931639E+03 -0.83761237479E+02  0.28252764446E+03  0.31169884874E+03  0.00000000000E+00 0.  1.
          1    1    6    6  503    0  0.27472371889E+02 -0.26774809180E+02  0.19624696044E+02  0.43090025745E+02  0.00000000000E+00 0. -1.
         -1    1    6    6    0  503  0.38034111299E+03 -0.29853076020E+03  0.66252050715E+03  0.82019107494E+03  0.00000000000E+00 0.  1.
<mgrwt>
<rscale>  0 0.59689888E+03</rscale>
<asrwt>0</asrwt>
<pdfrwt beam="1">  1        1 0.49158304E-01 0.59689888E+03</pdfrwt>
<pdfrwt beam="2">  1       -1 0.22757304E+00 0.59689888E+03</pdfrwt>
<totfact> 0.83584349E+00</totfact>
</mgrwt>
</event>
<event>
12    1  0.3147868E-008  0.1034184E+04  0.7818608E-02  0.9271827E-01
          2   -1    0    0  501    0  0.00000000000E+00  0.00000000000E+00  0.29255924070E+04  0.29255924070E+04  0.00000000000E+00 0. -1.
         -2   -1    0    0    0  501 -0.00000000000E+00 -0.00000000000E+00 -0.41155323917E+03  0.41155323917E+03  0.00000000000E+00 0.  1.
         23    2    1    2    0    0  0.45086329777E+03  0.83886185340E+03  0.16903914588E+04  0.19423281288E+04  0.90820447494E+02 0.  0.
    5000000    2    1    2    0    0 -0.45086329777E+03 -0.83886185340E+03  0.82364770910E+03  0.13948175174E+04  0.60012784956E+03 0.  0.
         23    2    4    4    0    0 -0.37747956541E+03 -0.14545061820E+03  0.38718236552E+03  0.56690698758E+03  0.88468320665E+02 0.  0.
         23    2    4    4    0    0 -0.73383732360E+02 -0.69341123519E+03  0.43646534358E+03  0.82791052983E+03  0.93431985913E+02 0.  0.
          5    1    3    3  502    0  0.41153633838E+03  0.69990716819E+03  0.14193139292E+04  0.16351471865E+04  0.47000000000E+01 0. -1.
         -5    1    3    3    0  502  0.39326959392E+02  0.13895468521E+03  0.27107752955E+03  0.30718094229E+03  0.47000000000E+01 0.  1.
         11    1    5    5    0    0 -0.10560315543E+02 -0.16448848912E+02  0.22227831402E+01  0.19672967742E+02  0.00000000000E+00 0. -1.
        -11    1    5    5    0    0 -0.36691924987E+03 -0.12900176929E+03  0.38495958238E+03  0.54723401984E+03  0.00000000000E+00 0.  1.
          2    1    6    6  503    0 -0.89734419033E+02 -0.41647563041E+03  0.26980247316E+03  0.50427927898E+03  0.00000000000E+00 0. -1.
         -2    1    6    6    0  503  0.16350686673E+02 -0.27693560479E+03  0.16666287042E+03  0.32363125085E+03  0.00000000000E+00 0.  1.
<mgrwt>
<rscale>  0 0.10341839E+04</rscale>
<asrwt>0</asrwt>
<pdfrwt beam="1">  1        2 0.45009112E+00 0.10341839E+04</pdfrwt>
<pdfrwt beam="2">  1       -2 0.63315885E-01 0.10341839E+04</pdfrwt>
<totfact> 0.45453354E+00</totfact>
</mgrwt>
</event>
<event>
12    1  0.3147868E-008  0.7676626E+03  0.7818608E-02  0.9608041E-01
         -2   -1    0    0    0  501 -0.00000000000E+00  0.00000000000E+00  0.92351437837E+03  0.92351437837E+03  0.00000000000E+00 0.  1.
          2   -1    0    0  501    0  0.00000000000E+00 -0.00000000000E+00 -0.81097515101E+03  0.81097515101E+03  0.00000000000E+00 0. -1.
         23    2    1    2    0    0 -0.50193537770E+03  0.43480577865E+03  0.41750935859E+03  0.78896158845E+03  0.84564383741E+02 0.  0.
    5000000    2    1    2    0    0  0.50193537770E+03 -0.43480577865E+03 -0.30497013123E+03  0.94552794094E+03  0.60001759776E+03 0.  0.
         23    2    4    4    0    0  0.47911251225E+03 -0.54922876862E+03 -0.19372143686E+03  0.75953881802E+03  0.90389055227E+02 0.  0.
         23    2    4    4    0    0  0.22822865454E+02  0.11442298997E+03 -0.11124869437E+03  0.18598912292E+03  0.92747927330E+02 0.  0.
          5    1    3    3  502    0 -0.11841715340E+03  0.77159023364E+02  0.56456673342E+02  0.15226812887E+03  0.47000000000E+01 0. -1.
         -5    1    3    3    0  502 -0.38351822430E+03  0.35764675528E+03  0.36105268525E+03  0.63669345957E+03  0.47000000000E+01 0.  1.
         13    1    5    5    0    0  0.23866688961E+03 -0.33390282634E+03 -0.86674650952E+02  0.41948239147E+03  0.00000000000E+00 0. -1.
        -13    1    5    5    0    0  0.24044562264E+03 -0.21532594228E+03 -0.10704678591E+03  0.34005642655E+03  0.00000000000E+00 0.  1.
          4    1    6    6  503    0 -0.19735797124E+02  0.77410460518E+02 -0.10081642783E+03  0.12863060758E+03  0.00000000000E+00 0. -1.
         -4    1    6    6    0  503  0.42558662578E+02  0.37012529454E+02 -0.10432266539E+02  0.57358515342E+02  0.00000000000E+00 0.  1.
<mgrwt>
<rscale>  0 0.76766257E+03</rscale>
<asrwt>0</asrwt>
<pdfrwt beam="1">  1        2 0.12476541E+00 0.76766257E+03</pdfrwt>
<pdfrwt beam="2">  1       -2 0.14207914E+00 0.76766257E+03</pdfrwt>
<totfact> 0.11852112E+01</totfact>
</mgrwt>
</event>
<event>
12    1  0.3147868E-008  0.4804435E+03  0.7818608E-02  0.1019013E+00
         -2   -1    0    0    0  501 -0.00000000000E+00  0.00000000000E+00  0.15327817056E+03  0.15327817056E+03  0.00000000000E+00 0.  1.
          2   -1    0    0  501    0  0.00000000000E+00 -0.00000000000E+00 -0.22117493454E+04  0.22117493454E+04  0.00000000000E+00 0. -1.
         23    2    1    2    0    0  0.44276448411E+02  0.30950486488E+03 -0.19024951717E+03  0.37784917550E+03  0.93922603088E+02 0.  0.
    5000000    2    1    2    0    0 -0.44276448411E+02 -0.30950486488E+03 -0.18682216577E+04  0.19871783405E+04  0.60072616835E+03 0.  0.
         23    2    4    4    0    0 -0.33299577960E+02 -0.46085526829E+03 -0.15862984140E+04  0.16547941715E+04  0.92220668250E+02 0.  0.
         23    2    4    4    0    0 -0.10976870451E+02  0.15135040341E+03 -0.28192324371E+03  0.33238416898E+03  0.89280928230E+02 0.  0.
          5    1    3    3  502    0  0.64719468625E+02  0.17996299859E+03 -0.83710781108E+02  0.20881780421E+03  0.47000000000E+01 0. -1.
         -5    1    3    3    0  502 -0.20443020214E+02  0.12954186629E+03 -0.10653873607E+03  0.16903137129E+03  0.47000000000E+01 0.  1.
         11    1    5    5    0    0 -0.40572696894E+02 -0.11019404264E+03 -0.48399624698E+03  0.49803738600E+03  0.00000000000E+00 0.  1.
        -11    1    5    5    0    0  0.72731189332E+01 -0.35066122565E+03 -0.11023021670E+04  0.11567567855E+04  0.00000000000E+00 0. -1.
          1    1    6    6  503    0  0.33420248003E+02  0.63319533299E+02 -0.78006088531E+02  0.10588307760E+03  0.00000000000E+00 0. -1.
         -1    1    6    6    0  503 -0.44397118453E+02  0.88030870107E+02 -0.20391715518E+03  0.22650109138E+03  0.00000000000E+00 0.  1.
<mgrwt>
<rscale>  0 0.48044355E+03</rscale>
<asrwt>0</asrwt>
<pdfrwt beam="1">  1        2 0.34026912E+00 0.48044355E+03</pdfrwt>
<pdfrwt beam="2">  1       -2 0.23581258E-01 0.48044355E+03</pdfrwt>
<totfact> 0.86828577E+01</totfact>
</mgrwt>
</event>
<event>
12    1  0.3147868E-008  0.7811265E+03  0.7818608E-02  0.9587745E-01
          2   -1    0    0  501    0  0.00000000000E+00  0.00000000000E+00  0.49156144581E+03  0.49156144581E+03  0.00000000000E+00 0. -1.
         -2   -1    0    0    0  501 -0.00000000000E+00 -0.00000000000E+00 -0.20093499924E+04  0.20093499924E+04  0.00000000000E+00 0.  1.
         23    2    1    2    0    0  0.71099292052E+03 -0.23976136326E+03 -0.13186369761E+04  0.15198630993E+04  0.90465028973E+02 0.  0.
    5000000    2    1    2    0    0 -0.71099292052E+03  0.23976136326E+03 -0.19915157042E+03  0.98104833887E+03  0.59983168543E+03 0.  0.
         23    2    4    4    0    0 -0.56269924567E+02  0.12518478007E+03 -0.25867445098E+03  0.30730531662E+03  0.93201676272E+02 0.  0.
         23    2    4    4    0    0 -0.65472299596E+03  0.11457658319E+03  0.59522880562E+02  0.67374302225E+03  0.92718346983E+02 0.  0.
          5    1    3    3  502    0  0.16486454435E+03 -0.54465438125E+02 -0.38653792313E+03  0.42376934522E+03  0.47000000000E+01 0. -1.
         -5    1    3    3    0  502  0.54612837617E+03 -0.18529592513E+03 -0.93209905299E+03  0.10960937541E+04  0.47000000000E+01 0.  1.
         13    1    5    5    0    0 -0.44852032121E+01  0.52191836380E+02 -0.18221435250E+03  0.18959476546E+03  0.00000000000E+00 0.  1.
        -13    1    5    5    0    0 -0.51784721355E+02  0.72992943691E+02 -0.76460098480E+02  0.11771055116E+03  0.00000000000E+00 0. -1.
          3    1    6    6  503    0 -0.42008892721E+03  0.32362846804E+02  0.56490915329E+02  0.42510385100E+03  0.00000000000E+00 0. -1.
         -3    1    6    6    0  503 -0.23463406874E+03  0.82213736385E+02  0.30319652327E+01  0.24863917125E+03  0.00000000000E+00 0.  1.
<mgrwt>
<rscale>  0 0.78112651E+03</rscale>
<asrwt>0</asrwt>
<pdfrwt beam="1">  1        2 0.75624837E-01 0.78112651E+03</pdfrwt>
<pdfrwt beam="2">  1       -2 0.30913077E+00 0.78112651E+03</pdfrwt>
<totfact> 0.18227305E+00</totfact>
</mgrwt>
</event>
<event>
12    1  0.3147868E-008  0.1514585E+04  0.7818608E-02  0.8874811E-01
         -1   -1    0    0    0  501 -0.00000000000E+00  0.00000000000E+00  0.13644180321E+04  0.13644180321E+04  0.00000000000E+00 0.  1.
          1   -1    0    0  501    0  0.00000000000E+00 -0.00000000000E+00 -0.17055516634E+04  0.17055516634E+04  0.00000000000E+00 0. -1.
         23    2    1    2    0    0  0.13845323274E+04  0.47342407286E+03 -0.23559328145E+03  0.14849696585E+04  0.92577394509E+02 0.  0.
    5000000    2    1    2    0    0 -0.13845323274E+04 -0.47342407286E+03 -0.10554034989E+03  0.15850000370E+04  0.60002186065E+03 0.  0.
         23    2    4    4    0    0 -0.10039964252E+04 -0.58414662139E+03 -0.15725986689E+03  0.11756222542E+04  0.90116157272E+02 0.  0.
         23    2    4    4    0    0 -0.38053590223E+03  0.11072254853E+03  0.51719517001E+02  0.40937778274E+03  0.88590094949E+02 0.  0.
          5    1    3    3  502    0  0.80995356071E+03  0.32440353744E+03 -0.13494926854E+03  0.88289060517E+03  0.47000000000E+01 0.  1.
         -5    1    3    3    0  502  0.57457876674E+03  0.14902053541E+03 -0.10064401291E+03  0.60207905336E+03  0.47000000000E+01 0. -1.
         11    1    5    5    0    0 -0.48687252202E+03 -0.33539180067E+03 -0.80421784076E+02  0.59665750310E+03  0.00000000000E+00 0. -1.
        -11    1    5    5    0    0 -0.51712390320E+03 -0.24875482072E+03 -0.76838082812E+02  0.57896475114E+03  0.00000000000E+00 0.  1.
          2    1    6    6  503    0 -0.62470505525E+02  0.32630679084E+02 -0.21686936416E+02  0.73740412863E+02  0.00000000000E+00 0. -1.
         -2    1    6    6    0  503 -0.31806539671E+03  0.78091869447E+02  0.73406453418E+02  0.33563736988E+03  0.00000000000E+00 0.  1.
<mgrwt>
<rscale>  0 0.15145854E+04</rscale>
<asrwt>0</asrwt>
<pdfrwt beam="1">  1        1 0.26239256E+00 0.15145854E+04</pdfrwt>
<pdfrwt beam="2">  1       -1 0.20991047E+00 0.15145854E+04</pdfrwt>
<totfact> 0.57444071E-01</totfact>
</mgrwt>
</event>
<event>
12    1  0.3147868E-008  0.2996277E+03  0.7818608E-02  0.1085427E+00
         -2   -1    0    0    0  501 -0.00000000000E+00  0.00000000000E+00  0.33592989077E+03  0.33592989077E+03  0.00000000000E+00 0.  1.
          2   -1    0    0  501    0  0.00000000000E+00 -0.00000000000E+00 -0.10764813512E+04  0.10764813512E+04  0.00000000000E+00 0. -1.
         23    2    1    2    0    0  0.20456586498E+03  0.11942198365E+02  0.18451624577E+03  0.29081870817E+03  0.92409235760E+02 0.  0.
    5000000    2    1    2    0    0 -0.20456586498E+03 -0.11942198365E+02 -0.92506770620E+03  0.11215925338E+04  0.60019142079E+03 0.  0.
         23    2    4    4    0    0 -0.27271291651E+03 -0.79610912265E+02 -0.94107977798E+03  0.98743910029E+03  0.93244817998E+02 0.  0.
         23    2    4    4    0    0  0.68147051533E+02  0.67668713900E+02  0.16012071780E+02  0.13415343350E+03  0.92291287801E+02 0.  0.
          5    1    3    3  502    0  0.13573419454E+03  0.21637326349E+02  0.64173613866E+02  0.15176392251E+03  0.47000000000E+01 0. -1.
         -5    1    3    3    0  502  0.68831670437E+02 -0.96951279837E+01  0.12034263190E+03  0.13905478566E+03  0.47000000000E+01 0.  1.
         13    1    5    5    0    0 -0.19001244528E+03 -0.89586393174E+02 -0.57988715624E+03  0.61676540530E+03  0.00000000000E+00 0.  1.
        -13    1    5    5    0    0 -0.82700471233E+02  0.99754809092E+01 -0.36119262174E+03  0.37067369499E+03  0.00000000000E+00 0. -1.
          1    1    6    6  503    0  0.68514318806E+02  0.60192076614E+02 -0.23305237400E+02  0.94129868048E+02  0.00000000000E+00 0. -1.
         -1    1    6    6    0  503 -0.36726727389E+00  0.74766372861E+01  0.39317309180E+02  0.40023565452E+02  0.00000000000E+00 0.  1.
<mgrwt>
<rscale>  0 0.29962771E+03</rscale>
<asrwt>0</asrwt>
<pdfrwt beam="1">  1        2 0.16561252E+00 0.29962771E+03</pdfrwt>
<pdfrwt beam="2">  1       -2 0.51681521E-01 0.29962771E+03</pdfrwt>
<totfact> 0.85423478E+01</totfact>
</mgrwt>
</event>
<event>
12    1  0.3147868E-008  0.7489562E+03  0.7818608E-02  0.9636989E-01
         -2   -1    0    0    0  501 -0.00000000000E+00  0.00000000000E+00  0.65241060656E+03  0.65241060656E+03  0.00000000000E+00 0.  1.
          2   -1    0    0  501    0  0.00000000000E+00 -0.00000000000E+00 -0.94775979736E+03  0.94775979736E+03  0.00000000000E+00 0. -1.
         23    2    1    2    0    0 -0.12369513548E+03  0.65510725747E+03 -0.78786879649E+02  0.67746874492E+03  0.91052306983E+02 0.  0.
    5000000    2    1    2    0    0  0.12369513548E+03 -0.65510725747E+03 -0.21656231115E+03  0.92270165899E+03  0.60001092620E+03 0.  0.
         23    2    4    4    0    0  0.28030948793E+03 -0.55278763425E+03 -0.52872811567E+01  0.62652816105E+03  0.91443991797E+02 0.  0.
         23    2    4    4    0    0 -0.15661435246E+03 -0.10231962322E+03 -0.21127502999E+03  0.29617349795E+03  0.89912412349E+02 0.  0.
          5    1    3    3  502    0 -0.68765317926E+02  0.50166157279E+03 -0.88846833972E+02  0.51410976695E+03  0.47000000000E+01 0. -1.
         -5    1    3    3    0  502 -0.54929817550E+02  0.15344568468E+03  0.10059954323E+02  0.16335897797E+03  0.47000000000E+01 0.  1.
         11    1    5    5    0    0  0.20595890357E+03 -0.34943706740E+03 -0.38656856417E+02  0.40745513444E+03  0.00000000000E+00 0.  1.
        -11    1    5    5    0    0  0.74350584364E+02 -0.20335056685E+03  0.33369575261E+02  0.21907302661E+03  0.00000000000E+00 0. -1.
          3    1    6    6  503    0 -0.11191878064E+03 -0.11441497390E+03 -0.17652646627E+03  0.23828175131E+03  0.00000000000E+00 0.  1.
         -3    1    6    6    0  503 -0.44695571815E+02  0.12095350677E+02 -0.34748563728E+02  0.57891746640E+02  0.00000000000E+00 0. -1.
<mgrwt>
<rscale>  0 0.74895620E+03</rscale>
<asrwt>0</asrwt>
<pdfrwt beam="1">  1        2 0.14580920E+00 0.74895620E+03</pdfrwt>
<pdfrwt beam="2">  1       -2 0.10037086E+00 0.74895620E+03</pdfrwt>
<totfact> 0.22660788E+01</totfact>
</mgrwt>
</event>
<event>
12    1  0.3147868E-008  0.1189378E+04  0.7818608E-02  0.9122205E-01
         -1   -1    0    0    0  501 -0.00000000000E+00  0.00000000000E+00  0.11865829266E+04  0.11865829266E+04  0.00000000000E+00 0.  1.
          1   -1    0    0  501    0  0.00000000000E+00 -0.00000000000E+00 -0.17721824727E+04  0.17721824727E+04  0.00000000000E+00 0. -1.
         23    2    1    2    0    0 -0.21609186443E+03  0.11053530956E+04 -0.11055150630E+04  0.15807840568E+04  0.90628471795E+02 0.  0.
    5000000    2    1    2    0    0  0.21609186443E+03 -0.11053530956E+04  0.51991551687E+03  0.13779813426E+04  0.60001606308E+03 0.  0.
         23    2    4    4    0    0  0.31095013736E+03 -0.30155047361E+03  0.29786521630E+03  0.53341387390E+03  0.90465450456E+02 0.  0.
         23    2    4    4    0    0 -0.94858272932E+02 -0.80380262198E+03  0.22205030057E+03  0.84456746866E+03  0.94292767962E+02 0.  0.
          5    1    3    3  502    0 -0.15825137471E+03  0.80100496920E+03 -0.74359958608E+03  0.11043617581E+04  0.47000000000E+01 0. -1.
         -5    1    3    3    0  502 -0.57840489722E+02  0.30434812639E+03 -0.36191547687E+03  0.47642229869E+03  0.47000000000E+01 0.  1.
         13    1    5    5    0    0  0.11581228004E+03 -0.55936952118E+02  0.93795322314E+02  0.15918225186E+03  0.00000000000E+00 0. -1.
        -13    1    5    5    0    0  0.19513785732E+03 -0.24561352149E+03  0.20406989399E+03  0.37423162204E+03  0.00000000000E+00 0.  1.
          2    1    6    6  503    0 -0.30821120405E+02 -0.14691803439E+03  0.77433624619E+02  0.16891067614E+03  0.00000000000E+00 0. -1.
         -2    1    6    6    0  503 -0.64037152526E+02 -0.65688458759E+03  0.14461667595E+03  0.67565679252E+03  0.00000000000E+00 0.  1.
<mgrwt>
<rscale>  0 0.11893781E+04</rscale>
<asrwt>0</asrwt>
<pdfrwt beam="1">  1        1 0.27264346E+00 0.11893781E+04</pdfrwt>
<pdfrwt beam="2">  1       -1 0.18255122E+00 0.11893781E+04</pdfrwt>
<totfact> 0.83387087E-01</totfact>
</mgrwt>
</event>
<event>
12    1  0.3147868E-008  0.6115391E+03  0.7818608E-02  0.9881751E-01
         -2   -1    0    0    0  501 -0.00000000000E+00  0.00000000000E+00  0.41796591397E+03  0.41796591397E+03  0.00000000000E+00 0.  1.
          2   -1    0    0  501    0  0.00000000000E+00 -0.00000000000E+00 -0.12766287910E+04  0.12766287910E+04  0.00000000000E+00 0. -1.
         23    2    1    2    0    0  0.33398116452E+02 -0.53626165793E+03 -0.40936343541E+02  0.54684516649E+03  0.93122778881E+02 0.  0.
    5000000    2    1    2    0    0 -0.33398116452E+02  0.53626165793E+03 -0.81772653352E+03  0.11477495385E+04  0.59996693208E+03 0.  0.
         23    2    4    4    0    0 -0.12222493026E+03  0.54554883161E+03 -0.84440683325E+03  0.10160266346E+04  0.82004639756E+02 0.  0.
         23    2    4    4    0    0  0.88826813810E+02 -0.92871736853E+01  0.26680299733E+02  0.13172290390E+03  0.93073253794E+02 0.  0.
          5    1    3    3  502    0  0.11095332847E+02 -0.28629330650E+03 -0.67644525590E+02  0.29442288566E+03  0.47000000000E+01 0. -1.
         -5    1    3    3    0  502  0.22302783605E+02 -0.24996835143E+03  0.26708182049E+02  0.25242228083E+03  0.47000000000E+01 0.  1.
         13    1    5    5    0    0 -0.77986310892E+02  0.45449670293E+03 -0.65170522852E+03  0.79835382039E+03  0.00000000000E+00 0. -1.
        -13    1    5    5    0    0 -0.44238619370E+02  0.91052128684E+02 -0.19270160473E+03  0.21767281421E+03  0.00000000000E+00 0.  1.
          1    1    6    6  503    0  0.90530134861E+02  0.20908510325E+02  0.24092073475E+01  0.92944474833E+02  0.00000000000E+00 0. -1.
         -1    1    6    6    0  503 -0.17033210506E+01 -0.30195684011E+02  0.24271092385E+02  0.38778429069E+02  0.00000000000E+00 0.  1.
<mgrwt>
<rscale>  0 0.61153907E+03</rscale>
<asrwt>0</asrwt>
<pdfrwt beam="1">  1        2 0.19640443E+00 0.61153907E+03</pdfrwt>
<pdfrwt beam="2">  1       -2 0.64302449E-01 0.61153907E+03</pdfrwt>
<totfact> 0.39466501E+01</totfact>
</mgrwt>
</event>
<event>
12    1  0.3147868E-008  0.5877026E+03  0.7818608E-02  0.9931253E-01
         -2   -1    0    0    0  501 -0.00000000000E+00  0.00000000000E+00  0.31910739579E+03  0.31910739579E+03  0.00000000000E+00 0.  1.
          2   -1    0    0  501    0  0.00000000000E+00 -0.00000000000E+00 -0.18984071380E+04  0.18984071380E+04  0.00000000000E+00 0. -1.
         23    2    1    2    0    0  0.48262549496E+03 -0.16933025719E+03 -0.83468285062E+02  0.52668593004E+03  0.93973453196E+02 0.  0.
    5000000    2    1    2    0    0 -0.48262549496E+03  0.16933025719E+03 -0.14958314571E+04  0.16908286037E+04  0.59982456992E+03 0.  0.
         23    2    4    4    0    0  0.51693533243E+02  0.50608872554E+02 -0.76026067672E+03  0.76964117647E+03  0.95486986535E+02 0.  0.
         23    2    4    4    0    0 -0.53431902820E+03  0.11872138463E+03 -0.73557078042E+03  0.92118742727E+03  0.89052299713E+02 0.  0.
          5    1    3    3  502    0  0.12988202811E+03 -0.61391509842E+02  0.15914921620E+02  0.14461546749E+03  0.47000000000E+01 0. -1.
         -5    1    3    3    0  502  0.35274346684E+03 -0.10793874734E+03 -0.99383206681E+02  0.38207046254E+03  0.47000000000E+01 0.  1.
         11    1    5    5    0    0 -0.12979358715E+02  0.47695036973E+02 -0.44945056573E+03  0.45216047078E+03  0.00000000000E+00 0.  1.
        -11    1    5    5    0    0  0.64672891958E+02  0.29138355809E+01 -0.31081011099E+03  0.31748070569E+03  0.00000000000E+00 0. -1.
          3    1    6    6  503    0 -0.19487614426E+03  0.61495404016E+02 -0.21081358837E+03  0.29359966853E+03  0.00000000000E+00 0. -1.
         -3    1    6    6    0  503 -0.33944288394E+03  0.57225980617E+02 -0.52475719205E+03  0.62758775874E+03  0.00000000000E+00 0.  1.
<mgrwt>
<rscale>  0 0.58770259E+03</rscale>
<asrwt>0</asrwt>
<pdfrwt beam="1">  1        2 0.29206262E+00 0.58770259E+03</pdfrwt>
<pdfrwt beam="2">  1       -2 0.49093448E-01 0.58770259E+03</pdfrwt>
<totfact> 0.31522877E+01</totfact>
</mgrwt>
</event>
<event>
12    1  0.3147868E-008  0.1005440E+04  0.7818608E-02  0.9302598E-01
          2   -1    0    0  501    0  0.00000000000E+00  0.00000000000E+00  0.23724384658E+04  0.23724384658E+04  0.00000000000E+00 0. -1.
         -2   -1    0    0    0  501 -0.00000000000E+00 -0.00000000000E+00 -0.43134897116E+03  0.43134897116E+03  0.00000000000E+00 0.  1.
         23    2    1    2    0    0 -0.84883255135E+03 -0.35276332043E+03  0.94480657520E+03  0.13213659345E+04  0.91595893657E+02 0.  0.
    5000000    2    1    2    0    0  0.84883255135E+03  0.35276332043E+03  0.99628291941E+03  0.14824215025E+04  0.60002932844E+03 0.  0.
         23    2    4    4    0    0  0.75152419514E+03  0.49007563189E+03  0.87202996148E+03  0.12545245778E+04  0.91830941481E+02 0.  0.
         23    2    4    4    0    0  0.97308356216E+02 -0.13731231147E+03  0.12425295793E+03  0.22789692463E+03  0.90413625269E+02 0.  0.
          5    1    3    3  502    0 -0.46897165503E+03 -0.20761236627E+03  0.58898465239E+03  0.78100084417E+03  0.47000000000E+01 0. -1.
         -5    1    3    3    0  502 -0.37986089632E+03 -0.14515095416E+03  0.35582192282E+03  0.54036509029E+03  0.47000000000E+01 0.  1.
         13    1    5    5    0    0  0.55956807066E+03  0.32506640614E+03  0.65993760979E+03  0.92428471962E+03  0.00000000000E+00 0.  1.
        -13    1    5    5    0    0  0.19195612448E+03  0.16500922576E+03  0.21209235169E+03  0.33023985822E+03  0.00000000000E+00 0. -1.
          3    1    6    6  503    0 -0.13136513516E+02  0.19743531356E+01  0.85276283362E+01  0.15785642296E+02  0.00000000000E+00 0. -1.
         -3    1    6    6    0  503  0.11044486973E+03 -0.13928666460E+03  0.11572532959E+03  0.21211128234E+03  0.00000000000E+00 0.  1.
<mgrwt>
<rscale>  0 0.10054401E+04</rscale>
<asrwt>0</asrwt>
<pdfrwt beam="1">  1        2 0.36499053E+00 0.10054401E+04</pdfrwt>
<pdfrwt beam="2">  1       -2 0.66361381E-01 0.10054401E+04</pdfrwt>
<totfact> 0.86784213E+00</totfact>
</mgrwt>
</event>
<event>
12    1  0.3147868E-008  0.4265953E+03  0.7818608E-02  0.1034941E+00
          1   -1    0    0  501    0  0.00000000000E+00  0.00000000000E+00  0.52339732325E+03  0.52339732325E+03  0.00000000000E+00 0. -1.
         -1   -1    0    0    0  501 -0.00000000000E+00 -0.00000000000E+00 -0.59711652042E+03  0.59711652042E+03  0.00000000000E+00 0.  1.
         23    2    1    2    0    0 -0.13962230380E+03 -0.21783867497E+03 -0.32207292416E+03  0.42165147049E+03  0.84326259616E+02 0.  0.
    5000000    2    1    2    0    0  0.13962230380E+03  0.21783867497E+03  0.24835372699E+03  0.69886237317E+03  0.59981744464E+03 0.  0.
         23    2    4    4    0    0  0.32643784618E+03  0.19200040596E+03  0.28968318701E+03  0.48514769101E+03  0.89588559278E+02 0.  0.
         23    2    4    4    0    0 -0.18681554237E+03  0.25838269014E+02 -0.41329460017E+02  0.21371468216E+03  0.91641574021E+02 0.  0.
          5    1    3    3  502    0 -0.88764114550E+02 -0.18619270008E+03 -0.28204755199E+03  0.34945629366E+03  0.47000000000E+01 0. -1.
         -5    1    3    3    0  502 -0.50858189251E+02 -0.31645974888E+02 -0.40025372169E+02  0.72195176832E+02  0.47000000000E+01 0.  1.
         11    1    5    5    0    0  0.24453373216E+02  0.21561352099E+02  0.62795437664E+02  0.70753984746E+02  0.00000000000E+00 0.  1.
        -11    1    5    5    0    0  0.30198447296E+03  0.17043905386E+03  0.22688774934E+03  0.41439370626E+03  0.00000000000E+00 0. -1.
          2    1    6    6  503    0 -0.10305255213E+02 -0.22212379076E+02 -0.15465771231E+02  0.28961666889E+02  0.00000000000E+00 0. -1.
         -2    1    6    6    0  503 -0.17651028716E+03  0.48050648090E+02 -0.25863688787E+02  0.18475301528E+03  0.00000000000E+00 0.  1.
<mgrwt>
<rscale>  0 0.42659526E+03</rscale>
<asrwt>0</asrwt>
<pdfrwt beam="1">  1        1 0.80522665E-01 0.42659526E+03</pdfrwt>
<pdfrwt beam="2">  1       -1 0.91864080E-01 0.42659526E+03</pdfrwt>
<totfact> 0.50842403E+01</totfact>
</mgrwt>
</event>
<event>
12    1  0.3147868E-008  0.1200159E+04  0.7818608E-02  0.9112717E-01
         -1   -1    0    0    0  501 -0.00000000000E+00  0.00000000000E+00  0.54154393393E+03  0.54154393393E+03  0.00000000000E+00 0.  1.
          1   -1    0    0  501    0  0.00000000000E+00 -0.00000000000E+00 -0.29002238459E+04  0.29002238459E+04  0.00000000000E+00 0. -1.
         23    2    1    2    0    0  0.10199602125E+04  0.56256620995E+03 -0.85809828952E+03  0.14496582699E+04  0.91525130235E+02 0.  0.
    5000000    2    1    2    0    0 -0.10199602125E+04 -0.56256620995E+03 -0.15005816224E+04  0.19921095099E+04  0.59996293065E+03 0.  0.
         23    2    4    4    0    0 -0.47632754211E+02  0.18143577236E+02 -0.38631059621E+03  0.40057915529E+03  0.92896255235E+02 0.  0.
         23    2    4    4    0    0 -0.97232745828E+03 -0.58070978719E+03 -0.11142710262E+04  0.15915303546E+04  0.93404532381E+02 0.  0.
          5    1    3    3  502    0  0.84086436208E+03  0.43919404869E+03 -0.73181576872E+03  0.11981321702E+04  0.47000000000E+01 0. -1.
         -5    1    3    3    0  502  0.17909585040E+03  0.12337216126E+03 -0.12628252081E+03  0.25152609977E+03  0.47000000000E+01 0.  1.
         11    1    5    5    0    0 -0.62213326455E+02 -0.12997194110E+02 -0.31578917924E+03  0.32212145344E+03  0.00000000000E+00 0.  1.
        -11    1    5    5    0    0  0.14580572244E+02  0.31140771346E+02 -0.70521416975E+02  0.78457701848E+02  0.00000000000E+00 0. -1.
          1    1    6    6  503    0 -0.23805720997E+03 -0.97903457482E+02 -0.26507286278E+03  0.36948605493E+03  0.00000000000E+00 0. -1.
         -1    1    6    6    0  503 -0.73427024830E+03 -0.48280632971E+03 -0.84919816343E+03  0.12220442997E+04  0.00000000000E+00 0.  1.
<mgrwt>
<rscale>  0 0.12001589E+04</rscale>
<asrwt>0</asrwt>
<pdfrwt beam="1">  1        1 0.44618828E+00 0.12001589E+04</pdfrwt>
<pdfrwt beam="2">  1       -1 0.83314452E-01 0.12001589E+04</pdfrwt>
<totfact> 0.10059737E+00</totfact>
</mgrwt>
</event>
<event>
12    1  0.3147868E-008  0.7278200E+03  0.7818608E-02  0.9670805E-01
          1   -1    0    0  501    0  0.00000000000E+00  0.00000000000E+00  0.30489742661E+04  0.30489742661E+04  0.00000000000E+00 0. -1.
         -1   -1    0    0    0  501 -0.00000000000E+00 -0.00000000000E+00 -0.20090585474E+03  0.20090585474E+03  0.00000000000E+00 0.  1.
         23    2    1    2    0    0 -0.62951313327E+03  0.30026416371E+02  0.78515868647E+03  0.10109404778E+04  0.91313285744E+02 0.  0.
    5000000    2    1    2    0    0  0.62951313327E+03 -0.30026416371E+02  0.20629097249E+04  0.22389396430E+04  0.60005484865E+03 0.  0.
         23    2    4    4    0    0 -0.69384654377E+02  0.90900828756E+02  0.45543560336E+03  0.47970334681E+03  0.98063862865E+02 0.  0.
         23    2    4    4    0    0  0.69889778764E+03 -0.12092724513E+03  0.16074741215E+04  0.17592362962E+04  0.88644110438E+02 0.  0.
          5    1    3    3  502    0 -0.38670582569E+03  0.36894193658E+02  0.54531372911E+03  0.66954591352E+03  0.47000000000E+01 0. -1.
         -5    1    3    3    0  502 -0.24280730757E+03 -0.68677772876E+01  0.23984495736E+03  0.34139456432E+03  0.47000000000E+01 0.  1.
         11    1    5    5    0    0 -0.58555740300E+02  0.69371267473E+02  0.16545760546E+03  0.18872563864E+03  0.00000000000E+00 0. -1.
        -11    1    5    5    0    0 -0.10828914077E+02  0.21529561283E+02  0.28997799790E+03  0.29097770818E+03  0.00000000000E+00 0.  1.
          4    1    6    6  503    0  0.63607501263E+03 -0.11215869304E+03  0.15166620267E+04  0.16484643452E+04  0.00000000000E+00 0.  1.
         -4    1    6    6    0  503  0.62822775013E+02 -0.87685520860E+01  0.90812094859E+02  0.11077195105E+03  0.00000000000E+00 0. -1.
<mgrwt>
<rscale>  0 0.72781997E+03</rscale>
<asrwt>0</asrwt>
<pdfrwt beam="1">  1        1 0.46907293E+00 0.72781997E+03</pdfrwt>
<pdfrwt beam="2">  1       -1 0.30908595E-01 0.72781997E+03</pdfrwt>
<totfact> 0.57107711E+00</totfact>
</mgrwt>
</event>
<event>
12    1  0.3147868E-008  0.4971874E+03  0.7818608E-02  0.1014516E+00
         -2   -1    0    0    0  501 -0.00000000000E+00  0.00000000000E+00  0.30786143342E+03  0.30786143342E+03  0.00000000000E+00 0.  1.
          2   -1    0    0  501    0  0.00000000000E+00 -0.00000000000E+00 -0.17431267193E+04  0.17431267193E+04  0.00000000000E+00 0. -1.
         23    2    1    2    0    0 -0.81460333621E+02 -0.40701436090E+03 -0.12172589963E+04  0.12896850127E+04  0.96288585933E+02 0.  0.
    5000000    2    1    2    0    0  0.81460333621E+02  0.40701436090E+03 -0.21800628954E+03  0.76130314006E+03  0.59979934382E+03 0.  0.
         23    2    4    4    0    0 -0.14270107165E+03  0.22455928820E+03 -0.33356285293E+03  0.43691826516E+03  0.94036821552E+02 0.  0.
         23    2    4    4    0    0  0.22416140527E+03  0.18245507270E+03  0.11555656338E+03  0.32438487490E+03  0.91290955507E+02 0.  0.
          5    1    3    3  502    0 -0.65418450646E+01 -0.60376524147E+00 -0.65986053032E+02  0.66478639156E+02  0.47000000000E+01 0. -1.
         -5    1    3    3    0  502 -0.74918488557E+02 -0.40641059566E+03 -0.11512729433E+04  0.12232063735E+04  0.47000000000E+01 0.  1.
         13    1    5    5    0    0 -0.55933479815E+02  0.13626070488E+03 -0.11965344886E+03  0.18976954888E+03  0.00000000000E+00 0. -1.
        -13    1    5    5    0    0 -0.86767591831E+02  0.88298583326E+02 -0.21390940407E+03  0.24714871628E+03  0.00000000000E+00 0.  1.
          1    1    6    6  503    0  0.92280402245E+01  0.46931777620E+02  0.29097156788E+02  0.55985650037E+02  0.00000000000E+00 0. -1.
         -1    1    6    6    0  503  0.21493336504E+03  0.13552329508E+03  0.86459406596E+02  0.26839922486E+03  0.00000000000E+00 0.  1.
<mgrwt>
<rscale>  0 0.49718735E+03</rscale>
<asrwt>0</asrwt>
<pdfrwt beam="1">  1        2 0.26817334E+00 0.49718735E+03</pdfrwt>
<pdfrwt beam="2">  1       -2 0.47363297E-01 0.49718735E+03</pdfrwt>
<totfact> 0.41723955E+01</totfact>
</mgrwt>
</event>
<event>
12    1  0.3147868E-008  0.1143312E+04  0.7818608E-02  0.9163976E-01
          2   -1    0    0  501    0  0.00000000000E+00  0.00000000000E+00  0.15564960859E+04  0.15564960859E+04  0.00000000000E+00 0. -1.
         -2   -1    0    0    0  501 -0.00000000000E+00 -0.00000000000E+00 -0.90899207389E+03  0.90899207389E+03  0.00000000000E+00 0.  1.
         23    2    1    2    0    0 -0.10638783448E+04 -0.19723215497E+03  0.39435701262E+02  0.10865685616E+04  0.91314889514E+02 0.  0.
    5000000    2    1    2    0    0  0.10638783448E+04  0.19723215497E+03  0.60806831077E+03  0.13789195982E+04  0.60077827224E+03 0.  0.
         23    2    4    4    0    0  0.90965459793E+03  0.35378069445E+03  0.58159657483E+03  0.11399195080E+04  0.92356058839E+02 0.  0.
         23    2    4    4    0    0  0.15422374684E+03 -0.15654853948E+03  0.26471735940E+02  0.23900009021E+03  0.90154761472E+02 0.  0.
          5    1    3    3  502    0 -0.85237141524E+03 -0.16435723841E+03  0.67175716208E+02  0.87068076709E+03  0.47000000000E+01 0. -1.
         -5    1    3    3    0  502 -0.21150692953E+03 -0.32874916558E+02 -0.27740014945E+02  0.21588779448E+03  0.47000000000E+01 0.  1.
         13    1    5    5    0    0  0.79791311358E+03  0.27647804652E+03  0.50526553234E+03  0.98407251013E+03  0.00000000000E+00 0. -1.
        -13    1    5    5    0    0  0.11174148435E+03  0.77302647930E+02  0.76331042488E+02  0.15584699788E+03  0.00000000000E+00 0.  1.
          2    1    6    6  503    0  0.13779369791E+03 -0.11516252670E+03  0.52911183827E+02  0.18721405960E+03  0.00000000000E+00 0. -1.
         -2    1    6    6    0  503  0.16430048929E+02 -0.41386012781E+02 -0.26439447887E+02  0.51786030610E+02  0.00000000000E+00 0.  1.
<mgrwt>
<rscale>  0 0.11433117E+04</rscale>
<asrwt>0</asrwt>
<pdfrwt beam="1">  1        2 0.23946094E+00 0.11433117E+04</pdfrwt>
<pdfrwt beam="2">  1       -2 0.13984493E+00 0.11433117E+04</pdfrwt>
<totfact> 0.41567590E+00</totfact>
</mgrwt>
</event>
<event>
12    1  0.3147868E-008  0.5132019E+03  0.7818608E-02  0.1010389E+00
          2   -1    0    0  501    0  0.00000000000E+00  0.00000000000E+00  0.16020155412E+04  0.16020155412E+04  0.00000000000E+00 0.  1.
         -2   -1    0    0    0  501 -0.00000000000E+00 -0.00000000000E+00 -0.24116383519E+03  0.24116383519E+03  0.00000000000E+00 0. -1.
         23    2    1    2    0    0 -0.46506073113E+03 -0.64994487790E+02  0.44809550114E+03  0.65432450299E+03  0.82735784253E+02 0.  0.
    5000000    2    1    2    0    0  0.46506073113E+03  0.64994487790E+02  0.91275620485E+03  0.11888548734E+04  0.59978850720E+03 0.  0.
         23    2    4    4    0    0  0.23861600144E+03 -0.10752132076E+03  0.56417794478E+02  0.28201005995E+03  0.88590495075E+02 0.  0.
         23    2    4    4    0    0  0.22644472969E+03  0.17251580855E+03  0.85633841037E+03  0.90684481343E+03  0.89516047484E+02 0.  0.
          5    1    3    3  502    0 -0.20416115539E+03 -0.38236589033E+02  0.14432889177E+03  0.25297575597E+03  0.47000000000E+01 0.  1.
         -5    1    3    3    0  502 -0.26089957574E+03 -0.26757898756E+02  0.30376660937E+03  0.40134874702E+03  0.47000000000E+01 0. -1.
         11    1    5    5    0    0  0.21620153550E+03 -0.69631060315E+02  0.26267475779E+02  0.22865163196E+03  0.00000000000E+00 0.  1.
        -11    1    5    5    0    0  0.22414465937E+02 -0.37890260444E+02  0.30150318699E+02  0.53358427989E+02  0.00000000000E+00 0. -1.
          1    1    6    6  503    0  0.14768962581E+03  0.12241898959E+03  0.43709863899E+03  0.47734039719E+03  0.00000000000E+00 0. -1.
         -1    1    6    6    0  503  0.78755103877E+02  0.50096818959E+02  0.41923977138E+03  0.42950441623E+03  0.00000000000E+00 0.  1.
<mgrwt>
<rscale>  0 0.51320193E+03</rscale>
<asrwt>0</asrwt>
<pdfrwt beam="1">  1        2 0.24646392E+00 0.51320193E+03</pdfrwt>
<pdfrwt beam="2">  1       -2 0.37102129E-01 0.51320193E+03</pdfrwt>
<totfact> 0.79978584E+01</totfact>
</mgrwt>
</event>
<event>
12    1  0.3147868E-008  0.1041732E+04  0.7818608E-02  0.9263922E-01
         -2   -1    0    0    0  501 -0.00000000000E+00  0.00000000000E+00  0.13336394883E+04  0.13336394883E+04  0.00000000000E+00 0.  1.
          2   -1    0    0  501    0  0.00000000000E+00 -0.00000000000E+00 -0.10268467944E+04  0.10268467944E+04  0.00000000000E+00 0. -1.
         23    2    1    2    0    0 -0.81616967157E+03 -0.62679591477E+03 -0.22294416581E+03  0.10567335455E+04  0.89306403097E+02 0.  0.
    5000000    2    1    2    0    0  0.81616967157E+03  0.62679591477E+03  0.52973685965E+03  0.13037527372E+04  0.60011999433E+03 0.  0.
         23    2    4    4    0    0  0.15863785619E+03  0.37461465885E+02  0.35206483226E+03  0.39822492384E+03  0.89800406522E+02 0.  0.
         23    2    4    4    0    0  0.65753181538E+03  0.58933444889E+03  0.17767202738E+03  0.90552781331E+03  0.93541918314E+02 0.  0.
          5    1    3    3  502    0 -0.60155987321E+03 -0.41457359539E+03 -0.14281010590E+03  0.74442082413E+03  0.47000000000E+01 0. -1.
         -5    1    3    3    0  502 -0.21460979836E+03 -0.21222231938E+03 -0.80134059915E+02  0.31231272141E+03  0.47000000000E+01 0.  1.
         11    1    5    5    0    0  0.93432112999E+02  0.17286441186E+02  0.10368652980E+03  0.14063881843E+03  0.00000000000E+00 0. -1.
        -11    1    5    5    0    0  0.65205743194E+02  0.20175024699E+02  0.24837830246E+03  0.25758610541E+03  0.00000000000E+00 0.  1.
          1    1    6    6  503    0  0.45725697975E+03  0.35106587981E+03  0.10652097996E+03  0.58624049389E+03  0.00000000000E+00 0. -1.
         -1    1    6    6    0  503  0.20027483562E+03  0.23826856908E+03  0.71151047421E+02  0.31928731942E+03  0.00000000000E+00 0.  1.
<mgrwt>
<rscale>  0 0.10417325E+04</rscale>
<asrwt>0</asrwt>
<pdfrwt beam="1">  1        2 0.15797643E+00 0.10417325E+04</pdfrwt>
<pdfrwt beam="2">  1       -2 0.20517531E+00 0.10417325E+04</pdfrwt>
<totfact> 0.29428645E+00</totfact>
</mgrwt>
</event>
<event>
12    1  0.3147868E-008  0.3907836E+03  0.7818608E-02  0.1047019E+00
          2   -1    0    0  501    0  0.00000000000E+00  0.00000000000E+00  0.15035952312E+04  0.15035952312E+04  0.00000000000E+00 0. -1.
         -2   -1    0    0    0  501 -0.00000000000E+00 -0.00000000000E+00 -0.39612643514E+03  0.39612643514E+03  0.00000000000E+00 0.  1.
         23    2    1    2    0    0  0.10937615788E+02  0.17300147505E+03 -0.30056722291E+03  0.35963329468E+03  0.94584931930E+02 0.  0.
    5000000    2    1    2    0    0 -0.10937615788E+02 -0.17300147505E+03  0.14080360190E+04  0.15400883717E+04  0.59938103072E+03 0.  0.
         23    2    4    4    0    0 -0.97345563493E+02  0.19011534657E+03  0.65037018340E+03  0.69078863038E+03  0.92669049131E+02 0.  0.
         23    2    4    4    0    0  0.86407947705E+02 -0.36311682163E+03  0.75766583558E+03  0.84929974129E+03  0.89063867940E+02 0.  0.
          5    1    3    3  502    0  0.28732409457E+02  0.53462955141E+02 -0.17502076218E+03  0.18530568291E+03  0.47000000000E+01 0. -1.
         -5    1    3    3    0  502 -0.17794793669E+02  0.11953851991E+03 -0.12554646073E+03  0.17432761177E+03  0.47000000000E+01 0.  1.
         13    1    5    5    0    0 -0.16525268472E+02  0.11372240899E+03  0.24797344296E+03  0.27330696884E+03  0.00000000000E+00 0.  1.
        -13    1    5    5    0    0 -0.80820295021E+02  0.76392937584E+02  0.40239674045E+03  0.41748166154E+03  0.00000000000E+00 0. -1.
          2    1    6    6  503    0  0.16467831012E+02 -0.10076572098E+03  0.30291898960E+03  0.31966362671E+03  0.00000000000E+00 0. -1.
         -2    1    6    6    0  503  0.69940116693E+02 -0.26235110065E+03  0.45474684598E+03  0.52963611458E+03  0.00000000000E+00 0.  1.
<mgrwt>
<rscale>  0 0.39078356E+03</rscale>
<asrwt>0</asrwt>
<pdfrwt beam="1">  1        2 0.23132234E+00 0.39078356E+03</pdfrwt>
<pdfrwt beam="2">  1       -2 0.60942529E-01 0.39078356E+03</pdfrwt>
<totfact> 0.34249168E+01</totfact>
</mgrwt>
</event>
<event>
12    1  0.3147868E-008  0.5737214E+03  0.7818608E-02  0.9961477E-01
         -2   -1    0    0    0  501 -0.00000000000E+00  0.00000000000E+00  0.42568814942E+03  0.42568814942E+03  0.00000000000E+00 0.  1.
          2   -1    0    0  501    0  0.00000000000E+00 -0.00000000000E+00 -0.97908063017E+03  0.97908063017E+03  0.00000000000E+00 0. -1.
         23    2    1    2    0    0 -0.34191289818E+03  0.26995275944E+03 -0.48824768714E+03  0.66070440319E+03  0.91463556222E+02 0.  0.
    5000000    2    1    2    0    0  0.34191289818E+03 -0.26995275944E+03 -0.65144793608E+02  0.74406437641E+03  0.59967410302E+03 0.  0.
         23    2    4    4    0    0  0.19375532580E+03 -0.42436038141E+03  0.62503397296E+02  0.47907178926E+03  0.89332217076E+02 0.  0.
         23    2    4    4    0    0  0.14815757238E+03  0.15440762197E+03 -0.12764819090E+03  0.26499258714E+03  0.90192187133E+02 0.  0.
          5    1    3    3  502    0 -0.14195789993E+03  0.15782906019E+03 -0.27626654192E+03  0.34843557479E+03  0.47000000000E+01 0. -1.
         -5    1    3    3    0  502 -0.19995499825E+03  0.11212369925E+03 -0.21198114522E+03  0.31226882840E+03  0.47000000000E+01 0.  1.
         11    1    5    5    0    0  0.18351266274E+03 -0.31114136505E+03  0.44095327524E+02  0.36390966508E+03  0.00000000000E+00 0. -1.
        -11    1    5    5    0    0  0.10242663052E+02 -0.11321901637E+03  0.18408069772E+02  0.11516212418E+03  0.00000000000E+00 0.  1.
          1    1    6    6  503    0  0.11931996002E+03  0.62734409710E+02 -0.88275541418E+02  0.16113792301E+03  0.00000000000E+00 0. -1.
         -1    1    6    6    0  503  0.28837612369E+02  0.91673212263E+02 -0.39372649487E+02  0.10385466413E+03  0.00000000000E+00 0.  1.
<mgrwt>
<rscale>  0 0.57372139E+03</rscale>
<asrwt>0</asrwt>
<pdfrwt beam="1">  1        2 0.15062779E+00 0.57372139E+03</pdfrwt>
<pdfrwt beam="2">  1       -2 0.65490484E-01 0.57372139E+03</pdfrwt>
<totfact> 0.57617826E+01</totfact>
</mgrwt>
</event>
<event>
12    1  0.3147868E-008  0.7649749E+03  0.7818608E-02  0.9612146E-01
          1   -1    0    0  501    0  0.00000000000E+00  0.00000000000E+00  0.36988045558E+04  0.36988045558E+04  0.00000000000E+00 0.  1.
         -1   -1    0    0    0  501 -0.00000000000E+00 -0.00000000000E+00 -0.16767438623E+03  0.16767438623E+03  0.00000000000E+00 0. -1.
         23    2    1    2    0    0  0.11546547305E+03 -0.65046609359E+03  0.12472805316E+04  0.14144560398E+04  0.92405354648E+02 0.  0.
    5000000    2    1    2    0    0 -0.11546547305E+03  0.65046609359E+03  0.22838496379E+04  0.24520229022E+04  0.60000727489E+03 0.  0.
         23    2    4    4    0    0 -0.14740462641E+03 -0.39618147593E+02  0.29557517194E+03  0.34516312717E+03  0.92060743979E+02 0.  0.
         23    2    4    4    0    0  0.31939153354E+02  0.69008424118E+03  0.19882744660E+04  0.21068597750E+04  0.91577236018E+02 0.  0.
          5    1    3    3  502    0  0.10200623701E+03 -0.40319399912E+03  0.71050626199E+03  0.82329333268E+03  0.47000000000E+01 0. -1.
         -5    1    3    3    0  502  0.13459236049E+02 -0.24727209446E+03  0.53677426962E+03  0.59116270710E+03  0.47000000000E+01 0.  1.
         11    1    5    5    0    0 -0.43926934621E+02 -0.49916435330E+02  0.68787813742E+02  0.95671257024E+02  0.00000000000E+00 0.  1.
        -11    1    5    5    0    0 -0.10347769179E+03  0.10298287737E+02  0.22678735820E+03  0.24949187014E+03  0.00000000000E+00 0. -1.
          4    1    6    6  503    0 -0.54990921641E+01  0.57110628553E+03  0.15866354832E+04  0.16862991389E+04  0.00000000000E+00 0. -1.
         -4    1    6    6    0  503  0.37438245518E+02  0.11897795565E+03  0.40163898284E+03  0.42056063617E+03  0.00000000000E+00 0.  1.
<mgrwt>
<rscale>  0 0.76497493E+03</rscale>
<asrwt>0</asrwt>
<pdfrwt beam="1">  1        1 0.56904679E+00 0.76497493E+03</pdfrwt>
<pdfrwt beam="2">  1       -1 0.25796062E-01 0.76497493E+03</pdfrwt>
<totfact> 0.24912561E+00</totfact>
</mgrwt>
</event>
<event>
12    1  0.3147868E-008  0.4691229E+03  0.7818608E-02  0.1022168E+00
         -1   -1    0    0    0  501 -0.00000000000E+00  0.00000000000E+00  0.11469405849E+04  0.11469405849E+04  0.00000000000E+00 0.  1.
          1   -1    0    0  501    0  0.00000000000E+00 -0.00000000000E+00 -0.23210220119E+03  0.23210220119E+03  0.00000000000E+00 0. -1.
         23    2    1    2    0    0 -0.33897726442E+02 -0.28863454648E+03  0.52362429001E+03  0.60578383405E+03  0.91283619688E+02 0.  0.
    5000000    2    1    2    0    0  0.33897726442E+02  0.28863454648E+03  0.39121409367E+03  0.77325895200E+03  0.60035154908E+03 0.  0.
         23    2    4    4    0    0 -0.85698073749E+02  0.43700223109E+03  0.25505046793E+03  0.52092616393E+03  0.89432752654E+02 0.  0.
         23    2    4    4    0    0  0.11959580019E+03 -0.14836768461E+03  0.13616362574E+03  0.25233278808E+03  0.93889177782E+02 0.  0.
          5    1    3    3  502    0 -0.26647605696E+02 -0.25884567041E+03  0.39181653746E+03  0.47037587631E+03  0.47000000000E+01 0. -1.
         -5    1    3    3    0  502 -0.72501207461E+01 -0.29788876070E+02  0.13180775255E+03  0.13540795774E+03  0.47000000000E+01 0.  1.
         11    1    5    5    0    0 -0.49353016414E+01  0.24389214477E+03  0.12037653106E+03  0.27202618387E+03  0.00000000000E+00 0. -1.
        -11    1    5    5    0    0 -0.80762772108E+02  0.19311008633E+03  0.13467393688E+03  0.24889998006E+03  0.00000000000E+00 0.  1.
          2    1    6    6  503    0  0.74519677910E+02 -0.64756373792E+02  0.12096259456E+03  0.15613622137E+03  0.00000000000E+00 0. -1.
         -2    1    6    6    0  503  0.45076122282E+02 -0.83611310818E+02  0.15201031179E+02  0.96196566704E+02  0.00000000000E+00 0.  1.
<mgrwt>
<rscale>  0 0.46912288E+03</rscale>
<asrwt>0</asrwt>
<pdfrwt beam="1">  1        1 0.35708032E-01 0.46912288E+03</pdfrwt>
<pdfrwt beam="2">  1       -1 0.17645239E+00 0.46912288E+03</pdfrwt>
<totfact> 0.28587316E+01</totfact>
</mgrwt>
</event>
<event>
12    1  0.3147868E-008  0.8147384E+03  0.7818608E-02  0.9538926E-01
          1   -1    0    0  501    0  0.00000000000E+00  0.00000000000E+00  0.86974488801E+03  0.86974488801E+03  0.00000000000E+00 0. -1.
         -1   -1    0    0    0  501 -0.00000000000E+00 -0.00000000000E+00 -0.10434311668E+04  0.10434311668E+04  0.00000000000E+00 0.  1.
         23    2    1    2    0    0  0.11466211131E+03 -0.75918583970E+03  0.30037192180E+03  0.82955653976E+03  0.91816241916E+02 0.  0.
    5000000    2    1    2    0    0 -0.11466211131E+03  0.75918583970E+03 -0.47405820063E+03  0.10836195151E+04  0.59999128071E+03 0.  0.
         23    2    4    4    0    0 -0.23828185729E+03  0.34432159427E+03 -0.47655844975E+03  0.64103384157E+03  0.92091401423E+02 0.  0.
         23    2    4    4    0    0  0.12361974598E+03  0.41486424543E+03  0.25002491120E+01  0.44258567352E+03  0.92095838274E+02 0.  0.
          5    1    3    3  502    0  0.10525468329E+02 -0.36851711421E+03  0.13312315112E+03  0.39199427587E+03  0.47000000000E+01 0. -1.
         -5    1    3    3    0  502  0.10413664298E+03 -0.39066872549E+03  0.16724877067E+03  0.43756226389E+03  0.47000000000E+01 0.  1.
         11    1    5    5    0    0 -0.64753974771E+02  0.12780792527E+03 -0.22358883763E+03  0.26555585350E+03  0.00000000000E+00 0. -1.
        -11    1    5    5    0    0 -0.17352788252E+03  0.21651366900E+03 -0.25296961211E+03  0.37547798807E+03  0.00000000000E+00 0.  1.
          1    1    6    6  503    0  0.11603780629E+03  0.31755816676E+03 -0.30716647602E+02  0.33948707516E+03  0.00000000000E+00 0. -1.
         -1    1    6    6    0  503  0.75819396954E+01  0.97306078676E+02  0.33216896714E+02  0.10309859836E+03  0.00000000000E+00 0.  1.
<mgrwt>
<rscale>  0 0.81473842E+03</rscale>
<asrwt>0</asrwt>
<pdfrwt beam="1">  1        1 0.13380691E+00 0.81473842E+03</pdfrwt>
<pdfrwt beam="2">  1       -1 0.16052787E+00 0.81473842E+03</pdfrwt>
<totfact> 0.57242030E+00</totfact>
</mgrwt>
</event>
<event>
12    1  0.3147868E-008  0.6348405E+03  0.7818608E-02  0.9835648E-01
         -1   -1    0    0    0  501 -0.00000000000E+00  0.00000000000E+00  0.26805851465E+03  0.26805851465E+03  0.00000000000E+00 0.  1.
          1   -1    0    0  501    0  0.00000000000E+00 -0.00000000000E+00 -0.18337664951E+04  0.18337664951E+04  0.00000000000E+00 0. -1.
         23    2    1    2    0    0  0.50086063243E+03 -0.12743410830E+03 -0.99750530663E+03  0.11271587483E+04  0.91483233966E+02 0.  0.
    5000000    2    1    2    0    0 -0.50086063243E+03  0.12743410830E+03 -0.56820267382E+03  0.97466626142E+03  0.60001601440E+03 0.  0.
         23    2    4    4    0    0 -0.60274844051E+03  0.85639412308E+02 -0.55852582577E+03  0.83109867397E+03  0.90189336128E+02 0.  0.
         23    2    4    4    0    0  0.10188780808E+03  0.41794695990E+02 -0.96768480418E+01  0.14356758744E+03  0.91597427519E+02 0.  0.
          5    1    3    3  502    0  0.76059489276E+02 -0.21962717811E+02 -0.23404802560E+03  0.24711935409E+03  0.47000000000E+01 0. -1.
         -5    1    3    3    0  502  0.42480114315E+03 -0.10547139049E+03 -0.76345728104E+03  0.88003939423E+03  0.47000000000E+01 0.  1.
         11    1    5    5    0    0 -0.53968441286E+03  0.10429377200E+03 -0.50040570096E+03  0.74333190562E+03  0.00000000000E+00 0. -1.
        -11    1    5    5    0    0 -0.63064027649E+02 -0.18654359693E+02 -0.58120124812E+02  0.87766768353E+02  0.00000000000E+00 0.  1.
          2    1    6    6  503    0 -0.14746322247E+01  0.33487949874E+02  0.15390928773E+02  0.36884929381E+02  0.00000000000E+00 0. -1.
         -2    1    6    6    0  503  0.10336244030E+03  0.83067461154E+01 -0.25067776815E+02  0.10668265806E+03  0.00000000000E+00 0.  1.
<mgrwt>
<rscale>  0 0.63484051E+03</rscale>
<asrwt>0</asrwt>
<pdfrwt beam="1">  1        1 0.28211791E+00 0.63484051E+03</pdfrwt>
<pdfrwt beam="2">  1       -1 0.41239773E-01 0.63484051E+03</pdfrwt>
<totfact> 0.23482647E+01</totfact>
</mgrwt>
</event>
<event>
12    1  0.3147868E-008  0.1111179E+04  0.7818608E-02  0.9194364E-01
          2   -1    0    0  501    0  0.00000000000E+00  0.00000000000E+00  0.91812702445E+03  0.91812702445E+03  0.00000000000E+00 0. -1.
         -2   -1    0    0    0  501 -0.00000000000E+00 -0.00000000000E+00 -0.15832048344E+04  0.15832048344E+04  0.00000000000E+00 0.  1.
         23    2    1    2    0    0  0.98461104967E+03  0.33722008259E+03 -0.76657275820E+03  0.12958290958E+04  0.91449159478E+02 0.  0.
    5000000    2    1    2    0    0 -0.98461104967E+03 -0.33722008259E+03  0.10149494825E+03  0.12055027630E+04  0.59979945306E+03 0.  0.
         23    2    4    4    0    0 -0.88007107630E+03 -0.78120409635E+02  0.16646639632E+03  0.90375835232E+03  0.91870564035E+02 0.  0.
         23    2    4    4    0    0 -0.10453997337E+03 -0.25909967295E+03 -0.64971448075E+02  0.30174441070E+03  0.93633080532E+02 0.  0.
          5    1    3    3  502    0  0.30008307630E+03  0.70343527877E+02 -0.26167805991E+03  0.40434584409E+03  0.47000000000E+01 0. -1.
         -5    1    3    3    0  502  0.68452797337E+03  0.26687655471E+03 -0.50489469829E+03  0.89148325174E+03  0.47000000000E+01 0.  1.
         11    1    5    5    0    0 -0.43570021747E+03 -0.78197469139E+02  0.10715509659E+03  0.45544674597E+03  0.00000000000E+00 0. -1.
        -11    1    5    5    0    0 -0.44437085883E+03  0.77059504265E-01  0.59311299733E+02  0.44831160635E+03  0.00000000000E+00 0.  1.
          1    1    6    6  503    0 -0.11862650045E+03 -0.20918192743E+03 -0.38591734263E+02  0.24355419792E+03  0.00000000000E+00 0. -1.
         -1    1    6    6    0  503  0.14086527075E+02 -0.49917745521E+02 -0.26379713811E+02  0.58190212783E+02  0.00000000000E+00 0.  1.
<mgrwt>
<rscale>  0 0.11111788E+04</rscale>
<asrwt>0</asrwt>
<pdfrwt beam="1">  1        2 0.14125031E+00 0.11111788E+04</pdfrwt>
<pdfrwt beam="2">  1       -2 0.24356997E+00 0.11111788E+04</pdfrwt>
<totfact> 0.19743975E+00</totfact>
</mgrwt>
</event>
<event>
12    1  0.3147868E-008  0.1299763E+04  0.7818608E-02  0.9029753E-01
          1   -1    0    0  501    0  0.00000000000E+00  0.00000000000E+00  0.13659212364E+04  0.13659212364E+04  0.00000000000E+00 0. -1.
         -1   -1    0    0    0  501 -0.00000000000E+00 -0.00000000000E+00 -0.12774404401E+04  0.12774404401E+04  0.00000000000E+00 0.  1.
         23    2    1    2    0    0  0.74312955842E+03 -0.99780158806E+03 -0.88451257760E+02  0.12507833784E+04  0.93733051859E+02 0.  0.
    5000000    2    1    2    0    0 -0.74312955842E+03  0.99780158806E+03  0.17693205401E+03  0.13925782981E+04  0.60009983746E+03 0.  0.
         23    2    4    4    0    0 -0.21172250200E+03 -0.10151851778E+02  0.83999740874E+02  0.24584950966E+03  0.91959485569E+02 0.  0.
         23    2    4    4    0    0 -0.53140705642E+03  0.10079534398E+04  0.92932313132E+02  0.11467287885E+04  0.89369474403E+02 0.  0.
          5    1    3    3  502    0  0.14021871595E+03 -0.15407406967E+03 -0.43017189506E+02  0.21277376681E+03  0.47000000000E+01 0. -1.
         -5    1    3    3    0  502  0.60291084247E+03 -0.84372751838E+03 -0.45434068255E+02  0.10380096116E+04  0.47000000000E+01 0.  1.
         13    1    5    5    0    0 -0.20610919058E+03 -0.13552433036E+02  0.99312849109E+02  0.22918924250E+03  0.00000000000E+00 0. -1.
        -13    1    5    5    0    0 -0.56133114272E+01  0.34005812579E+01 -0.15313108234E+02  0.16660267161E+02  0.00000000000E+00 0.  1.
          3    1    6    6  503    0 -0.32216276334E+03  0.67185651470E+03  0.92461829914E+02  0.75081902774E+03  0.00000000000E+00 0. -1.
         -3    1    6    6    0  503 -0.20924429309E+03  0.33609692513E+03  0.47048321836E+00  0.39590976071E+03  0.00000000000E+00 0.  1.
<mgrwt>
<rscale>  0 0.12997628E+04</rscale>
<asrwt>0</asrwt>
<pdfrwt beam="1">  1        1 0.21014173E+00 0.12997628E+04</pdfrwt>
<pdfrwt beam="2">  1       -1 0.19652930E+00 0.12997628E+04</pdfrwt>
<totfact> 0.12512236E+00</totfact>
</mgrwt>
</event>
<event>
12    1  0.3151504E-008  0.9520552E+03  0.7818608E-02  0.9362752E-01
         -1   -1    0    0    0  501 -0.00000000000E+00  0.00000000000E+00  0.10310595951E+04  0.10310595951E+04  0.00000000000E+00 0.  1.
          1   -1    0    0  501    0  0.00000000000E+00 -0.00000000000E+00 -0.16179661715E+04  0.16179661715E+04  0.00000000000E+00 0. -1.
         23    2    1    2    0    0  0.90899725488E+03  0.20943356717E+03  0.52858545500E+03  0.10759025818E+04  0.89584339256E+02 0.  0.
    5000000    2    1    2    0    0 -0.90899725488E+03 -0.20943356717E+03 -0.11154920314E+04  0.15731231849E+04  0.60021300741E+03 0.  0.
         23    2    4    4    0    0 -0.46651681908E+03 -0.21780960176E+03 -0.96323566178E+03  0.10962789463E+04  0.94475514417E+02 0.  0.
         23    2    4    4    0    0 -0.44248043580E+03  0.83760345895E+01 -0.15225636959E+03  0.47684423858E+03  0.91319941788E+02 0.  0.
          5    1    3    3  502    0  0.49436879784E+03  0.74054628555E+02  0.25742937906E+03  0.56229580426E+03  0.47000000000E+01 0. -1.
         -5    1    3    3    0  502  0.41462845704E+03  0.13537893862E+03  0.27115607594E+03  0.51360677753E+03  0.47000000000E+01 0.  1.
         13    1    5    5    0    0 -0.13041650179E+03 -0.42772544458E+02 -0.34299207676E+03  0.36943405259E+03  0.00000000000E+00 0.  1.
        -13    1    5    5    0    0 -0.33610031729E+03 -0.17503705731E+03 -0.62024358502E+03  0.72684489368E+03  0.00000000000E+00 0. -1.
          4    1    6    6  503    0 -0.25295474131E+03 -0.40270131912E+02 -0.90584827371E+02  0.27168620801E+03  0.00000000000E+00 0. -1.
         -4    1    6    6    0  503 -0.18952569449E+03  0.48646166501E+02 -0.61671542217E+02  0.20515803057E+03  0.00000000000E+00 0.  1.
<mgrwt>
<rscale>  0 0.95205524E+03</rscale>
<asrwt>0</asrwt>
<pdfrwt beam="1">  1        1 0.24891787E+00 0.95205524E+03</pdfrwt>
<pdfrwt beam="2">  1       -1 0.15862455E+00 0.95205524E+03</pdfrwt>
<totfact> 0.16463394E+00</totfact>
</mgrwt>
</event>
<event>
12    1  0.3147868E-008  0.5450321E+03  0.7818608E-02  0.1002650E+00
          2   -1    0    0  501    0  0.00000000000E+00  0.00000000000E+00  0.11640652164E+04  0.11640652164E+04  0.00000000000E+00 0. -1.
         -2   -1    0    0    0  501 -0.00000000000E+00 -0.00000000000E+00 -0.30351400582E+03  0.30351400582E+03  0.00000000000E+00 0.  1.
         23    2    1    2    0    0 -0.31243538741E+03  0.30294237887E+03  0.27117070997E+03  0.52058026354E+03  0.89890492358E+02 0.  0.
    5000000    2    1    2    0    0  0.31243538741E+03 -0.30294237887E+03  0.58938050063E+03  0.94699895871E+03  0.60003974622E+03 0.  0.
         23    2    4    4    0    0  0.38925407863E+03 -0.35107169589E+03  0.25783488670E+03  0.59120496025E+03  0.90963744682E+02 0.  0.
         23    2    4    4    0    0 -0.76818691223E+02  0.48129317013E+02  0.33154561394E+03  0.35579399845E+03  0.91920252055E+02 0.  0.
          5    1    3    3  502    0 -0.16192813613E+03  0.16308599549E+03  0.90833366254E+02  0.24716503316E+03  0.47000000000E+01 0. -1.
         -5    1    3    3    0  502 -0.15050725128E+03  0.13985638339E+03  0.18033734371E+03  0.27341523037E+03  0.47000000000E+01 0.  1.
         11    1    5    5    0    0  0.22436592882E+03 -0.22995935499E+03  0.11314102424E+03  0.34062041385E+03  0.00000000000E+00 0. -1.
        -11    1    5    5    0    0  0.16488814981E+03 -0.12111234089E+03  0.14469386245E+03  0.25058454640E+03  0.00000000000E+00 0.  1.
          2    1    6    6  503    0 -0.40294840238E+02  0.73861469848E+02  0.20509724962E+03  0.22168462437E+03  0.00000000000E+00 0. -1.
         -2    1    6    6    0  503 -0.36523850985E+02 -0.25732152835E+02  0.12644836431E+03  0.13410937409E+03  0.00000000000E+00 0.  1.
<mgrwt>
<rscale>  0 0.54503208E+03</rscale>
<asrwt>0</asrwt>
<pdfrwt beam="1">  1        2 0.17908695E+00 0.54503208E+03</pdfrwt>
<pdfrwt beam="2">  1       -2 0.46694463E-01 0.54503208E+03</pdfrwt>
<totfact> 0.89625097E+01</totfact>
</mgrwt>
</event>
<event>
12    1  0.3147868E-008  0.1560292E+04  0.7818608E-02  0.8845320E-01
          2   -1    0    0  501    0  0.00000000000E+00  0.00000000000E+00  0.20752900136E+04  0.20752900136E+04  0.00000000000E+00 0. -1.
         -2   -1    0    0    0  501 -0.00000000000E+00 -0.00000000000E+00 -0.12093569190E+04  0.12093569190E+04  0.00000000000E+00 0.  1.
         23    2    1    2    0    0  0.12364061740E+03  0.15209659737E+04  0.42618808109E+03  0.15869729425E+04  0.90677142475E+02 0.  0.
    5000000    2    1    2    0    0 -0.12364061740E+03 -0.15209659737E+04  0.43974501351E+03  0.16976739902E+04  0.60008066505E+03 0.  0.
         23    2    4    4    0    0  0.14304778121E+03 -0.90561169102E+03  0.64893023884E+02  0.92373448822E+03  0.92082015404E+02 0.  0.
         23    2    4    4    0    0 -0.26668839860E+03 -0.61535428269E+03  0.37485198962E+03  0.77393950196E+03  0.93191970644E+02 0.  0.
          5    1    3    3  502    0  0.81851041940E+02  0.10099094534E+04  0.32693873552E+03  0.10646725900E+04  0.47000000000E+01 0. -1.
         -5    1    3    3    0  502  0.41789575456E+02  0.51105652035E+03  0.99249345575E+02  0.52230035249E+03  0.47000000000E+01 0.  1.
         11    1    5    5    0    0  0.26463743676E+02 -0.40583131534E+03  0.20101131922E+01  0.40669820112E+03  0.00000000000E+00 0. -1.
        -11    1    5    5    0    0  0.11658403753E+03 -0.49978037568E+03  0.62882910692E+02  0.51703628710E+03  0.00000000000E+00 0.  1.
          1    1    6    6  503    0 -0.38725773606E+02 -0.17017542989E+03  0.12630693632E+03  0.21543631227E+03  0.00000000000E+00 0. -1.
         -1    1    6    6    0  503 -0.22796262500E+03 -0.44517885280E+03  0.24854505330E+03  0.55850318969E+03  0.00000000000E+00 0.  1.
<mgrwt>
<rscale>  0 0.15602921E+04</rscale>
<asrwt>0</asrwt>
<pdfrwt beam="1">  1        2 0.31927539E+00 0.15602921E+04</pdfrwt>
<pdfrwt beam="2">  1       -2 0.18605491E+00 0.15602921E+04</pdfrwt>
<totfact> 0.93460012E-01</totfact>
</mgrwt>
</event>
<event>
12    1  0.3147868E-008  0.4377421E+03  0.7818608E-02  0.1031442E+00
         -1   -1    0    0    0  501 -0.00000000000E+00  0.00000000000E+00  0.75690731133E+03  0.75690731133E+03  0.00000000000E+00 0.  1.
          1   -1    0    0  501    0  0.00000000000E+00 -0.00000000000E+00 -0.31364536479E+03  0.31364536479E+03  0.00000000000E+00 0. -1.
         23    2    1    2    0    0 -0.32599887552E+02  0.26867819164E+03  0.15177005804E+02  0.28532268121E+03  0.89039135085E+02 0.  0.
    5000000    2    1    2    0    0  0.32599887552E+02 -0.26867819164E+03  0.42808494074E+03  0.78522999491E+03  0.60006558399E+03 0.  0.
         23    2    4    4    0    0 -0.67503530260E+02  0.14043564140E+03  0.27385062786E+03  0.32802870018E+03  0.91267550601E+02 0.  0.
         23    2    4    4    0    0  0.10010341781E+03 -0.40911383304E+03  0.15423431288E+03  0.45720129472E+03  0.88600101492E+02 0.  0.
          5    1    3    3  502    0 -0.58346257826E+02  0.14509401794E+03 -0.89579119398E+01  0.15671277559E+03  0.47000000000E+01 0. -1.
         -5    1    3    3    0  502  0.25746370273E+02  0.12358417370E+03  0.24134917744E+02  0.12860990563E+03  0.47000000000E+01 0.  1.
         11    1    5    5    0    0 -0.47240576656E+02  0.38186775359E+02  0.42077961882E+02  0.73894903554E+02  0.00000000000E+00 0.  1.
        -11    1    5    5    0    0 -0.20262953604E+02  0.10224886604E+03  0.23177266598E+03  0.25413379663E+03  0.00000000000E+00 0. -1.
          2    1    6    6  503    0  0.29828951607E+02 -0.27215630002E+03  0.73994099218E+02  0.28360878815E+03  0.00000000000E+00 0. -1.
         -2    1    6    6    0  503  0.70274466205E+02 -0.13695753302E+03  0.80240213659E+02  0.17359250658E+03  0.00000000000E+00 0.  1.
<mgrwt>
<rscale>  0 0.43774208E+03</rscale>
<asrwt>0</asrwt>
<pdfrwt beam="1">  1        1 0.48253133E-01 0.43774208E+03</pdfrwt>
<pdfrwt beam="2">  1       -1 0.11644728E+00 0.43774208E+03</pdfrwt>
<totfact> 0.57903091E+01</totfact>
</mgrwt>
</event>
<event>
12    1  0.3147868E-008  0.8646773E+03  0.7818608E-02  0.9470847E-01
         -1   -1    0    0    0  501 -0.00000000000E+00  0.00000000000E+00  0.36263554851E+03  0.36263554851E+03  0.00000000000E+00 0.  1.
          1   -1    0    0  501    0  0.00000000000E+00 -0.00000000000E+00 -0.21801911762E+04  0.21801911762E+04  0.00000000000E+00 0. -1.
         23    2    1    2    0    0  0.68164588650E+03 -0.35041881650E+03 -0.10512774475E+04  0.13040835022E+04  0.89526798328E+02 0.  0.
    5000000    2    1    2    0    0 -0.68164588650E+03  0.35041881650E+03 -0.76627818016E+03  0.12387432225E+04  0.59989004013E+03 0.  0.
         23    2    4    4    0    0 -0.25955871675E+03 -0.13941710919E+03 -0.33992936875E+03  0.45894527729E+03  0.90944675690E+02 0.  0.
         23    2    4    4    0    0 -0.42208716975E+03  0.48983592568E+03 -0.42634881141E+03  0.77979794516E+03  0.90635055722E+02 0.  0.
          5    1    3    3  502    0  0.42994609644E+03 -0.26730492857E+03 -0.70584354257E+03  0.86864421213E+03  0.47000000000E+01 0. -1.
         -5    1    3    3    0  502  0.25169979006E+03 -0.83113887924E+02 -0.34543390494E+03  0.43543929010E+03  0.47000000000E+01 0.  1.
         11    1    5    5    0    0 -0.13573935694E+03 -0.21799594467E+02 -0.15718207018E+03  0.20882193019E+03  0.00000000000E+00 0.  1.
        -11    1    5    5    0    0 -0.12381935981E+03 -0.11761751472E+03 -0.18274729857E+03  0.25012334711E+03  0.00000000000E+00 0. -1.
          4    1    6    6  503    0 -0.28184674211E+03  0.37076555414E+03 -0.26979884610E+03  0.53823424225E+03  0.00000000000E+00 0. -1.
         -4    1    6    6    0  503 -0.14024042763E+03  0.11907037155E+03 -0.15654996531E+03  0.24156370291E+03  0.00000000000E+00 0.  1.
<mgrwt>
<rscale>  0 0.86467727E+03</rscale>
<asrwt>0</asrwt>
<pdfrwt beam="1">  1        1 0.33541402E+00 0.86467727E+03</pdfrwt>
<pdfrwt beam="2">  1       -1 0.55790086E-01 0.86467727E+03</pdfrwt>
<totfact> 0.75364981E+00</totfact>
</mgrwt>
</event>
<event>
12    1  0.3485779E-008  0.1303348E+04  0.7818608E-02  0.9026914E-01
          2   -1    0    0  501    0  0.00000000000E+00  0.00000000000E+00  0.14485722330E+04  0.14485722330E+04  0.00000000000E+00 0. -1.
         -2   -1    0    0    0  501 -0.00000000000E+00 -0.00000000000E+00 -0.14207293985E+04  0.14207293985E+04  0.00000000000E+00 0.  1.
         23    2    1    2    0    0  0.14125627915E+03 -0.12477013662E+04  0.56213001941E+03  0.13786372452E+04  0.89098032259E+02 0.  0.
    5000000    2    1    2    0    0 -0.14125627915E+03  0.12477013662E+04 -0.53428718492E+03  0.14906643864E+04  0.59992122922E+03 0.  0.
         23    2    4    4    0    0  0.16973402972E+03  0.47308408933E+03 -0.38033490664E+03  0.63690374624E+03  0.91507072717E+02 0.  0.
         23    2    4    4    0    0 -0.31099030887E+03  0.77461727689E+03 -0.15395227829E+03  0.85376064016E+03  0.91972978801E+02 0.  0.
          5    1    3    3  502    0  0.63701829443E+02 -0.31446226020E+03  0.17290230460E+03  0.36450203443E+03  0.47000000000E+01 0. -1.
         -5    1    3    3    0  502  0.77554449711E+02 -0.93323910601E+03  0.38922771481E+03  0.10141352107E+04  0.47000000000E+01 0.  1.
         11    1    5    5    0    0  0.69048366735E+02  0.31336882427E+03 -0.21828193876E+03  0.38809109982E+03  0.00000000000E+00 0.  1.
        -11    1    5    5    0    0  0.10068566298E+03  0.15971526506E+03 -0.16205296788E+03  0.24881264643E+03  0.00000000000E+00 0. -1.
          4    1    6    6  503    0 -0.65710109448E+02  0.27940094085E+03 -0.59187362908E+02  0.29306287407E+03  0.00000000000E+00 0.  1.
         -4    1    6    6    0  503 -0.24528019942E+03  0.49521633604E+03 -0.94764915378E+02  0.56069776609E+03  0.00000000000E+00 0. -1.
<mgrwt>
<rscale>  0 0.13033480E+04</rscale>
<asrwt>0</asrwt>
<pdfrwt beam="1">  1        2 0.22285727E+00 0.13033480E+04</pdfrwt>
<pdfrwt beam="2">  1       -2 0.21857375E+00 0.13033480E+04</pdfrwt>
<totfact> 0.13147089E+00</totfact>
</mgrwt>
</event>
<event>
12    1  0.3147868E-008  0.7236466E+03  0.7818608E-02  0.9677627E-01
          2   -1    0    0  501    0  0.00000000000E+00  0.00000000000E+00  0.54937698351E+03  0.54937698351E+03  0.00000000000E+00 0.  1.
         -2   -1    0    0    0  501 -0.00000000000E+00 -0.00000000000E+00 -0.11998311243E+04  0.11998311243E+04  0.00000000000E+00 0. -1.
         23    2    1    2    0    0  0.21798332401E+03  0.59382583655E+03 -0.59846092500E+03  0.87565557220E+03  0.92039929763E+02 0.  0.
    5000000    2    1    2    0    0 -0.21798332401E+03 -0.59382583655E+03 -0.51993215807E+02  0.87355253563E+03  0.60020403557E+03 0.  0.
         23    2    4    4    0    0 -0.25869780562E+03 -0.71772942374E+02  0.12893734800E+03  0.31205857552E+03  0.93165470841E+02 0.  0.
         23    2    4    4    0    0  0.40714481604E+02 -0.52205289417E+03 -0.18093056381E+03  0.56149396011E+03  0.91338409174E+02 0.  0.
          5    1    3    3  502    0  0.45678505290E+02  0.13015522133E+03 -0.82141361799E+02  0.16061195723E+03  0.47000000000E+01 0. -1.
         -5    1    3    3    0  502  0.17230481872E+03  0.46367061521E+03 -0.51631956320E+03  0.71504361497E+03  0.47000000000E+01 0.  1.
         13    1    5    5    0    0 -0.45585958000E+02  0.22260820441E+02  0.30370467916E+02  0.59126889102E+02  0.00000000000E+00 0.  1.
        -13    1    5    5    0    0 -0.21311184762E+03 -0.94033762814E+02  0.98566880084E+02  0.25293168642E+03  0.00000000000E+00 0. -1.
          1    1    6    6  503    0  0.61646114415E+02 -0.22951777885E+03 -0.94371182102E+02  0.25570407553E+03  0.00000000000E+00 0. -1.
         -1    1    6    6    0  503 -0.20931632812E+02 -0.29253511532E+03 -0.86559381704E+02  0.30578988458E+03  0.00000000000E+00 0.  1.
<mgrwt>
<rscale>  0 0.72364657E+03</rscale>
<asrwt>0</asrwt>
<pdfrwt beam="1">  1        2 0.84519537E-01 0.72364657E+03</pdfrwt>
<pdfrwt beam="2">  1       -2 0.18458940E+00 0.72364657E+03</pdfrwt>
<totfact> 0.94864137E+00</totfact>
</mgrwt>
</event>
<event>
12    1  0.3147868E-008  0.9361199E+03  0.7818608E-02  0.9381523E-01
         -2   -1    0    0    0  501 -0.00000000000E+00  0.00000000000E+00  0.76253730836E+03  0.76253730836E+03  0.00000000000E+00 0.  1.
          2   -1    0    0  501    0  0.00000000000E+00 -0.00000000000E+00 -0.16035270740E+04  0.16035270740E+04  0.00000000000E+00 0. -1.
         23    2    1    2    0    0 -0.25093887925E+03 -0.82439184971E+03  0.19803875020E+03  0.88887278479E+03  0.91012295741E+02 0.  0.
    5000000    2    1    2    0    0  0.25093887925E+03  0.82439184971E+03 -0.10390285158E+04  0.14771915976E+04  0.59993542669E+03 0.  0.
         23    2    4    4    0    0 -0.87785774354E+02 -0.22409696064E+02 -0.18000676174E+03  0.22094032824E+03  0.90574045474E+02 0.  0.
         23    2    4    4    0    0  0.33872465361E+03  0.84680154577E+03 -0.85902175410E+03  0.12562512693E+04  0.91878336815E+02 0.  0.
          5    1    3    3  502    0 -0.79523120425E+02 -0.32129450750E+03  0.11765282789E+03  0.35130950050E+03  0.47000000000E+01 0.  1.
         -5    1    3    3    0  502 -0.17141575883E+03 -0.50309734221E+03  0.80385922313E+02  0.53756328429E+03  0.47000000000E+01 0. -1.
         13    1    5    5    0    0 -0.38847738381E+02  0.38196804215E+01 -0.15536537137E+03  0.16019405531E+03  0.00000000000E+00 0. -1.
        -13    1    5    5    0    0 -0.48938035973E+02 -0.26229376486E+02 -0.24641390377E+02  0.60746272935E+02  0.00000000000E+00 0.  1.
          1    1    6    6  503    0  0.19879649234E+03  0.39564670571E+03 -0.45171983189E+03  0.63254024981E+03  0.00000000000E+00 0. -1.
         -1    1    6    6    0  503  0.13992816126E+03  0.45115484006E+03 -0.40730192221E+03  0.62371101951E+03  0.00000000000E+00 0.  1.
<mgrwt>
<rscale>  0 0.93611992E+03</rscale>
<asrwt>0</asrwt>
<pdfrwt beam="1">  1        2 0.24669647E+00 0.93611992E+03</pdfrwt>
<pdfrwt beam="2">  1       -2 0.11731343E+00 0.93611992E+03</pdfrwt>
<totfact> 0.62481253E+00</totfact>
</mgrwt>
</event>
<event>
12    1  0.3147868E-008  0.4544224E+03  0.7818608E-02  0.1026411E+00
         -2   -1    0    0    0  501 -0.00000000000E+00  0.00000000000E+00  0.14464807505E+03  0.14464807505E+03  0.00000000000E+00 0.  1.
          2   -1    0    0  501    0  0.00000000000E+00 -0.00000000000E+00 -0.31923535654E+04  0.31923535654E+04  0.00000000000E+00 0. -1.
         23    2    1    2    0    0 -0.43488098706E+03  0.27502966473E+02 -0.20274690643E+04  0.20757864773E+04  0.91546745640E+02 0.  0.
    5000000    2    1    2    0    0  0.43488098706E+03 -0.27502966473E+02 -0.10202364261E+04  0.12612151632E+04  0.59991952516E+03 0.  0.
         23    2    4    4    0    0  0.28192056771E+03  0.12796312456E+02 -0.10349557198E+04  0.10765643022E+04  0.90633341735E+02 0.  0.
         23    2    4    4    0    0  0.15296041934E+03 -0.40299278929E+02  0.14719293678E+02  0.18465086105E+03  0.94118866931E+02 0.  0.
          5    1    3    3  502    0 -0.34168066521E+03 -0.16007725530E+02 -0.15848330475E+04  0.16213327243E+04  0.47000000000E+01 0. -1.
         -5    1    3    3    0  502 -0.93200321851E+02  0.43510692002E+02 -0.44263601672E+03  0.45445375299E+03  0.47000000000E+01 0.  1.
         13    1    5    5    0    0  0.14808900146E+03 -0.27909962968E+00 -0.37770208835E+03  0.40569606579E+03  0.00000000000E+00 0.  1.
        -13    1    5    5    0    0  0.13383156625E+03  0.13075412086E+02 -0.65725363144E+03  0.67086823636E+03  0.00000000000E+00 0. -1.
          2    1    6    6  503    0  0.46706722039E+02 -0.56983637791E+02 -0.98212404825E+01  0.74331081145E+02  0.00000000000E+00 0. -1.
         -2    1    6    6    0  503  0.10625369730E+03  0.16684358863E+02  0.24540534161E+02  0.11031977991E+03  0.00000000000E+00 0.  1.
<mgrwt>
<rscale>  0 0.45442237E+03</rscale>
<asrwt>0</asrwt>
<pdfrwt beam="1">  1        2 0.49113134E+00 0.45442237E+03</pdfrwt>
<pdfrwt beam="2">  1       -2 0.22253549E-01 0.45442237E+03</pdfrwt>
<totfact> 0.26268165E+01</totfact>
</mgrwt>
</event>
<event>
12    1  0.3147868E-008  0.5337964E+03  0.7818608E-02  0.1005316E+00
          2   -1    0    0  501    0  0.00000000000E+00  0.00000000000E+00  0.10422716326E+04  0.10422716326E+04  0.00000000000E+00 0.  1.
         -2   -1    0    0    0  501 -0.00000000000E+00 -0.00000000000E+00 -0.31748285554E+03  0.31748285554E+03  0.00000000000E+00 0. -1.
         23    2    1    2    0    0  0.13412975573E+03  0.34987828636E+03  0.46879699907E+03  0.60737162648E+03  0.93402674865E+02 0.  0.
    5000000    2    1    2    0    0 -0.13412975573E+03 -0.34987828636E+03  0.25599177800E+03  0.75238286167E+03  0.60011879948E+03 0.  0.
         23    2    4    4    0    0  0.42769524295E+02 -0.46545785649E+03  0.18947442437E+03  0.51243630952E+03  0.90609963296E+02 0.  0.
         23    2    4    4    0    0 -0.17689928003E+03  0.11557957013E+03  0.66517353624E+02  0.23994655214E+03  0.92183497688E+02 0.  0.
          5    1    3    3  502    0  0.50444453725E+02  0.23554816617E+03  0.33333919128E+03  0.41129635051E+03  0.47000000000E+01 0. -1.
         -5    1    3    3    0  502  0.83685302007E+02  0.11433012019E+03  0.13545780779E+03  0.19607527597E+03  0.47000000000E+01 0.  1.
         11    1    5    5    0    0 -0.10342489746E+02 -0.27783889295E+03  0.13988252611E+03  0.31123711000E+03  0.00000000000E+00 0. -1.
        -11    1    5    5    0    0  0.53112014041E+02 -0.18761896354E+03  0.49591898261E+02  0.20119919952E+03  0.00000000000E+00 0.  1.
          1    1    6    6  503    0 -0.10098589787E+03  0.56812874930E+02  0.83013005082E+02  0.14253776110E+03  0.00000000000E+00 0. -1.
         -1    1    6    6    0  503 -0.75913382156E+02  0.58766695202E+02 -0.16495651458E+02  0.97408791043E+02  0.00000000000E+00 0.  1.
<mgrwt>
<rscale>  0 0.53379636E+03</rscale>
<asrwt>0</asrwt>
<pdfrwt beam="1">  1        2 0.16034948E+00 0.53379636E+03</pdfrwt>
<pdfrwt beam="2">  1       -2 0.48843517E-01 0.53379636E+03</pdfrwt>
<totfact> 0.97134607E+01</totfact>
</mgrwt>
</event>
<event>
12    1  0.3147868E-008  0.7372382E+03  0.7818608E-02  0.9655587E-01
         -2   -1    0    0    0  501 -0.00000000000E+00  0.00000000000E+00  0.31523816173E+03  0.31523816173E+03  0.00000000000E+00 0. -1.
          2   -1    0    0  501    0  0.00000000000E+00 -0.00000000000E+00 -0.23404502753E+04  0.23404502753E+04  0.00000000000E+00 0.  1.
         23    2    1    2    0    0  0.47005143133E+03  0.46877277205E+03 -0.14344431591E+04  0.15832032649E+04  0.90604312611E+02 0.  0.
    5000000    2    1    2    0    0 -0.47005143133E+03 -0.46877277205E+03 -0.59076895450E+03  0.10724851721E+04  0.60043336594E+03 0.  0.
         23    2    4    4    0    0  0.76168602748E+02  0.80310264264E+01 -0.22869004060E+03  0.25758874304E+03  0.90480232322E+02 0.  0.
         23    2    4    4    0    0 -0.54622003408E+03 -0.47680379847E+03 -0.36207891390E+03  0.81489642909E+03  0.85187219656E+02 0.  0.
          5    1    3    3  502    0  0.24873277687E+03  0.19810051997E+03 -0.61770001607E+03  0.69475694322E+03  0.47000000000E+01 0. -1.
         -5    1    3    3    0  502  0.22131865445E+03  0.27067225207E+03 -0.81674314301E+03  0.88844632168E+03  0.47000000000E+01 0.  1.
         13    1    5    5    0    0  0.36653883040E+02 -0.12487352815E+01 -0.14258425198E+02  0.39349322368E+02  0.00000000000E+00 0.  1.
        -13    1    5    5    0    0  0.39514719708E+02  0.92797617079E+01 -0.21443161540E+03  0.21823942067E+03  0.00000000000E+00 0. -1.
          2    1    6    6  503    0 -0.18492762996E+03 -0.11254793018E+03 -0.93640911821E+02  0.23586836430E+03  0.00000000000E+00 0. -1.
         -2    1    6    6    0  503 -0.36129240411E+03 -0.36425586829E+03 -0.26843800208E+03  0.57902806479E+03  0.00000000000E+00 0.  1.
<mgrwt>
<rscale>  0 0.73723821E+03</rscale>
<asrwt>0</asrwt>
<pdfrwt beam="1">  1        2 0.36006927E+00 0.73723821E+03</pdfrwt>
<pdfrwt beam="2">  1       -2 0.48498179E-01 0.73723821E+03</pdfrwt>
<totfact> 0.18080951E+01</totfact>
</mgrwt>
</event>
<event>
12    1  0.3147868E-008  0.7580660E+03  0.7818608E-02  0.9622780E-01
         -2   -1    0    0    0  501 -0.00000000000E+00  0.00000000000E+00  0.61857998688E+03  0.61857998688E+03  0.00000000000E+00 0.  1.
          2   -1    0    0  501    0  0.00000000000E+00 -0.00000000000E+00 -0.11745950343E+04  0.11745950343E+04  0.00000000000E+00 0. -1.
         23    2    1    2    0    0  0.71950249703E+03 -0.14341133660E+03 -0.37555979249E+03  0.82836632708E+03  0.83035892285E+02 0.  0.
    5000000    2    1    2    0    0 -0.71950249703E+03  0.14341133660E+03 -0.18045525496E+03  0.96480869414E+03  0.60003421781E+03 0.  0.
         23    2    4    4    0    0 -0.46592945066E+03 -0.16769688320E+02 -0.36648683303E+03  0.60031617033E+03  0.93249290325E+02 0.  0.
         23    2    4    4    0    0 -0.25357304637E+03  0.16018102492E+03  0.18603157807E+03  0.36449252380E+03  0.91048345826E+02 0.  0.
          5    1    3    3  502    0  0.22908264614E+03 -0.45732786825E+02 -0.16356447685E+03  0.28521180663E+03  0.47000000000E+01 0. -1.
         -5    1    3    3    0  502  0.49041985089E+03 -0.97678549780E+02 -0.21199531564E+03  0.54315452046E+03  0.47000000000E+01 0.  1.
         13    1    5    5    0    0 -0.26747755434E+03 -0.55572476656E+02 -0.20566722364E+03  0.34195255390E+03  0.00000000000E+00 0. -1.
        -13    1    5    5    0    0 -0.19845189631E+03  0.38802788336E+02 -0.16081960939E+03  0.25836361643E+03  0.00000000000E+00 0.  1.
          4    1    6    6  503    0 -0.41277822075E+02  0.58554789644E+02  0.76759243670E+02  0.10499763557E+03  0.00000000000E+00 0. -1.
         -4    1    6    6    0  503 -0.21229522430E+03  0.10162623528E+03  0.10927233440E+03  0.25949488824E+03  0.00000000000E+00 0.  1.
<mgrwt>
<rscale>  0 0.75806604E+03</rscale>
<asrwt>0</asrwt>
<pdfrwt beam="1">  1        2 0.18070693E+00 0.75806604E+03</pdfrwt>
<pdfrwt beam="2">  1       -2 0.95166153E-01 0.75806604E+03</pdfrwt>
<totfact> 0.18535791E+01</totfact>
</mgrwt>
</event>
<event>
12    1  0.3147868E-008  0.3575117E+03  0.7818608E-02  0.1059573E+00
         -2   -1    0    0    0  501 -0.00000000000E+00  0.00000000000E+00  0.21799004020E+03  0.21799004020E+03  0.00000000000E+00 0.  1.
          2   -1    0    0  501    0  0.00000000000E+00 -0.00000000000E+00 -0.12867151196E+04  0.12867151196E+04  0.00000000000E+00 0. -1.
         23    2    1    2    0    0  0.20447967357E+03 -0.36208328920E+02 -0.77047549224E+03  0.80322045574E+03  0.91693164319E+02 0.  0.
    5000000    2    1    2    0    0 -0.20447967357E+03  0.36208328920E+02 -0.29824958719E+03  0.70148470409E+03  0.60000416151E+03 0.  0.
         23    2    4    4    0    0  0.28940048142E+02 -0.17312487933E+03  0.68627075264E+02  0.21015301324E+03  0.92977756938E+02 0.  0.
         23    2    4    4    0    0 -0.23341972172E+03  0.20933320825E+03 -0.36687666245E+03  0.49133169085E+03  0.92212723747E+02 0.  0.
          5    1    3    3  502    0  0.86553550534E+02  0.25476961447E+02 -0.24481320414E+03  0.26095246233E+03  0.47000000000E+01 0. -1.
         -5    1    3    3    0  502  0.11792612304E+03 -0.61685290366E+02 -0.52566228810E+03  0.54226799341E+03  0.47000000000E+01 0.  1.
         13    1    5    5    0    0  0.20228778891E+01 -0.18575156365E+02  0.48520007713E+02  0.51993457448E+02  0.00000000000E+00 0.  1.
        -13    1    5    5    0    0  0.26917170253E+02 -0.15454972296E+03  0.20107067552E+02  0.15815955579E+03  0.00000000000E+00 0. -1.
          1    1    6    6  503    0 -0.17253092300E+03  0.13044615869E+03 -0.30542205462E+03  0.37425359205E+03  0.00000000000E+00 0. -1.
         -1    1    6    6    0  503 -0.60888798715E+02  0.78887049555E+02 -0.61454607832E+02  0.11707809881E+03  0.00000000000E+00 0.  1.
<mgrwt>
<rscale>  0 0.35751168E+03</rscale>
<asrwt>0</asrwt>
<pdfrwt beam="1">  1        2 0.19795617E+00 0.35751168E+03</pdfrwt>
<pdfrwt beam="2">  1       -2 0.33536929E-01 0.35751168E+03</pdfrwt>
<totfact> 0.14788964E+02</totfact>
</mgrwt>
</event>
<event>
12    1  0.3147868E-008  0.9227453E+03  0.7818608E-02  0.9397587E-01
          2   -1    0    0  501    0  0.00000000000E+00  0.00000000000E+00  0.74603861887E+03  0.74603861887E+03  0.00000000000E+00 0. -1.
         -2   -1    0    0    0  501 -0.00000000000E+00 -0.00000000000E+00 -0.12367135824E+04  0.12367135824E+04  0.00000000000E+00 0.  1.
         23    2    1    2    0    0 -0.45357887960E+03  0.69778880260E+03 -0.46253278960E+03  0.95636528035E+03  0.89749400747E+02 0.  0.
    5000000    2    1    2    0    0  0.45357887960E+03 -0.69778880260E+03 -0.28142173966E+02  0.10263869210E+04  0.60002926304E+03 0.  0.
         23    2    4    4    0    0 -0.80919866030E+02  0.16045371493E+02 -0.27587186074E+02  0.12995652035E+03  0.96551362921E+02 0.  0.
         23    2    4    4    0    0  0.53449874564E+03 -0.71383417409E+03 -0.55498789181E+00  0.89643040061E+03  0.91318223422E+02 0.  0.
          5    1    3    3  502    0 -0.30301449157E+03  0.46729729208E+03 -0.35660262592E+03  0.66134111024E+03  0.47000000000E+01 0. -1.
         -5    1    3    3    0  502 -0.15056438803E+03  0.23049151052E+03 -0.10593016369E+03  0.29502417011E+03  0.47000000000E+01 0.  1.
         11    1    5    5    0    0 -0.79177911197E+02 -0.22720572911E+02 -0.49477118141E-01  0.82373348256E+02  0.00000000000E+00 0.  1.
        -11    1    5    5    0    0 -0.17419548335E+01  0.38765944405E+02 -0.27537708956E+02  0.47583172097E+02  0.00000000000E+00 0. -1.
          4    1    6    6  503    0  0.23136904835E+03 -0.32589428793E+03  0.44021981727E+02  0.40209036089E+03  0.00000000000E+00 0. -1.
         -4    1    6    6    0  503  0.30312969728E+03 -0.38793988616E+03 -0.44576969618E+02  0.49434003972E+03  0.00000000000E+00 0.  1.
<mgrwt>
<rscale>  0 0.92274525E+03</rscale>
<asrwt>0</asrwt>
<pdfrwt beam="1">  1        2 0.11477517E+00 0.92274525E+03</pdfrwt>
<pdfrwt beam="2">  1       -2 0.19026363E+00 0.92274525E+03</pdfrwt>
<totfact> 0.58300663E+00</totfact>
</mgrwt>
</event>
<event>
12    1  0.3147868E-008  0.3562296E+03  0.7818608E-02  0.1060087E+00
          1   -1    0    0  501    0  0.00000000000E+00  0.00000000000E+00  0.60519250427E+03  0.60519250427E+03  0.00000000000E+00 0. -1.
         -1   -1    0    0    0  501 -0.00000000000E+00 -0.00000000000E+00 -0.27274514454E+03  0.27274514454E+03  0.00000000000E+00 0.  1.
         23    2    1    2    0    0  0.99530748798E+02 -0.12957296955E+03  0.45145561421E+02  0.19290940045E+03  0.92089036655E+02 0.  0.
    5000000    2    1    2    0    0 -0.99530748798E+02  0.12957296955E+03  0.28730179831E+03  0.68502824836E+03  0.60002154407E+03 0.  0.
         23    2    4    4    0    0 -0.23901132109E+03 -0.99759758890E+02  0.29207852167E+03  0.40109079936E+03  0.92117020187E+02 0.  0.
         23    2    4    4    0    0  0.13948057230E+03  0.22933272844E+03 -0.47767233555E+01  0.28393744900E+03  0.92462573389E+02 0.  0.
          5    1    3    3  502    0  0.34568403242E+02 -0.42273121977E+02  0.61933926531E+02  0.82703643208E+02  0.47000000000E+01 0. -1.
         -5    1    3    3    0  502  0.64962345556E+02 -0.87299847569E+02 -0.16788365110E+02  0.11020575724E+03  0.47000000000E+01 0.  1.
         11    1    5    5    0    0 -0.10893431091E+03 -0.90967085697E+02  0.12465623008E+03  0.18889380739E+03  0.00000000000E+00 0. -1.
        -11    1    5    5    0    0 -0.13007701019E+03 -0.87926731931E+01  0.16742229158E+03  0.21219699197E+03  0.00000000000E+00 0.  1.
          2    1    6    6  503    0  0.41672484470E+02  0.21848230750E+02 -0.25680947132E+02  0.53604591169E+02  0.00000000000E+00 0. -1.
         -2    1    6    6    0  503  0.97808087826E+02  0.20748449769E+03  0.20904223776E+02  0.23033285783E+03  0.00000000000E+00 0.  1.
<mgrwt>
<rscale>  0 0.35622956E+03</rscale>
<asrwt>0</asrwt>
<pdfrwt beam="1">  1        1 0.93106539E-01 0.35622956E+03</pdfrwt>
<pdfrwt beam="2">  1       -1 0.41960792E-01 0.35622956E+03</pdfrwt>
<totfact> 0.19685828E+02</totfact>
</mgrwt>
</event>
<event>
12    1  0.3147868E-008  0.8064890E+03  0.7818608E-02  0.9550672E-01
         -3   -1    0    0    0  501 -0.00000000000E+00  0.00000000000E+00  0.62743887757E+03  0.62743887757E+03  0.00000000000E+00 0.  1.
          3   -1    0    0  501    0  0.00000000000E+00 -0.00000000000E+00 -0.23434567879E+04  0.23434567879E+04  0.00000000000E+00 0. -1.
         23    2    1    2    0    0  0.73187492866E+03 -0.18280638303E+03 -0.18478914325E+04  0.19980067099E+04  0.90933940876E+02 0.  0.
    5000000    2    1    2    0    0 -0.73187492866E+03  0.18280638303E+03  0.13187352217E+03  0.97288895559E+03  0.60005267201E+03 0.  0.
         23    2    4    4    0    0 -0.51060352254E+03  0.30566792664E+03 -0.11156218501E+03  0.61232173155E+03  0.91339713155E+02 0.  0.
         23    2    4    4    0    0 -0.22127140612E+03 -0.12286154361E+03  0.24343570717E+03  0.36056722403E+03  0.81803334020E+02 0.  0.
          5    1    3    3  502    0  0.59495469923E+03 -0.15378120683E+03 -0.15885279121E+04  0.17032506484E+04  0.47000000000E+01 0. -1.
         -5    1    3    3    0  502  0.13692022943E+03 -0.29025176198E+02 -0.25936352036E+03  0.29475606147E+03  0.47000000000E+01 0.  1.
         13    1    5    5    0    0 -0.55209392064E+02  0.62078754178E+02  0.37272353583E+01  0.83160934193E+02  0.00000000000E+00 0. -1.
        -13    1    5    5    0    0 -0.45539413048E+03  0.24358917246E+03 -0.11528942037E+03  0.52916079736E+03  0.00000000000E+00 0.  1.
          2    1    6    6  503    0 -0.14440225346E+03 -0.49567546534E+02  0.18315304681E+03  0.23844074951E+03  0.00000000000E+00 0. -1.
         -2    1    6    6    0  503 -0.76869152660E+02 -0.73293997079E+02  0.60282660365E+02  0.12212647452E+03  0.00000000000E+00 0.  1.
<mgrwt>
<rscale>  0 0.80648898E+03</rscale>
<asrwt>0</asrwt>
<pdfrwt beam="1">  1        3 0.36053181E+00 0.80648898E+03</pdfrwt>
<pdfrwt beam="2">  1       -3 0.96529059E-01 0.80648898E+03</pdfrwt>
<totfact> 0.45286891E-02</totfact>
</mgrwt>
</event>
<event>
12    1  0.3147868E-008  0.8705348E+03  0.7818608E-02  0.9463183E-01
          1   -1    0    0  501    0  0.00000000000E+00  0.00000000000E+00  0.88907791599E+03  0.88907791599E+03  0.00000000000E+00 0. -1.
         -1   -1    0    0    0  501 -0.00000000000E+00 -0.00000000000E+00 -0.96604910729E+03  0.96604910729E+03  0.00000000000E+00 0.  1.
         23    2    1    2    0    0 -0.63518165092E+03 -0.47465734022E+03  0.20050928379E+03  0.82284067122E+03  0.90041529491E+02 0.  0.
    5000000    2    1    2    0    0  0.63518165092E+03  0.47465734022E+03 -0.27748047509E+03  0.10322863521E+04  0.59988697129E+03 0.  0.
         23    2    4    4    0    0  0.67728079869E+03  0.50750036011E+03 -0.16011917643E+03  0.86686663643E+03  0.97743127165E+02 0.  0.
         23    2    4    4    0    0 -0.42099147775E+02 -0.32843019887E+02 -0.11736129867E+03  0.16541971564E+03  0.10362917397E+03 0.  0.
          5    1    3    3  502    0 -0.54778144758E+03 -0.44185220498E+03  0.18853069269E+03  0.72860400592E+03  0.47000000000E+01 0. -1.
         -5    1    3    3    0  502 -0.87400203333E+02 -0.32805135247E+02  0.11978591106E+02  0.94236665296E+02  0.47000000000E+01 0.  1.
         11    1    5    5    0    0  0.12303161292E+03  0.10418477081E+03 -0.69051647447E+02  0.17538350624E+03  0.00000000000E+00 0.  1.
        -11    1    5    5    0    0  0.55424918577E+03  0.40331558930E+03 -0.91067528978E+02  0.69148313019E+03  0.00000000000E+00 0. -1.
          1    1    6    6  503    0 -0.53563161304E+02 -0.52097537813E+02 -0.39745486197E+02  0.84633736583E+02  0.00000000000E+00 0. -1.
         -1    1    6    6    0  503  0.11464013528E+02  0.19254517925E+02 -0.77615812468E+02  0.80785979055E+02  0.00000000000E+00 0.  1.
<mgrwt>
<rscale>  0 0.87053482E+03</rscale>
<asrwt>0</asrwt>
<pdfrwt beam="1">  1        1 0.13678122E+00 0.87053482E+03</pdfrwt>
<pdfrwt beam="2">  1       -1 0.14862294E+00 0.87053482E+03</pdfrwt>
<totfact> 0.67601438E+00</totfact>
</mgrwt>
</event>
<event>
12    1  0.3147868E-008  0.6143540E+03  0.7818608E-02  0.9876066E-01
         -2   -1    0    0    0  501 -0.00000000000E+00  0.00000000000E+00  0.34338403327E+03  0.34338403327E+03  0.00000000000E+00 0.  1.
          2   -1    0    0  501    0  0.00000000000E+00 -0.00000000000E+00 -0.15451828498E+04  0.15451828498E+04  0.00000000000E+00 0. -1.
         23    2    1    2    0    0 -0.34972778277E+03  0.32135409016E+03 -0.24319297194E+02  0.48407511559E+03  0.90328932329E+02 0.  0.
    5000000    2    1    2    0    0  0.34972778277E+03 -0.32135409016E+03 -0.11774795194E+04  0.14044917675E+04  0.60046742892E+03 0.  0.
         23    2    4    4    0    0  0.13562902975E+02  0.14968899953E+03 -0.20965517085E+03  0.27298406225E+03  0.89298704685E+02 0.  0.
         23    2    4    4    0    0  0.33616487979E+03 -0.47104308968E+03 -0.96782434852E+03  0.11315077053E+04  0.93473519070E+02 0.  0.
          5    1    3    3  502    0 -0.25733199131E+03  0.22868212306E+03  0.22456814492E+02  0.34502415231E+03  0.47000000000E+01 0. -1.
         -5    1    3    3    0  502 -0.92395791453E+02  0.92671967093E+02 -0.46776111685E+02  0.13905096327E+03  0.47000000000E+01 0.  1.
         11    1    5    5    0    0  0.46904129747E+02  0.11632532527E+03 -0.17060709928E+03  0.21175070486E+03  0.00000000000E+00 0. -1.
        -11    1    5    5    0    0 -0.33341226771E+02  0.33363674260E+02 -0.39048071576E+02  0.61233357385E+02  0.00000000000E+00 0.  1.
          2    1    6    6  503    0  0.22632187551E+03 -0.27498576977E+03 -0.66552923493E+03  0.75482973409E+03  0.00000000000E+00 0. -1.
         -2    1    6    6    0  503  0.10984300428E+03 -0.19605731991E+03 -0.30229511358E+03  0.37667797118E+03  0.00000000000E+00 0.  1.
<mgrwt>
<rscale>  0 0.61435399E+03</rscale>
<asrwt>0</asrwt>
<pdfrwt beam="1">  1        2 0.23772044E+00 0.61435399E+03</pdfrwt>
<pdfrwt beam="2">  1       -2 0.52828314E-01 0.61435399E+03</pdfrwt>
<totfact> 0.42079186E+01</totfact>
</mgrwt>
</event>
<event>
12    1  0.3147868E-008  0.1052358E+04  0.7818608E-02  0.9252913E-01
         -2   -1    0    0    0  501 -0.00000000000E+00  0.00000000000E+00  0.71262555655E+03  0.71262555655E+03  0.00000000000E+00 0.  1.
          2   -1    0    0  501    0  0.00000000000E+00 -0.00000000000E+00 -0.16339448106E+04  0.16339448106E+04  0.00000000000E+00 0. -1.
         23    2    1    2    0    0  0.51294015240E+02 -0.99207962562E+03 -0.42254605051E+03  0.10833829915E+04  0.91216676129E+02 0.  0.
    5000000    2    1    2    0    0 -0.51294015240E+02  0.99207962562E+03 -0.49877320350E+03  0.12631873756E+04  0.60001214793E+03 0.  0.
         23    2    4    4    0    0  0.14443060080E+03  0.82751269530E+03 -0.22003188446E+03  0.87321273843E+03  0.91918426088E+02 0.  0.
         23    2    4    4    0    0 -0.19572461604E+03  0.16456693033E+03 -0.27874131904E+03  0.38997463713E+03  0.94831929117E+02 0.  0.
          5    1    3    3  502    0  0.16372964642E+02 -0.60445606296E+03 -0.21143758809E+03  0.64059593324E+03  0.47000000000E+01 0. -1.
         -5    1    3    3    0  502  0.34921050598E+02 -0.38762356266E+03 -0.21110846242E+03  0.44278705831E+03  0.47000000000E+01 0.  1.
         13    1    5    5    0    0  0.24087720773E+01  0.52931438017E+02  0.74829224697E+01  0.53511993442E+02  0.00000000000E+00 0. -1.
        -13    1    5    5    0    0  0.14202182873E+03  0.77458125728E+03 -0.22751480693E+03  0.81970074499E+03  0.00000000000E+00 0.  1.
          1    1    6    6  503    0 -0.89199104160E+02  0.21157936410E+02 -0.11985973438E+03  0.15089895421E+03  0.00000000000E+00 0. -1.
         -1    1    6    6    0  503 -0.10652551188E+03  0.14340899392E+03 -0.15888158466E+03  0.23907568292E+03  0.00000000000E+00 0.  1.
<mgrwt>
<rscale>  0 0.10523581E+04</rscale>
<asrwt>0</asrwt>
<pdfrwt beam="1">  1        2 0.25137612E+00 0.10523581E+04</pdfrwt>
<pdfrwt beam="2">  1       -2 0.10963470E+00 0.10523581E+04</pdfrwt>
<totfact> 0.70014292E+00</totfact>
</mgrwt>
</event>
<event>
12    1  0.3501238E-008  0.6517479E+03  0.7818608E-02  0.9803505E-01
          1   -1    0    0  501    0  0.00000000000E+00  0.00000000000E+00  0.24274888206E+04  0.24274888206E+04  0.00000000000E+00 0. -1.
         -1   -1    0    0    0  501 -0.00000000000E+00 -0.00000000000E+00 -0.21387213923E+03  0.21387213923E+03  0.00000000000E+00 0.  1.
         23    2    1    2    0    0  0.28933283268E+03  0.50829314848E+03  0.75420834838E+03  0.95868890970E+03  0.90436607513E+02 0.  0.
    5000000    2    1    2    0    0 -0.28933283268E+03 -0.50829314848E+03  0.14594083330E+04  0.16826720501E+04  0.59953076069E+03 0.  0.
         23    2    4    4    0    0  0.27382168321E+02 -0.34780032195E+03  0.11483126238E+04  0.12036814046E+04  0.92261556324E+02 0.  0.
         23    2    4    4    0    0 -0.31671500100E+03 -0.16049282652E+03  0.31109570921E+03  0.47899064552E+03  0.81148992469E+02 0.  0.
          5    1    3    3  502    0  0.10116519927E+03  0.24718136237E+03  0.29587146165E+03  0.39861640115E+03  0.47000000000E+01 0. -1.
         -5    1    3    3    0  502  0.18816763340E+03  0.26111178610E+03  0.45833688673E+03  0.56007250856E+03  0.47000000000E+01 0.  1.
         11    1    5    5    0    0  0.76714779343E+01 -0.27458716540E+03  0.76204827280E+03  0.81004600676E+03  0.00000000000E+00 0.  1.
        -11    1    5    5    0    0  0.19710690387E+02 -0.73213156551E+02  0.38626435099E+03  0.39363539786E+03  0.00000000000E+00 0. -1.
          1    1    6    6  503    0 -0.22439728507E+03 -0.15249891309E+03  0.23934849808E+03  0.36179795960E+03  0.00000000000E+00 0. -1.
         -1    1    6    6    0  503 -0.92317715931E+02 -0.79939134375E+01  0.71747211129E+02  0.11719268591E+03  0.00000000000E+00 0.  1.
<mgrwt>
<rscale>  0 0.65174790E+03</rscale>
<asrwt>0</asrwt>
<pdfrwt beam="1">  1        1 0.37345980E+00 0.65174790E+03</pdfrwt>
<pdfrwt beam="2">  1       -1 0.32903408E-01 0.65174790E+03</pdfrwt>
<totfact> 0.14061888E+01</totfact>
</mgrwt>
</event>
<event>
12    1  0.3147868E-008  0.5653854E+03  0.7818608E-02  0.9979942E-01
          2   -1    0    0  501    0  0.00000000000E+00  0.00000000000E+00  0.35139829882E+04  0.35139829882E+04  0.00000000000E+00 0.  1.
         -2   -1    0    0    0  501 -0.00000000000E+00 -0.00000000000E+00 -0.20565901150E+03  0.20565901150E+03  0.00000000000E+00 0. -1.
         23    2    1    2    0    0 -0.38108425006E+03 -0.32074997512E+03  0.26534809423E+04  0.27013052087E+04  0.89347452424E+02 0.  0.
    5000000    2    1    2    0    0  0.38108425006E+03  0.32074997512E+03  0.65484303442E+03  0.10183367910E+04  0.60007055252E+03 0.  0.
         23    2    4    4    0    0  0.36232076571E+03  0.76452710641E+02  0.84694600204E+02  0.39077741936E+03  0.91719474223E+02 0.  0.
         23    2    4    4    0    0  0.18763484353E+02  0.24429726448E+03  0.57014843422E+03  0.62755937164E+03  0.93425404056E+02 0.  0.
          5    1    3    3  502    0 -0.25742058482E+03 -0.22423085784E+03  0.20214865943E+04  0.20501158445E+04  0.47000000000E+01 0.  1.
         -5    1    3    3    0  502 -0.12366366524E+03 -0.96519117278E+02  0.63199434802E+03  0.65118936419E+03  0.47000000000E+01 0. -1.
         11    1    5    5    0    0  0.32087916363E+03  0.94004398259E+02  0.87688996075E+02  0.34567271309E+03  0.00000000000E+00 0.  1.
        -11    1    5    5    0    0  0.41441602083E+02 -0.17551687618E+02 -0.29943958710E+01  0.45104706274E+02  0.00000000000E+00 0. -1.
          3    1    6    6  503    0 -0.13113856103E+02  0.97641180049E+01  0.98555283223E+02  0.99902227570E+02  0.00000000000E+00 0. -1.
         -3    1    6    6    0  503  0.31877340456E+02  0.23453314647E+03  0.47159315099E+03  0.52765714407E+03  0.00000000000E+00 0.  1.
<mgrwt>
<rscale>  0 0.56538535E+03</rscale>
<asrwt>0</asrwt>
<pdfrwt beam="1">  1        2 0.54061272E+00 0.56538535E+03</pdfrwt>
<pdfrwt beam="2">  1       -2 0.31639851E-01 0.56538535E+03</pdfrwt>
<totfact> 0.83193244E+00</totfact>
</mgrwt>
</event>
<event>
12    1  0.3147868E-008  0.2708698E+03  0.7818608E-02  0.1100783E+00
         -2   -1    0    0    0  501 -0.00000000000E+00  0.00000000000E+00  0.91793601511E+02  0.91793601511E+02  0.00000000000E+00 0. -1.
          2   -1    0    0  501    0  0.00000000000E+00 -0.00000000000E+00 -0.24344938101E+04  0.24344938101E+04  0.00000000000E+00 0.  1.
         23    2    1    2    0    0  0.17801739811E+03  0.16271250359E+03 -0.10493785853E+04  0.10806584890E+04  0.91988051024E+02 0.  0.
    5000000    2    1    2    0    0 -0.17801739811E+03 -0.16271250359E+03 -0.12933216232E+04  0.14456289226E+04  0.59916325654E+03 0.  0.
         23    2    4    4    0    0 -0.14720820625E+03 -0.68555758531E+02 -0.45763268735E+02  0.19089618514E+03  0.89313653608E+02 0.  0.
         23    2    4    4    0    0 -0.30809191859E+02 -0.94156745059E+02 -0.12475583545E+04  0.12547327375E+04  0.90209177607E+02 0.  0.
          5    1    3    3  502    0  0.85952078063E+02  0.22257687776E+02 -0.31499939549E+03  0.32730700198E+03  0.47000000000E+01 0. -1.
         -5    1    3    3    0  502  0.92065320046E+02  0.14045481581E+03 -0.73437918986E+03  0.75335148698E+03  0.47000000000E+01 0.  1.
         13    1    5    5    0    0 -0.25114539534E+02 -0.55586649158E+02 -0.26939868433E+02  0.66681123055E+02  0.00000000000E+00 0. -1.
        -13    1    5    5    0    0 -0.12209366672E+03 -0.12969109373E+02 -0.18823400302E+02  0.12421506209E+03  0.00000000000E+00 0.  1.
          3    1    6    6  503    0 -0.73783419144E+01 -0.54400937465E+02 -0.24339425345E+03  0.24950884662E+03  0.00000000000E+00 0. -1.
         -3    1    6    6    0  503 -0.23430849944E+02 -0.39755807595E+02 -0.10041641010E+04  0.10052238909E+04  0.00000000000E+00 0.  1.
<mgrwt>
<rscale>  0 0.27086984E+03</rscale>
<asrwt>0</asrwt>
<pdfrwt beam="1">  1        2 0.37453747E+00 0.27086984E+03</pdfrwt>
<pdfrwt beam="2">  1       -2 0.14122094E-01 0.27086984E+03</pdfrwt>
<totfact> 0.16551002E+02</totfact>
</mgrwt>
</event>
<event>
12    1  0.3147868E-008  0.6433375E+03  0.7818608E-02  0.9819362E-01
          2   -1    0    0  501    0  0.00000000000E+00  0.00000000000E+00  0.23335357354E+04  0.23335357354E+04  0.00000000000E+00 0. -1.
         -2   -1    0    0    0  501 -0.00000000000E+00 -0.00000000000E+00 -0.25558484740E+03  0.25558484740E+03  0.00000000000E+00 0.  1.
         23    2    1    2    0    0 -0.27729269969E+03  0.42691329021E+03  0.20275393651E+03  0.55553418074E+03  0.91448720856E+02 0.  0.
    5000000    2    1    2    0    0  0.27729269969E+03 -0.42691329021E+03  0.18751969515E+04  0.20335864021E+04  0.59996987349E+03 0.  0.
         23    2    4    4    0    0 -0.14284709000E+02  0.12545023403E+03  0.34762597043E+03  0.38070284581E+03  0.90271963328E+02 0.  0.
         23    2    4    4    0    0  0.29157740869E+03 -0.55236352424E+03  0.15275709811E+04  0.16528835563E+04  0.91804684819E+02 0.  0.
          5    1    3    3  502    0 -0.13512977367E+03  0.28036316008E+03  0.10014551025E+03  0.32697824161E+03  0.47000000000E+01 0. -1.
         -5    1    3    3    0  502 -0.14216292602E+03  0.14655013013E+03  0.10260842626E+03  0.22855593914E+03  0.47000000000E+01 0.  1.
         11    1    5    5    0    0 -0.12947265943E+02 -0.47093553444E+01  0.58297260466E+01  0.14959793747E+02  0.00000000000E+00 0. -1.
        -11    1    5    5    0    0 -0.13374430564E+01  0.13015958937E+03  0.34179624438E+03  0.36574305207E+03  0.00000000000E+00 0.  1.
          3    1    6    6  503    0  0.93717515774E+02 -0.23804827856E+03  0.53274292656E+03  0.59098644781E+03  0.00000000000E+00 0. -1.
         -3    1    6    6    0  503  0.19785989291E+03 -0.31431524568E+03  0.99482805451E+03  0.10618971084E+04  0.00000000000E+00 0.  1.
<mgrwt>
<rscale>  0 0.64333748E+03</rscale>
<asrwt>0</asrwt>
<pdfrwt beam="1">  1        2 0.35900548E+00 0.64333748E+03</pdfrwt>
<pdfrwt beam="2">  1       -2 0.39320747E-01 0.64333748E+03</pdfrwt>
<totfact> 0.28054089E+01</totfact>
</mgrwt>
</event>
<event>
12    1  0.3147868E-008  0.5151475E+03  0.7818608E-02  0.1009899E+00
         -2   -1    0    0    0  501 -0.00000000000E+00  0.00000000000E+00  0.19792879733E+03  0.19792879733E+03  0.00000000000E+00 0.  1.
          2   -1    0    0  501    0  0.00000000000E+00 -0.00000000000E+00 -0.16754040289E+04  0.16754040289E+04  0.00000000000E+00 0. -1.
         23    2    1    2    0    0  0.31169214982E+03  0.15902314282E+03 -0.18605895304E+03  0.40692981596E+03  0.92377404714E+02 0.  0.
    5000000    2    1    2    0    0 -0.31169214982E+03 -0.15902314282E+03 -0.12914162786E+04  0.14664030103E+04  0.60011784501E+03 0.  0.
         23    2    4    4    0    0 -0.42332641149E+03  0.42768572437E+02 -0.68187942763E+03  0.80882369320E+03  0.90563852670E+02 0.  0.
         23    2    4    4    0    0  0.11163426168E+03 -0.20179171526E+03 -0.60953685095E+03  0.65757931712E+03  0.87711349957E+02 0.  0.
          5    1    3    3  502    0  0.23144071644E+03  0.16000858019E+03 -0.14869695852E+03  0.31827727916E+03  0.47000000000E+01 0. -1.
         -5    1    3    3    0  502  0.80251433378E+02 -0.98543736564E+00 -0.37361994525E+02  0.88652536799E+02  0.47000000000E+01 0.  1.
         13    1    5    5    0    0 -0.13552615830E+03 -0.27532966543E+02 -0.23451258643E+03  0.27225274475E+03  0.00000000000E+00 0.  1.
        -13    1    5    5    0    0 -0.28780025319E+03  0.70301538980E+02 -0.44736684120E+03  0.53657094845E+03  0.00000000000E+00 0. -1.
          3    1    6    6  503    0  0.35284972539E+01 -0.34981718572E+02 -0.19135540817E+03  0.19455863682E+03  0.00000000000E+00 0. -1.
         -3    1    6    6    0  503  0.10810576442E+03 -0.16680999669E+03 -0.41818144278E+03  0.46302068030E+03  0.00000000000E+00 0.  1.
<mgrwt>
<rscale>  0 0.51514746E+03</rscale>
<asrwt>0</asrwt>
<pdfrwt beam="1">  1        2 0.25775447E+00 0.51514746E+03</pdfrwt>
<pdfrwt beam="2">  1       -2 0.30450584E-01 0.51514746E+03</pdfrwt>
<totfact> 0.10577048E+02</totfact>
</mgrwt>
</event>
<event>
12    1  0.3147868E-008  0.1054116E+04  0.7818608E-02  0.9251104E-01
         -2   -1    0    0    0  501 -0.00000000000E+00  0.00000000000E+00  0.14040800852E+04  0.14040800852E+04  0.00000000000E+00 0.  1.
          2   -1    0    0  501    0  0.00000000000E+00 -0.00000000000E+00 -0.21035027745E+04  0.21035027745E+04  0.00000000000E+00 0. -1.
         23    2    1    2    0    0 -0.98480725419E+03 -0.36162388573E+02  0.10302282199E+04  0.14285276463E+04  0.90377016631E+02 0.  0.
    5000000    2    1    2    0    0  0.98480725419E+03  0.36162388573E+02 -0.17296509091E+04  0.20790552133E+04  0.59968764076E+03 0.  0.
         23    2    4    4    0    0  0.22629052500E+03 -0.21723959355E+03 -0.32846946559E+03  0.46297673782E+03  0.89748689310E+02 0.  0.
         23    2    4    4    0    0  0.75851672919E+03  0.25340198212E+03 -0.14011814435E+04  0.16160784755E+04  0.94021318645E+02 0.  0.
          5    1    3    3  502    0 -0.23622985695E+03  0.24379455059E+02  0.27607696968E+03  0.36419704328E+03  0.47000000000E+01 0. -1.
         -5    1    3    3    0  502 -0.74857739723E+03 -0.60541843632E+02  0.75415125018E+03  0.10643306031E+04  0.47000000000E+01 0.  1.
         11    1    5    5    0    0  0.57827555423E+02 -0.87716028437E+02 -0.16177381063E+03  0.19289606947E+03  0.00000000000E+00 0. -1.
        -11    1    5    5    0    0  0.16846296957E+03 -0.12952356511E+03 -0.16669565496E+03  0.27008066836E+03  0.00000000000E+00 0.  1.
          1    1    6    6  503    0  0.49655034237E+03  0.13468538319E+03 -0.96551127251E+03  0.10940358368E+04  0.00000000000E+00 0. -1.
         -1    1    6    6    0  503  0.26196638682E+03  0.11871659893E+03 -0.43567017100E+03  0.52204263867E+03  0.00000000000E+00 0.  1.
<mgrwt>
<rscale>  0 0.10541164E+04</rscale>
<asrwt>0</asrwt>
<pdfrwt beam="1">  1        2 0.32361581E+00 0.10541164E+04</pdfrwt>
<pdfrwt beam="2">  1       -2 0.21601232E+00 0.10541164E+04</pdfrwt>
<totfact> 0.60837698E-01</totfact>
</mgrwt>
</event>
<event>
12    1  0.3147868E-008  0.7223187E+03  0.7818608E-02  0.9679808E-01
          2   -1    0    0  501    0  0.00000000000E+00  0.00000000000E+00  0.18551390639E+04  0.18551390639E+04  0.00000000000E+00 0. -1.
         -2   -1    0    0    0  501 -0.00000000000E+00 -0.00000000000E+00 -0.31277889384E+03  0.31277889384E+03  0.00000000000E+00 0.  1.
         23    2    1    2    0    0  0.62024518899E+03  0.11689079293E+03  0.80693629606E+03  0.10285042124E+04  0.91143716665E+02 0.  0.
    5000000    2    1    2    0    0 -0.62024518899E+03 -0.11689079293E+03  0.73542387399E+03  0.11394137453E+04  0.59920602192E+03 0.  0.
         23    2    4    4    0    0 -0.40712643079E+03 -0.30499186245E+03  0.25973065419E+03  0.57797343834E+03  0.88438203761E+02 0.  0.
         23    2    4    4    0    0 -0.21311875819E+03  0.18810106953E+03  0.47569321980E+03  0.56144030700E+03  0.90164081054E+02 0.  0.
          5    1    3    3  502    0  0.48043711668E+03  0.95538756731E+02  0.68224985497E+03  0.83990144167E+03  0.47000000000E+01 0. -1.
         -5    1    3    3    0  502  0.13980807231E+03  0.21352036194E+02  0.12468644109E+03  0.18860277072E+03  0.47000000000E+01 0.  1.
         13    1    5    5    0    0 -0.11122039660E+03 -0.13555066562E+03  0.87391422253E+02  0.19591125607E+03  0.00000000000E+00 0.  1.
        -13    1    5    5    0    0 -0.29590603420E+03 -0.16944119683E+03  0.17233923194E+03  0.38206218227E+03  0.00000000000E+00 0. -1.
          3    1    6    6  503    0 -0.19055992837E+03  0.11999277855E+03  0.33747705920E+03  0.40571186659E+03  0.00000000000E+00 0. -1.
         -3    1    6    6    0  503 -0.22558829822E+02  0.68108290975E+02  0.13821616060E+03  0.15572844041E+03  0.00000000000E+00 0.  1.
<mgrwt>
<rscale>  0 0.72231872E+03</rscale>
<asrwt>0</asrwt>
<pdfrwt beam="1">  1        2 0.28540600E+00 0.72231872E+03</pdfrwt>
<pdfrwt beam="2">  1       -2 0.48119831E-01 0.72231872E+03</pdfrwt>
<totfact> 0.33979096E+01</totfact>
</mgrwt>
</event>
<event>
12    1  0.3147868E-008  0.2000793E+04  0.7818608E-02  0.8606250E-01
          2   -1    0    0  501    0  0.00000000000E+00  0.00000000000E+00  0.18773755077E+04  0.18773755077E+04  0.00000000000E+00 0. -1.
         -2   -1    0    0    0  501 -0.00000000000E+00 -0.00000000000E+00 -0.23879582659E+04  0.23879582659E+04  0.00000000000E+00 0.  1.
         23    2    1    2    0    0 -0.99908273670E+03  0.17129801179E+04  0.36090615222E+03  0.20176779860E+04  0.91126315394E+02 0.  0.
    5000000    2    1    2    0    0  0.99908273670E+03 -0.17129801179E+04 -0.87148891036E+03  0.22476557876E+04  0.59999701610E+03 0.  0.
         23    2    4    4    0    0  0.74899374800E+03 -0.15016987839E+04 -0.52082469453E+03  0.17593945620E+04  0.90110988890E+02 0.  0.
         23    2    4    4    0    0  0.25008898870E+03 -0.21128133398E+03 -0.35066421583E+03  0.48826122551E+03  0.90825809761E+02 0.  0.
          5    1    3    3  502    0 -0.41996485754E+03  0.80194437461E+03  0.14599442761E+03  0.91696331685E+03  0.47000000000E+01 0. -1.
         -5    1    3    3    0  502 -0.57911787915E+03  0.91103574331E+03  0.21491172461E+03  0.11007146692E+04  0.47000000000E+01 0.  1.
         11    1    5    5    0    0  0.64437703524E+03 -0.13010800641E+04 -0.48205539328E+03  0.15298393703E+04  0.00000000000E+00 0. -1.
        -11    1    5    5    0    0  0.10461671276E+03 -0.20061871988E+03 -0.38769301252E+02  0.22955519178E+03  0.00000000000E+00 0.  1.
          2    1    6    6  503    0  0.14642103081E+03 -0.67153005339E+02 -0.14699303873E+03  0.21807246003E+03  0.00000000000E+00 0. -1.
         -2    1    6    6    0  503  0.10366795789E+03 -0.14412832864E+03 -0.20367117710E+03  0.27018876548E+03  0.00000000000E+00 0.  1.
<mgrwt>
<rscale>  0 0.20007925E+04</rscale>
<asrwt>0</asrwt>
<pdfrwt beam="1">  1        2 0.28882700E+00 0.20007925E+04</pdfrwt>
<pdfrwt beam="2">  1       -2 0.36737820E+00 0.20007925E+04</pdfrwt>
<totfact> 0.83882925E-02</totfact>
</mgrwt>
</event>
<event>
12    1  0.3147868E-008  0.4873781E+03  0.7818608E-02  0.1017127E+00
         -2   -1    0    0    0  501 -0.00000000000E+00  0.00000000000E+00  0.51185155989E+03  0.51185155989E+03  0.00000000000E+00 0.  1.
          2   -1    0    0  501    0  0.00000000000E+00 -0.00000000000E+00 -0.10686447911E+04  0.10686447911E+04  0.00000000000E+00 0. -1.
         23    2    1    2    0    0  0.41351418100E+02  0.38993270530E+03  0.27138354091E+03  0.48527304122E+03  0.89907974147E+02 0.  0.
    5000000    2    1    2    0    0 -0.41351418100E+02 -0.38993270530E+03 -0.82817677213E+03  0.10952233098E+04  0.59989988995E+03 0.  0.
         23    2    4    4    0    0  0.16352990221E+03 -0.29492884935E+03 -0.16055625288E+03  0.38463326170E+03  0.91866101320E+02 0.  0.
         23    2    4    4    0    0 -0.20488132031E+03 -0.95003855952E+02 -0.66762051925E+03  0.71059004808E+03  0.90658538779E+02 0.  0.
          5    1    3    3  502    0 -0.35641939639E+00  0.13414900630E+03  0.14259939815E+03  0.19583861029E+03  0.47000000000E+01 0. -1.
         -5    1    3    3    0  502  0.41707837496E+02  0.25578369900E+03  0.12878414276E+03  0.28943443093E+03  0.47000000000E+01 0.  1.
         11    1    5    5    0    0  0.17111001486E+03 -0.29299797085E+03 -0.14876363044E+03  0.37048220720E+03  0.00000000000E+00 0. -1.
        -11    1    5    5    0    0 -0.75801126469E+01 -0.19308784939E+01 -0.11792622437E+02  0.14151054499E+02  0.00000000000E+00 0.  1.
          3    1    6    6  503    0 -0.29299707555E+02 -0.41197491943E+02 -0.77287282065E+02  0.92352748602E+02  0.00000000000E+00 0.  1.
         -3    1    6    6    0  503 -0.17558161276E+03 -0.53806364009E+02 -0.59033323718E+03  0.61823729948E+03  0.00000000000E+00 0. -1.
<mgrwt>
<rscale>  0 0.48737815E+03</rscale>
<asrwt>0</asrwt>
<pdfrwt beam="1">  1        2 0.16440689E+00 0.48737815E+03</pdfrwt>
<pdfrwt beam="2">  1       -2 0.78746395E-01 0.48737815E+03</pdfrwt>
<totfact> 0.34246879E+01</totfact>
</mgrwt>
</event>
<event>
12    1  0.3147868E-008  0.3859949E+03  0.7818608E-02  0.1048740E+00
         -1   -1    0    0    0  501 -0.00000000000E+00  0.00000000000E+00  0.65107891740E+03  0.65107891740E+03  0.00000000000E+00 0.  1.
          1   -1    0    0  501    0  0.00000000000E+00 -0.00000000000E+00 -0.52355558220E+03  0.52355558220E+03  0.00000000000E+00 0. -1.
         23    2    1    2    0    0 -0.15704510284E+03 -0.27836322146E+03  0.32713145230E+03  0.46617667996E+03  0.90313135627E+02 0.  0.
    5000000    2    1    2    0    0  0.15704510284E+03  0.27836322146E+03 -0.19960811711E+03  0.70845781964E+03  0.59993319161E+03 0.  0.
         23    2    4    4    0    0  0.53374379839E+02  0.31850311564E+03 -0.36052569286E+03  0.49286572124E+03  0.92977335220E+02 0.  0.
         23    2    4    4    0    0  0.10367072300E+03 -0.40139894173E+02  0.16091757575E+03  0.21559209840E+03  0.90700919489E+02 0.  0.
          5    1    3    3  502    0 -0.31500043657E+02 -0.43210977955E+02  0.15111657689E+02  0.55766419684E+02  0.47000000000E+01 0. -1.
         -5    1    3    3    0  502 -0.12554505918E+03 -0.23515224351E+03  0.31201979461E+03  0.41041026028E+03  0.47000000000E+01 0.  1.
         13    1    5    5    0    0  0.76308199020E+02  0.17921777759E+03 -0.21536901527E+03  0.29038899046E+03  0.00000000000E+00 0.  1.
        -13    1    5    5    0    0 -0.22933819181E+02  0.13928533805E+03 -0.14515667759E+03  0.20247673078E+03  0.00000000000E+00 0. -1.
          3    1    6    6  503    0  0.55047057538E+02 -0.38365134548E+02  0.25638437717E+02  0.71828904913E+02  0.00000000000E+00 0. -1.
         -3    1    6    6    0  503  0.48623665460E+02 -0.17747596242E+01  0.13527913803E+03  0.14376319349E+03  0.00000000000E+00 0.  1.
<mgrwt>
<rscale>  0 0.38599491E+03</rscale>
<asrwt>0</asrwt>
<pdfrwt beam="1">  1        1 0.80547012E-01 0.38599491E+03</pdfrwt>
<pdfrwt beam="2">  1       -1 0.10016599E+00 0.38599491E+03</pdfrwt>
<totfact> 0.42219374E+01</totfact>
</mgrwt>
</event>
<event>
12    1  0.3147868E-008  0.9593718E+03  0.7818608E-02  0.9354263E-01
         -2   -1    0    0    0  501 -0.00000000000E+00  0.00000000000E+00  0.11844721854E+04  0.11844721854E+04  0.00000000000E+00 0.  1.
          2   -1    0    0  501    0  0.00000000000E+00 -0.00000000000E+00 -0.78983965014E+03  0.78983965014E+03  0.00000000000E+00 0. -1.
         23    2    1    2    0    0 -0.58630532554E+03  0.64223972301E+03  0.11694386476E+03  0.88195506212E+03  0.89123888687E+02 0.  0.
    5000000    2    1    2    0    0  0.58630532554E+03 -0.64223972301E+03  0.27768867051E+03  0.10923567734E+04  0.59992210005E+03 0.  0.
         23    2    4    4    0    0  0.63740703730E+03 -0.32640891665E+03  0.22487269091E+03  0.75615778520E+03  0.91522439498E+02 0.  0.
         23    2    4    4    0    0 -0.51101711763E+02 -0.31583080636E+03  0.52815979597E+02  0.33619898822E+03  0.88767949073E+02 0.  0.
          5    1    3    3  502    0 -0.21274000095E+03  0.17657924919E+03  0.52859323144E+02  0.28152217904E+03  0.47000000000E+01 0.  1.
         -5    1    3    3    0  502 -0.37356532458E+03  0.46566047382E+03  0.64084541615E+02  0.60043288308E+03  0.47000000000E+01 0. -1.
         13    1    5    5    0    0  0.35613482157E+03 -0.13605349279E+03  0.13951938194E+03  0.40596578917E+03  0.00000000000E+00 0.  1.
        -13    1    5    5    0    0  0.28127221573E+03 -0.19035542386E+03  0.85353308974E+02  0.35019199603E+03  0.00000000000E+00 0. -1.
          2    1    6    6  503    0  0.21134919504E+00 -0.16566425980E+03  0.62861172520E+02  0.17718978147E+03  0.00000000000E+00 0. -1.
         -2    1    6    6    0  503 -0.51313060958E+02 -0.15016654656E+03 -0.10045192923E+02  0.15900920675E+03  0.00000000000E+00 0.  1.
<mgrwt>
<rscale>  0 0.95937179E+03</rscale>
<asrwt>0</asrwt>
<pdfrwt beam="1">  1        2 0.12151379E+00 0.95937179E+03</pdfrwt>
<pdfrwt beam="2">  1       -2 0.18222649E+00 0.95937179E+03</pdfrwt>
<totfact> 0.61080710E+00</totfact>
</mgrwt>
</event>
<event>
12    1  0.3147868E-008  0.4797415E+03  0.7818608E-02  0.1019206E+00
         -2   -1    0    0    0  501 -0.00000000000E+00  0.00000000000E+00  0.15571753534E+03  0.15571753534E+03  0.00000000000E+00 0.  1.
          2   -1    0    0  501    0  0.00000000000E+00 -0.00000000000E+00 -0.16140579173E+04  0.16140579173E+04  0.00000000000E+00 0. -1.
         23    2    1    2    0    0 -0.24372262658E+03 -0.19384473153E+03 -0.53605580069E+03  0.62628852627E+03  0.88910055909E+02 0.  0.
    5000000    2    1    2    0    0  0.24372262658E+03  0.19384473153E+03 -0.92228458131E+03  0.11434869264E+04  0.59998083576E+03 0.  0.
         23    2    4    4    0    0  0.20431923319E+03 -0.16370855799E+03 -0.23854541044E+03  0.36561598429E+03  0.90687893973E+02 0.  0.
         23    2    4    4    0    0  0.39403393384E+02  0.35755328952E+03 -0.68373917086E+03  0.77787094211E+03  0.90481857535E+02 0.  0.
          5    1    3    3  502    0 -0.88680246371E+02 -0.22124311671E+02 -0.13119746838E+03  0.15996417403E+03  0.47000000000E+01 0. -1.
         -5    1    3    3    0  502 -0.15504238021E+03 -0.17172041986E+03 -0.40485833231E+03  0.46632435224E+03  0.47000000000E+01 0.  1.
         11    1    5    5    0    0  0.81678806816E+02 -0.16173364683E+02 -0.92824007507E+02  0.12469683868E+03  0.00000000000E+00 0.  1.
        -11    1    5    5    0    0  0.12264042638E+03 -0.14753519331E+03 -0.14572140294E+03  0.24091914561E+03  0.00000000000E+00 0. -1.
          1    1    6    6  503    0 -0.53897528065E+01  0.90321432985E+02 -0.25611444637E+03  0.27162772379E+03  0.00000000000E+00 0. -1.
         -1    1    6    6    0  503  0.44793146191E+02  0.26723185653E+03 -0.42762472449E+03  0.50624321831E+03  0.00000000000E+00 0.  1.
<mgrwt>
<rscale>  0 0.47974145E+03</rscale>
<asrwt>0</asrwt>
<pdfrwt beam="1">  1        2 0.24831661E+00 0.47974145E+03</pdfrwt>
<pdfrwt beam="2">  1       -2 0.23956543E-01 0.47974145E+03</pdfrwt>
<totfact> 0.17722214E+02</totfact>
</mgrwt>
</event>
<event>
12    1  0.3147868E-008  0.4407034E+03  0.7818608E-02  0.1030531E+00
         -1   -1    0    0    0  501 -0.00000000000E+00  0.00000000000E+00  0.47658430354E+03  0.47658430354E+03  0.00000000000E+00 0.  1.
          1   -1    0    0  501    0  0.00000000000E+00 -0.00000000000E+00 -0.69787751226E+03  0.69787751226E+03  0.00000000000E+00 0. -1.
         23    2    1    2    0    0 -0.32985341863E+03  0.23055546921E+03  0.17348355663E+02  0.41364795345E+03  0.94045530379E+02 0.  0.
    5000000    2    1    2    0    0  0.32985341863E+03 -0.23055546921E+03 -0.23864156439E+03  0.76081386235E+03  0.59994069268E+03 0.  0.
         23    2    4    4    0    0  0.31088154960E+03 -0.97215821302E+02 -0.40447738726E+03  0.52837286830E+03  0.97353363392E+02 0.  0.
         23    2    4    4    0    0  0.18971869032E+02 -0.13333964790E+03  0.16583582287E+03  0.23244099405E+03  0.91585490387E+02 0.  0.
          5    1    3    3  502    0 -0.64681648839E+02  0.62983905634E+02 -0.32353157268E+02  0.96018252695E+02  0.47000000000E+01 0. -1.
         -5    1    3    3    0  502 -0.26517176979E+03  0.16757156357E+03  0.49701512931E+02  0.31762970075E+03  0.47000000000E+01 0.  1.
         11    1    5    5    0    0  0.70488328425E+02 -0.51266357204E+02 -0.60047189342E+02  0.10584190462E+03  0.00000000000E+00 0. -1.
        -11    1    5    5    0    0  0.24039322118E+03 -0.45949464098E+02 -0.34443019792E+03  0.42253096369E+03  0.00000000000E+00 0.  1.
          4    1    6    6  503    0  0.38288828661E+02 -0.95668030077E+02  0.61886518896E+02  0.12020127953E+03  0.00000000000E+00 0.  1.
         -4    1    6    6    0  503 -0.19316959629E+02 -0.37671617827E+02  0.10394930397E+03  0.11223971452E+03  0.00000000000E+00 0. -1.
<mgrwt>
<rscale>  0 0.44070340E+03</rscale>
<asrwt>0</asrwt>
<pdfrwt beam="1">  1        1 0.10736577E+00 0.44070340E+03</pdfrwt>
<pdfrwt beam="2">  1       -1 0.73320663E-01 0.44070340E+03</pdfrwt>
<totfact> 0.54328958E+01</totfact>
</mgrwt>
</event>
<event>
12    1  0.3147868E-008  0.2070005E+04  0.7818608E-02  0.8574573E-01
          2   -1    0    0  501    0  0.00000000000E+00  0.00000000000E+00  0.22241130514E+04  0.22241130514E+04  0.00000000000E+00 0. -1.
         -2   -1    0    0    0  501 -0.00000000000E+00 -0.00000000000E+00 -0.19734234502E+04  0.19734234502E+04  0.00000000000E+00 0.  1.
         23    2    1    2    0    0  0.17326013005E+04 -0.10911367410E+04  0.24212870174E+03  0.20638396295E+04  0.91219812089E+02 0.  0.
    5000000    2    1    2    0    0 -0.17326013005E+04  0.10911367410E+04  0.85608994568E+01  0.21336968720E+04  0.60008532611E+03 0.  0.
         23    2    4    4    0    0 -0.63061941099E+02 -0.25159809317E+02  0.19592737639E+02  0.12322352342E+03  0.10094719875E+03 0.  0.
         23    2    4    4    0    0 -0.16695393594E+04  0.11162965503E+04 -0.11031838183E+02  0.20104733486E+04  0.91660913896E+02 0.  0.
          5    1    3    3  502    0  0.12120131138E+04 -0.78904644521E+03  0.20621436794E+03  0.14608615733E+04  0.47000000000E+01 0. -1.
         -5    1    3    3    0  502  0.52058818671E+03 -0.30209029575E+03  0.35914333805E+02  0.60297805623E+03  0.47000000000E+01 0.  1.
         13    1    5    5    0    0 -0.14377714523E+02  0.14054186692E+02  0.49865419694E+02  0.53766150315E+02  0.00000000000E+00 0.  1.
        -13    1    5    5    0    0 -0.48684226575E+02 -0.39213996008E+02 -0.30272682054E+02  0.69457373107E+02  0.00000000000E+00 0. -1.
          1    1    6    6  503    0 -0.53189745918E+03  0.32224382376E+03 -0.35431992464E+02  0.62290562297E+03  0.00000000000E+00 0. -1.
         -1    1    6    6    0  503 -0.11376419002E+04  0.79405272651E+03  0.24400154281E+02  0.13875677256E+04  0.00000000000E+00 0.  1.
<mgrwt>
<rscale>  0 0.20700052E+04</rscale>
<asrwt>0</asrwt>
<pdfrwt beam="1">  1        2 0.34217124E+00 0.20700052E+04</pdfrwt>
<pdfrwt beam="2">  1       -2 0.30360361E+00 0.20700052E+04</pdfrwt>
<totfact> 0.13346756E-01</totfact>
</mgrwt>
</event>
<event>
12    1  0.3147868E-008  0.4547130E+03  0.7818608E-02  0.1026326E+00
          2   -1    0    0  501    0  0.00000000000E+00  0.00000000000E+00  0.24805129584E+03  0.24805129584E+03  0.00000000000E+00 0. -1.
         -2   -1    0    0    0  501 -0.00000000000E+00 -0.00000000000E+00 -0.10346608751E+04  0.10346608751E+04  0.00000000000E+00 0.  1.
         23    2    1    2    0    0 -0.13736249991E+03 -0.29010471390E+03 -0.24741396156E+03  0.41513487791E+03  0.89967199972E+02 0.  0.
    5000000    2    1    2    0    0  0.13736249991E+03  0.29010471390E+03 -0.53919561767E+03  0.86757729301E+03  0.59910703870E+03 0.  0.
         23    2    4    4    0    0  0.14210151319E+03 -0.99572021907E+02  0.45077821736E+01  0.19272478792E+03  0.83756171006E+02 0.  0.
         23    2    4    4    0    0 -0.47390132742E+01  0.38967673580E+03 -0.54370339984E+03  0.67485250509E+03  0.89118460209E+02 0.  0.
          5    1    3    3  502    0 -0.46000187126E+02 -0.14713948843E+03 -0.69258303551E+02  0.16907054410E+03  0.47000000000E+01 0. -1.
         -5    1    3    3    0  502 -0.91362312785E+02 -0.14296522547E+03 -0.17815565801E+03  0.24606433381E+03  0.47000000000E+01 0.  1.
         11    1    5    5    0    0  0.13867382328E+03 -0.58484105641E+02  0.11354207695E+02  0.15092957930E+03  0.00000000000E+00 0. -1.
        -11    1    5    5    0    0  0.34276899091E+01 -0.41087916265E+02 -0.68464255215E+01  0.41795208619E+02  0.00000000000E+00 0.  1.
          3    1    6    6  503    0  0.21244468983E+02  0.28809632386E+03 -0.34324868887E+03  0.44863178854E+03  0.00000000000E+00 0. -1.
         -3    1    6    6    0  503 -0.25983482257E+02  0.10158041194E+03 -0.20045471098E+03  0.22622071654E+03  0.00000000000E+00 0.  1.
<mgrwt>
<rscale>  0 0.45471295E+03</rscale>
<asrwt>0</asrwt>
<pdfrwt beam="1">  1        2 0.38161738E-01 0.45471295E+03</pdfrwt>
<pdfrwt beam="2">  1       -2 0.15917860E+00 0.45471295E+03</pdfrwt>
<totfact> 0.35948342E+01</totfact>
</mgrwt>
</event>
<event>
12    1  0.3147868E-008  0.9293810E+03  0.7818608E-02  0.9389581E-01
         -2   -1    0    0    0  501 -0.00000000000E+00  0.00000000000E+00  0.11295643043E+04  0.11295643043E+04  0.00000000000E+00 0.  1.
          2   -1    0    0  501    0  0.00000000000E+00 -0.00000000000E+00 -0.91036035506E+03  0.91036035506E+03  0.00000000000E+00 0. -1.
         23    2    1    2    0    0 -0.83804382928E+03 -0.34303887844E+03 -0.79093193627E+02  0.91337759542E+03  0.89497299425E+02 0.  0.
    5000000    2    1    2    0    0  0.83804382928E+03  0.34303887844E+03  0.29829714284E+03  0.11265470639E+04  0.60011163115E+03 0.  0.
         23    2    4    4    0    0  0.66264032312E+03  0.35667841341E+03 -0.11679763238E+02  0.75831227159E+03  0.92678994177E+02 0.  0.
         23    2    4    4    0    0  0.17540350616E+03 -0.13639534966E+02  0.30997690607E+03  0.36823479231E+03  0.92513529176E+02 0.  0.
          5    1    3    3  502    0 -0.58695465733E+02 -0.27076724215E+02 -0.28740117866E+02  0.70897045544E+02  0.47000000000E+01 0. -1.
         -5    1    3    3    0  502 -0.77934836355E+03 -0.31596215423E+03 -0.50353075761E+02  0.84248054987E+03  0.47000000000E+01 0.  1.
         11    1    5    5    0    0  0.53324120715E+03  0.32131099786E+03  0.87124304833E+01  0.62262576946E+03  0.00000000000E+00 0.  1.
        -11    1    5    5    0    0  0.12939911597E+03  0.35367415547E+02 -0.20392193722E+02  0.13568650213E+03  0.00000000000E+00 0. -1.
          1    1    6    6  503    0  0.87511660773E+02 -0.50411099187E+02  0.13025192445E+03  0.16481848657E+03  0.00000000000E+00 0. -1.
         -1    1    6    6    0  503  0.87891845390E+02  0.36771564221E+02  0.17972498162E+03  0.20341630574E+03  0.00000000000E+00 0.  1.
<mgrwt>
<rscale>  0 0.92938100E+03</rscale>
<asrwt>0</asrwt>
<pdfrwt beam="1">  1        2 0.14005544E+00 0.92938100E+03</pdfrwt>
<pdfrwt beam="2">  1       -2 0.17377912E+00 0.92938100E+03</pdfrwt>
<totfact> 0.57735034E+00</totfact>
</mgrwt>
</event>
<event>
12    1  0.3147868E-008  0.4301405E+03  0.7818608E-02  0.1033816E+00
          2   -1    0    0  501    0  0.00000000000E+00  0.00000000000E+00  0.23796500975E+04  0.23796500975E+04  0.00000000000E+00 0. -1.
         -2   -1    0    0    0  501 -0.00000000000E+00 -0.00000000000E+00 -0.99232947965E+02  0.99232947965E+02  0.00000000000E+00 0.  1.
         23    2    1    2    0    0 -0.79810917544E+02 -0.23788285027E+03  0.33800201820E+03  0.43048829510E+03  0.90093145653E+02 0.  0.
    5000000    2    1    2    0    0  0.79810917544E+02  0.23788285027E+03  0.19424151314E+04  0.20483947504E+04  0.59998873148E+03 0.  0.
         23    2    4    4    0    0  0.26116663612E+03 -0.33089530912E+02  0.54589331085E+03  0.61181076975E+03  0.83725636929E+02 0.  0.
         23    2    4    4    0    0 -0.18135571858E+03  0.27097238118E+03  0.13965218205E+04  0.14365839806E+04  0.84760900470E+02 0.  0.
          5    1    3    3  502    0 -0.65223160628E+02 -0.20704190615E+03  0.22637249207E+03  0.31366703166E+03  0.47000000000E+01 0. -1.
         -5    1    3    3    0  502 -0.14587756916E+02 -0.30840944119E+02  0.11162952613E+03  0.11682126343E+03  0.47000000000E+01 0.  1.
         13    1    5    5    0    0  0.52968173094E+02  0.22829322263E+02  0.81779994856E+02  0.10007383711E+03  0.00000000000E+00 0. -1.
        -13    1    5    5    0    0  0.20819846302E+03 -0.55918853175E+02  0.46411331599E+03  0.51173693264E+03  0.00000000000E+00 0.  1.
          4    1    6    6  503    0 -0.17330902220E+03  0.20257802028E+03  0.10527117706E+04  0.10859447240E+04  0.00000000000E+00 0. -1.
         -4    1    6    6    0  503 -0.80466963737E+01  0.68394360902E+02  0.34381004988E+03  0.35063925668E+03  0.00000000000E+00 0.  1.
<mgrwt>
<rscale>  0 0.43014049E+03</rscale>
<asrwt>0</asrwt>
<pdfrwt beam="1">  1        2 0.36609997E+00 0.43014049E+03</pdfrwt>
<pdfrwt beam="2">  1       -2 0.15266609E-01 0.43014049E+03</pdfrwt>
<totfact> 0.15013716E+02</totfact>
</mgrwt>
</event>
<event>
12    1  0.3147868E-008  0.1387950E+04  0.7818608E-02  0.8962588E-01
         -2   -1    0    0    0  501 -0.00000000000E+00  0.00000000000E+00  0.14259171281E+04  0.14259171281E+04  0.00000000000E+00 0.  1.
          2   -1    0    0  501    0  0.00000000000E+00 -0.00000000000E+00 -0.14083725918E+04  0.14083725918E+04  0.00000000000E+00 0. -1.
         23    2    1    2    0    0 -0.12686965566E+04  0.43826731691E+03 -0.15376483452E+03  0.13540744671E+04  0.90580594943E+02 0.  0.
    5000000    2    1    2    0    0  0.12686965566E+04 -0.43826731691E+03  0.17130937081E+03  0.14802152528E+04  0.60001758330E+03 0.  0.
         23    2    4    4    0    0  0.74817764489E+03 -0.20446632414E+01  0.23930730386E+03  0.79086952524E+03  0.91829468627E+02 0.  0.
         23    2    4    4    0    0  0.52051891173E+03 -0.43622265367E+03 -0.67997933046E+02  0.68934572757E+03  0.96662672097E+02 0.  0.
          5    1    3    3  502    0 -0.42183909704E+03  0.10290076855E+03 -0.61227007027E+02  0.43852893673E+03  0.47000000000E+01 0. -1.
         -5    1    3    3    0  502 -0.84685745958E+03  0.33536654837E+03 -0.92537827496E+02  0.91554553034E+03  0.47000000000E+01 0.  1.
         11    1    5    5    0    0  0.41923363131E+03 -0.26455327123E+02  0.94125158146E+02  0.43048375968E+03  0.00000000000E+00 0. -1.
        -11    1    5    5    0    0  0.32894401359E+03  0.24410663882E+02  0.14518214571E+03  0.36038576556E+03  0.00000000000E+00 0.  1.
          4    1    6    6  503    0  0.20686977273E+03 -0.20489014869E+03 -0.70628542208E+02  0.29960551876E+03  0.00000000000E+00 0. -1.
         -4    1    6    6    0  503  0.31364913900E+03 -0.23133250499E+03  0.26306091623E+01  0.38974020881E+03  0.00000000000E+00 0.  1.
<mgrwt>
<rscale>  0 0.13879498E+04</rscale>
<asrwt>0</asrwt>
<pdfrwt beam="1">  1        2 0.21667271E+00 0.13879498E+04</pdfrwt>
<pdfrwt beam="2">  1       -2 0.21937187E+00 0.13879498E+04</pdfrwt>
<totfact> 0.13589185E+00</totfact>
</mgrwt>
</event>
<event>
12    1  0.3147868E-008  0.1276271E+04  0.7818608E-02  0.9048597E-01
          2   -1    0    0  501    0  0.00000000000E+00  0.00000000000E+00  0.24458075926E+04  0.24458075926E+04  0.00000000000E+00 0. -1.
         -2   -1    0    0    0  501 -0.00000000000E+00 -0.00000000000E+00 -0.86802828466E+03  0.86802828466E+03  0.00000000000E+00 0.  1.
         23    2    1    2    0    0 -0.12268554356E+04  0.47681798613E+02  0.58790179386E+01  0.12311134411E+04  0.90321250164E+02 0.  0.
    5000000    2    1    2    0    0  0.12268554356E+04 -0.47681798613E+02  0.15719002900E+04  0.20827224361E+04  0.59951180993E+03 0.  0.
         23    2    4    4    0    0  0.98553780358E+03  0.15587959819E+03  0.13697693780E+04  0.16971497926E+04  0.92011186075E+02 0.  0.
         23    2    4    4    0    0  0.24131763206E+03 -0.20356139680E+03  0.20213091196E+03  0.38557264342E+03  0.90210398379E+02 0.  0.
          5    1    3    3  502    0 -0.87813078238E+03  0.56848642797E+02  0.37697978019E+02  0.88078866177E+03  0.47000000000E+01 0. -1.
         -5    1    3    3    0  502 -0.34872465326E+03 -0.91668441840E+01 -0.31818960080E+02  0.35032477938E+03  0.47000000000E+01 0.  1.
         11    1    5    5    0    0  0.14464469055E+03 -0.57161546924E+01  0.22553058076E+03  0.26799030540E+03  0.00000000000E+00 0. -1.
        -11    1    5    5    0    0  0.84089311304E+03  0.16159575288E+03  0.11442387972E+04  0.14291594872E+04  0.00000000000E+00 0.  1.
          3    1    6    6  503    0  0.10981377886E+03 -0.13601129379E+03  0.14485517814E+03  0.22702678410E+03  0.00000000000E+00 0. -1.
         -3    1    6    6    0  503  0.13150385320E+03 -0.67550103007E+02  0.57275733824E+02  0.15854585932E+03  0.00000000000E+00 0.  1.
<mgrwt>
<rscale>  0 0.12762714E+04</rscale>
<asrwt>0</asrwt>
<pdfrwt beam="1">  1        2 0.37627809E+00 0.12762714E+04</pdfrwt>
<pdfrwt beam="2">  1       -2 0.13354281E+00 0.12762714E+04</pdfrwt>
<totfact> 0.14717068E+00</totfact>
</mgrwt>
</event>
<event>
12    1  0.3147868E-008  0.2373687E+04  0.7818608E-02  0.8449421E-01
         -1   -1    0    0    0  501 -0.00000000000E+00  0.00000000000E+00  0.26261729976E+04  0.26261729976E+04  0.00000000000E+00 0.  1.
          1   -1    0    0  501    0  0.00000000000E+00 -0.00000000000E+00 -0.23081512643E+04  0.23081512643E+04  0.00000000000E+00 0. -1.
         23    2    1    2    0    0  0.21312259579E+04 -0.97390837791E+03 -0.46749756639E+03  0.23910587098E+04  0.89365356779E+02 0.  0.
    5000000    2    1    2    0    0 -0.21312259579E+04  0.97390837791E+03  0.78551929963E+03  0.25432655521E+04  0.60044773832E+03 0.  0.
         23    2    4    4    0    0 -0.17490010287E+04  0.99131218543E+03  0.55795917856E+03  0.20883505566E+04  0.90471846049E+02 0.  0.
         23    2    4    4    0    0 -0.38222492912E+03 -0.17403807518E+02  0.22756012106E+03  0.45491499548E+03  0.93622943012E+02 0.  0.
          5    1    3    3  502    0  0.18587747081E+04 -0.84942920390E+03 -0.43755763626E+03  0.20899885557E+04  0.47000000000E+01 0. -1.
         -5    1    3    3    0  502  0.27245124976E+03 -0.12447917401E+03 -0.29939930124E+02  0.30107015407E+03  0.47000000000E+01 0.  1.
         11    1    5    5    0    0 -0.64537165019E+03  0.36241055797E+03  0.16038832590E+03  0.75734430379E+03  0.00000000000E+00 0. -1.
        -11    1    5    5    0    0 -0.11036293785E+04  0.62890162746E+03  0.39757085266E+03  0.13310062528E+04  0.00000000000E+00 0.  1.
          2    1    6    6  503    0 -0.30357127492E+03 -0.51642507546E+02  0.17203217417E+03  0.35272870098E+03  0.00000000000E+00 0. -1.
         -2    1    6    6    0  503 -0.78653654199E+02  0.34238700028E+02  0.55527946889E+02  0.10218629450E+03  0.00000000000E+00 0.  1.
<mgrwt>
<rscale>  0 0.23736867E+04</rscale>
<asrwt>0</asrwt>
<pdfrwt beam="1">  1        1 0.35510020E+00 0.23736867E+04</pdfrwt>
<pdfrwt beam="2">  1       -1 0.40402661E+00 0.23736867E+04</pdfrwt>
<totfact> 0.10495604E-02</totfact>
</mgrwt>
</event>
<event>
12    1  0.3147868E-008  0.1734569E+04  0.7818608E-02  0.8741890E-01
          2   -1    0    0  501    0  0.00000000000E+00  0.00000000000E+00  0.23275392648E+04  0.23275392648E+04  0.00000000000E+00 0. -1.
         -2   -1    0    0    0  501 -0.00000000000E+00 -0.00000000000E+00 -0.13649638092E+04  0.13649638092E+04  0.00000000000E+00 0.  1.
         23    2    1    2    0    0 -0.27646760482E+03  0.17085483367E+04  0.50480645825E+03  0.18043495945E+04  0.72637066006E+02 0.  0.
    5000000    2    1    2    0    0  0.27646760482E+03 -0.17085483367E+04  0.45776899738E+03  0.18881534795E+04  0.59999945966E+03 0.  0.
         23    2    4    4    0    0  0.23527220975E+03 -0.10054504896E+04 -0.12840926400E+02  0.10364731933E+04  0.88476501368E+02 0.  0.
         23    2    4    4    0    0  0.41195395069E+02 -0.70309784717E+03  0.47060992378E+03  0.85168028621E+03  0.88554877323E+02 0.  0.
          5    1    3    3  502    0 -0.21422131363E+03  0.13126728639E+04  0.35619505960E+03  0.13769160575E+04  0.47000000000E+01 0. -1.
         -5    1    3    3    0  502 -0.62246291188E+02  0.39587547284E+03  0.14861139864E+03  0.42743353702E+03  0.47000000000E+01 0.  1.
         13    1    5    5    0    0  0.55505772158E+02 -0.32143922028E+03  0.32319414385E+02  0.32779354421E+03  0.00000000000E+00 0. -1.
        -13    1    5    5    0    0  0.17976643759E+03 -0.68401126930E+03 -0.45160340785E+02  0.70867964906E+03  0.00000000000E+00 0.  1.
          1    1    6    6  503    0  0.30899008281E+02 -0.28605182761E+03  0.24210186616E+03  0.37602355031E+03  0.00000000000E+00 0. -1.
         -1    1    6    6    0  503  0.10296386788E+02 -0.41704601956E+03  0.22850805761E+03  0.47565673590E+03  0.00000000000E+00 0.  1.
<mgrwt>
<rscale>  0 0.17345688E+04</rscale>
<asrwt>0</asrwt>
<pdfrwt beam="1">  1        2 0.35808296E+00 0.17345688E+04</pdfrwt>
<pdfrwt beam="2">  1       -2 0.20999443E+00 0.17345688E+04</pdfrwt>
<totfact> 0.45905543E-01</totfact>
</mgrwt>
</event>
<event>
12    1  0.3147868E-008  0.4718185E+03  0.7818608E-02  0.1021408E+00
         -1   -1    0    0    0  501 -0.00000000000E+00  0.00000000000E+00  0.39497363680E+03  0.39497363680E+03  0.00000000000E+00 0.  1.
          1   -1    0    0  501    0  0.00000000000E+00 -0.00000000000E+00 -0.99847083489E+03  0.99847083489E+03  0.00000000000E+00 0. -1.
         23    2    1    2    0    0  0.28451678093E+03  0.35204264642E+03 -0.57482859911E+02  0.46458089289E+03  0.87448861170E+02 0.  0.
    5000000    2    1    2    0    0 -0.28451678093E+03 -0.35204264642E+03 -0.54601433818E+03  0.92886357880E+03  0.59981002575E+03 0.  0.
         23    2    4    4    0    0 -0.20368693889E+03 -0.32112841644E+03 -0.23351663721E+02  0.39128578670E+03  0.89148402999E+02 0.  0.
         23    2    4    4    0    0 -0.80829842038E+02 -0.30914229983E+02 -0.52266267446E+03  0.53757779210E+03  0.91238469417E+02 0.  0.
          5    1    3    3  502    0  0.65047440251E+02  0.64648744748E+02 -0.46121843209E+02  0.10276158865E+03  0.47000000000E+01 0. -1.
         -5    1    3    3    0  502  0.21946934068E+03  0.28739390167E+03 -0.11361016702E+02  0.36181930424E+03  0.47000000000E+01 0.  1.
         11    1    5    5    0    0 -0.10188552836E+03 -0.87906849216E+02  0.84641415612E+01  0.13483292150E+03  0.00000000000E+00 0. -1.
        -11    1    5    5    0    0 -0.10180141053E+03 -0.23322156722E+03 -0.31815805282E+02  0.25645286520E+03  0.00000000000E+00 0.  1.
          3    1    6    6  503    0  0.47302054896E+01  0.62554963391E+01 -0.23576082035E+03  0.23589122598E+03  0.00000000000E+00 0. -1.
         -3    1    6    6    0  503 -0.85560047528E+02 -0.37169726322E+02 -0.28690185411E+03  0.30168656612E+03  0.00000000000E+00 0.  1.
<mgrwt>
<rscale>  0 0.47181854E+03</rscale>
<asrwt>0</asrwt>
<pdfrwt beam="1">  1        1 0.15361090E+00 0.47181854E+03</pdfrwt>
<pdfrwt beam="2">  1       -1 0.60765175E-01 0.47181854E+03</pdfrwt>
<totfact> 0.44263673E+01</totfact>
</mgrwt>
</event>
<event>
12    1  0.3147868E-008  0.5333368E+03  0.7818608E-02  0.1005426E+00
          1   -1    0    0  501    0  0.00000000000E+00  0.00000000000E+00  0.10133137281E+04  0.10133137281E+04  0.00000000000E+00 0. -1.
         -1   -1    0    0    0  501 -0.00000000000E+00 -0.00000000000E+00 -0.31836360869E+03  0.31836360869E+03  0.00000000000E+00 0.  1.
         23    2    1    2    0    0 -0.19951662245E+03 -0.31971738371E+03  0.42066921647E+03  0.57196913579E+03  0.90332798763E+02 0.  0.
    5000000    2    1    2    0    0  0.19951662245E+03  0.31971738371E+03  0.27428090294E+03  0.75970820100E+03  0.59991703499E+03 0.  0.
         23    2    4    4    0    0 -0.14785775132E+03 -0.42885599548E+02 -0.30232336719E+01  0.17890133750E+03  0.91079412290E+02 0.  0.
         23    2    4    4    0    0  0.34737437377E+03  0.36260298325E+03  0.27730413661E+03  0.58080686350E+03  0.91044766426E+02 0.  0.
          5    1    3    3  502    0 -0.81296560906E+02 -0.16823776610E+03  0.26680728272E+03  0.32576263271E+03  0.47000000000E+01 0. -1.
         -5    1    3    3    0  502 -0.11822006155E+03 -0.15147961761E+03  0.15386193375E+03  0.24620650308E+03  0.47000000000E+01 0.  1.
         13    1    5    5    0    0 -0.86299019025E+02 -0.69574902052E+02 -0.10704085563E+02  0.11136770236E+03  0.00000000000E+00 0. -1.
        -13    1    5    5    0    0 -0.61558732295E+02  0.26689302504E+02  0.76808518907E+01  0.67533635144E+02  0.00000000000E+00 0.  1.
          1    1    6    6  503    0  0.74816318925E+02  0.32624671598E+02  0.56039728790E+02  0.99006575424E+02  0.00000000000E+00 0. -1.
         -1    1    6    6    0  503  0.27255805485E+03  0.32997831166E+03  0.22126440782E+03  0.48180028808E+03  0.00000000000E+00 0.  1.
<mgrwt>
<rscale>  0 0.53333682E+03</rscale>
<asrwt>0</asrwt>
<pdfrwt beam="1">  1        1 0.15589442E+00 0.53333682E+03</pdfrwt>
<pdfrwt beam="2">  1       -1 0.48979017E-01 0.53333682E+03</pdfrwt>
<totfact> 0.64579712E+01</totfact>
</mgrwt>
</event>
<event>
12    1  0.3147868E-008  0.1377621E+04  0.7818608E-02  0.8970178E-01
          2   -1    0    0  501    0  0.00000000000E+00  0.00000000000E+00  0.26270524844E+04  0.26270524844E+04  0.00000000000E+00 0. -1.
         -2   -1    0    0    0  501 -0.00000000000E+00 -0.00000000000E+00 -0.76268347320E+03  0.76268347320E+03  0.00000000000E+00 0.  1.
         23    2    1    2    0    0 -0.13005623794E+04 -0.36214700399E+03  0.86663443920E+03  0.16072108038E+04  0.97254108857E+02 0.  0.
    5000000    2    1    2    0    0  0.13005623794E+04  0.36214700399E+03  0.99773457202E+03  0.17825251538E+04  0.59942363366E+03 0.  0.
         23    2    4    4    0    0  0.83223267111E+03  0.46355638362E+02  0.32243582810E+03  0.89835453043E+03  0.91191748761E+02 0.  0.
         23    2    4    4    0    0  0.46832970824E+03  0.31579136563E+03  0.67529874392E+03  0.88417062335E+03  0.81684731912E+02 0.  0.
          5    1    3    3  502    0 -0.95588033093E+03 -0.22708979300E+03  0.65410048370E+03  0.11803162771E+04  0.47000000000E+01 0. -1.
         -5    1    3    3    0  502 -0.34468204842E+03 -0.13505721099E+03  0.21253395550E+03  0.42689452676E+03  0.47000000000E+01 0.  1.
         11    1    5    5    0    0  0.17691888668E+03  0.43958194428E+02  0.87352533124E+02  0.20214618563E+03  0.00000000000E+00 0.  1.
        -11    1    5    5    0    0  0.65531378443E+03  0.23974439339E+01  0.23508329497E+03  0.69620834481E+03  0.00000000000E+00 0. -1.
          3    1    6    6  503    0  0.13129447993E+03  0.84411125043E+02  0.24614154292E+03  0.29146035347E+03  0.00000000000E+00 0. -1.
         -3    1    6    6    0  503  0.33703522831E+03  0.23138024058E+03  0.42915720100E+03  0.59271026988E+03  0.00000000000E+00 0.  1.
<mgrwt>
<rscale>  0 0.13776214E+04</rscale>
<asrwt>0</asrwt>
<pdfrwt beam="1">  1        2 0.40416192E+00 0.13776214E+04</pdfrwt>
<pdfrwt beam="2">  1       -2 0.11733592E+00 0.13776214E+04</pdfrwt>
<totfact> 0.15853977E+00</totfact>
</mgrwt>
</event>
<event>
12    1  0.3147868E-008  0.9066877E+03  0.7818608E-02  0.9417260E-01
          2   -1    0    0  501    0  0.00000000000E+00  0.00000000000E+00  0.14622609721E+04  0.14622609721E+04  0.00000000000E+00 0. -1.
         -2   -1    0    0    0  501 -0.00000000000E+00 -0.00000000000E+00 -0.61838238634E+03  0.61838238634E+03  0.00000000000E+00 0.  1.
         23    2    1    2    0    0  0.80605184265E+03  0.24426326884E+03  0.22920430057E+03  0.87770061386E+03  0.91867505906E+02 0.  0.
    5000000    2    1    2    0    0 -0.80605184265E+03 -0.24426326884E+03  0.61467428524E+03  0.12029427446E+04  0.59988553271E+03 0.  0.
         23    2    4    4    0    0 -0.83463296808E+03 -0.22070240350E+03  0.37824512847E+03  0.94676220965E+03  0.89261201454E+02 0.  0.
         23    2    4    4    0    0  0.28581125437E+02 -0.23560865343E+02  0.23642915678E+03  0.25618053497E+03  0.91420595145E+02 0.  0.
          5    1    3    3  502    0  0.51689276284E+03  0.20000826737E+03  0.16314822608E+03  0.57777233316E+03  0.47000000000E+01 0. -1.
         -5    1    3    3    0  502  0.28915907980E+03  0.44255001472E+02  0.66056074489E+02  0.29992828070E+03  0.47000000000E+01 0.  1.
         13    1    5    5    0    0 -0.28607735112E+03 -0.32248945005E+02  0.12749640477E+03  0.31485802913E+03  0.00000000000E+00 0. -1.
        -13    1    5    5    0    0 -0.54855561696E+03 -0.18845345850E+03  0.25074872369E+03  0.63190418052E+03  0.00000000000E+00 0.  1.
          3    1    6    6  503    0 -0.21075083649E+02 -0.40926044672E+02  0.11079752002E+03  0.11997995969E+03  0.00000000000E+00 0. -1.
         -3    1    6    6    0  503  0.49656209087E+02  0.17365179329E+02  0.12563163676E+03  0.13620057528E+03  0.00000000000E+00 0.  1.
<mgrwt>
<rscale>  0 0.90668767E+03</rscale>
<asrwt>0</asrwt>
<pdfrwt beam="1">  1        2 0.22496323E+00 0.90668767E+03</pdfrwt>
<pdfrwt beam="2">  1       -2 0.95135752E-01 0.90668767E+03</pdfrwt>
<totfact> 0.12449337E+01</totfact>
</mgrwt>
</event>
<event>
12    1  0.3147868E-008  0.6224185E+03  0.7818608E-02  0.9859956E-01
         -1   -1    0    0    0  501 -0.00000000000E+00  0.00000000000E+00  0.62495554865E+03  0.62495554865E+03  0.00000000000E+00 0.  1.
          1   -1    0    0  501    0  0.00000000000E+00 -0.00000000000E+00 -0.78028957251E+03  0.78028957251E+03  0.00000000000E+00 0. -1.
         23    2    1    2    0    0  0.44351627335E+03  0.35001769475E+03 -0.59891021356E+02  0.57557646328E+03  0.92099181714E+02 0.  0.
    5000000    2    1    2    0    0 -0.44351627335E+03 -0.35001769475E+03 -0.95443002502E+02  0.82966865788E+03  0.60001803621E+03 0.  0.
         23    2    4    4    0    0  0.23321114166E+02 -0.14057552962E+02  0.16631352441E+03  0.19123919513E+03  0.90392213113E+02 0.  0.
         23    2    4    4    0    0 -0.46683738752E+03 -0.33596014178E+03 -0.26175652691E+03  0.63842946275E+03  0.90935890979E+02 0.  0.
          5    1    3    3  502    0  0.86439251377E+02  0.99861403141E+02  0.15610207644E+02  0.13307821985E+03  0.47000000000E+01 0. -1.
         -5    1    3    3    0  502  0.35707702198E+03  0.25015629161E+03 -0.75501229001E+02  0.44249824342E+03  0.47000000000E+01 0.  1.
         11    1    5    5    0    0 -0.30812065786E+02 -0.24385511140E+02  0.68828501120E+02  0.79255278171E+02  0.00000000000E+00 0. -1.
        -11    1    5    5    0    0  0.54133179952E+02  0.10327958179E+02  0.97485023289E+02  0.11198391696E+03  0.00000000000E+00 0.  1.
          2    1    6    6  503    0 -0.38930188221E+03 -0.31800707041E+03 -0.22846923409E+03  0.55216179082E+03  0.00000000000E+00 0. -1.
         -2    1    6    6    0  503 -0.77535505311E+02 -0.17953071379E+02 -0.33287292825E+02  0.86267671926E+02  0.00000000000E+00 0.  1.
<mgrwt>
<rscale>  0 0.62241847E+03</rscale>
<asrwt>0</asrwt>
<pdfrwt beam="1">  1        1 0.12004455E+00 0.62241847E+03</pdfrwt>
<pdfrwt beam="2">  1       -1 0.96147008E-01 0.62241847E+03</pdfrwt>
<totfact> 0.24994784E+01</totfact>
</mgrwt>
</event>
<event>
12    1  0.3147868E-008  0.6473647E+03  0.7818608E-02  0.9811737E-01
         -2   -1    0    0    0  501 -0.00000000000E+00  0.00000000000E+00  0.45468166452E+03  0.45468166452E+03  0.00000000000E+00 0.  1.
          2   -1    0    0  501    0  0.00000000000E+00 -0.00000000000E+00 -0.12607132723E+04  0.12607132723E+04  0.00000000000E+00 0. -1.
         23    2    1    2    0    0  0.61638069483E+03 -0.49195036637E+02 -0.50263030182E+03  0.80213779953E+03  0.91883167808E+02 0.  0.
    5000000    2    1    2    0    0 -0.61638069483E+03  0.49195036637E+02 -0.30340130591E+03  0.91325713724E+03  0.59970070344E+03 0.  0.
         23    2    4    4    0    0 -0.55282017353E+03  0.53655192261E+02 -0.45304016718E+03  0.72285204065E+03  0.93705152850E+02 0.  0.
         23    2    4    4    0    0 -0.63560521300E+02 -0.44601556245E+01  0.14963886127E+03  0.19040509659E+03  0.99007470165E+02 0.  0.
          5    1    3    3  502    0  0.37214481734E+03 -0.51412006056E+02 -0.25358214480E+03  0.45327800917E+03  0.47000000000E+01 0. -1.
         -5    1    3    3    0  502  0.24423587750E+03  0.22169694193E+01 -0.24904815703E+03  0.34885979036E+03  0.47000000000E+01 0.  1.
         13    1    5    5    0    0 -0.10739700935E+03  0.38902509552E+02 -0.12596479517E+03  0.17004309010E+03  0.00000000000E+00 0.  1.
        -13    1    5    5    0    0 -0.44542316418E+03  0.14752682709E+02 -0.32707537201E+03  0.55280895055E+03  0.00000000000E+00 0. -1.
          3    1    6    6  503    0 -0.60518468661E+02  0.38527249950E+02  0.11295028989E+03  0.13380807907E+03  0.00000000000E+00 0. -1.
         -3    1    6    6    0  503 -0.30420526388E+01 -0.42987405575E+02  0.36688571386E+02  0.56597017524E+02  0.00000000000E+00 0.  1.
<mgrwt>
<rscale>  0 0.64736470E+03</rscale>
<asrwt>0</asrwt>
<pdfrwt beam="1">  1        2 0.19395588E+00 0.64736470E+03</pdfrwt>
<pdfrwt beam="2">  1       -2 0.69951027E-01 0.64736470E+03</pdfrwt>
<totfact> 0.33467507E+01</totfact>
</mgrwt>
</event>
<event>
12    1  0.3147868E-008  0.9004110E+03  0.7818608E-02  0.9425068E-01
          2   -1    0    0  501    0  0.00000000000E+00  0.00000000000E+00  0.13967261235E+04  0.13967261235E+04  0.00000000000E+00 0.  1.
         -2   -1    0    0    0  501 -0.00000000000E+00 -0.00000000000E+00 -0.80417532026E+03  0.80417532026E+03  0.00000000000E+00 0. -1.
         23    2    1    2    0    0  0.82532518436E+03  0.24150694775E+03  0.74478105969E+03  0.11413622793E+04  0.92313379780E+02 0.  0.
    5000000    2    1    2    0    0 -0.82532518436E+03 -0.24150694775E+03 -0.15223025642E+03  0.10595391644E+04  0.59996826939E+03 0.  0.
         23    2    4    4    0    0 -0.55993809651E+03 -0.33064310661E+03 -0.30954309116E+03  0.72568791966E+03  0.89165551558E+02 0.  0.
         23    2    4    4    0    0 -0.26538708785E+03  0.89136158855E+02  0.15731283475E+03  0.33385124478E+03  0.91289454232E+02 0.  0.
          5    1    3    3  502    0  0.46611251461E+03  0.96901043084E+02  0.44419795936E+03  0.65114100280E+03  0.47000000000E+01 0. -1.
         -5    1    3    3    0  502  0.35921266975E+03  0.14460590467E+03  0.30058310033E+03  0.49022127655E+03  0.47000000000E+01 0.  1.
         13    1    5    5    0    0 -0.87227245222E+02 -0.28000149812E+02 -0.70575272328E+02  0.11564371908E+03  0.00000000000E+00 0.  1.
        -13    1    5    5    0    0 -0.47271085129E+03 -0.30264295680E+03 -0.23896781884E+03  0.61004420058E+03  0.00000000000E+00 0. -1.
          2    1    6    6  503    0 -0.74540324551E+02  0.49964573569E+02  0.11431521741E+02  0.90462137303E+02  0.00000000000E+00 0.  1.
         -2    1    6    6    0  503 -0.19084676330E+03  0.39171585286E+02  0.14588131300E+03  0.24338910748E+03  0.00000000000E+00 0. -1.
<mgrwt>
<rscale>  0 0.90041101E+03</rscale>
<asrwt>0</asrwt>
<pdfrwt beam="1">  1        2 0.21488094E+00 0.90041101E+03</pdfrwt>
<pdfrwt beam="2">  1       -2 0.12371928E+00 0.90041101E+03</pdfrwt>
<totfact> 0.71794894E+00</totfact>
</mgrwt>
</event>
<event>
12    1  0.3147868E-008  0.8831402E+03  0.7818608E-02  0.9446906E-01
         -1   -1    0    0    0  501 -0.00000000000E+00  0.00000000000E+00  0.18973945771E+04  0.18973945771E+04  0.00000000000E+00 0.  1.
          1   -1    0    0  501    0  0.00000000000E+00 -0.00000000000E+00 -0.43252073563E+03  0.43252073563E+03  0.00000000000E+00 0. -1.
         23    2    1    2    0    0  0.76552013509E+03  0.18179832302E+03  0.86505762750E+03  0.11728667565E+04  0.90664338262E+02 0.  0.
    5000000    2    1    2    0    0 -0.76552013509E+03 -0.18179832302E+03  0.59981621398E+03  0.11570485562E+04  0.59992513148E+03 0.  0.
         23    2    4    4    0    0 -0.35388730008E+03 -0.37663541643E+03  0.32506028146E+03  0.61724142032E+03  0.90732168054E+02 0.  0.
         23    2    4    4    0    0 -0.41163283501E+03  0.19483709341E+03  0.27475593252E+03  0.53980713588E+03  0.92183716905E+02 0.  0.
          5    1    3    3  502    0  0.58883915224E+03  0.10091445727E+03  0.64115908797E+03  0.87636883843E+03  0.47000000000E+01 0. -1.
         -5    1    3    3    0  502  0.17668098285E+03  0.80883865742E+02  0.22389853953E+03  0.29649791811E+03  0.47000000000E+01 0.  1.
         13    1    5    5    0    0 -0.54637671922E+02 -0.79926177438E+02  0.10123481773E+03  0.14007839717E+03  0.00000000000E+00 0.  1.
        -13    1    5    5    0    0 -0.29924962815E+03 -0.29670923899E+03  0.22382546373E+03  0.47716302315E+03  0.00000000000E+00 0. -1.
          3    1    6    6  503    0 -0.56578732225E+02  0.37552889383E+02  0.81381839889E+02  0.10599234078E+03  0.00000000000E+00 0. -1.
         -3    1    6    6    0  503 -0.35505410279E+03  0.15728420403E+03  0.19337409264E+03  0.43381479510E+03  0.00000000000E+00 0.  1.
<mgrwt>
<rscale>  0 0.88314023E+03</rscale>
<asrwt>0</asrwt>
<pdfrwt beam="1">  1        1 0.66541653E-01 0.88314023E+03</pdfrwt>
<pdfrwt beam="2">  1       -1 0.29190685E+00 0.88314023E+03</pdfrwt>
<totfact> 0.20717120E+00</totfact>
</mgrwt>
</event>
<event>
12    1  0.3147868E-008  0.4869128E+03  0.7818608E-02  0.1017252E+00
          3   -1    0    0  501    0  0.00000000000E+00  0.00000000000E+00  0.14238136573E+03  0.14238136573E+03  0.00000000000E+00 0. -1.
         -3   -1    0    0    0  501 -0.00000000000E+00 -0.00000000000E+00 -0.17682724937E+04  0.17682724937E+04  0.00000000000E+00 0.  1.
         23    2    1    2    0    0  0.31324492930E+03 -0.11568376059E+01 -0.49232076415E+03  0.59037463022E+03  0.89659049721E+02 0.  0.
    5000000    2    1    2    0    0 -0.31324492930E+03  0.11568376059E+01 -0.11335703639E+04  0.13202792293E+04  0.60002645720E+03 0.  0.
         23    2    4    4    0    0  0.16440868720E+03 -0.19952381296E+02 -0.33809636352E+03  0.38761047621E+03  0.92219392186E+02 0.  0.
         23    2    4    4    0    0 -0.47765361651E+03  0.21109218902E+02 -0.79547400035E+03  0.93266875304E+03  0.92160410062E+02 0.  0.
          5    1    3    3  502    0  0.23867123197E+03 -0.30285798430E+02 -0.41032828140E+03  0.47568116956E+03  0.47000000000E+01 0. -1.
         -5    1    3    3    0  502  0.74573697330E+02  0.29128960824E+02 -0.81992482742E+02  0.11469346066E+03  0.47000000000E+01 0.  1.
         13    1    5    5    0    0  0.10333385278E+03  0.19096484694E+01 -0.11203127817E+03  0.15242223977E+03  0.00000000000E+00 0.  1.
        -13    1    5    5    0    0  0.61074834420E+02 -0.21862029765E+02 -0.22606508535E+03  0.23518823644E+03  0.00000000000E+00 0. -1.
          3    1    6    6  503    0 -0.54164455051E+02 -0.23300309124E+02 -0.12816094252E+03  0.14107416413E+03  0.00000000000E+00 0. -1.
         -3    1    6    6    0  503 -0.42348916146E+03  0.44409528026E+02 -0.66731305783E+03  0.79159458892E+03  0.00000000000E+00 0.  1.
<mgrwt>
<rscale>  0 0.48691284E+03</rscale>
<asrwt>0</asrwt>
<pdfrwt beam="1">  1        3 0.21904826E-01 0.48691284E+03</pdfrwt>
<pdfrwt beam="2">  1       -3 0.27204192E+00 0.48691284E+03</pdfrwt>
<totfact> 0.28772224E+00</totfact>
</mgrwt>
</event>
<event>
12    1  0.3147868E-008  0.4584844E+03  0.7818608E-02  0.1025222E+00
         -1   -1    0    0    0  501 -0.00000000000E+00  0.00000000000E+00  0.19971650143E+03  0.19971650143E+03  0.00000000000E+00 0.  1.
          1   -1    0    0  501    0  0.00000000000E+00 -0.00000000000E+00 -0.19908249764E+04  0.19908249764E+04  0.00000000000E+00 0. -1.
         23    2    1    2    0    0  0.27021369426E+03 -0.11061933929E+03 -0.29562561425E+02  0.30688066997E+03  0.89720241728E+02 0.  0.
    5000000    2    1    2    0    0 -0.27021369426E+03  0.11061933929E+03 -0.17615459136E+04  0.18836608079E+04  0.59990162090E+03 0.  0.
         23    2    4    4    0    0  0.45032612396E+02 -0.17717641921E+03 -0.82945468821E+03  0.85430551247E+03  0.91779132388E+02 0.  0.
         23    2    4    4    0    0 -0.31524630665E+03  0.28779575850E+03 -0.93209122534E+03  0.10293552954E+04  0.92583148225E+02 0.  0.
          5    1    3    3  502    0  0.10699907765E+03 -0.59939517358E+02  0.29087881901E+02  0.12613383064E+03  0.47000000000E+01 0. -1.
         -5    1    3    3    0  502  0.16321461661E+03 -0.50679821927E+02 -0.58650443325E+02  0.18074683933E+03  0.47000000000E+01 0.  1.
         13    1    5    5    0    0 -0.51196724544E+01 -0.50746322803E+02 -0.41454334488E+03  0.41766922930E+03  0.00000000000E+00 0.  1.
        -13    1    5    5    0    0  0.50152284850E+02 -0.12643009641E+03 -0.41491134333E+03  0.43663628317E+03  0.00000000000E+00 0. -1.
          2    1    6    6  503    0 -0.16329008155E+03  0.20855190936E+03 -0.54089101568E+03  0.60226293301E+03  0.00000000000E+00 0. -1.
         -2    1    6    6    0  503 -0.15195622510E+03  0.79243849143E+02 -0.39120020966E+03  0.42709236239E+03  0.00000000000E+00 0.  1.
<mgrwt>
<rscale>  0 0.45848440E+03</rscale>
<asrwt>0</asrwt>
<pdfrwt beam="1">  1        1 0.30628075E+00 0.45848440E+03</pdfrwt>
<pdfrwt beam="2">  1       -1 0.30725617E-01 0.45848440E+03</pdfrwt>
<totfact> 0.32191139E+01</totfact>
</mgrwt>
</event>
<event>
12    1  0.3147868E-008  0.1362389E+04  0.7818608E-02  0.8981502E-01
          1   -1    0    0  501    0  0.00000000000E+00  0.00000000000E+00  0.23766855388E+04  0.23766855388E+04  0.00000000000E+00 0. -1.
         -1   -1    0    0    0  501 -0.00000000000E+00 -0.00000000000E+00 -0.80740846339E+03  0.80740846339E+03  0.00000000000E+00 0.  1.
         23    2    1    2    0    0  0.73334938089E+02  0.13097453977E+04  0.90332694176E+03  0.15953326690E+04  0.90971100014E+02 0.  0.
    5000000    2    1    2    0    0 -0.73334938089E+02 -0.13097453977E+04  0.66595013368E+03  0.15887613332E+04  0.59988496679E+03 0.  0.
         23    2    4    4    0    0 -0.13469117349E+03 -0.85030324120E+02 -0.15540118348E+02  0.18293507738E+03  0.88610829036E+02 0.  0.
         23    2    4    4    0    0  0.61356235404E+02 -0.12247150736E+04  0.68149025203E+03  0.14058262558E+04  0.90702253812E+02 0.  0.
          5    1    3    3  502    0  0.42053514808E+02  0.25125237461E+03  0.14883676386E+03  0.29507749174E+03  0.47000000000E+01 0. -1.
         -5    1    3    3    0  502  0.31281423281E+02  0.10584930231E+04  0.75449017790E+03  0.13002551773E+04  0.47000000000E+01 0.  1.
         13    1    5    5    0    0 -0.14396402434E+03 -0.91432495680E+02 -0.11382445645E+02  0.17092425702E+03  0.00000000000E+00 0. -1.
        -13    1    5    5    0    0  0.92728508447E+01  0.64021715593E+01 -0.41576727034E+01  0.12010820362E+02  0.00000000000E+00 0.  1.
          4    1    6    6  503    0  0.65028910694E+02 -0.46924078282E+03  0.27997449566E+03  0.55027392243E+03  0.00000000000E+00 0.  1.
         -4    1    6    6    0  503 -0.36726752900E+01 -0.75547429079E+03  0.40151575637E+03  0.85555233341E+03  0.00000000000E+00 0. -1.
<mgrwt>
<rscale>  0 0.13623890E+04</rscale>
<asrwt>0</asrwt>
<pdfrwt beam="1">  1        1 0.36564393E+00 0.13623890E+04</pdfrwt>
<pdfrwt beam="2">  1       -1 0.12421669E+00 0.13623890E+04</pdfrwt>
<totfact> 0.90673016E-01</totfact>
</mgrwt>
</event>
<event>
12    1  0.3147868E-008  0.1146312E+04  0.7818608E-02  0.9161193E-01
         -2   -1    0    0    0  501 -0.00000000000E+00  0.00000000000E+00  0.67819552820E+03  0.67819552820E+03  0.00000000000E+00 0.  1.
          2   -1    0    0  501    0  0.00000000000E+00 -0.00000000000E+00 -0.21647118017E+04  0.21647118017E+04  0.00000000000E+00 0. -1.
         23    2    1    2    0    0  0.55626245361E+03 -0.92983458502E+03 -0.30053191308E+03  0.11281031502E+04  0.90978096352E+02 0.  0.
    5000000    2    1    2    0    0 -0.55626245361E+03  0.92983458502E+03 -0.11859843604E+04  0.17148041797E+04  0.59997849851E+03 0.  0.
         23    2    4    4    0    0 -0.11190097647E+03 -0.31232531033E+02 -0.28454915885E+03  0.32192398178E+03  0.95757645706E+02 0.  0.
         23    2    4    4    0    0 -0.44436147713E+03  0.96106711605E+03 -0.90143520157E+03  0.13928801979E+04  0.80141744052E+02 0.  0.
          5    1    3    3  502    0  0.30268181393E+03 -0.54545170549E+03 -0.21413265625E+03  0.65955191455E+03  0.47000000000E+01 0. -1.
         -5    1    3    3    0  502  0.25358063967E+03 -0.38438287952E+03 -0.86399256834E+02  0.46855123569E+03  0.47000000000E+01 0.  1.
         13    1    5    5    0    0 -0.48369855155E+02  0.32911217143E+02 -0.88546723662E+02  0.10612875846E+03  0.00000000000E+00 0. -1.
        -13    1    5    5    0    0 -0.63531121316E+02 -0.64143748176E+02 -0.19600243519E+03  0.21579522331E+03  0.00000000000E+00 0.  1.
          2    1    6    6  503    0 -0.26003054860E+03  0.51754813780E+03 -0.44645968644E+03  0.73129898999E+03  0.00000000000E+00 0. -1.
         -2    1    6    6    0  503 -0.18433092854E+03  0.44351897825E+03 -0.45497551512E+03  0.66158120790E+03  0.00000000000E+00 0.  1.
<mgrwt>
<rscale>  0 0.11463119E+04</rscale>
<asrwt>0</asrwt>
<pdfrwt beam="1">  1        2 0.33303259E+00 0.11463119E+04</pdfrwt>
<pdfrwt beam="2">  1       -2 0.10433777E+00 0.11463119E+04</pdfrwt>
<totfact> 0.39743939E+00</totfact>
</mgrwt>
</event>
<event>
12    1  0.3147868E-008  0.2532028E+03  0.7818608E-02  0.1111297E+00
         -2   -1    0    0    0  501 -0.00000000000E+00  0.00000000000E+00  0.75851567719E+03  0.75851567719E+03  0.00000000000E+00 0. -1.
          2   -1    0    0  501    0  0.00000000000E+00 -0.00000000000E+00 -0.30972456185E+03  0.30972456185E+03  0.00000000000E+00 0.  1.
         23    2    1    2    0    0  0.14293806691E+03  0.14056643784E+03  0.37040034757E+03  0.43080084824E+03  0.90568973379E+02 0.  0.
    5000000    2    1    2    0    0 -0.14293806691E+03 -0.14056643784E+03  0.78390767769E+02  0.63743939081E+03  0.59999470836E+03 0.  0.
         23    2    4    4    0    0 -0.38190464200E+02 -0.13803633868E+01  0.31500027216E+03  0.33013233072E+03  0.91114034947E+02 0.  0.
         23    2    4    4    0    0 -0.10474760271E+03 -0.13918607445E+03 -0.23660950439E+03  0.30730706009E+03  0.90048586976E+02 0.  0.
          5    1    3    3  502    0  0.12757076476E+03  0.72199328679E+02  0.21488481028E+03  0.26016266983E+03  0.47000000000E+01 0. -1.
         -5    1    3    3    0  502  0.15367302150E+02  0.68367109159E+02  0.15551553729E+03  0.17063817841E+03  0.47000000000E+01 0.  1.
         13    1    5    5    0    0  0.10388469842E+02 -0.34056773493E+02  0.17133673644E+03  0.17499731821E+03  0.00000000000E+00 0.  1.
        -13    1    5    5    0    0 -0.48578934042E+02  0.32676410106E+02  0.14366353572E+03  0.15513501251E+03  0.00000000000E+00 0. -1.
          1    1    6    6  503    0 -0.55279497957E+02 -0.13480777939E+03 -0.18759932730E+03  0.23753414045E+03  0.00000000000E+00 0. -1.
         -1    1    6    6    0  503 -0.49468104755E+02 -0.43782950630E+01 -0.49010177093E+02  0.69772919635E+02  0.00000000000E+00 0.  1.
<mgrwt>
<rscale>  0 0.25320279E+03</rscale>
<asrwt>0</asrwt>
<pdfrwt beam="1">  1        2 0.47649933E-01 0.25320279E+03</pdfrwt>
<pdfrwt beam="2">  1       -2 0.11669472E+00 0.25320279E+03</pdfrwt>
<totfact> 0.63515039E+01</totfact>
</mgrwt>
</event>
<event>
12    1  0.3147868E-008  0.4667621E+03  0.7818608E-02  0.1022838E+00
         -2   -1    0    0    0  501 -0.00000000000E+00  0.00000000000E+00  0.11487215796E+03  0.11487215796E+03  0.00000000000E+00 0.  1.
          2   -1    0    0  501    0  0.00000000000E+00 -0.00000000000E+00 -0.29819712229E+04  0.29819712229E+04  0.00000000000E+00 0. -1.
         23    2    1    2    0    0 -0.40028736438E+03 -0.42396624045E+02 -0.14424112911E+04  0.15002331654E+04  0.90120863529E+02 0.  0.
    5000000    2    1    2    0    0  0.40028736438E+03  0.42396624045E+02 -0.14246877739E+04  0.15966102155E+04  0.59783064443E+03 0.  0.
         23    2    4    4    0    0  0.48108013572E+00  0.87266280652E+02 -0.98779749728E+03  0.99574162163E+03  0.90232179597E+02 0.  0.
         23    2    4    4    0    0  0.39980628425E+03 -0.44869656607E+02 -0.43689027661E+03  0.60086859389E+03  0.91167989553E+02 0.  0.
          5    1    3    3  502    0 -0.12421201563E+03 -0.30638348580E+02 -0.60500029468E+03  0.61839694355E+03  0.47000000000E+01 0. -1.
         -5    1    3    3    0  502 -0.27607534875E+03 -0.11758275465E+02 -0.83741099640E+03  0.88183622183E+03  0.47000000000E+01 0.  1.
         13    1    5    5    0    0  0.15978733241E+02  0.10245656297E+03 -0.79881801885E+03  0.80552026322E+03  0.00000000000E+00 0.  1.
        -13    1    5    5    0    0 -0.15497653105E+02 -0.15190282322E+02 -0.18897947843E+03  0.19022135841E+03  0.00000000000E+00 0. -1.
          1    1    6    6  503    0  0.18982597254E+03 -0.38344376374E+02 -0.27152264212E+03  0.33350972435E+03  0.00000000000E+00 0. -1.
         -1    1    6    6    0  503  0.20998031171E+03 -0.65252802335E+01 -0.16536763449E+03  0.26735886955E+03  0.00000000000E+00 0.  1.
<mgrwt>
<rscale>  0 0.46676213E+03</rscale>
<asrwt>0</asrwt>
<pdfrwt beam="1">  1        2 0.45876473E+00 0.46676213E+03</pdfrwt>
<pdfrwt beam="2">  1       -2 0.17672642E-01 0.46676213E+03</pdfrwt>
<totfact> 0.52554122E+01</totfact>
</mgrwt>
</event>
<event>
12    1  0.3147868E-008  0.4524857E+03  0.7818608E-02  0.1026983E+00
         -3   -1    0    0    0  501 -0.00000000000E+00  0.00000000000E+00  0.91328432937E+03  0.91328432937E+03  0.00000000000E+00 0.  1.
          3   -1    0    0  501    0  0.00000000000E+00 -0.00000000000E+00 -0.43852029581E+03  0.43852029581E+03  0.00000000000E+00 0. -1.
         23    2    1    2    0    0 -0.32291845795E+03  0.54511052758E+02 -0.19687441303E+03  0.39263463099E+03  0.90303009849E+02 0.  0.
    5000000    2    1    2    0    0  0.32291845795E+03 -0.54511052758E+02  0.67163844659E+03  0.95916999419E+03  0.60138264811E+03 0.  0.
         23    2    4    4    0    0  0.38734108916E+03  0.79799430799E+02  0.19323168178E+03  0.44960519248E+03  0.91680301884E+02 0.  0.
         23    2    4    4    0    0 -0.64422631210E+02 -0.13431048356E+03  0.47840676481E+03  0.50956480171E+03  0.92702066397E+02 0.  0.
          5    1    3    3  502    0 -0.24851772733E+03  0.76383839697E+02 -0.16884071707E+03  0.31004004500E+03  0.47000000000E+01 0. -1.
         -5    1    3    3    0  502 -0.74400730619E+02 -0.21872786939E+02 -0.28033695967E+02  0.82594585989E+02  0.47000000000E+01 0.  1.
         11    1    5    5    0    0  0.20379212650E+03  0.60381878079E+02  0.56579713516E+02  0.21995105366E+03  0.00000000000E+00 0. -1.
        -11    1    5    5    0    0  0.18354896266E+03  0.19417552720E+02  0.13665196827E+03  0.22965413882E+03  0.00000000000E+00 0.  1.
          4    1    6    6  503    0 -0.67874834485E+02 -0.46569981222E+02  0.16965962544E+03  0.18857397703E+03  0.00000000000E+00 0. -1.
         -4    1    6    6    0  503  0.34522032756E+01 -0.87740502335E+02  0.30874713937E+03  0.32099082468E+03  0.00000000000E+00 0.  1.
<mgrwt>
<rscale>  0 0.45248567E+03</rscale>
<asrwt>0</asrwt>
<pdfrwt beam="1">  1        3 0.67464661E-01 0.45248567E+03</pdfrwt>
<pdfrwt beam="2">  1       -3 0.14050528E+00 0.45248567E+03</pdfrwt>
<totfact> 0.21188545E+00</totfact>
</mgrwt>
</event>
<event>
12    1  0.3147868E-008  0.8096417E+03  0.7818608E-02  0.9546165E-01
          2   -1    0    0  501    0  0.00000000000E+00  0.00000000000E+00  0.58409906705E+03  0.58409906705E+03  0.00000000000E+00 0. -1.
         -2   -1    0    0    0  501 -0.00000000000E+00 -0.00000000000E+00 -0.13914119939E+04  0.13914119939E+04  0.00000000000E+00 0.  1.
         23    2    1    2    0    0 -0.58954655805E+03  0.51305727017E+03 -0.54037697658E+03  0.95460029820E+03  0.91986661716E+02 0.  0.
    5000000    2    1    2    0    0  0.58954655805E+03 -0.51305727017E+03 -0.26693595030E+03  0.10209107628E+04  0.60017587205E+03 0.  0.
         23    2    4    4    0    0  0.23970815505E+03 -0.32455742312E+02  0.14123392868E+03  0.29468402151E+03  0.91532918200E+02 0.  0.
         23    2    4    4    0    0  0.34983840300E+03 -0.48060152786E+03 -0.40816987898E+03  0.72622674126E+03  0.86243219013E+02 0.  0.
          5    1    3    3  502    0 -0.41940354977E+03  0.34637763499E+03 -0.42269366168E+03  0.68888955951E+03  0.47000000000E+01 0. -1.
         -5    1    3    3    0  502 -0.17014300827E+03  0.16667963519E+03 -0.11768331489E+03  0.26571073869E+03  0.47000000000E+01 0.  1.
         13    1    5    5    0    0  0.56961483238E+02 -0.13170686329E+02  0.83756809292E+02  0.10214343177E+03  0.00000000000E+00 0.  1.
        -13    1    5    5    0    0  0.18274667181E+03 -0.19285055983E+02  0.57477119389E+02  0.19254058974E+03  0.00000000000E+00 0. -1.
          3    1    6    6  503    0  0.88235391715E+02 -0.10525018866E+03 -0.53741226585E+02  0.14748290070E+03  0.00000000000E+00 0. -1.
         -3    1    6    6    0  503  0.26160301128E+03 -0.37535133921E+03 -0.35442865239E+03  0.57874384056E+03  0.00000000000E+00 0.  1.
<mgrwt>
<rscale>  0 0.80964168E+03</rscale>
<asrwt>0</asrwt>
<pdfrwt beam="1">  1        2 0.89861396E-01 0.80964168E+03</pdfrwt>
<pdfrwt beam="2">  1       -2 0.21406338E+00 0.80964168E+03</pdfrwt>
<totfact> 0.56079803E+00</totfact>
</mgrwt>
</event>
<event>
12    1  0.3147868E-008  0.1493612E+04  0.7818608E-02  0.8888712E-01
          2   -1    0    0  501    0  0.00000000000E+00  0.00000000000E+00  0.10500234767E+04  0.10500234767E+04  0.00000000000E+00 0. -1.
         -2   -1    0    0    0  501 -0.00000000000E+00 -0.00000000000E+00 -0.36011513304E+04  0.36011513304E+04  0.00000000000E+00 0.  1.
         23    2    1    2    0    0 -0.14380017131E+04 -0.36267525407E+03  0.16918073966E+03  0.14953218196E+04  0.89347381544E+02 0.  0.
    5000000    2    1    2    0    0  0.14380017131E+04  0.36267525407E+03 -0.27203085933E+04  0.31558529875E+04  0.59995580583E+03 0.  0.
         23    2    4    4    0    0  0.80148410248E+03  0.30243848782E+03 -0.10105341278E+04  0.13279321288E+04  0.91535292074E+02 0.  0.
         23    2    4    4    0    0  0.63651761063E+03  0.60236766247E+02 -0.17097744655E+04  0.18279208587E+04  0.95826959774E+02 0.  0.
          5    1    3    3  502    0 -0.43312626243E+03 -0.14897603539E+03  0.38129448639E+02  0.45963916628E+03  0.47000000000E+01 0. -1.
         -5    1    3    3    0  502 -0.10048754507E+04 -0.21369921868E+03  0.13105129102E+03  0.10356826533E+04  0.47000000000E+01 0.  1.
         11    1    5    5    0    0  0.46399329189E+03  0.17490417136E+03 -0.65371257532E+03  0.82050068569E+03  0.00000000000E+00 0.  1.
        -11    1    5    5    0    0  0.33749081059E+03  0.12753431646E+03 -0.35682155253E+03  0.50743144311E+03  0.00000000000E+00 0. -1.
          4    1    6    6  503    0  0.20963276593E+03 -0.20770661534E+02 -0.50431784444E+03  0.54654716645E+03  0.00000000000E+00 0. -1.
         -4    1    6    6    0  503  0.42688484470E+03  0.81007427780E+02 -0.12054566210E+04  0.12813736923E+04  0.00000000000E+00 0.  1.
<mgrwt>
<rscale>  0 0.14936115E+04</rscale>
<asrwt>0</asrwt>
<pdfrwt beam="1">  1        2 0.16154207E+00 0.14936115E+04</pdfrwt>
<pdfrwt beam="2">  1       -2 0.55402328E+00 0.14936115E+04</pdfrwt>
<totfact> 0.17657266E-02</totfact>
</mgrwt>
</event>
<event>
12    1  0.3147868E-008  0.1403401E+04  0.7818608E-02  0.8951360E-01
         -1   -1    0    0    0  501 -0.00000000000E+00  0.00000000000E+00  0.10107486282E+04  0.10107486282E+04  0.00000000000E+00 0.  1.
          1   -1    0    0  501    0  0.00000000000E+00 -0.00000000000E+00 -0.24156086415E+04  0.24156086415E+04  0.00000000000E+00 0. -1.
         23    2    1    2    0    0 -0.13743222887E+04  0.60849774863E+02 -0.12448578952E+02  0.13791409809E+04  0.97007370440E+02 0.  0.
    5000000    2    1    2    0    0  0.13743222887E+04 -0.60849774863E+02 -0.13924114344E+04  0.20472162888E+04  0.59985038327E+03 0.  0.
         23    2    4    4    0    0  0.79104863165E+03 -0.21613550226E+03 -0.49667863556E+03  0.96319411125E+03  0.92632261865E+02 0.  0.
         23    2    4    4    0    0  0.58327365703E+03  0.15528572740E+03 -0.89573279882E+03  0.10840221776E+04  0.91896781513E+02 0.  0.
          5    1    3    3  502    0 -0.96549348355E+03  0.25726584437E+02  0.32010617037E+02  0.96637792479E+03  0.47000000000E+01 0. -1.
         -5    1    3    3    0  502 -0.40882880513E+03  0.35123190426E+02 -0.44459195989E+02  0.41276305615E+03  0.47000000000E+01 0.  1.
         13    1    5    5    0    0  0.15633581385E+03 -0.43615463921E+02 -0.56972974380E+02  0.17201486911E+03  0.00000000000E+00 0. -1.
        -13    1    5    5    0    0  0.63471281780E+03 -0.17252003834E+03 -0.43970566118E+03  0.79117924214E+03  0.00000000000E+00 0.  1.
          3    1    6    6  503    0  0.41673701421E+03  0.15317434007E+03 -0.65066231388E+03  0.78771413861E+03  0.00000000000E+00 0. -1.
         -3    1    6    6    0  503  0.16653664282E+03  0.21113873270E+01 -0.24507048494E+03  0.29630803895E+03  0.00000000000E+00 0.  1.
<mgrwt>
<rscale>  0 0.14034010E+04</rscale>
<asrwt>0</asrwt>
<pdfrwt beam="1">  1        1 0.37163210E+00 0.14034010E+04</pdfrwt>
<pdfrwt beam="2">  1       -1 0.15549979E+00 0.14034010E+04</pdfrwt>
<totfact> 0.47058337E-01</totfact>
</mgrwt>
</event>
<event>
12    1  0.3147868E-008  0.1052265E+04  0.7818608E-02  0.9253008E-01
         -1   -1    0    0    0  501 -0.00000000000E+00  0.00000000000E+00  0.16488578487E+04  0.16488578487E+04  0.00000000000E+00 0.  1.
          1   -1    0    0  501    0  0.00000000000E+00 -0.00000000000E+00 -0.85528098297E+03  0.85528098297E+03  0.00000000000E+00 0. -1.
         23    2    1    2    0    0 -0.56184603640E+03 -0.86139536633E+03 -0.67854048991E+02  0.10345337772E+04  0.89347738542E+02 0.  0.
    5000000    2    1    2    0    0  0.56184603640E+03  0.86139536633E+03  0.86143091469E+03  0.14696050545E+04  0.60000237465E+03 0.  0.
         23    2    4    4    0    0  0.48866747209E+03  0.87104000139E+03  0.56799313458E+03  0.11526984889E+04  0.92687772300E+02 0.  0.
         23    2    4    4    0    0  0.73178564313E+02 -0.96446350688E+01  0.29343778011E+03  0.31690656555E+03  0.94212097030E+02 0.  0.
          5    1    3    3  502    0 -0.36832026532E+03 -0.63070738469E+03 -0.66112158043E+02  0.73337884506E+03  0.47000000000E+01 0. -1.
         -5    1    3    3    0  502 -0.19352577108E+03 -0.23068798164E+03 -0.17418909478E+01  0.30115493210E+03  0.47000000000E+01 0.  1.
         11    1    5    5    0    0  0.19131518560E+03  0.35002435353E+03  0.27925934223E+03  0.48693359766E+03  0.00000000000E+00 0.  1.
        -11    1    5    5    0    0  0.29735228649E+03  0.52101564786E+03  0.28873379235E+03  0.66576489126E+03  0.00000000000E+00 0. -1.
          1    1    6    6  503    0  0.55229208393E+01  0.12624946853E+01  0.20474462804E+03  0.20482299495E+03  0.00000000000E+00 0. -1.
         -1    1    6    6    0  503  0.67655643474E+02 -0.10907129754E+02  0.88693152073E+02  0.11208357060E+03  0.00000000000E+00 0.  1.
<mgrwt>
<rscale>  0 0.10522652E+04</rscale>
<asrwt>0</asrwt>
<pdfrwt beam="1">  1        1 0.13158169E+00 0.10522652E+04</pdfrwt>
<pdfrwt beam="2">  1       -1 0.25367044E+00 0.10522652E+04</pdfrwt>
<totfact> 0.13095378E+00</totfact>
</mgrwt>
</event>
<event>
12    1  0.3147868E-008  0.1100511E+04  0.7818608E-02  0.9204694E-01
         -2   -1    0    0    0  501 -0.00000000000E+00  0.00000000000E+00  0.12105690334E+04  0.12105690334E+04  0.00000000000E+00 0. -1.
          2   -1    0    0  501    0  0.00000000000E+00 -0.00000000000E+00 -0.14356062891E+04  0.14356062891E+04  0.00000000000E+00 0.  1.
         23    2    1    2    0    0  0.82134829092E+03  0.71123067554E+03 -0.72362929478E+03  0.13085861205E+04  0.91083421533E+02 0.  0.
    5000000    2    1    2    0    0 -0.82134829092E+03 -0.71123067554E+03  0.49859203900E+03  0.13375892020E+04  0.60007396468E+03 0.  0.
         23    2    4    4    0    0 -0.34924808007E+03 -0.16067782008E+03 -0.83591188322E+02  0.40299140293E+03  0.87309797659E+02 0.  0.
         23    2    4    4    0    0 -0.47210021085E+03 -0.55055285546E+03  0.58218322732E+03  0.93459779906E+03  0.92459072519E+02 0.  0.
          5    1    3    3  502    0  0.47555625777E+02  0.22287840974E+02 -0.50836230549E+02  0.73244096927E+02  0.47000000000E+01 0. -1.
         -5    1    3    3    0  502  0.77379266515E+03  0.68894283457E+03 -0.67279306423E+03  0.12353420236E+04  0.47000000000E+01 0.  1.
         13    1    5    5    0    0 -0.43910662157E+02 -0.30850870768E+02 -0.42917455471E+02  0.68715576563E+02  0.00000000000E+00 0. -1.
        -13    1    5    5    0    0 -0.30533741792E+03 -0.12982694931E+03 -0.40673732852E+02  0.33427582636E+03  0.00000000000E+00 0.  1.
          3    1    6    6  503    0 -0.27457209432E+03 -0.35534098931E+03  0.40835093993E+03  0.60696585060E+03  0.00000000000E+00 0. -1.
         -3    1    6    6    0  503 -0.19752811653E+03 -0.19521186616E+03  0.17383228740E+03  0.32763194846E+03  0.00000000000E+00 0.  1.
<mgrwt>
<rscale>  0 0.11005111E+04</rscale>
<asrwt>0</asrwt>
<pdfrwt beam="1">  1        2 0.22086250E+00 0.11005111E+04</pdfrwt>
<pdfrwt beam="2">  1       -2 0.18624139E+00 0.11005111E+04</pdfrwt>
<totfact> 0.22254984E+00</totfact>
</mgrwt>
</event>
<event>
12    1  0.3147868E-008  0.7203719E+03  0.7818608E-02  0.9683014E-01
         -1   -1    0    0    0  501 -0.00000000000E+00  0.00000000000E+00  0.22206094223E+03  0.22206094223E+03  0.00000000000E+00 0.  1.
          1   -1    0    0  501    0  0.00000000000E+00 -0.00000000000E+00 -0.29763556085E+04  0.29763556085E+04  0.00000000000E+00 0. -1.
         23    2    1    2    0    0  0.60367078675E+03 -0.35570310072E+02 -0.18832784199E+04  0.19800842380E+04  0.91171910186E+02 0.  0.
    5000000    2    1    2    0    0 -0.60367078675E+03  0.35570310072E+02 -0.87101624644E+03  0.12183323127E+04  0.59998388058E+03 0.  0.
         23    2    4    4    0    0 -0.46238008269E+03  0.27732897647E+03 -0.47458374387E+03  0.72417940317E+03  0.92192060292E+02 0.  0.
         23    2    4    4    0    0 -0.14129070407E+03 -0.24175866639E+03 -0.39643250257E+03  0.49415290956E+03  0.92833469727E+02 0.  0.
          5    1    3    3  502    0  0.21151034641E+03  0.17273505839E+02 -0.55913263919E+03  0.59806889139E+03  0.47000000000E+01 0. -1.
         -5    1    3    3    0  502  0.39216044034E+03 -0.52843815911E+02 -0.13241457807E+04  0.13820153466E+04  0.47000000000E+01 0.  1.
         11    1    5    5    0    0 -0.25256432405E+03  0.19537931943E+03 -0.31150634680E+03  0.44609194158E+03  0.00000000000E+00 0. -1.
        -11    1    5    5    0    0 -0.20981575864E+03  0.81949657037E+02 -0.16307739707E+03  0.27808746160E+03  0.00000000000E+00 0.  1.
          4    1    6    6  503    0 -0.11310981334E+03 -0.12725571077E+03 -0.18055773861E+03  0.24817119650E+03  0.00000000000E+00 0.  1.
         -4    1    6    6    0  503 -0.28180890725E+02 -0.11450295563E+03 -0.21587476395E+03  0.24598171306E+03  0.00000000000E+00 0. -1.
<mgrwt>
<rscale>  0 0.72037187E+03</rscale>
<asrwt>0</asrwt>
<pdfrwt beam="1">  1        1 0.45790084E+00 0.72037187E+03</pdfrwt>
<pdfrwt beam="2">  1       -1 0.34163224E-01 0.72037187E+03</pdfrwt>
<totfact> 0.54054634E+00</totfact>
</mgrwt>
</event>
<event>
12    1  0.3147868E-008  0.3257849E+03  0.7818608E-02  0.1073017E+00
         -1   -1    0    0    0  501 -0.00000000000E+00  0.00000000000E+00  0.10075391734E+04  0.10075391734E+04  0.00000000000E+00 0.  1.
          1   -1    0    0  501    0  0.00000000000E+00 -0.00000000000E+00 -0.22443955286E+03  0.22443955286E+03  0.00000000000E+00 0. -1.
         23    2    1    2    0    0  0.26026873687E+03 -0.13916944983E+02  0.35516985063E+03  0.45006460929E+03  0.92081664768E+02 0.  0.
    5000000    2    1    2    0    0 -0.26026873687E+03  0.13916944983E+02  0.42792976995E+03  0.78191411702E+03  0.60027685415E+03 0.  0.
         23    2    4    4    0    0  0.39819725967E+02 -0.37914188353E+02 -0.11248035458E+03  0.15496054643E+03  0.91311798403E+02 0.  0.
         23    2    4    4    0    0 -0.30008846284E+03  0.51831133335E+02  0.54041012453E+03  0.62695357059E+03  0.91039140315E+02 0.  0.
          5    1    3    3  502    0  0.27147606568E+02  0.13044677118E+02  0.94473142215E+02  0.99269435092E+02  0.47000000000E+01 0. -1.
         -5    1    3    3    0  502  0.23312113031E+03 -0.26961622101E+02  0.26069670841E+03  0.35079517420E+03  0.47000000000E+01 0.  1.
         13    1    5    5    0    0 -0.74623933121E+01 -0.29106549778E+02  0.26732449072E+01  0.30166617183E+02  0.00000000000E+00 0. -1.
        -13    1    5    5    0    0  0.47282119279E+02 -0.88076385745E+01 -0.11515359949E+03  0.12479392924E+03  0.00000000000E+00 0.  1.
          3    1    6    6  503    0 -0.11363808686E+03 -0.36314483847E+01  0.27762641676E+03  0.30000538243E+03  0.00000000000E+00 0. -1.
         -3    1    6    6    0  503 -0.18645037598E+03  0.55462581720E+02  0.26278370777E+03  0.32694818816E+03  0.00000000000E+00 0.  1.
<mgrwt>
<rscale>  0 0.32578491E+03</rscale>
<asrwt>0</asrwt>
<pdfrwt beam="1">  1        1 0.34529162E-01 0.32578491E+03</pdfrwt>
<pdfrwt beam="2">  1       -1 0.15500602E+00 0.32578491E+03</pdfrwt>
<totfact> 0.43824553E+01</totfact>
</mgrwt>
</event>
<event>
12    1  0.3147868E-008  0.4830189E+03  0.7818608E-02  0.1018309E+00
         -2   -1    0    0    0  501 -0.00000000000E+00  0.00000000000E+00  0.10222267821E+03  0.10222267821E+03  0.00000000000E+00 0.  1.
          2   -1    0    0  501    0  0.00000000000E+00 -0.00000000000E+00 -0.26630676972E+04  0.26630676972E+04  0.00000000000E+00 0. -1.
         23    2    1    2    0    0 -0.32592719759E+03  0.42041495882E+02 -0.62215905180E+03  0.70942345946E+03  0.90574464358E+02 0.  0.
    5000000    2    1    2    0    0  0.32592719759E+03 -0.42041495882E+02 -0.19386859672E+04  0.20558669159E+04  0.60007455468E+03 0.  0.
         23    2    4    4    0    0 -0.10609774283E+03 -0.12872782933E+03 -0.96266371697E+03  0.98114103234E+03  0.89937246490E+02 0.  0.
         23    2    4    4    0    0  0.43202494042E+03  0.86686333452E+02 -0.97602225021E+03  0.10747258836E+04  0.90863757301E+02 0.  0.
          5    1    3    3  502    0 -0.29195600444E+03  0.59929170354E+02 -0.58061658991E+03  0.65266187913E+03  0.47000000000E+01 0. -1.
         -5    1    3    3    0  502 -0.33971193152E+02 -0.17887674472E+02 -0.41542461886E+02  0.56761580332E+02  0.47000000000E+01 0.  1.
         13    1    5    5    0    0  0.74553302242E+01 -0.49610494090E+02 -0.30180928881E+03  0.30595037161E+03  0.00000000000E+00 0. -1.
        -13    1    5    5    0    0 -0.11355307305E+03 -0.79117335245E+02 -0.66085442816E+03  0.67519066074E+03  0.00000000000E+00 0.  1.
          3    1    6    6  503    0  0.26413449773E+03  0.57092483975E+02 -0.69939317881E+03  0.74978490461E+03  0.00000000000E+00 0. -1.
         -3    1    6    6    0  503  0.16789044268E+03  0.29593849478E+02 -0.27662907140E+03  0.32494097897E+03  0.00000000000E+00 0.  1.
<mgrwt>
<rscale>  0 0.48301893E+03</rscale>
<asrwt>0</asrwt>
<pdfrwt beam="1">  1        2 0.40970268E+00 0.48301893E+03</pdfrwt>
<pdfrwt beam="2">  1       -2 0.15726568E-01 0.48301893E+03</pdfrwt>
<totfact> 0.98125178E+01</totfact>
</mgrwt>
</event>
<event>
12    1  0.3446777E-008  0.1436678E+04  0.7818608E-02  0.8927689E-01
          1   -1    0    0  501    0  0.00000000000E+00  0.00000000000E+00  0.21389037219E+04  0.21389037219E+04  0.00000000000E+00 0. -1.
         -1   -1    0    0    0  501 -0.00000000000E+00 -0.00000000000E+00 -0.10375419027E+04  0.10375419027E+04  0.00000000000E+00 0.  1.
         23    2    1    2    0    0  0.10639248296E+04 -0.93355908505E+03  0.32859628464E+03  0.14558992927E+04  0.90546251832E+02 0.  0.
    5000000    2    1    2    0    0 -0.10639248296E+04  0.93355908505E+03  0.77276553452E+03  0.17205463320E+04  0.59970367755E+03 0.  0.
         23    2    4    4    0    0 -0.69655818176E+03  0.78617890135E+03  0.78434778900E+03  0.13140205403E+04  0.90432077918E+02 0.  0.
         23    2    4    4    0    0 -0.36736664785E+03  0.14738018370E+03 -0.11582254479E+02  0.40652579170E+03  0.91923327803E+02 0.  0.
          5    1    3    3  502    0  0.70061989547E+03 -0.65429268865E+03  0.19158959929E+03  0.97759696445E+03  0.47000000000E+01 0. -1.
         -5    1    3    3    0  502  0.36330493415E+03 -0.27926639639E+03  0.13700668536E+03  0.47830232820E+03  0.47000000000E+01 0.  1.
         13    1    5    5    0    0 -0.38387387199E+03  0.48819950701E+03  0.43063294694E+03  0.75573979863E+03  0.00000000000E+00 0.  1.
        -13    1    5    5    0    0 -0.31268430976E+03  0.29797939434E+03  0.35371484206E+03  0.55828074167E+03  0.00000000000E+00 0. -1.
          1    1    6    6  503    0 -0.36990077006E+03  0.15059996518E+03 -0.57829665219E+01  0.39942505167E+03  0.00000000000E+00 0. -1.
         -1    1    6    6    0  503  0.25341222054E+01 -0.32197814766E+01 -0.57992879570E+01  0.71007400260E+01  0.00000000000E+00 0.  1.
<mgrwt>
<rscale>  0 0.14366777E+04</rscale>
<asrwt>0</asrwt>
<pdfrwt beam="1">  1        1 0.32906211E+00 0.14366777E+04</pdfrwt>
<pdfrwt beam="2">  1       -1 0.15962183E+00 0.14366777E+04</pdfrwt>
<totfact> 0.67379698E-01</totfact>
</mgrwt>
</event>
<event>
12    1  0.3147868E-008  0.5332853E+03  0.7818608E-02  0.1005438E+00
         -4   -1    0    0    0  501 -0.00000000000E+00  0.00000000000E+00  0.27159153450E+03  0.27159153450E+03  0.00000000000E+00 0.  1.
          4   -1    0    0  501    0  0.00000000000E+00 -0.00000000000E+00 -0.12177388715E+04  0.12177388715E+04  0.00000000000E+00 0. -1.
         23    2    1    2    0    0 -0.12850012120E+02  0.39809801100E+03 -0.21121100768E+03  0.46036749192E+03  0.93171823381E+02 0.  0.
    5000000    2    1    2    0    0  0.12850012120E+02 -0.39809801100E+03 -0.73493632928E+03  0.10289629140E+04  0.59998843423E+03 0.  0.
         23    2    4    4    0    0  0.18937336704E+03  0.22658351140E+02 -0.41272263238E+03  0.46371571506E+03  0.91195504764E+02 0.  0.
         23    2    4    4    0    0 -0.17652335492E+03 -0.42075636214E+03 -0.32221369690E+03  0.56524719899E+03  0.86523513452E+02 0.  0.
          5    1    3    3  502    0 -0.15288775948E+02  0.16358375159E+03 -0.37799300760E+02  0.16865428423E+03  0.47000000000E+01 0. -1.
         -5    1    3    3    0  502  0.24387638274E+01  0.23451425942E+03 -0.17341170692E+03  0.29171320768E+03  0.47000000000E+01 0.  1.
         13    1    5    5    0    0  0.11820225852E+03 -0.30908466815E+02 -0.22996917963E+03  0.26040916040E+03  0.00000000000E+00 0. -1.
        -13    1    5    5    0    0  0.71171108526E+02  0.53566817955E+02 -0.18275345276E+03  0.20330655466E+03  0.00000000000E+00 0.  1.
          4    1    6    6  503    0 -0.70714740134E+02 -0.18036653281E+03 -0.85841472488E+02  0.21189954938E+03  0.00000000000E+00 0.  1.
         -4    1    6    6    0  503 -0.10580861479E+03 -0.24038982934E+03 -0.23637222441E+03  0.35334764961E+03  0.00000000000E+00 0. -1.
<mgrwt>
<rscale>  0 0.53328533E+03</rscale>
<asrwt>0</asrwt>
<pdfrwt beam="1">  1        4 0.18734444E+00 0.53328533E+03</pdfrwt>
<pdfrwt beam="2">  1       -4 0.41783313E-01 0.53328533E+03</pdfrwt>
<totfact> 0.17666439E+00</totfact>
</mgrwt>
</event>
<event>
12    1  0.3147868E-008  0.3819438E+03  0.7818608E-02  0.1050218E+00
         -2   -1    0    0    0  501 -0.00000000000E+00  0.00000000000E+00  0.26933822478E+03  0.26933822478E+03  0.00000000000E+00 0. -1.
          2   -1    0    0  501    0  0.00000000000E+00 -0.00000000000E+00 -0.16551621440E+04  0.16551621440E+04  0.00000000000E+00 0.  1.
         23    2    1    2    0    0  0.10571436687E+03  0.28026066602E+03 -0.11835548350E+04  0.12240375989E+04  0.88002430248E+02 0.  0.
    5000000    2    1    2    0    0 -0.10571436687E+03 -0.28026066602E+03 -0.20226908418E+03  0.70046276987E+03  0.60001145096E+03 0.  0.
         23    2    4    4    0    0 -0.26788743579E+02  0.82913530199E+02  0.14017870696E+03  0.18703953223E+03  0.87985376391E+02 0.  0.
         23    2    4    4    0    0 -0.78925623288E+02 -0.36317419622E+03 -0.34244779114E+03  0.51342323764E+03  0.90599009305E+02 0.  0.
          5    1    3    3  502    0  0.18370478119E+02  0.67456516625E+02 -0.15561216851E+03  0.17066075439E+03  0.47000000000E+01 0.  1.
         -5    1    3    3    0  502  0.87343888749E+02  0.21280414939E+03 -0.10279426665E+04  0.10533768445E+04  0.47000000000E+01 0. -1.
         13    1    5    5    0    0 -0.38601702855E+00  0.67309698070E+01  0.93764130955E+02  0.94006208398E+02  0.00000000000E+00 0.  1.
        -13    1    5    5    0    0 -0.26402726551E+02  0.76182560392E+02  0.46414576007E+02  0.93033323831E+02  0.00000000000E+00 0. -1.
          4    1    6    6  503    0 -0.42074799804E+02 -0.30225192344E+03 -0.23793465858E+03  0.38696177557E+03  0.00000000000E+00 0. -1.
         -4    1    6    6    0  503 -0.36850823484E+02 -0.60922272780E+02 -0.10451313256E+03  0.12646146207E+03  0.00000000000E+00 0.  1.
<mgrwt>
<rscale>  0 0.38194381E+03</rscale>
<asrwt>0</asrwt>
<pdfrwt beam="1">  1        2 0.25464033E+00 0.38194381E+03</pdfrwt>
<pdfrwt beam="2">  1       -2 0.41436649E-01 0.38194381E+03</pdfrwt>
<totfact> 0.61910299E+01</totfact>
</mgrwt>
</event>
<event>
12    1  0.3147868E-008  0.1278459E+04  0.7818608E-02  0.9046824E-01
          2   -1    0    0  501    0  0.00000000000E+00  0.00000000000E+00  0.31006582207E+04  0.31006582207E+04  0.00000000000E+00 0. -1.
         -2   -1    0    0    0  501 -0.00000000000E+00 -0.00000000000E+00 -0.76507895897E+03  0.76507895897E+03  0.00000000000E+00 0.  1.
         23    2    1    2    0    0 -0.10275796890E+04  0.74988915505E+03  0.17315457090E+03  0.12861528618E+04  0.77155145060E+02 0.  0.
    5000000    2    1    2    0    0  0.10275796890E+04 -0.74988915505E+03  0.21624246908E+04  0.25795843179E+04  0.59993411928E+03 0.  0.
         23    2    4    4    0    0  0.39005590897E+03 -0.24132221795E+03  0.13335790436E+04  0.14131641254E+04  0.90662863100E+02 0.  0.
         23    2    4    4    0    0  0.63752378001E+03 -0.50856693710E+03  0.82884564727E+03  0.11664201925E+04  0.92054652007E+02 0.  0.
          5    1    3    3  502    0 -0.10058438678E+04  0.72239303402E+03  0.17527161669E+03  0.12507261138E+04  0.47000000000E+01 0. -1.
         -5    1    3    3    0  502 -0.21735821166E+02  0.27496121028E+02 -0.21170457907E+01  0.35426748034E+02  0.47000000000E+01 0.  1.
         11    1    5    5    0    0  0.18216666845E+03 -0.15744868719E+03  0.76465078837E+03  0.80166427658E+03  0.00000000000E+00 0. -1.
        -11    1    5    5    0    0  0.20788924052E+03 -0.83873530758E+02  0.56892825521E+03  0.61149984879E+03  0.00000000000E+00 0.  1.
          4    1    6    6  503    0  0.34031075701E+03 -0.31355401963E+03  0.51336369087E+03  0.69113660999E+03  0.00000000000E+00 0. -1.
         -4    1    6    6    0  503  0.29721302300E+03 -0.19501291747E+03  0.31548195640E+03  0.47528358255E+03  0.00000000000E+00 0.  1.
<mgrwt>
<rscale>  0 0.12784585E+04</rscale>
<asrwt>0</asrwt>
<pdfrwt beam="1">  1        2 0.47702433E+00 0.12784585E+04</pdfrwt>
<pdfrwt beam="2">  1       -2 0.11770446E+00 0.12784585E+04</pdfrwt>
<totfact> 0.82023535E-01</totfact>
</mgrwt>
</event>
<event>
12    1  0.3147868E-008  0.5700072E+03  0.7818608E-02  0.9969663E-01
         -2   -1    0    0    0  501 -0.00000000000E+00  0.00000000000E+00  0.23356471057E+04  0.23356471057E+04  0.00000000000E+00 0. -1.
          2   -1    0    0  501    0  0.00000000000E+00 -0.00000000000E+00 -0.36687180055E+03  0.36687180055E+03  0.00000000000E+00 0.  1.
         23    2    1    2    0    0  0.41408998899E+03 -0.29540856246E+03  0.18327590478E+04  0.19042026931E+04  0.90804357461E+02 0.  0.
    5000000    2    1    2    0    0 -0.41408998899E+03  0.29540856246E+03  0.13601625727E+03  0.79831621309E+03  0.60005967710E+03 0.  0.
         23    2    4    4    0    0 -0.33032405739E+03  0.19027339697E+02  0.29819976675E+03  0.45464871628E+03  0.91139079322E+02 0.  0.
         23    2    4    4    0    0 -0.83765931594E+02  0.27638122277E+03 -0.16218350948E+03  0.34366749680E+03  0.91654492631E+02 0.  0.
          5    1    3    3  502    0  0.22458092626E+03 -0.18878123999E+03  0.90902458992E+03  0.95520822028E+03  0.47000000000E+01 0. -1.
         -5    1    3    3    0  502  0.18950906273E+03 -0.10662732248E+03  0.92373445793E+03  0.94899447286E+03  0.47000000000E+01 0.  1.
         13    1    5    5    0    0 -0.28731133898E+03 -0.44859677790E+01  0.28304604965E+03  0.40333980170E+03  0.00000000000E+00 0. -1.
        -13    1    5    5    0    0 -0.43012718417E+02  0.23513307476E+02  0.15153717102E+02  0.51308914587E+02  0.00000000000E+00 0.  1.
          4    1    6    6  503    0  0.63331460938E+01  0.19635818886E+02 -0.40809467022E+02  0.45728401693E+02  0.00000000000E+00 0. -1.
         -4    1    6    6    0  503 -0.90099077688E+02  0.25674540388E+03 -0.12137404246E+03  0.29793909511E+03  0.00000000000E+00 0.  1.
<mgrwt>
<rscale>  0 0.57000722E+03</rscale>
<asrwt>0</asrwt>
<pdfrwt beam="1">  1        2 0.56441817E-01 0.57000722E+03</pdfrwt>
<pdfrwt beam="2">  1       -2 0.35933031E+00 0.57000722E+03</pdfrwt>
<totfact> 0.13006622E+00</totfact>
</mgrwt>
</event>
<event>
12    1  0.3147868E-008  0.6473284E+03  0.7818608E-02  0.9811805E-01
          2   -1    0    0  501    0  0.00000000000E+00  0.00000000000E+00  0.16395390491E+04  0.16395390491E+04  0.00000000000E+00 0. -1.
         -2   -1    0    0    0  501 -0.00000000000E+00 -0.00000000000E+00 -0.34766313397E+03  0.34766313397E+03  0.00000000000E+00 0.  1.
         23    2    1    2    0    0  0.24305831005E+03  0.57419135567E+03  0.41120424767E+03  0.75249017701E+03  0.91539489728E+02 0.  0.
    5000000    2    1    2    0    0 -0.24305831005E+03 -0.57419135567E+03  0.88067166746E+03  0.12347120061E+04  0.60013173306E+03 0.  0.
         23    2    4    4    0    0  0.67111227460E+01 -0.12839860200E+03  0.64627478986E+03  0.66474608402E+03  0.87664200444E+02 0.  0.
         23    2    4    4    0    0 -0.24976943280E+03 -0.44579275367E+03  0.23439687760E+03  0.56996592204E+03  0.93825941392E+02 0.  0.
          5    1    3    3  502    0  0.13136583249E+03  0.41540400748E+03  0.27359888820E+03  0.51448606687E+03  0.47000000000E+01 0. -1.
         -5    1    3    3    0  502  0.11169247756E+03  0.15878734819E+03  0.13760535946E+03  0.23800411014E+03  0.47000000000E+01 0.  1.
         11    1    5    5    0    0 -0.27083189133E+02 -0.90874857842E+02  0.29514781676E+03  0.31000640745E+03  0.00000000000E+00 0. -1.
        -11    1    5    5    0    0  0.33794311879E+02 -0.37523744160E+02  0.35112697310E+03  0.35473967657E+03  0.00000000000E+00 0.  1.
          4    1    6    6  503    0 -0.23334330186E+03 -0.44560989912E+03  0.22892164424E+03  0.55265033965E+03  0.00000000000E+00 0. -1.
         -4    1    6    6    0  503 -0.16426130931E+02 -0.18285455115E+00  0.54752333608E+01  0.17315582390E+02  0.00000000000E+00 0.  1.
<mgrwt>
<rscale>  0 0.64732842E+03</rscale>
<asrwt>0</asrwt>
<pdfrwt beam="1">  1        2 0.25223677E+00 0.64732842E+03</pdfrwt>
<pdfrwt beam="2">  1       -2 0.53486637E-01 0.64732842E+03</pdfrwt>
<totfact> 0.36254005E+01</totfact>
</mgrwt>
</event>
<event>
12    1  0.3147868E-008  0.1077734E+04  0.7818608E-02  0.9227170E-01
         -2   -1    0    0    0  501 -0.00000000000E+00  0.00000000000E+00  0.86832574593E+03  0.86832574593E+03  0.00000000000E+00 0.  1.
          2   -1    0    0  501    0  0.00000000000E+00 -0.00000000000E+00 -0.14581612211E+04  0.14581612211E+04  0.00000000000E+00 0. -1.
         23    2    1    2    0    0  0.99462873252E+03 -0.30424381360E+03 -0.35660938149E+03  0.11032773626E+04  0.90554261070E+02 0.  0.
    5000000    2    1    2    0    0 -0.99462873252E+03  0.30424381360E+03 -0.23322609370E+03  0.12232096045E+04  0.59999725996E+03 0.  0.
         23    2    4    4    0    0 -0.12658166262E+03  0.19594936760E+03  0.11678182811E+03  0.27659417041E+03  0.91909018882E+02 0.  0.
         23    2    4    4    0    0 -0.86804706990E+03  0.10829444600E+03 -0.35000792182E+03  0.94661543404E+03  0.91333630393E+02 0.  0.
          5    1    3    3  502    0  0.28213789299E+03 -0.10344246048E+03 -0.14291341142E+03  0.33278892177E+03  0.47000000000E+01 0. -1.
         -5    1    3    3    0  502  0.71249083953E+03 -0.20080135312E+03 -0.21369597007E+03  0.77048844083E+03  0.47000000000E+01 0.  1.
         11    1    5    5    0    0 -0.19638525447E+02  0.76866820990E+02  0.79376841224E+02  0.11222683624E+03  0.00000000000E+00 0. -1.
        -11    1    5    5    0    0 -0.10694313718E+03  0.11908254661E+03  0.37404986888E+02  0.16436733416E+03  0.00000000000E+00 0.  1.
          4    1    6    6  503    0 -0.76373038078E+03  0.85537448586E+02 -0.33666896159E+03  0.83901533915E+03  0.00000000000E+00 0. -1.
         -4    1    6    6    0  503 -0.10431668912E+03  0.22756997413E+02 -0.13338960221E+02  0.10760009489E+03  0.00000000000E+00 0.  1.
<mgrwt>
<rscale>  0 0.10777335E+04</rscale>
<asrwt>0</asrwt>
<pdfrwt beam="1">  1        2 0.22433249E+00 0.10777335E+04</pdfrwt>
<pdfrwt beam="2">  1       -2 0.13358858E+00 0.10777335E+04</pdfrwt>
<totfact> 0.53510142E+00</totfact>
</mgrwt>
</event>
<event>
12    1  0.3147868E-008  0.4495155E+03  0.7818608E-02  0.1027867E+00
         -1   -1    0    0    0  501 -0.00000000000E+00  0.00000000000E+00  0.55674069350E+03  0.55674069350E+03  0.00000000000E+00 0.  1.
          1   -1    0    0  501    0  0.00000000000E+00 -0.00000000000E+00 -0.38916729602E+03  0.38916729602E+03  0.00000000000E+00 0. -1.
         23    2    1    2    0    0 -0.24263709455E+03 -0.91874949059E+02  0.85724356275E+02  0.28706732504E+03  0.88006919785E+02 0.  0.
    5000000    2    1    2    0    0  0.24263709455E+03  0.91874949059E+02  0.81849041204E+02  0.65884066448E+03  0.60004832281E+03 0.  0.
         23    2    4    4    0    0 -0.16284440230E+03 -0.58855440911E+02 -0.42407113645E+02  0.20049274501E+03  0.91742657640E+02 0.  0.
         23    2    4    4    0    0  0.40548149685E+03  0.15073038997E+03  0.12425615485E+03  0.45834791946E+03  0.86650611720E+02 0.  0.
          5    1    3    3  502    0 -0.18876757761E+03 -0.33166107367E+02  0.42783053444E+02  0.19643235145E+03  0.47000000000E+01 0. -1.
         -5    1    3    3    0  502 -0.53869516935E+02 -0.58708841692E+02  0.42941302831E+02  0.90634973583E+02  0.47000000000E+01 0.  1.
         13    1    5    5    0    0 -0.87022924566E+02 -0.72416684743E+02 -0.48633472717E+02  0.12321680201E+03  0.00000000000E+00 0. -1.
        -13    1    5    5    0    0 -0.75821477732E+02  0.13561243832E+02  0.62263590714E+01  0.77275943003E+02  0.00000000000E+00 0.  1.
          3    1    6    6  503    0  0.32859724830E+03  0.94209909191E+02  0.71221615425E+02  0.34917642687E+03  0.00000000000E+00 0. -1.
         -3    1    6    6    0  503  0.76884248546E+02  0.56520480779E+02  0.53034539424E+02  0.10917149259E+03  0.00000000000E+00 0.  1.
<mgrwt>
<rscale>  0 0.44951550E+03</rscale>
<asrwt>0</asrwt>
<pdfrwt beam="1">  1        1 0.59871891E-01 0.44951550E+03</pdfrwt>
<pdfrwt beam="2">  1       -1 0.85652415E-01 0.44951550E+03</pdfrwt>
<totfact> 0.87531411E+01</totfact>
</mgrwt>
</event>
<event>
12    1  0.3147868E-008  0.1761788E+04  0.7818608E-02  0.8726888E-01
          2   -1    0    0  501    0  0.00000000000E+00  0.00000000000E+00  0.11990364495E+04  0.11990364495E+04  0.00000000000E+00 0. -1.
         -2   -1    0    0    0  501 -0.00000000000E+00 -0.00000000000E+00 -0.41259075776E+04  0.41259075776E+04  0.00000000000E+00 0.  1.
         23    2    1    2    0    0 -0.36391786396E+03  0.16943934001E+04 -0.30259560388E+04  0.34883085048E+04  0.92092721564E+02 0.  0.
    5000000    2    1    2    0    0  0.36391786396E+03 -0.16943934001E+04  0.99084910742E+02  0.18366355222E+04  0.60000584659E+03 0.  0.
         23    2    4    4    0    0  0.16546037862E+03 -0.13592921295E+03 -0.93438541893E+02  0.25136249224E+03  0.92727846777E+02 0.  0.
         23    2    4    4    0    0  0.19845748533E+03 -0.15584641872E+04  0.19252345264E+03  0.15852730300E+04  0.88483352315E+02 0.  0.
          5    1    3    3  502    0 -0.20306636721E+03  0.83317656623E+03 -0.15757547391E+04  0.17940022932E+04  0.47000000000E+01 0. -1.
         -5    1    3    3    0  502 -0.16085149675E+03  0.86121683389E+03 -0.14502012997E+04  0.16943062116E+04  0.47000000000E+01 0.  1.
         13    1    5    5    0    0  0.31996054601E+02 -0.10013382003E+02 -0.54193132852E+02  0.63725277382E+02  0.00000000000E+00 0. -1.
        -13    1    5    5    0    0  0.13346432402E+03 -0.12591583094E+03 -0.39245409042E+02  0.18763721486E+03  0.00000000000E+00 0.  1.
          3    1    6    6  503    0  0.41956180837E+01 -0.25188951498E+03  0.47958308697E+02  0.25644868949E+03  0.00000000000E+00 0. -1.
         -3    1    6    6    0  503  0.19426186725E+03 -0.13065746722E+04  0.14456514394E+03  0.13288243405E+04  0.00000000000E+00 0.  1.
<mgrwt>
<rscale>  0 0.17617879E+04</rscale>
<asrwt>0</asrwt>
<pdfrwt beam="1">  1        2 0.18446715E+00 0.17617879E+04</pdfrwt>
<pdfrwt beam="2">  1       -2 0.63475500E+00 0.17617879E+04</pdfrwt>
<totfact> 0.63890342E-03</totfact>
</mgrwt>
</event>
<event>
12    1  0.3147868E-008  0.1167272E+04  0.7818608E-02  0.9141995E-01
         -2   -1    0    0    0  501 -0.00000000000E+00  0.00000000000E+00  0.50953784380E+03  0.50953784380E+03  0.00000000000E+00 0. -1.
          2   -1    0    0  501    0  0.00000000000E+00 -0.00000000000E+00 -0.30061009317E+04  0.30061009317E+04  0.00000000000E+00 0.  1.
         23    2    1    2    0    0 -0.88843153731E+03 -0.74366536490E+03 -0.13206300481E+04  0.17591289247E+04  0.90122573408E+02 0.  0.
    5000000    2    1    2    0    0  0.88843153731E+03  0.74366536490E+03 -0.11759330398E+04  0.17565098508E+04  0.60013296072E+03 0.  0.
         23    2    4    4    0    0  0.34203678092E+03  0.22740300139E+03 -0.81581641665E+03  0.91779595932E+03  0.89953947762E+02 0.  0.
         23    2    4    4    0    0  0.54639475639E+03  0.51626236351E+03 -0.36011662313E+03  0.83871389151E+03  0.93182357593E+02 0.  0.
          5    1    3    3  502    0 -0.59581836235E+03 -0.55202261022E+03 -0.91718254252E+03  0.12251425996E+04  0.47000000000E+01 0. -1.
         -5    1    3    3    0  502 -0.29261317496E+03 -0.19164275468E+03 -0.40344750561E+03  0.53398632507E+03  0.47000000000E+01 0.  1.
         13    1    5    5    0    0  0.19459125528E+03  0.18111474195E+03 -0.50660207603E+03  0.57211359870E+03  0.00000000000E+00 0. -1.
        -13    1    5    5    0    0  0.14744552565E+03  0.46288259438E+02 -0.30921434062E+03  0.34568236061E+03  0.00000000000E+00 0.  1.
          3    1    6    6  503    0  0.62001341746E+02  0.48417542110E+02 -0.70529194238E+02  0.10565411493E+03  0.00000000000E+00 0. -1.
         -3    1    6    6    0  503  0.48439341464E+03  0.46784482140E+03 -0.28958742890E+03  0.73305977657E+03  0.00000000000E+00 0.  1.
<mgrwt>
<rscale>  0 0.11672724E+04</rscale>
<asrwt>0</asrwt>
<pdfrwt beam="1">  1        2 0.46247708E+00 0.11672724E+04</pdfrwt>
<pdfrwt beam="2">  1       -2 0.78390435E-01 0.11672724E+04</pdfrwt>
<totfact> 0.24921128E+00</totfact>
</mgrwt>
</event>
<event>
12    1  0.3147868E-008  0.1472760E+04  0.7818608E-02  0.8902772E-01
          1   -1    0    0  501    0  0.00000000000E+00  0.00000000000E+00  0.17672639086E+04  0.17672639086E+04  0.00000000000E+00 0. -1.
         -1   -1    0    0    0  501 -0.00000000000E+00 -0.00000000000E+00 -0.19067571999E+04  0.19067571999E+04  0.00000000000E+00 0.  1.
         23    2    1    2    0    0 -0.35985582262E+03  0.13676396173E+04  0.10228238592E+04  0.17476475700E+04  0.90382776306E+02 0.  0.
    5000000    2    1    2    0    0  0.35985582262E+03 -0.13676396173E+04 -0.11623171505E+04  0.19263735384E+04  0.59999959618E+03 0.  0.
         23    2    4    4    0    0 -0.14987008391E+03 -0.41358518615E+03 -0.30367994995E+03  0.54233287046E+03  0.91595207985E+02 0.  0.
         23    2    4    4    0    0  0.50972590653E+03 -0.95405443113E+03 -0.85863720052E+03  0.13840406680E+04  0.90941580677E+02 0.  0.
          5    1    3    3  502    0 -0.21077480373E+03  0.92912302975E+03  0.72089531655E+03  0.11947417167E+04  0.47000000000E+01 0. -1.
         -5    1    3    3    0  502 -0.14908101889E+03  0.43851658753E+03  0.30192854263E+03  0.55290585328E+03  0.47000000000E+01 0.  1.
         11    1    5    5    0    0  0.89001656314E+01 -0.95833485170E+01 -0.94516060249E+00  0.13112850401E+02  0.00000000000E+00 0.  1.
        -11    1    5    5    0    0 -0.15877024954E+03 -0.40400183763E+03 -0.30273478934E+03  0.52922002006E+03  0.00000000000E+00 0. -1.
          3    1    6    6  503    0  0.48162821551E+03 -0.91847483275E+03 -0.84159773739E+03  0.13356079170E+04  0.00000000000E+00 0. -1.
         -3    1    6    6    0  503  0.28097691020E+02 -0.35579598378E+02 -0.17039463127E+02  0.48432750955E+02  0.00000000000E+00 0.  1.
<mgrwt>
<rscale>  0 0.14727596E+04</rscale>
<asrwt>0</asrwt>
<pdfrwt beam="1">  1        1 0.27188675E+00 0.14727596E+04</pdfrwt>
<pdfrwt beam="2">  1       -1 0.29334726E+00 0.14727596E+04</pdfrwt>
<totfact> 0.14815953E-01</totfact>
</mgrwt>
</event>
<event>
12    1  0.3147868E-008  0.5272450E+03  0.7818608E-02  0.1006902E+00
          2   -1    0    0  501    0  0.00000000000E+00  0.00000000000E+00  0.87879320744E+03  0.87879320744E+03  0.00000000000E+00 0. -1.
         -2   -1    0    0    0  501 -0.00000000000E+00 -0.00000000000E+00 -0.42442156343E+03  0.42442156343E+03  0.00000000000E+00 0.  1.
         23    2    1    2    0    0  0.33351921553E+03  0.14437274311E+03  0.47051093382E+03  0.60183366707E+03  0.93512928994E+02 0.  0.
    5000000    2    1    2    0    0 -0.33351921553E+03 -0.14437274311E+03 -0.16139289814E+02  0.70138110380E+03  0.59966358903E+03 0.  0.
         23    2    4    4    0    0 -0.35267498034E+03  0.14406326056E+03  0.23801769824E+02  0.39181589954E+03  0.88426862894E+02 0.  0.
         23    2    4    4    0    0  0.19155764809E+02 -0.28843600367E+03 -0.39941059639E+02  0.30956520426E+03  0.10331048303E+03 0.  0.
          5    1    3    3  502    0  0.44903529488E+02 -0.12350771688E+02  0.58364421023E+02  0.74815534236E+02  0.47000000000E+01 0. -1.
         -5    1    3    3    0  502  0.28861568604E+03  0.15672351480E+03  0.41214651280E+03  0.52701813283E+03  0.47000000000E+01 0.  1.
         13    1    5    5    0    0 -0.12058701985E+03  0.74749856129E+01 -0.54038915902E+01  0.12093926910E+03  0.00000000000E+00 0.  1.
        -13    1    5    5    0    0 -0.23208796049E+03  0.13658827495E+03  0.29205661414E+02  0.27087663044E+03  0.00000000000E+00 0. -1.
          3    1    6    6  503    0  0.17974547435E+02 -0.24515615824E+03 -0.71484312557E+02  0.25599733050E+03  0.00000000000E+00 0. -1.
         -3    1    6    6    0  503  0.11812173738E+01 -0.43279845432E+02  0.31543252919E+02  0.53567873766E+02  0.00000000000E+00 0.  1.
<mgrwt>
<rscale>  0 0.52724496E+03</rscale>
<asrwt>0</asrwt>
<pdfrwt beam="1">  1        2 0.13519895E+00 0.52724496E+03</pdfrwt>
<pdfrwt beam="2">  1       -2 0.65295625E-01 0.52724496E+03</pdfrwt>
<totfact> 0.67801955E+01</totfact>
</mgrwt>
</event>
<event>
12    1  0.3147868E-008  0.1305133E+04  0.7818608E-02  0.9025505E-01
          1   -1    0    0  501    0  0.00000000000E+00  0.00000000000E+00  0.17137425806E+04  0.17137425806E+04  0.00000000000E+00 0. -1.
         -1   -1    0    0    0  501 -0.00000000000E+00 -0.00000000000E+00 -0.11954551293E+04  0.11954551293E+04  0.00000000000E+00 0.  1.
         23    2    1    2    0    0 -0.10579068129E+03  0.12830404477E+04  0.71422527767E+03  0.14754233822E+04  0.96808835715E+02 0.  0.
    5000000    2    1    2    0    0  0.10579068129E+03 -0.12830404477E+04 -0.19593782645E+03  0.14337743277E+04  0.59994394105E+03 0.  0.
         23    2    4    4    0    0 -0.22155649514E+02 -0.97796852137E+03 -0.36894972995E+03  0.10495528976E+04  0.92325944054E+02 0.  0.
         23    2    4    4    0    0  0.12794633080E+03 -0.30507192633E+03  0.17301190350E+03  0.38422143019E+03  0.90850673455E+02 0.  0.
          5    1    3    3  502    0 -0.85157852687E+02  0.58390908484E+03  0.29180002209E+03  0.65830921468E+03  0.47000000000E+01 0. -1.
         -5    1    3    3    0  502 -0.20632828599E+02  0.69913136285E+03  0.42242525557E+03  0.81711416747E+03  0.47000000000E+01 0.  1.
         13    1    5    5    0    0  0.33402228992E+02 -0.21595826853E+03 -0.80335454215E+02  0.23282497257E+03  0.00000000000E+00 0.  1.
        -13    1    5    5    0    0 -0.55557878505E+02 -0.76201025284E+03 -0.28861427574E+03  0.81672792499E+03  0.00000000000E+00 0. -1.
          3    1    6    6  503    0  0.52977849425E+02 -0.21262579935E+03  0.14237648977E+03  0.26131867120E+03  0.00000000000E+00 0. -1.
         -3    1    6    6    0  503  0.74968481375E+02 -0.92446126979E+02  0.30635413725E+02  0.12290275899E+03  0.00000000000E+00 0.  1.
<mgrwt>
<rscale>  0 0.13051326E+04</rscale>
<asrwt>0</asrwt>
<pdfrwt beam="1">  1        1 0.26365271E+00 0.13051326E+04</pdfrwt>
<pdfrwt beam="2">  1       -1 0.18391617E+00 0.13051326E+04</pdfrwt>
<totfact> 0.88078212E-01</totfact>
</mgrwt>
</event>
<event>
12    1  0.3147868E-008  0.1475277E+04  0.7818608E-02  0.8901062E-01
          2   -1    0    0  501    0  0.00000000000E+00  0.00000000000E+00  0.40177050455E+04  0.40177050455E+04  0.00000000000E+00 0.  1.
         -2   -1    0    0    0  501 -0.00000000000E+00 -0.00000000000E+00 -0.58402391111E+03  0.58402391111E+03  0.00000000000E+00 0. -1.
         23    2    1    2    0    0  0.14223485948E+04 -0.21430540806E+03  0.21195176896E+04  0.25631045924E+04  0.90263957536E+02 0.  0.
    5000000    2    1    2    0    0 -0.14223485948E+04  0.21430540806E+03  0.13141634448E+04  0.20386243642E+04  0.59996783723E+03 0.  0.
         23    2    4    4    0    0 -0.13236137710E+04  0.29410706845E+03  0.13014554330E+04  0.18816413825E+04  0.91299866442E+02 0.  0.
         23    2    4    4    0    0 -0.98734823801E+02 -0.79801660387E+02  0.12708011760E+02  0.15698298174E+03  0.91461973308E+02 0.  0.
          5    1    3    3  502    0  0.72153212853E+03 -0.90970608302E+02  0.11447243622E+04  0.13562080295E+04  0.47000000000E+01 0. -1.
         -5    1    3    3    0  502  0.70081646625E+03 -0.12333479976E+03  0.97479332740E+03  0.12068965628E+04  0.47000000000E+01 0.  1.
         13    1    5    5    0    0 -0.85790232610E+03  0.21794729937E+03  0.80077892940E+03  0.11936265413E+04  0.00000000000E+00 0.  1.
        -13    1    5    5    0    0 -0.46571144488E+03  0.76159769072E+02  0.50067650363E+03  0.68801484113E+03  0.00000000000E+00 0. -1.
          2    1    6    6  503    0 -0.31193173258E+02 -0.81304549461E+02  0.19002080174E+02  0.89132052999E+02  0.00000000000E+00 0. -1.
         -2    1    6    6    0  503 -0.67541650544E+02  0.15028890740E+01 -0.62940684131E+01  0.67850928740E+02  0.00000000000E+00 0.  1.
<mgrwt>
<rscale>  0 0.14752772E+04</rscale>
<asrwt>0</asrwt>
<pdfrwt beam="1">  1        2 0.61810845E+00 0.14752772E+04</pdfrwt>
<pdfrwt beam="2">  1       -2 0.89849835E-01 0.14752772E+04</pdfrwt>
<totfact> 0.34259849E-01</totfact>
</mgrwt>
</event>
<event>
12    1  0.3147868E-008  0.9199211E+03  0.7818608E-02  0.9401016E-01
          2   -1    0    0  501    0  0.00000000000E+00  0.00000000000E+00  0.15518455938E+04  0.15518455938E+04  0.00000000000E+00 0.  1.
         -2   -1    0    0    0  501 -0.00000000000E+00 -0.00000000000E+00 -0.58119192276E+03  0.58119192276E+03  0.00000000000E+00 0. -1.
         23    2    1    2    0    0  0.10382707183E+03  0.82524926231E+03  0.22914446436E+03  0.86746745958E+03  0.90422353927E+02 0.  0.
    5000000    2    1    2    0    0 -0.10382707183E+03 -0.82524926231E+03  0.74150920671E+03  0.12655700570E+04  0.60001271637E+03 0.  0.
         23    2    4    4    0    0  0.18778473069E+03 -0.60324430140E+03  0.54435966393E+03  0.83905826279E+03  0.92328394225E+02 0.  0.
         23    2    4    4    0    0 -0.29161180252E+03 -0.22200496091E+03  0.19714954278E+03  0.42651179424E+03  0.93384808030E+02 0.  0.
          5    1    3    3  502    0  0.36032948132E+02  0.55437902157E+03  0.12532220274E+03  0.56952806552E+03  0.47000000000E+01 0. -1.
         -5    1    3    3    0  502  0.67794123696E+02  0.27087024074E+03  0.10382226163E+03  0.29793939406E+03  0.47000000000E+01 0.  1.
         11    1    5    5    0    0  0.12384599402E+03 -0.24687901603E+03  0.22396008046E+03  0.35559133346E+03  0.00000000000E+00 0. -1.
        -11    1    5    5    0    0  0.63938736668E+02 -0.35636528538E+03  0.32039958347E+03  0.48346692933E+03  0.00000000000E+00 0.  1.
          1    1    6    6  503    0 -0.24152751200E+03 -0.19013721124E+03  0.12192736644E+03  0.33068713437E+03  0.00000000000E+00 0. -1.
         -1    1    6    6    0  503 -0.50084290517E+02 -0.31867749667E+02  0.75222176339E+02  0.95824659867E+02  0.00000000000E+00 0.  1.
<mgrwt>
<rscale>  0 0.91992105E+03</rscale>
<asrwt>0</asrwt>
<pdfrwt beam="1">  1        2 0.23874548E+00 0.91992105E+03</pdfrwt>
<pdfrwt beam="2">  1       -2 0.89414142E-01 0.91992105E+03</pdfrwt>
<totfact> 0.12795024E+01</totfact>
</mgrwt>
</event>
<event>
12    1  0.3147868E-008  0.4759959E+03  0.7818608E-02  0.1020241E+00
          1   -1    0    0  501    0  0.00000000000E+00  0.00000000000E+00  0.72561514774E+03  0.72561514774E+03  0.00000000000E+00 0. -1.
         -1   -1    0    0    0  501 -0.00000000000E+00 -0.00000000000E+00 -0.39820481248E+03  0.39820481248E+03  0.00000000000E+00 0.  1.
         23    2    1    2    0    0  0.25396626026E+03 -0.20840629337E+03  0.27425078730E+03  0.43793687943E+03  0.92968659008E+02 0.  0.
    5000000    2    1    2    0    0 -0.25396626026E+03  0.20840629337E+03  0.53159547953E+02  0.68588308079E+03  0.59973128859E+03 0.  0.
         23    2    4    4    0    0 -0.39769406008E+03  0.78171155613E+02 -0.94986091489E+02  0.42427669257E+03  0.81957667621E+02 0.  0.
         23    2    4    4    0    0  0.14372779983E+03  0.13023513776E+03  0.14814563944E+03  0.26160638823E+03  0.94190765601E+02 0.  0.
          5    1    3    3  502    0  0.97086569149E+02 -0.88809105251E+02  0.54229692206E+02  0.14239314801E+03  0.47000000000E+01 0. -1.
         -5    1    3    3    0  502  0.15687969111E+03 -0.11959718812E+03  0.22002109509E+03  0.29554373141E+03  0.47000000000E+01 0.  1.
         13    1    5    5    0    0 -0.13747839664E+03 -0.92156153316E+01 -0.47227045294E+02  0.14565586468E+03  0.00000000000E+00 0. -1.
        -13    1    5    5    0    0 -0.26021566345E+03  0.87386770945E+02 -0.47759046195E+02  0.27862082789E+03  0.00000000000E+00 0.  1.
          4    1    6    6  503    0  0.75707699822E+02  0.15407933502E+02  0.28446127640E+02  0.82330082016E+02  0.00000000000E+00 0. -1.
         -4    1    6    6    0  503  0.68020100003E+02  0.11482720426E+03  0.11969951180E+03  0.17927630621E+03  0.00000000000E+00 0.  1.
<mgrwt>
<rscale>  0 0.47599588E+03</rscale>
<asrwt>0</asrwt>
<pdfrwt beam="1">  1        1 0.11163310E+00 0.47599588E+03</pdfrwt>
<pdfrwt beam="2">  1       -1 0.61262279E-01 0.47599588E+03</pdfrwt>
<totfact> 0.73113944E+01</totfact>
</mgrwt>
</event>
<event>
12    1  0.3147868E-008  0.4182945E+03  0.7818608E-02  0.1037623E+00
         -1   -1    0    0    0  501 -0.00000000000E+00  0.00000000000E+00  0.13447529108E+03  0.13447529108E+03  0.00000000000E+00 0.  1.
          1   -1    0    0  501    0  0.00000000000E+00 -0.00000000000E+00 -0.20430394892E+04  0.20430394892E+04  0.00000000000E+00 0. -1.
         23    2    1    2    0    0 -0.13188663983E+03 -0.20860726332E+03 -0.11472174552E+04  0.11770570080E+04  0.91892516597E+02 0.  0.
    5000000    2    1    2    0    0  0.13188663983E+03  0.20860726332E+03 -0.76134674301E+03  0.10004577723E+04  0.60029643928E+03 0.  0.
         23    2    4    4    0    0  0.25546676960E+03  0.29984708481E+03 -0.28821047356E+03  0.49456292637E+03  0.79722433659E+02 0.  0.
         23    2    4    4    0    0 -0.12358012977E+03 -0.91239821492E+02 -0.47313626945E+03  0.50589484594E+03  0.92059286253E+02 0.  0.
          5    1    3    3  502    0 -0.10200600388E+03 -0.76916468582E+02 -0.52567375519E+03  0.54099570688E+03  0.47000000000E+01 0. -1.
         -5    1    3    3    0  502 -0.29880635952E+02 -0.13169079474E+03 -0.62154369996E+03  0.63606130112E+03  0.47000000000E+01 0.  1.
         13    1    5    5    0    0  0.17986857741E+03  0.25236520474E+03 -0.24671455711E+03  0.39611737451E+03  0.00000000000E+00 0. -1.
        -13    1    5    5    0    0  0.75598192195E+02  0.47481880070E+02 -0.41495916456E+02  0.98445551858E+02  0.00000000000E+00 0.  1.
          2    1    6    6  503    0 -0.38790366564E+02  0.12233740437E+02 -0.16561037335E+03  0.17053196974E+03  0.00000000000E+00 0. -1.
         -2    1    6    6    0  503 -0.84789763206E+02 -0.10347356193E+03 -0.30752589610E+03  0.33536287620E+03  0.00000000000E+00 0.  1.
<mgrwt>
<rscale>  0 0.41829445E+03</rscale>
<asrwt>0</asrwt>
<pdfrwt beam="1">  1        1 0.31431376E+00 0.41829445E+03</pdfrwt>
<pdfrwt beam="2">  1       -1 0.20688507E-01 0.41829445E+03</pdfrwt>
<totfact> 0.58528037E+01</totfact>
</mgrwt>
</event>
<event>
12    1  0.3147868E-008  0.2963268E+03  0.7818608E-02  0.1087091E+00
         -1   -1    0    0    0  501 -0.00000000000E+00  0.00000000000E+00  0.82206500973E+02  0.82206500973E+02  0.00000000000E+00 0.  1.
          1   -1    0    0  501    0  0.00000000000E+00 -0.00000000000E+00 -0.19694073211E+04  0.19694073211E+04  0.00000000000E+00 0. -1.
         23    2    1    2    0    0 -0.64120544351E+02  0.12800689950E+03 -0.61035028567E+03  0.63345014942E+03  0.90743650231E+02 0.  0.
    5000000    2    1    2    0    0  0.64120544351E+02 -0.12800689950E+03 -0.12768505344E+04  0.14181636726E+04  0.60028635214E+03 0.  0.
         23    2    4    4    0    0  0.42730047685E+02  0.15557334320E+03 -0.11179319666E+03  0.21572838178E+03  0.89510299967E+02 0.  0.
         23    2    4    4    0    0  0.21390496666E+02 -0.28358024269E+03 -0.11650573378E+04  0.12024352909E+04  0.87273827511E+02 0.  0.
          5    1    3    3  502    0 -0.15179218064E+02  0.22236184805E+02 -0.26518942164E+02  0.38081502980E+02  0.47000000000E+01 0. -1.
         -5    1    3    3    0  502 -0.48941326286E+02  0.10577071469E+03 -0.58383134350E+03  0.59536864644E+03  0.47000000000E+01 0.  1.
         13    1    5    5    0    0  0.34238484606E+02  0.10004073505E+03 -0.11888556485E+03  0.15910436835E+03  0.00000000000E+00 0.  1.
        -13    1    5    5    0    0  0.84915630783E+01  0.55532608144E+02  0.70923681953E+01  0.56624013435E+02  0.00000000000E+00 0. -1.
          3    1    6    6  503    0 -0.94185433014E+01 -0.11581114707E+03 -0.32270756569E+03  0.34298848916E+03  0.00000000000E+00 0. -1.
         -3    1    6    6    0  503  0.30809039968E+02 -0.16776909562E+03 -0.84234977210E+03  0.85944680170E+03  0.00000000000E+00 0.  1.
<mgrwt>
<rscale>  0 0.29632676E+03</rscale>
<asrwt>0</asrwt>
<pdfrwt beam="1">  1        1 0.30298575E+00 0.29632676E+03</pdfrwt>
<pdfrwt beam="2">  1       -1 0.12647154E-01 0.29632676E+03</pdfrwt>
<totfact> 0.14858521E+02</totfact>
</mgrwt>
</event>
<event>
12    1  0.3147868E-008  0.9291681E+03  0.7818608E-02  0.9389837E-01
          2   -1    0    0  501    0  0.00000000000E+00  0.00000000000E+00  0.44653133540E+04  0.44653133540E+04  0.00000000000E+00 0. -1.
         -2   -1    0    0    0  501 -0.00000000000E+00 -0.00000000000E+00 -0.38315699382E+03  0.38315699382E+03  0.00000000000E+00 0.  1.
         23    2    1    2    0    0  0.62881762361E+03  0.56168550241E+03  0.36147864567E+04  0.37129369275E+04  0.91199193041E+02 0.  0.
    5000000    2    1    2    0    0 -0.62881762361E+03 -0.56168550241E+03  0.46736990355E+03  0.11355334204E+04  0.60008275651E+03 0.  0.
         23    2    4    4    0    0 -0.28786515162E+03 -0.59178186381E+03  0.20720789606E+03  0.69595055000E+03  0.91323250111E+02 0.  0.
         23    2    4    4    0    0 -0.34095247198E+03  0.30096361401E+02  0.26016200749E+03  0.43958287036E+03  0.91621234732E+02 0.  0.
          5    1    3    3  502    0  0.55789182479E+03  0.52268781158E+03  0.31755226589E+04  0.32662535241E+04  0.47000000000E+01 0. -1.
         -5    1    3    3    0  502  0.70925798822E+02  0.38997690828E+02  0.43926379771E+03  0.44668340333E+03  0.47000000000E+01 0.  1.
         13    1    5    5    0    0 -0.17120169919E+03 -0.31302667147E+03  0.15625543726E+03  0.38950157962E+03  0.00000000000E+00 0. -1.
        -13    1    5    5    0    0 -0.11666345244E+03 -0.27875519234E+03  0.50952458798E+02  0.30644897038E+03  0.00000000000E+00 0.  1.
          4    1    6    6  503    0 -0.31197652923E+03 -0.43800412187E-01  0.22124517459E+03  0.38246409503E+03  0.00000000000E+00 0. -1.
         -4    1    6    6    0  503 -0.28975942759E+02  0.30140161814E+02  0.38916832898E+02  0.57118775335E+02  0.00000000000E+00 0.  1.
<mgrwt>
<rscale>  0 0.92916805E+03</rscale>
<asrwt>0</asrwt>
<pdfrwt beam="1">  1        2 0.68697125E+00 0.92916805E+03</pdfrwt>
<pdfrwt beam="2">  1       -2 0.58947233E-01 0.92916805E+03</pdfrwt>
<totfact> 0.39014244E-01</totfact>
</mgrwt>
</event>
<event>
12    1  0.3147868E-008  0.5766688E+03  0.7818608E-02  0.9955029E-01
         -2   -1    0    0    0  501 -0.00000000000E+00  0.00000000000E+00  0.47219075910E+03  0.47219075910E+03  0.00000000000E+00 0.  1.
          2   -1    0    0  501    0  0.00000000000E+00 -0.00000000000E+00 -0.11023908291E+04  0.11023908291E+04  0.00000000000E+00 0. -1.
         23    2    1    2    0    0 -0.24158449960E+03  0.43234832027E+03  0.93879571379E+02  0.51170398277E+03  0.87974152902E+02 0.  0.
    5000000    2    1    2    0    0  0.24158449960E+03 -0.43234832027E+03 -0.72407964136E+03  0.10628776054E+04  0.60010777078E+03 0.  0.
         23    2    4    4    0    0  0.39836357685E+02  0.62273881090E+02 -0.43086832778E+03  0.44688481082E+03  0.92701384020E+02 0.  0.
         23    2    4    4    0    0  0.20174814192E+03 -0.49462220135E+03 -0.29321131358E+03  0.61599279458E+03  0.90115557604E+02 0.  0.
          5    1    3    3  502    0 -0.31754717798E+02  0.12113900504E+03  0.45054723577E+02  0.13317296558E+03  0.47000000000E+01 0. -1.
         -5    1    3    3    0  502 -0.20982978180E+03  0.31120931523E+03  0.48824847802E+02  0.37853101720E+03  0.47000000000E+01 0.  1.
         13    1    5    5    0    0 -0.76879847777E+01  0.69908270662E+02 -0.26497402958E+03  0.27414869646E+03  0.00000000000E+00 0.  1.
        -13    1    5    5    0    0  0.47524342463E+02 -0.76343895721E+01 -0.16589429820E+03  0.17273611436E+03  0.00000000000E+00 0. -1.
          4    1    6    6  503    0  0.14822995160E+03 -0.36259345765E+03 -0.25860865091E+03  0.46938743955E+03  0.00000000000E+00 0. -1.
         -4    1    6    6    0  503  0.53518190316E+02 -0.13202874371E+03 -0.34602662669E+02  0.14660535503E+03  0.00000000000E+00 0.  1.
<mgrwt>
<rscale>  0 0.57666883E+03</rscale>
<asrwt>0</asrwt>
<pdfrwt beam="1">  1        2 0.16959859E+00 0.57666883E+03</pdfrwt>
<pdfrwt beam="2">  1       -2 0.72644733E-01 0.57666883E+03</pdfrwt>
<totfact> 0.38564588E+01</totfact>
</mgrwt>
</event>
<event>
12    1  0.3147868E-008  0.4898798E+03  0.7818608E-02  0.1016455E+00
          1   -1    0    0  501    0  0.00000000000E+00  0.00000000000E+00  0.18242753731E+04  0.18242753731E+04  0.00000000000E+00 0. -1.
         -1   -1    0    0    0  501 -0.00000000000E+00 -0.00000000000E+00 -0.27337046321E+03  0.27337046321E+03  0.00000000000E+00 0.  1.
         23    2    1    2    0    0 -0.26736051301E+03  0.15100628840E+03  0.13598282001E+04  0.13970815676E+04  0.91758540221E+02 0.  0.
    5000000    2    1    2    0    0  0.26736051301E+03 -0.15100628840E+03  0.19107670977E+03  0.70056426867E+03  0.59999620205E+03 0.  0.
         23    2    4    4    0    0  0.44305068977E+03 -0.10595728344E+03  0.88024017878E+02  0.47351132390E+03  0.94572123396E+02 0.  0.
         23    2    4    4    0    0 -0.17569017675E+03 -0.45049004960E+02  0.10305269189E+03  0.22705294477E+03  0.89647818525E+02 0.  0.
          5    1    3    3  502    0 -0.19614322567E+03  0.14705720949E+03  0.11342153070E+04  0.11604156327E+04  0.47000000000E+01 0. -1.
         -5    1    3    3    0  502 -0.71217287345E+02  0.39490789091E+01  0.22561289307E+03  0.23666593494E+03  0.47000000000E+01 0.  1.
         11    1    5    5    0    0  0.10296352808E+02  0.11701158356E+02  0.94176782311E+01  0.18210564277E+02  0.00000000000E+00 0.  1.
        -11    1    5    5    0    0  0.43275433696E+03 -0.11765844180E+03  0.78606339647E+02  0.45530075963E+03  0.00000000000E+00 0. -1.
          4    1    6    6  503    0 -0.93213141924E+02 -0.65664411168E+02  0.38628275248E+02  0.12038541594E+03  0.00000000000E+00 0. -1.
         -4    1    6    6    0  503 -0.82477034830E+02  0.20615406208E+02  0.64424416641E+02  0.10666752883E+03  0.00000000000E+00 0.  1.
<mgrwt>
<rscale>  0 0.48987983E+03</rscale>
<asrwt>0</asrwt>
<pdfrwt beam="1">  1        1 0.28065774E+00 0.48987983E+03</pdfrwt>
<pdfrwt beam="2">  1       -1 0.42056995E-01 0.48987983E+03</pdfrwt>
<totfact> 0.23604997E+01</totfact>
</mgrwt>
</event>
<event>
12    1  0.3147868E-008  0.2685793E+03  0.7818608E-02  0.1102095E+00
         -1   -1    0    0    0  501 -0.00000000000E+00  0.00000000000E+00  0.46890125404E+03  0.46890125404E+03  0.00000000000E+00 0.  1.
          1   -1    0    0  501    0  0.00000000000E+00 -0.00000000000E+00 -0.30513474665E+03  0.30513474665E+03  0.00000000000E+00 0. -1.
         23    2    1    2    0    0  0.37980972148E+02  0.65837224547E+02 -0.53572322183E+02  0.13142999102E+03  0.92880323289E+02 0.  0.
    5000000    2    1    2    0    0 -0.37980972148E+02 -0.65837224547E+02  0.21733882958E+03  0.64260600967E+03  0.59994101580E+03 0.  0.
         23    2    4    4    0    0 -0.13916517235E+03  0.13256971604E+03  0.31677060114E+03  0.38089916992E+03  0.88311319182E+02 0.  0.
         23    2    4    4    0    0  0.10118420020E+03 -0.19840694058E+03 -0.99431771561E+02  0.26170683975E+03  0.94869575386E+02 0.  0.
          5    1    3    3  502    0 -0.35050297617E+01 -0.12196592063E+02 -0.39580035156E+02  0.41829550255E+02  0.47000000000E+01 0. -1.
         -5    1    3    3    0  502  0.41486001909E+02  0.78033816610E+02 -0.13992287027E+02  0.89600440766E+02  0.47000000000E+01 0.  1.
         13    1    5    5    0    0 -0.67249529583E+01  0.60239425553E+02  0.90066687515E+02  0.10856344497E+03  0.00000000000E+00 0. -1.
        -13    1    5    5    0    0 -0.13244021939E+03  0.72330290483E+02  0.22670391362E+03  0.27233572495E+03  0.00000000000E+00 0.  1.
          3    1    6    6  503    0  0.86410581386E+02 -0.15128917731E+03 -0.11635454184E+03  0.20950795487E+03  0.00000000000E+00 0. -1.
         -3    1    6    6    0  503  0.14773618814E+02 -0.47117763275E+02  0.16922770280E+02  0.52198884881E+02  0.00000000000E+00 0.  1.
<mgrwt>
<rscale>  0 0.26857934E+03</rscale>
<asrwt>0</asrwt>
<pdfrwt beam="1">  1        1 0.46943807E-01 0.26857934E+03</pdfrwt>
<pdfrwt beam="2">  1       -1 0.72138654E-01 0.26857934E+03</pdfrwt>
<totfact> 0.17457619E+02</totfact>
</mgrwt>
</event>
<event>
12    1  0.3147868E-008  0.1086125E+04  0.7818608E-02  0.9218822E-01
          1   -1    0    0  501    0  0.00000000000E+00  0.00000000000E+00  0.13699527262E+04  0.13699527262E+04  0.00000000000E+00 0. -1.
         -1   -1    0    0    0  501 -0.00000000000E+00 -0.00000000000E+00 -0.96217698453E+03  0.96217698453E+03  0.00000000000E+00 0.  1.
         23    2    1    2    0    0 -0.59805495681E+03 -0.85795197340E+03 -0.27998408892E+02  0.10500758316E+04  0.90133352326E+02 0.  0.
    5000000    2    1    2    0    0  0.59805495681E+03  0.85795197340E+03  0.43577415053E+03  0.12820538791E+04  0.60000976540E+03 0.  0.
         23    2    4    4    0    0  0.24736281515E+03  0.77465296682E+02 -0.70775734640E+02  0.28342580877E+03  0.90176216121E+02 0.  0.
         23    2    4    4    0    0  0.35069214166E+03  0.78048667672E+03  0.50654988517E+03  0.99862807031E+03  0.92308211421E+02 0.  0.
          5    1    3    3  502    0 -0.39138587087E+03 -0.48583882887E+03 -0.85516224328E+01  0.62395311346E+03  0.47000000000E+01 0. -1.
         -5    1    3    3    0  502 -0.20666908594E+03 -0.37211314453E+03 -0.19446786459E+02  0.42612271815E+03  0.47000000000E+01 0.  1.
         11    1    5    5    0    0  0.12692883438E+03  0.72600950036E+02 -0.71771638532E+02  0.16288951789E+03  0.00000000000E+00 0.  1.
        -11    1    5    5    0    0  0.12043398078E+03  0.48643466461E+01  0.99590389171E+00  0.12053629088E+03  0.00000000000E+00 0. -1.
          2    1    6    6  503    0  0.34997011055E+03  0.77463829634E+03  0.49018921384E+03  0.98123852034E+03  0.00000000000E+00 0.  1.
         -2    1    6    6    0  503  0.72203110637E+00  0.58483803782E+01  0.16360671322E+02  0.17389549968E+02  0.00000000000E+00 0. -1.
<mgrwt>
<rscale>  0 0.10861246E+04</rscale>
<asrwt>0</asrwt>
<pdfrwt beam="1">  1        1 0.21076196E+00 0.10861246E+04</pdfrwt>
<pdfrwt beam="2">  1       -1 0.14802723E+00 0.10861246E+04</pdfrwt>
<totfact> 0.28984804E+00</totfact>
</mgrwt>
</event>
<event>
12    1  0.3147868E-008  0.5843578E+03  0.7818608E-02  0.9938401E-01
         -1   -1    0    0    0  501 -0.00000000000E+00  0.00000000000E+00  0.88356469201E+03  0.88356469201E+03  0.00000000000E+00 0.  1.
          1   -1    0    0  501    0  0.00000000000E+00 -0.00000000000E+00 -0.43238939965E+03  0.43238939965E+03  0.00000000000E+00 0. -1.
         23    2    1    2    0    0  0.45623833805E+03  0.10231590861E+03  0.16846839547E+03  0.50447566068E+03  0.86557066056E+02 0.  0.
    5000000    2    1    2    0    0 -0.45623833805E+03 -0.10231590861E+03  0.28270689688E+03  0.81147843098E+03  0.59996007212E+03 0.  0.
         23    2    4    4    0    0  0.73839686859E+02 -0.11317441645E+03 -0.58450338701E+02  0.17436331989E+03  0.93409728264E+02 0.  0.
         23    2    4    4    0    0 -0.53007802491E+03  0.10858507843E+02  0.34115723559E+03  0.63711511109E+03  0.91797525557E+02 0.  0.
          5    1    3    3  502    0  0.47923552074E+02 -0.67682987861E+01 -0.21547400082E+01  0.48674527387E+02  0.47000000000E+01 0. -1.
         -5    1    3    3    0  502  0.40831478598E+03  0.10908420740E+03  0.17062313548E+03  0.45580113330E+03  0.47000000000E+01 0.  1.
         13    1    5    5    0    0  0.70485753617E+01 -0.92488703448E+02 -0.45255955928E+02  0.10320825658E+03  0.00000000000E+00 0. -1.
        -13    1    5    5    0    0  0.66791111498E+02 -0.20685713006E+02 -0.13194382773E+02  0.71155063308E+02  0.00000000000E+00 0.  1.
          2    1    6    6  503    0 -0.19958940744E+03 -0.29680190593E+02  0.16355574057E+03  0.25974473152E+03  0.00000000000E+00 0.  1.
         -2    1    6    6    0  503 -0.33048861747E+03  0.40538698435E+02  0.17760149502E+03  0.37737037957E+03  0.00000000000E+00 0. -1.
<mgrwt>
<rscale>  0 0.58435783E+03</rscale>
<asrwt>0</asrwt>
<pdfrwt beam="1">  1        1 0.66521446E-01 0.58435783E+03</pdfrwt>
<pdfrwt beam="2">  1       -1 0.13593303E+00 0.58435783E+03</pdfrwt>
<totfact> 0.25529565E+01</totfact>
</mgrwt>
</event>
<event>
12    1  0.3147868E-008  0.1278045E+04  0.7818608E-02  0.9047159E-01
          2   -1    0    0  501    0  0.00000000000E+00  0.00000000000E+00  0.17578336314E+04  0.17578336314E+04  0.00000000000E+00 0. -1.
         -2   -1    0    0    0  501 -0.00000000000E+00 -0.00000000000E+00 -0.10039538067E+04  0.10039538067E+04  0.00000000000E+00 0.  1.
         23    2    1    2    0    0  0.98139476033E+03  0.73781796506E+03  0.69804884327E+02  0.12332139338E+04  0.91830602300E+02 0.  0.
    5000000    2    1    2    0    0 -0.98139476033E+03 -0.73781796506E+03  0.68407494040E+03  0.15285735043E+04  0.60088884900E+03 0.  0.
         23    2    4    4    0    0 -0.32201771836E+03 -0.53841402569E+03  0.50497172307E+03  0.81061309897E+03  0.92260940407E+02 0.  0.
         23    2    4    4    0    0 -0.65937704197E+03 -0.19940393937E+03  0.17910321733E+03  0.71796040535E+03  0.94070009434E+02 0.  0.
          5    1    3    3  502    0  0.71601704851E+03  0.58143825662E+03  0.71583119922E+02  0.92514706565E+03  0.47000000000E+01 0. -1.
         -5    1    3    3    0  502  0.26537771182E+03  0.15637970844E+03 -0.17782355950E+01  0.30806686817E+03  0.47000000000E+01 0.  1.
         11    1    5    5    0    0 -0.60794216354E+02 -0.54729428989E+02  0.42217035487E+02  0.92051752970E+02  0.00000000000E+00 0. -1.
        -11    1    5    5    0    0 -0.26122350201E+03 -0.48368459670E+03  0.46275468758E+03  0.71856134600E+03  0.00000000000E+00 0.  1.
          1    1    6    6  503    0 -0.60629367931E+02 -0.45847162971E+02  0.32617987588E+02  0.82715268981E+02  0.00000000000E+00 0. -1.
         -1    1    6    6    0  503 -0.59874767404E+03 -0.15355677640E+03  0.14648522974E+03  0.63524513637E+03  0.00000000000E+00 0.  1.
<mgrwt>
<rscale>  0 0.12780447E+04</rscale>
<asrwt>0</asrwt>
<pdfrwt beam="1">  1        2 0.27043594E+00 0.12780447E+04</pdfrwt>
<pdfrwt beam="2">  1       -2 0.15445443E+00 0.12780447E+04</pdfrwt>
<totfact> 0.24334394E+00</totfact>
</mgrwt>
</event>
<event>
12    1  0.3147868E-008  0.4526975E+03  0.7818608E-02  0.1026921E+00
          2   -1    0    0  501    0  0.00000000000E+00  0.00000000000E+00  0.53371303201E+03  0.53371303201E+03  0.00000000000E+00 0. -1.
         -2   -1    0    0    0  501 -0.00000000000E+00 -0.00000000000E+00 -0.83977903256E+03  0.83977903256E+03  0.00000000000E+00 0.  1.
         23    2    1    2    0    0 -0.27594887200E+03 -0.24361774625E+02  0.34023795080E+03  0.44807760621E+03  0.90941750625E+02 0.  0.
    5000000    2    1    2    0    0  0.27594887200E+03  0.24361774625E+02 -0.64630395134E+03  0.92541445836E+03  0.60161602888E+03 0.  0.
         23    2    4    4    0    0  0.24987893028E+03 -0.23973625973E+03 -0.24419181999E+03  0.43520326211E+03  0.99293909077E+02 0.  0.
         23    2    4    4    0    0  0.26069941721E+02  0.26409803435E+03 -0.40211213135E+03  0.49021119625E+03  0.90473405708E+02 0.  0.
          5    1    3    3  502    0 -0.17443710783E+03 -0.40531353532E+02  0.15833829262E+03  0.23909035974E+03  0.47000000000E+01 0. -1.
         -5    1    3    3    0  502 -0.10151176417E+03  0.16169578907E+02  0.18189965817E+03  0.20898724648E+03  0.47000000000E+01 0.  1.
         13    1    5    5    0    0  0.20851521859E+03 -0.20459385219E+03 -0.24447362007E+03  0.38092596609E+03  0.00000000000E+00 0.  1.
        -13    1    5    5    0    0  0.41363711685E+02 -0.35142407539E+02  0.28180007135E+00  0.54277296020E+02  0.00000000000E+00 0. -1.
          4    1    6    6  503    0 -0.28027530849E+02  0.11414440149E+03 -0.13359270327E+03  0.17793677878E+03  0.00000000000E+00 0. -1.
         -4    1    6    6    0  503  0.54097472570E+02  0.14995363286E+03 -0.26851942808E+03  0.31227441746E+03  0.00000000000E+00 0.  1.
<mgrwt>
<rscale>  0 0.45269750E+03</rscale>
<asrwt>0</asrwt>
<pdfrwt beam="1">  1        2 0.82109698E-01 0.45269750E+03</pdfrwt>
<pdfrwt beam="2">  1       -2 0.12919677E+00 0.45269750E+03</pdfrwt>
<totfact> 0.26291116E+01</totfact>
</mgrwt>
</event>
<event>
12    1  0.3458711E-008  0.6896822E+03  0.7818608E-02  0.9735041E-01
          2   -1    0    0  501    0  0.00000000000E+00  0.00000000000E+00  0.20994598582E+04  0.20994598582E+04  0.00000000000E+00 0. -1.
         -2   -1    0    0    0  501 -0.00000000000E+00 -0.00000000000E+00 -0.33360804379E+03  0.33360804379E+03  0.00000000000E+00 0.  1.
         23    2    1    2    0    0  0.44184169230E+03 -0.34757683784E+03  0.10325350635E+03  0.57836542616E+03  0.88382918877E+02 0.  0.
    5000000    2    1    2    0    0 -0.44184169230E+03  0.34757683784E+03  0.16625983080E+04  0.18547024758E+04  0.59971193138E+03 0.  0.
         23    2    4    4    0    0 -0.31025477952E+03 -0.10405804156E+03  0.77154116755E+03  0.84308827101E+03  0.91847456450E+02 0.  0.
         23    2    4    4    0    0 -0.13158691278E+03  0.45163487940E+03  0.89105714050E+03  0.10116142048E+04  0.89951608357E+02 0.  0.
          5    1    3    3  502    0  0.16563486051E+03 -0.78272403282E+02  0.35609833447E+02  0.18668590298E+03  0.47000000000E+01 0. -1.
         -5    1    3    3    0  502  0.27620683179E+03 -0.26930443456E+03  0.67643672905E+02  0.39167952318E+03  0.47000000000E+01 0.  1.
         13    1    5    5    0    0 -0.20817489162E+03 -0.22839842743E+02  0.47902041051E+03  0.52279919434E+03  0.00000000000E+00 0.  1.
        -13    1    5    5    0    0 -0.10207988790E+03 -0.81218198817E+02  0.29252075704E+03  0.32028907667E+03  0.00000000000E+00 0. -1.
          4    1    6    6  503    0 -0.70944382949E+02  0.25228320214E+03  0.40033757400E+03  0.47848729629E+03  0.00000000000E+00 0. -1.
         -4    1    6    6    0  503 -0.60642529827E+02  0.19935167726E+03  0.49071956650E+03  0.53312690852E+03  0.00000000000E+00 0.  1.
<mgrwt>
<rscale>  0 0.68968221E+03</rscale>
<asrwt>0</asrwt>
<pdfrwt beam="1">  1        2 0.32299382E+00 0.68968221E+03</pdfrwt>
<pdfrwt beam="2">  1       -2 0.51324316E-01 0.68968221E+03</pdfrwt>
<totfact> 0.22041707E+01</totfact>
</mgrwt>
</event>
<event>
12    1  0.3147868E-008  0.6538877E+03  0.7818608E-02  0.9799511E-01
         -1   -1    0    0    0  501 -0.00000000000E+00  0.00000000000E+00  0.22586947162E+03  0.22586947162E+03  0.00000000000E+00 0.  1.
          1   -1    0    0  501    0  0.00000000000E+00 -0.00000000000E+00 -0.21223836481E+04  0.21223836481E+04  0.00000000000E+00 0. -1.
         23    2    1    2    0    0 -0.13323338430E+03 -0.53994460485E+03 -0.69980318023E+03  0.89859753894E+03  0.91987689035E+02 0.  0.
    5000000    2    1    2    0    0  0.13323338430E+03  0.53994460485E+03 -0.11967109963E+04  0.14496555808E+04  0.60007731447E+03 0.  0.
         23    2    4    4    0    0 -0.17785093078E+03  0.28608191509E+03 -0.82042291045E+03  0.89261407038E+03  0.10095697564E+03 0.  0.
         23    2    4    4    0    0  0.31108431507E+03  0.25386268976E+03 -0.37628808583E+03  0.55704151042E+03  0.86503204918E+02 0.  0.
          5    1    3    3  502    0 -0.11098338122E+03 -0.49199804203E+03 -0.66690840135E+03  0.83616283705E+03  0.47000000000E+01 0. -1.
         -5    1    3    3    0  502 -0.22250003076E+02 -0.47946562816E+02 -0.32894778881E+02  0.62434701892E+02  0.47000000000E+01 0.  1.
         11    1    5    5    0    0 -0.78983155371E+02  0.51633768122E+02 -0.27554734372E+03  0.29125714321E+03  0.00000000000E+00 0. -1.
        -11    1    5    5    0    0 -0.98867775407E+02  0.23444814697E+03 -0.54487556673E+03  0.60135692717E+03  0.00000000000E+00 0.  1.
          4    1    6    6  503    0  0.18548534070E+03  0.15151329206E+03 -0.16523498681E+03  0.29097025647E+03  0.00000000000E+00 0.  1.
         -4    1    6    6    0  503  0.12559897437E+03  0.10234939770E+03 -0.21105309902E+03  0.26607125395E+03  0.00000000000E+00 0. -1.
<mgrwt>
<rscale>  0 0.65388772E+03</rscale>
<asrwt>0</asrwt>
<pdfrwt beam="1">  1        1 0.32652058E+00 0.65388772E+03</pdfrwt>
<pdfrwt beam="2">  1       -1 0.34749147E-01 0.65388772E+03</pdfrwt>
<totfact> 0.20458525E+01</totfact>
</mgrwt>
</event>
<event>
12    1  0.3147868E-008  0.8168955E+03  0.7818608E-02  0.9535878E-01
          2   -1    0    0  501    0  0.00000000000E+00  0.00000000000E+00  0.97369044403E+03  0.97369044403E+03  0.00000000000E+00 0. -1.
         -2   -1    0    0    0  501 -0.00000000000E+00 -0.00000000000E+00 -0.72005723924E+03  0.72005723924E+03  0.00000000000E+00 0.  1.
         23    2    1    2    0    0 -0.17305279424E+03 -0.70369658045E+03  0.11878427528E+03  0.74339433369E+03  0.11571207530E+03 0.  0.
    5000000    2    1    2    0    0  0.17305279424E+03  0.70369658045E+03  0.13484892951E+03  0.95035334958E+03  0.59987591078E+03 0.  0.
         23    2    4    4    0    0  0.23408770664E+03  0.77269587612E+03  0.99946248362E+02  0.81855753378E+03  0.90505315772E+02 0.  0.
         23    2    4    4    0    0 -0.61034912402E+02 -0.68999295666E+02  0.34902681149E+02  0.13179581580E+03  0.87554420656E+02 0.  0.
          5    1    3    3  502    0 -0.11101644075E+03 -0.33419327289E+03  0.65503681556E+01  0.35224251743E+03  0.47000000000E+01 0. -1.
         -5    1    3    3    0  502 -0.62036353489E+02 -0.36950330756E+03  0.11223390712E+03  0.39115181625E+03  0.47000000000E+01 0.  1.
         13    1    5    5    0    0  0.17859817952E+03  0.43694879183E+03  0.52015121219E+02  0.47489696698E+03  0.00000000000E+00 0.  1.
        -13    1    5    5    0    0  0.55489527120E+02  0.33574708428E+03  0.47931127143E+02  0.34366056680E+03  0.00000000000E+00 0. -1.
          4    1    6    6  503    0 -0.25260597034E+02 -0.44613915107E+02  0.62205970148E+02  0.80610681090E+02  0.00000000000E+00 0. -1.
         -4    1    6    6    0  503 -0.35774315368E+02 -0.24385380558E+02 -0.27303288999E+02  0.51185134709E+02  0.00000000000E+00 0.  1.
<mgrwt>
<rscale>  0 0.81689554E+03</rscale>
<asrwt>0</asrwt>
<pdfrwt beam="1">  1        2 0.14979853E+00 0.81689554E+03</pdfrwt>
<pdfrwt beam="2">  1       -2 0.11077804E+00 0.81689554E+03</pdfrwt>
<totfact> 0.17079883E+01</totfact>
</mgrwt>
</event>
<event>
12    1  0.3147868E-008  0.6649974E+03  0.7818608E-02  0.9779037E-01
         -2   -1    0    0    0  501 -0.00000000000E+00  0.00000000000E+00  0.84439835346E+03  0.84439835346E+03  0.00000000000E+00 0.  1.
          2   -1    0    0  501    0  0.00000000000E+00 -0.00000000000E+00 -0.60481986943E+03  0.60481986943E+03  0.00000000000E+00 0. -1.
         23    2    1    2    0    0 -0.46330756256E+03 -0.30290829258E+03 -0.91412257413E+02  0.56837466751E+03  0.91028735148E+02 0.  0.
    5000000    2    1    2    0    0  0.46330756256E+03  0.30290829258E+03  0.33099074145E+03  0.88084355538E+03  0.59993596899E+03 0.  0.
         23    2    4    4    0    0  0.26694642594E+02 -0.14135743148E+03  0.14578505514E+03  0.22537019187E+03  0.94042084749E+02 0.  0.
         23    2    4    4    0    0  0.43661291997E+03  0.44426572406E+03  0.18520568631E+03  0.65547336351E+03  0.85681436572E+02 0.  0.
          5    1    3    3  502    0 -0.25901227959E+03 -0.20931124529E+03 -0.84050697370E+02  0.34348969142E+03  0.47000000000E+01 0. -1.
         -5    1    3    3    0  502 -0.20429528297E+03 -0.93597047297E+02 -0.73615600435E+01  0.22488497610E+03  0.47000000000E+01 0.  1.
         13    1    5    5    0    0  0.32648239822E+02 -0.65904128139E+02  0.12799291277E+03  0.14761926496E+03  0.00000000000E+00 0. -1.
        -13    1    5    5    0    0 -0.59535972281E+01 -0.75453303337E+02  0.17792142371E+02  0.77750926905E+02  0.00000000000E+00 0.  1.
          3    1    6    6  503    0  0.21651876009E+03  0.22586701952E+03  0.13748973611E+03  0.34175972775E+03  0.00000000000E+00 0. -1.
         -3    1    6    6    0  503  0.22009415988E+03  0.21839870454E+03  0.47715950199E+02  0.31371363576E+03  0.00000000000E+00 0.  1.
<mgrwt>
<rscale>  0 0.66499744E+03</rscale>
<asrwt>0</asrwt>
<pdfrwt beam="1">  1        2 0.93049210E-01 0.66499744E+03</pdfrwt>
<pdfrwt beam="2">  1       -2 0.12990744E+00 0.66499744E+03</pdfrwt>
<totfact> 0.21828927E+01</totfact>
</mgrwt>
</event>
<event>
12    1  0.3147868E-008  0.1160048E+04  0.7818608E-02  0.9148563E-01
          1   -1    0    0  501    0  0.00000000000E+00  0.00000000000E+00  0.69528027488E+03  0.69528027488E+03  0.00000000000E+00 0. -1.
         -1   -1    0    0    0  501 -0.00000000000E+00 -0.00000000000E+00 -0.21585870401E+04  0.21585870401E+04  0.00000000000E+00 0.  1.
         23    2    1    2    0    0  0.99113546671E+03  0.54298462910E+03 -0.44184830784E+03  0.12166928334E+04  0.89048879618E+02 0.  0.
    5000000    2    1    2    0    0 -0.99113546671E+03 -0.54298462910E+03 -0.10214584574E+04  0.16371744816E+04  0.59981754069E+03 0.  0.
         23    2    4    4    0    0 -0.91070515653E+03 -0.59652673693E+03 -0.10330248169E+04  0.15033203701E+04  0.87199959386E+02 0.  0.
         23    2    4    4    0    0 -0.80430310182E+02  0.53542107832E+02  0.11566359523E+02  0.13385411143E+03  0.91909468323E+02 0.  0.
          5    1    3    3  502    0  0.34543934323E+03  0.23633391963E+03 -0.15150632724E+03  0.44514977099E+03  0.47000000000E+01 0. -1.
         -5    1    3    3    0  502  0.64569612348E+03  0.30665070947E+03 -0.29034198060E+03  0.77154306244E+03  0.47000000000E+01 0.  1.
         11    1    5    5    0    0 -0.86424449664E+03 -0.55056852260E+03 -0.94707624889E+03  0.13953485834E+04  0.00000000000E+00 0. -1.
        -11    1    5    5    0    0 -0.46460659890E+02 -0.45958214325E+02 -0.85948568013E+02  0.10797178671E+03  0.00000000000E+00 0.  1.
          4    1    6    6  503    0 -0.60410902653E+02  0.40697274168E+02  0.50215418259E+02  0.88472218888E+02  0.00000000000E+00 0. -1.
         -4    1    6    6    0  503 -0.20019407529E+02  0.12844833663E+02 -0.38649058736E+02  0.45381892543E+02  0.00000000000E+00 0.  1.
<mgrwt>
<rscale>  0 0.11600484E+04</rscale>
<asrwt>0</asrwt>
<pdfrwt beam="1">  1        1 0.10696620E+00 0.11600484E+04</pdfrwt>
<pdfrwt beam="2">  1       -1 0.33209031E+00 0.11600484E+04</pdfrwt>
<totfact> 0.55899587E-01</totfact>
</mgrwt>
</event>
<event>
12    1  0.3147868E-008  0.7899306E+03  0.7818608E-02  0.9574708E-01
          1   -1    0    0  501    0  0.00000000000E+00  0.00000000000E+00  0.41328990946E+03  0.41328990946E+03  0.00000000000E+00 0. -1.
         -1   -1    0    0    0  501 -0.00000000000E+00 -0.00000000000E+00 -0.18368391462E+04  0.18368391462E+04  0.00000000000E+00 0.  1.
         23    2    1    2    0    0 -0.51036792700E+03 -0.46890688539E+03 -0.10480526556E+04  0.12595490093E+04  0.87751066892E+02 0.  0.
    5000000    2    1    2    0    0  0.51036792700E+03  0.46890688539E+03 -0.37549658118E+03  0.99058004645E+03  0.59991837601E+03 0.  0.
         23    2    4    4    0    0  0.58722666758E+03  0.26622941780E+03 -0.15826071111E+03  0.66992680506E+03  0.89678366633E+02 0.  0.
         23    2    4    4    0    0 -0.76858740581E+02  0.20267746759E+03 -0.21723587007E+03  0.32065324139E+03  0.92960508264E+02 0.  0.
          5    1    3    3  502    0 -0.36499246345E+03 -0.28388227624E+03 -0.72326850740E+03  0.85845679503E+03  0.47000000000E+01 0. -1.
         -5    1    3    3    0  502 -0.14537546355E+03 -0.18502460914E+03 -0.32478414821E+03  0.40109221423E+03  0.47000000000E+01 0.  1.
         11    1    5    5    0    0  0.27970931215E+03  0.15889233504E+03 -0.43642423111E+02  0.32463631117E+03  0.00000000000E+00 0.  1.
        -11    1    5    5    0    0  0.30751735543E+03  0.10733708276E+03 -0.11461828799E+03  0.34529049389E+03  0.00000000000E+00 0. -1.
          2    1    6    6  503    0  0.26927137819E+00  0.12577118395E+03 -0.10047496959E+03  0.16097727397E+03  0.00000000000E+00 0.  1.
         -2    1    6    6    0  503 -0.77128011959E+02  0.76906283636E+02 -0.11676090048E+03  0.15967596742E+03  0.00000000000E+00 0. -1.
<mgrwt>
<rscale>  0 0.78993055E+03</rscale>
<asrwt>0</asrwt>
<pdfrwt beam="1">  1        1 0.63583062E-01 0.78993055E+03</pdfrwt>
<pdfrwt beam="2">  1       -1 0.28259064E+00 0.78993055E+03</pdfrwt>
<totfact> 0.25605441E+00</totfact>
</mgrwt>
</event>
<event>
12    1  0.3147868E-008  0.2131434E+04  0.7818608E-02  0.8547522E-01
          2   -1    0    0  501    0  0.00000000000E+00  0.00000000000E+00  0.14611983171E+04  0.14611983171E+04  0.00000000000E+00 0. -1.
         -2   -1    0    0    0  501 -0.00000000000E+00 -0.00000000000E+00 -0.39026195739E+04  0.39026195739E+04  0.00000000000E+00 0.  1.
         23    2    1    2    0    0 -0.17854715368E+04 -0.11521712681E+04 -0.76321768996E+02  0.21282318830E+04  0.90214720549E+02 0.  0.
    5000000    2    1    2    0    0  0.17854715368E+04  0.11521712681E+04 -0.23650994877E+04  0.32355860080E+04  0.59992831952E+03 0.  0.
         23    2    4    4    0    0  0.40684516354E+03  0.21458093856E+03 -0.22121603288E+03  0.51828703148E+03  0.90094103597E+02 0.  0.
         23    2    4    4    0    0  0.13786263732E+04  0.93759032955E+03 -0.21438834548E+04  0.27172989765E+04  0.88267529476E+02 0.  0.
          5    1    3    3  502    0 -0.59545041563E+03 -0.35897852322E+03  0.11354169418E+02  0.69539757317E+03  0.47000000000E+01 0. -1.
         -5    1    3    3    0  502 -0.11900211211E+04 -0.79319274489E+03 -0.87675938414E+02  0.14328343098E+04  0.47000000000E+01 0.  1.
         13    1    5    5    0    0  0.14537890888E+03  0.12501359415E+03 -0.10339790670E+03  0.21784065961E+03  0.00000000000E+00 0. -1.
        -13    1    5    5    0    0  0.26146625466E+03  0.89567344411E+02 -0.11781812618E+03  0.30044637187E+03  0.00000000000E+00 0.  1.
          2    1    6    6  503    0  0.96089941016E+03  0.69883887867E+03 -0.15032445060E+04  0.19161021631E+04  0.00000000000E+00 0. -1.
         -2    1    6    6    0  503  0.41772696306E+03  0.23875145089E+03 -0.64063894885E+03  0.80119681337E+03  0.00000000000E+00 0.  1.
<mgrwt>
<rscale>  0 0.21314338E+04</rscale>
<asrwt>0</asrwt>
<pdfrwt beam="1">  1        2 0.22479974E+00 0.21314338E+04</pdfrwt>
<pdfrwt beam="2">  1       -2 0.60040301E+00 0.21314338E+04</pdfrwt>
<totfact> 0.57821710E-03</totfact>
</mgrwt>
</event>
<event>
12    1  0.3147868E-008  0.6483028E+03  0.7818608E-02  0.9809969E-01
          2   -1    0    0  501    0  0.00000000000E+00  0.00000000000E+00  0.11706223862E+04  0.11706223862E+04  0.00000000000E+00 0. -1.
         -2   -1    0    0    0  501 -0.00000000000E+00 -0.00000000000E+00 -0.49443991612E+03  0.49443991612E+03  0.00000000000E+00 0.  1.
         23    2    1    2    0    0  0.75643142214E+02 -0.63249298860E+03  0.33778352877E+03  0.72663559822E+03  0.90179347341E+02 0.  0.
    5000000    2    1    2    0    0 -0.75643142214E+02  0.63249298860E+03  0.33839894127E+03  0.93842670406E+03  0.60030123259E+03 0.  0.
         23    2    4    4    0    0 -0.63516096342E+02  0.43527334949E+03  0.49641064252E+03  0.66952766768E+03  0.91359665710E+02 0.  0.
         23    2    4    4    0    0 -0.12127045872E+02  0.19721963912E+03 -0.15801170125E+03  0.26889903638E+03  0.91084261753E+02 0.  0.
          5    1    3    3  502    0  0.66556370200E+02 -0.22061130562E+03  0.10325575483E+03  0.25255284494E+03  0.47000000000E+01 0. -1.
         -5    1    3    3    0  502  0.90867720141E+01 -0.41188168298E+03  0.23452777394E+03  0.47408275327E+03  0.47000000000E+01 0.  1.
         13    1    5    5    0    0 -0.47950574971E+02  0.38496866518E+03  0.38630232336E+03  0.54747567603E+03  0.00000000000E+00 0.  1.
        -13    1    5    5    0    0 -0.15565521371E+02  0.50304684310E+02  0.11010831916E+03  0.12205199166E+03  0.00000000000E+00 0. -1.
          3    1    6    6  503    0  0.18203331967E+02  0.49449286354E+01 -0.31597980724E+02  0.36800081518E+02  0.00000000000E+00 0. -1.
         -3    1    6    6    0  503 -0.30330377839E+02  0.19227471048E+03 -0.12641372053E+03  0.23209895486E+03  0.00000000000E+00 0.  1.
<mgrwt>
<rscale>  0 0.64830281E+03</rscale>
<asrwt>0</asrwt>
<pdfrwt beam="1">  1        2 0.18009575E+00 0.64830281E+03</pdfrwt>
<pdfrwt beam="2">  1       -2 0.76067680E-01 0.64830281E+03</pdfrwt>
<totfact> 0.31431965E+01</totfact>
</mgrwt>
</event>
<event>
12    1  0.3147868E-008  0.6576735E+03  0.7818608E-02  0.9792486E-01
          1   -1    0    0  501    0  0.00000000000E+00  0.00000000000E+00  0.31044876087E+04  0.31044876087E+04  0.00000000000E+00 0. -1.
         -1   -1    0    0    0  501 -0.00000000000E+00 -0.00000000000E+00 -0.25456882569E+03  0.25456882569E+03  0.00000000000E+00 0.  1.
         23    2    1    2    0    0  0.41966209610E+03 -0.40303014907E+03  0.27098827527E+03  0.64817559314E+03  0.90262828732E+02 0.  0.
    5000000    2    1    2    0    0 -0.41966209610E+03  0.40303014907E+03  0.25789305078E+04  0.27108808413E+04  0.59953548329E+03 0.  0.
         23    2    4    4    0    0  0.22007597479E+02  0.23754189752E+03  0.16050863162E+04  0.16251165036E+04  0.88267098582E+02 0.  0.
         23    2    4    4    0    0 -0.44166969357E+03  0.16548825154E+03  0.97384419161E+03  0.10857643376E+04  0.89739666259E+02 0.  0.
          5    1    3    3  502    0  0.23104864451E+03 -0.22230250471E+03  0.99846771911E+02  0.33584720871E+03  0.47000000000E+01 0. -1.
         -5    1    3    3    0  502  0.18861345158E+03 -0.18072764435E+03  0.17114150336E+03  0.31232838443E+03  0.47000000000E+01 0.  1.
         13    1    5    5    0    0  0.55501336574E+02  0.14455816611E+03  0.92061366397E+03  0.93354538188E+03  0.00000000000E+00 0. -1.
        -13    1    5    5    0    0 -0.33493739095E+02  0.92983731417E+02  0.68447265219E+03  0.69157112177E+03  0.00000000000E+00 0.  1.
          2    1    6    6  503    0 -0.22409632576E+03  0.37201918476E+02  0.43973780951E+03  0.49494695379E+03  0.00000000000E+00 0. -1.
         -2    1    6    6    0  503 -0.21757336781E+03  0.12828633307E+03  0.53410638211E+03  0.59081738383E+03  0.00000000000E+00 0.  1.
<mgrwt>
<rscale>  0 0.65767351E+03</rscale>
<asrwt>0</asrwt>
<pdfrwt beam="1">  1        1 0.47761345E+00 0.65767351E+03</pdfrwt>
<pdfrwt beam="2">  1       -1 0.39164437E-01 0.65767351E+03</pdfrwt>
<totfact> 0.34682773E+00</totfact>
</mgrwt>
</event>
<event>
12    1  0.3147868E-008  0.1251609E+04  0.7818608E-02  0.9068845E-01
          1   -1    0    0  501    0  0.00000000000E+00  0.00000000000E+00  0.32354774947E+04  0.32354774947E+04  0.00000000000E+00 0. -1.
         -1   -1    0    0    0  501 -0.00000000000E+00 -0.00000000000E+00 -0.81452060605E+03  0.81452060605E+03  0.00000000000E+00 0.  1.
         23    2    1    2    0    0  0.79032914218E+03 -0.96305925155E+03  0.23544275555E+04  0.26653713655E+04  0.93659632663E+02 0.  0.
    5000000    2    1    2    0    0 -0.79032914218E+03  0.96305925155E+03  0.66529333130E+02  0.13846267353E+04  0.60055122086E+03 0.  0.
         23    2    4    4    0    0 -0.25307859649E+03  0.36599039717E+03  0.29806465115E+03  0.54364921708E+03  0.93349815959E+02 0.  0.
         23    2    4    4    0    0 -0.53725054569E+03  0.59706885438E+03 -0.23153531802E+03  0.84097751819E+03  0.92223732844E+02 0.  0.
          5    1    3    3  502    0  0.13124164132E+03 -0.11857660417E+03  0.37552125971E+03  0.41511815904E+03  0.47000000000E+01 0. -1.
         -5    1    3    3    0  502  0.65908750087E+03 -0.84448264738E+03  0.19789062958E+04  0.22502532064E+04  0.47000000000E+01 0.  1.
         11    1    5    5    0    0 -0.16153903392E+03  0.18089926042E+03  0.20324104151E+03  0.31642743695E+03  0.00000000000E+00 0.  1.
        -11    1    5    5    0    0 -0.91539562575E+02  0.18509113675E+03  0.94823609642E+02  0.22722178013E+03  0.00000000000E+00 0. -1.
          3    1    6    6  503    0 -0.37684137423E+03  0.46287450039E+03 -0.14235568898E+03  0.61361825806E+03  0.00000000000E+00 0. -1.
         -3    1    6    6    0  503 -0.16040917146E+03  0.13419435399E+03 -0.89179629039E+02  0.22735926013E+03  0.00000000000E+00 0.  1.
<mgrwt>
<rscale>  0 0.12516089E+04</rscale>
<asrwt>0</asrwt>
<pdfrwt beam="1">  1        1 0.49776576E+00 0.12516089E+04</pdfrwt>
<pdfrwt beam="2">  1       -1 0.12531086E+00 0.12516089E+04</pdfrwt>
<totfact> 0.22003496E-01</totfact>
</mgrwt>
</event>
<event>
12    1  0.3147868E-008  0.1372371E+04  0.7818608E-02  0.8974064E-01
         -1   -1    0    0    0  501 -0.00000000000E+00  0.00000000000E+00  0.10802883152E+04  0.10802883152E+04  0.00000000000E+00 0.  1.
          1   -1    0    0  501    0  0.00000000000E+00 -0.00000000000E+00 -0.22420561907E+04  0.22420561907E+04  0.00000000000E+00 0. -1.
         23    2    1    2    0    0  0.58517991048E+03 -0.11813595253E+04 -0.13168467655E+04  0.18656018854E+04  0.91318868501E+02 0.  0.
    5000000    2    1    2    0    0 -0.58517991048E+03  0.11813595253E+04  0.15507888995E+03  0.14567426204E+04  0.60000312024E+03 0.  0.
         23    2    4    4    0    0  0.34020531749E+02 -0.24344705857E+01 -0.35307941647E+02  0.10419887384E+03  0.91909908814E+02 0.  0.
         23    2    4    4    0    0 -0.61920044223E+03  0.11837939959E+04  0.19038683159E+03  0.13525437465E+04  0.91378489469E+02 0.  0.
          5    1    3    3  502    0  0.28591853225E+03 -0.64478023527E+03 -0.75161411580E+03  0.10307457630E+04  0.47000000000E+01 0. -1.
         -5    1    3    3    0  502  0.29926137823E+03 -0.53657928999E+03 -0.56523264965E+03  0.83485612244E+03  0.47000000000E+01 0.  1.
         11    1    5    5    0    0  0.59072728831E+02  0.11320447760E+02 -0.43775386426E+02  0.74391022885E+02  0.00000000000E+00 0. -1.
        -11    1    5    5    0    0 -0.25052197082E+02 -0.13754918346E+02  0.84674447798E+01  0.29807850953E+02  0.00000000000E+00 0.  1.
          3    1    6    6  503    0 -0.56411630282E+03  0.10950327243E+04  0.15151058638E+03  0.12410799040E+04  0.00000000000E+00 0. -1.
         -3    1    6    6    0  503 -0.55084139406E+02  0.88761271566E+02  0.38876245213E+02  0.11146384250E+03  0.00000000000E+00 0.  1.
<mgrwt>
<rscale>  0 0.13723714E+04</rscale>
<asrwt>0</asrwt>
<pdfrwt beam="1">  1        1 0.34493172E+00 0.13723714E+04</pdfrwt>
<pdfrwt beam="2">  1       -1 0.16619820E+00 0.13723714E+04</pdfrwt>
<totfact> 0.51504200E-01</totfact>
</mgrwt>
</event>
<event>
12    1  0.3147868E-008  0.3989749E+03  0.7818608E-02  0.1044135E+00
          1   -1    0    0  501    0  0.00000000000E+00  0.00000000000E+00  0.57952535581E+03  0.57952535581E+03  0.00000000000E+00 0. -1.
         -1   -1    0    0    0  501 -0.00000000000E+00 -0.00000000000E+00 -0.41431832048E+03  0.41431832048E+03  0.00000000000E+00 0.  1.
         23    2    1    2    0    0 -0.94342256708E+02  0.18334846689E+03 -0.16788232371E+03  0.27755967798E+03  0.79610165884E+02 0.  0.
    5000000    2    1    2    0    0  0.94342256708E+02 -0.18334846689E+03  0.33308935905E+03  0.71628399831E+03  0.59966417553E+03 0.  0.
         23    2    4    4    0    0 -0.22455101476E+03 -0.62468006225E+02  0.32563221195E+02  0.25277123851E+03  0.92236248906E+02 0.  0.
         23    2    4    4    0    0  0.31889327147E+03 -0.12088046067E+03  0.30052613785E+03  0.46351275980E+03  0.90681390643E+02 0.  0.
          5    1    3    3  502    0 -0.70778589029E+02  0.84059406971E+02 -0.12572887989E+03  0.16704919576E+03  0.47000000000E+01 0. -1.
         -5    1    3    3    0  502 -0.23563667680E+02  0.99289059924E+02 -0.42153443825E+02  0.11051048222E+03  0.47000000000E+01 0.  1.
         11    1    5    5    0    0 -0.14201937676E+03 -0.30365644558E+02 -0.24699599499E+02  0.14731478527E+03  0.00000000000E+00 0. -1.
        -11    1    5    5    0    0 -0.82531637997E+02 -0.32102361667E+02  0.57262820693E+02  0.10545645323E+03  0.00000000000E+00 0.  1.
          1    1    6    6  503    0  0.66287931130E+02 -0.65960512637E+02  0.65845951220E+02  0.11437031229E+03  0.00000000000E+00 0. -1.
         -1    1    6    6    0  503  0.25260534034E+03 -0.54919948032E+02  0.23468018663E+03  0.34914244752E+03  0.00000000000E+00 0.  1.
<mgrwt>
<rscale>  0 0.39897490E+03</rscale>
<asrwt>0</asrwt>
<pdfrwt beam="1">  1        1 0.89157747E-01 0.39897490E+03</pdfrwt>
<pdfrwt beam="2">  1       -1 0.63741280E-01 0.39897490E+03</pdfrwt>
<totfact> 0.94659275E+01</totfact>
</mgrwt>
</event>
<event>
12    1  0.3147868E-008  0.8516951E+03  0.7818608E-02  0.9488065E-01
          2   -1    0    0  501    0  0.00000000000E+00  0.00000000000E+00  0.10761660664E+04  0.10761660664E+04  0.00000000000E+00 0. -1.
         -2   -1    0    0    0  501 -0.00000000000E+00 -0.00000000000E+00 -0.74720512052E+03  0.74720512052E+03  0.00000000000E+00 0.  1.
         23    2    1    2    0    0  0.73045408677E+03  0.18796839830E+03  0.39679564648E+03  0.85717627066E+03  0.91701048481E+02 0.  0.
    5000000    2    1    2    0    0 -0.73045408677E+03 -0.18796839830E+03 -0.67834700644E+02  0.96619491621E+03  0.60002981415E+03 0.  0.
         23    2    4    4    0    0 -0.75477214343E+03 -0.29885987457E+03 -0.70520326064E+02  0.81998451324E+03  0.91669364806E+02 0.  0.
         23    2    4    4    0    0  0.24318056664E+02  0.11089147627E+03  0.26856254206E+01  0.14621040297E+03  0.92097676206E+02 0.  0.
          5    1    3    3  502    0  0.26009840865E+03  0.11186263419E+03  0.15579819553E+03  0.32320210216E+03  0.47000000000E+01 0. -1.
         -5    1    3    3    0  502  0.47035567811E+03  0.76105764111E+02  0.24099745094E+03  0.53397416850E+03  0.47000000000E+01 0.  1.
         13    1    5    5    0    0 -0.56681236530E+03 -0.18067563840E+03 -0.52844737842E+02  0.59725414196E+03  0.00000000000E+00 0. -1.
        -13    1    5    5    0    0 -0.18795977813E+03 -0.11818423617E+03 -0.17675588222E+02  0.22273037129E+03  0.00000000000E+00 0.  1.
          3    1    6    6  503    0 -0.15616097648E+02  0.60515026347E+02 -0.35063562842E+02  0.71661596122E+02  0.00000000000E+00 0. -1.
         -3    1    6    6    0  503  0.39934154312E+02  0.50376449926E+02  0.37749188263E+02  0.74548806847E+02  0.00000000000E+00 0.  1.
<mgrwt>
<rscale>  0 0.85169512E+03</rscale>
<asrwt>0</asrwt>
<pdfrwt beam="1">  1        2 0.16556401E+00 0.85169512E+03</pdfrwt>
<pdfrwt beam="2">  1       -2 0.11495463E+00 0.85169512E+03</pdfrwt>
<totfact> 0.13393286E+01</totfact>
</mgrwt>
</event>
<event>
12    1  0.3147868E-008  0.1243808E+04  0.7818608E-02  0.9075353E-01
         -2   -1    0    0    0  501 -0.00000000000E+00  0.00000000000E+00  0.12791400414E+04  0.12791400414E+04  0.00000000000E+00 0.  1.
          2   -1    0    0  501    0  0.00000000000E+00 -0.00000000000E+00 -0.12550188198E+04  0.12550188198E+04  0.00000000000E+00 0. -1.
         23    2    1    2    0    0  0.38117896345E+03  0.11140391263E+04 -0.18792495939E+03  0.11957871720E+04  0.90612324288E+02 0.  0.
    5000000    2    1    2    0    0 -0.38117896345E+03 -0.11140391263E+04  0.21204618099E+03  0.13383716891E+04  0.59991217551E+03 0.  0.
         23    2    4    4    0    0 -0.47388343412E+03 -0.50467878382E+03  0.13133148585E+03  0.71080566333E+03  0.93437400787E+02 0.  0.
         23    2    4    4    0    0  0.92704470679E+02 -0.60936034245E+03  0.80714695143E+02  0.62756602579E+03  0.86081989292E+02 0.  0.
          5    1    3    3  502    0  0.35454456641E+03  0.98966819657E+03 -0.14370074175E+03  0.10610452309E+04  0.47000000000E+01 0. -1.
         -5    1    3    3    0  502  0.26634397040E+02  0.12437092970E+03 -0.44224217637E+02  0.13474194108E+03  0.47000000000E+01 0.  1.
         13    1    5    5    0    0 -0.29622133388E+03 -0.32144426636E+03  0.12831992678E+03  0.45556503227E+03  0.00000000000E+00 0. -1.
        -13    1    5    5    0    0 -0.17766210025E+03 -0.18323451747E+03  0.30115590670E+01  0.25524063106E+03  0.00000000000E+00 0.  1.
          2    1    6    6  503    0  0.63622880378E+02 -0.47588358594E+03  0.97540089480E+02  0.48992563449E+03  0.00000000000E+00 0. -1.
         -2    1    6    6    0  503  0.29081590301E+02 -0.13347675651E+03 -0.16825394337E+02  0.13764039130E+03  0.00000000000E+00 0.  1.
<mgrwt>
<rscale>  0 0.12438076E+04</rscale>
<asrwt>0</asrwt>
<pdfrwt beam="1">  1        2 0.19307982E+00 0.12438076E+04</pdfrwt>
<pdfrwt beam="2">  1       -2 0.19679078E+00 0.12438076E+04</pdfrwt>
<totfact> 0.23713216E+00</totfact>
</mgrwt>
</event>
<event>
12    1  0.3147868E-008  0.8403377E+03  0.7818608E-02  0.9503398E-01
         -1   -1    0    0    0  501 -0.00000000000E+00  0.00000000000E+00  0.10180254419E+04  0.10180254419E+04  0.00000000000E+00 0.  1.
          1   -1    0    0  501    0  0.00000000000E+00 -0.00000000000E+00 -0.74011689057E+03  0.74011689057E+03  0.00000000000E+00 0. -1.
         23    2    1    2    0    0  0.11016049481E+03  0.73972767473E+03  0.26671395803E+03  0.79917789683E+03  0.90645507313E+02 0.  0.
    5000000    2    1    2    0    0 -0.11016049481E+03 -0.73972767473E+03  0.11194593300E+02  0.95896443563E+03  0.60012923817E+03 0.  0.
         23    2    4    4    0    0 -0.25312038631E+03 -0.71862264718E+03 -0.66842053821E+02  0.77021189654E+03  0.90939905458E+02 0.  0.
         23    2    4    4    0    0  0.14295989150E+03 -0.21105027554E+02  0.78036647121E+02  0.18875253910E+03  0.93031446063E+02 0.  0.
          5    1    3    3  502    0  0.65672872031E+02  0.64765615623E+03  0.23064251869E+03  0.69064425303E+03  0.47000000000E+01 0. -1.
         -5    1    3    3    0  502  0.44487622779E+02  0.92071518506E+02  0.36071439347E+02  0.10853364380E+03  0.47000000000E+01 0.  1.
         11    1    5    5    0    0 -0.88981193587E+02 -0.24684148765E+03 -0.66530217172E+02  0.27069289358E+03  0.00000000000E+00 0.  1.
        -11    1    5    5    0    0 -0.16413919272E+03 -0.47178115953E+03 -0.31183664870E+00  0.49951900296E+03  0.00000000000E+00 0. -1.
          1    1    6    6  503    0  0.34952848899E+02 -0.42784819139E+02  0.51302588171E+02  0.75393620075E+02  0.00000000000E+00 0. -1.
         -1    1    6    6    0  503  0.10800704260E+03  0.21679791584E+02  0.26734058949E+02  0.11335891902E+03  0.00000000000E+00 0.  1.
<mgrwt>
<rscale>  0 0.84033773E+03</rscale>
<asrwt>0</asrwt>
<pdfrwt beam="1">  1        1 0.11386414E+00 0.84033773E+03</pdfrwt>
<pdfrwt beam="2">  1       -1 0.15661930E+00 0.84033773E+03</pdfrwt>
<totfact> 0.79120118E+00</totfact>
</mgrwt>
</event>
<event>
12    1  0.3147868E-008  0.1203128E+04  0.7818608E-02  0.9110123E-01
          2   -1    0    0  501    0  0.00000000000E+00  0.00000000000E+00  0.24788609507E+04  0.24788609507E+04  0.00000000000E+00 0.  1.
         -2   -1    0    0    0  501 -0.00000000000E+00 -0.00000000000E+00 -0.60434733818E+03  0.60434733818E+03  0.00000000000E+00 0. -1.
         23    2    1    2    0    0 -0.76740011102E+03 -0.85358855708E+03  0.83012365879E+03  0.14193935462E+04  0.89757422079E+02 0.  0.
    5000000    2    1    2    0    0  0.76740011102E+03  0.85358855708E+03  0.10443899537E+04  0.16638147427E+04  0.60001063948E+03 0.  0.
         23    2    4    4    0    0  0.53943707847E+03  0.22031996759E+03  0.65106831495E+03  0.87875490915E+03  0.93738945328E+02 0.  0.
         23    2    4    4    0    0  0.22796303255E+03  0.63326858949E+03  0.39332163879E+03  0.78505983359E+03  0.92848156300E+02 0.  0.
          5    1    3    3  502    0 -0.22551194329E+03 -0.25324434603E+03  0.29641231977E+03  0.45041168798E+03  0.47000000000E+01 0. -1.
         -5    1    3    3    0  502 -0.54188816773E+03 -0.60034421105E+03  0.53371133902E+03  0.96898185817E+03  0.47000000000E+01 0.  1.
         13    1    5    5    0    0  0.32516196596E+03  0.16166673612E+03  0.34781302803E+03  0.50283231812E+03  0.00000000000E+00 0.  1.
        -13    1    5    5    0    0  0.21427511251E+03  0.58653231477E+02  0.30325528692E+03  0.37592259103E+03  0.00000000000E+00 0. -1.
          3    1    6    6  503    0  0.25738068117E+01  0.94126847403E+01 -0.53720361203E+01  0.11139204981E+02  0.00000000000E+00 0. -1.
         -3    1    6    6    0  503  0.22538922574E+03  0.62385590475E+03  0.39869367491E+03  0.77392062861E+03  0.00000000000E+00 0.  1.
<mgrwt>
<rscale>  0 0.12031276E+04</rscale>
<asrwt>0</asrwt>
<pdfrwt beam="1">  1        2 0.38136322E+00 0.12031276E+04</pdfrwt>
<pdfrwt beam="2">  1       -2 0.92976515E-01 0.12031276E+04</pdfrwt>
<totfact> 0.34522319E+00</totfact>
</mgrwt>
</event>
<event>
12    1  0.3147868E-008  0.9587180E+03  0.7818608E-02  0.9355018E-01
          2   -1    0    0  501    0  0.00000000000E+00  0.00000000000E+00  0.22858470642E+04  0.22858470642E+04  0.00000000000E+00 0. -1.
         -2   -1    0    0    0  501 -0.00000000000E+00 -0.00000000000E+00 -0.46639523772E+03  0.46639523772E+03  0.00000000000E+00 0.  1.
         23    2    1    2    0    0 -0.74453907420E+03 -0.48163416756E+03  0.40688741159E+03  0.97983457995E+03  0.90600960174E+02 0.  0.
    5000000    2    1    2    0    0  0.74453907420E+03  0.48163416756E+03  0.14125644149E+04  0.17724077220E+04  0.59981747419E+03 0.  0.
         23    2    4    4    0    0  0.67431678379E+03  0.59070246543E+03  0.11144875537E+04  0.14332368932E+04  0.91939963968E+02 0.  0.
         23    2    4    4    0    0  0.70222290407E+02 -0.10906829787E+03  0.29807686117E+03  0.33917082881E+03  0.96746949727E+02 0.  0.
          5    1    3    3  502    0 -0.47456398531E+03 -0.26617539857E+03  0.21853745369E+03  0.58637959346E+03  0.47000000000E+01 0. -1.
         -5    1    3    3    0  502 -0.26997508888E+03 -0.21545876899E+03  0.18834995789E+03  0.39345498649E+03  0.47000000000E+01 0.  1.
         11    1    5    5    0    0  0.48888814488E+03  0.39498647588E+03  0.72449077326E+03  0.95912085519E+03  0.00000000000E+00 0. -1.
        -11    1    5    5    0    0  0.18542863891E+03  0.19571598954E+03  0.38999678045E+03  0.47411603797E+03  0.00000000000E+00 0.  1.
          4    1    6    6  503    0  0.27000983661E+02 -0.43991140530E+02  0.29476685629E+02  0.59440294073E+02  0.00000000000E+00 0. -1.
         -4    1    6    6    0  503  0.43221306746E+02 -0.65077157338E+02  0.26860017554E+03  0.27973053474E+03  0.00000000000E+00 0.  1.
<mgrwt>
<rscale>  0 0.95871798E+03</rscale>
<asrwt>0</asrwt>
<pdfrwt beam="1">  1        2 0.35166877E+00 0.95871798E+03</pdfrwt>
<pdfrwt beam="2">  1       -2 0.71753114E-01 0.95871798E+03</pdfrwt>
<totfact> 0.82314793E+00</totfact>
</mgrwt>
</event>
<event>
12    1  0.3147868E-008  0.8892563E+03  0.7818608E-02  0.9439112E-01
         -1   -1    0    0    0  501 -0.00000000000E+00  0.00000000000E+00  0.10754455462E+04  0.10754455462E+04  0.00000000000E+00 0.  1.
          1   -1    0    0  501    0  0.00000000000E+00 -0.00000000000E+00 -0.88472130356E+03  0.88472130356E+03  0.00000000000E+00 0. -1.
         23    2    1    2    0    0 -0.88681230566E+01 -0.80863986863E+03 -0.26375691048E+03  0.85538107782E+03  0.90177601010E+02 0.  0.
    5000000    2    1    2    0    0  0.88681230566E+01  0.80863986863E+03  0.45448115310E+03  0.11047857719E+04  0.60001783521E+03 0.  0.
         23    2    4    4    0    0 -0.14950074686E+03  0.12652680499E+02  0.15925496584E+03  0.23665966751E+03  0.90194736237E+02 0.  0.
         23    2    4    4    0    0  0.15836886992E+03  0.79598718813E+03  0.29522618725E+03  0.86812610440E+03  0.88363617439E+02 0.  0.
          5    1    3    3  502    0  0.32974483077E+02 -0.56805327461E+03 -0.17176348515E+03  0.59438760431E+03  0.47000000000E+01 0. -1.
         -5    1    3    3    0  502 -0.41842606134E+02 -0.24058659402E+03 -0.91993425329E+02  0.26099347351E+03  0.47000000000E+01 0.  1.
         13    1    5    5    0    0 -0.93657717237E+02  0.37589014769E+01  0.15345322993E+03  0.17981599238E+03  0.00000000000E+00 0.  1.
        -13    1    5    5    0    0 -0.55843029623E+02  0.88937790224E+01  0.58017359092E+01  0.56843675130E+02  0.00000000000E+00 0. -1.
          3    1    6    6  503    0  0.48767846781E+02  0.43436293004E+03  0.18386682533E+03  0.47419032817E+03  0.00000000000E+00 0. -1.
         -3    1    6    6    0  503  0.10960102314E+03  0.36162425808E+03  0.11135936192E+03  0.39393577623E+03  0.00000000000E+00 0.  1.
<mgrwt>
<rscale>  0 0.88925630E+03</rscale>
<asrwt>0</asrwt>
<pdfrwt beam="1">  1        1 0.13611097E+00 0.88925630E+03</pdfrwt>
<pdfrwt beam="2">  1       -1 0.16545316E+00 0.88925630E+03</pdfrwt>
<totfact> 0.50607345E+00</totfact>
</mgrwt>
</event>
<event>
12    1  0.3147868E-008  0.1484005E+04  0.7818608E-02  0.8895160E-01
         -2   -1    0    0    0  501 -0.00000000000E+00  0.00000000000E+00  0.13720513410E+04  0.13720513410E+04  0.00000000000E+00 0.  1.
          2   -1    0    0  501    0  0.00000000000E+00 -0.00000000000E+00 -0.17844997434E+04  0.17844997434E+04  0.00000000000E+00 0. -1.
         23    2    1    2    0    0 -0.23321204716E+03  0.14137275467E+04 -0.66599726951E+03  0.15826132341E+04  0.89993613411E+02 0.  0.
    5000000    2    1    2    0    0  0.23321204716E+03 -0.14137275467E+04  0.25354886707E+03  0.15739378503E+04  0.59998324420E+03 0.  0.
         23    2    4    4    0    0  0.40141883427E+03 -0.90133306452E+03  0.54587520112E+02  0.99177594217E+03  0.84269498681E+02 0.  0.
         23    2    4    4    0    0 -0.16820678711E+03 -0.51239448219E+03  0.19896134696E+03  0.58216190813E+03  0.92115368306E+02 0.  0.
          5    1    3    3  502    0 -0.12199770529E+02  0.21832523399E+03 -0.78012314161E+02  0.23221273299E+03  0.47000000000E+01 0. -1.
         -5    1    3    3    0  502 -0.22101227663E+03  0.11954023127E+04 -0.58798495535E+03  0.13504005011E+04  0.47000000000E+01 0.  1.
         11    1    5    5    0    0  0.17013169938E+03 -0.34187438660E+03 -0.16563883086E+02  0.38222670442E+03  0.00000000000E+00 0. -1.
        -11    1    5    5    0    0  0.23128713489E+03 -0.55945867792E+03  0.71151403197E+02  0.60954923775E+03  0.00000000000E+00 0.  1.
          4    1    6    6  503    0 -0.10571051942E+03 -0.18504797972E+03  0.92379439323E+02  0.23227447024E+03  0.00000000000E+00 0. -1.
         -4    1    6    6    0  503 -0.62496267687E+02 -0.32734650247E+03  0.10658190764E+03  0.34988743789E+03  0.00000000000E+00 0.  1.
<mgrwt>
<rscale>  0 0.14840048E+04</rscale>
<asrwt>0</asrwt>
<pdfrwt beam="1">  1        2 0.27453842E+00 0.14840048E+04</pdfrwt>
<pdfrwt beam="2">  1       -2 0.21108482E+00 0.14840048E+04</pdfrwt>
<totfact> 0.93327468E-01</totfact>
</mgrwt>
</event>
<event>
12    1  0.3147868E-008  0.7909692E+03  0.7818608E-02  0.9573182E-01
         -2   -1    0    0    0  501 -0.00000000000E+00  0.00000000000E+00  0.10608917555E+04  0.10608917555E+04  0.00000000000E+00 0.  1.
          2   -1    0    0  501    0  0.00000000000E+00 -0.00000000000E+00 -0.60527442225E+03  0.60527442225E+03  0.00000000000E+00 0. -1.
         23    2    1    2    0    0 -0.15235210612E+03 -0.66185316433E+03  0.29393072648E+03  0.74561197604E+03  0.91000942121E+02 0.  0.
    5000000    2    1    2    0    0  0.15235210612E+03  0.66185316433E+03  0.16168660675E+03  0.92055420169E+03  0.60001391989E+03 0.  0.
         23    2    4    4    0    0  0.58286782138E+02  0.74167615032E+03  0.10425247917E+03  0.75691114388E+03  0.92547497981E+02 0.  0.
         23    2    4    4    0    0  0.94065323986E+02 -0.79822985991E+02  0.57434127588E+02  0.16364305781E+03  0.90886616660E+02 0.  0.
          5    1    3    3  502    0 -0.11178431320E+03 -0.29474158226E+03  0.15082319240E+03  0.34948255802E+03  0.47000000000E+01 0.  1.
         -5    1    3    3    0  502 -0.40567792925E+02 -0.36711158207E+03  0.14310753408E+03  0.39612941803E+03  0.47000000000E+01 0. -1.
         11    1    5    5    0    0  0.26582896529E+02  0.66867882985E+03  0.10455677686E+03  0.67732573217E+03  0.00000000000E+00 0. -1.
        -11    1    5    5    0    0  0.31703885609E+02  0.72997320479E+02 -0.30429769270E+00  0.79585411709E+02  0.00000000000E+00 0.  1.
          1    1    6    6  503    0  0.54669036523E+02 -0.92220541749E+02  0.58889653181E+02  0.12231648755E+03  0.00000000000E+00 0. -1.
         -1    1    6    6    0  503  0.39396287462E+02  0.12397555757E+02 -0.14555255932E+01  0.41326570258E+02  0.00000000000E+00 0.  1.
<mgrwt>
<rscale>  0 0.79096918E+03</rscale>
<asrwt>0</asrwt>
<pdfrwt beam="1">  1        2 0.93119142E-01 0.79096918E+03</pdfrwt>
<pdfrwt beam="2">  1       -2 0.16321412E+00 0.79096918E+03</pdfrwt>
<totfact> 0.11839878E+01</totfact>
</mgrwt>
</event>
<event>
12    1  0.3147868E-008  0.1170673E+04  0.7818608E-02  0.9138921E-01
         -1   -1    0    0    0  501 -0.00000000000E+00  0.00000000000E+00  0.90431156463E+03  0.90431156463E+03  0.00000000000E+00 0.  1.
          1   -1    0    0  501    0  0.00000000000E+00 -0.00000000000E+00 -0.15716442179E+04  0.15716442179E+04  0.00000000000E+00 0. -1.
         23    2    1    2    0    0  0.88137289281E+03 -0.67274530819E+03 -0.19524889214E+03  0.11297558113E+04  0.93923571848E+02 0.  0.
    5000000    2    1    2    0    0 -0.88137289281E+03  0.67274530819E+03 -0.47208376118E+03  0.13461999713E+04  0.59998904930E+03 0.  0.
         23    2    4    4    0    0 -0.55008740566E+03  0.70531506332E+03 -0.43556579393E+03  0.99897258748E+03  0.90350303128E+02 0.  0.
         23    2    4    4    0    0 -0.33128548715E+03 -0.32569755128E+02 -0.36517967252E+02  0.34722738382E+03  0.91773804533E+02 0.  0.
          5    1    3    3  502    0  0.53713288304E+03 -0.42044957048E+03 -0.74565072303E+02  0.68620085643E+03  0.47000000000E+01 0. -1.
         -5    1    3    3    0  502  0.34424000977E+03 -0.25229573771E+03 -0.12068381984E+03  0.44355495484E+03  0.47000000000E+01 0.  1.
         11    1    5    5    0    0 -0.19626443945E+03  0.18444200968E+03 -0.13176641699E+03  0.29983491087E+03  0.00000000000E+00 0.  1.
        -11    1    5    5    0    0 -0.35382296620E+03  0.52087305364E+03 -0.30379937694E+03  0.69913767661E+03  0.00000000000E+00 0. -1.
          2    1    6    6  503    0 -0.88050815661E+02 -0.16722759218E+02 -0.50869593947E+02  0.10305489995E+03  0.00000000000E+00 0. -1.
         -2    1    6    6    0  503 -0.24323467149E+03 -0.15846995911E+02  0.14351626695E+02  0.24417248388E+03  0.00000000000E+00 0.  1.
<mgrwt>
<rscale>  0 0.11706729E+04</rscale>
<asrwt>0</asrwt>
<pdfrwt beam="1">  1        1 0.24179142E+00 0.11706729E+04</pdfrwt>
<pdfrwt beam="2">  1       -1 0.13912486E+00 0.11706729E+04</pdfrwt>
<totfact> 0.24495202E+00</totfact>
</mgrwt>
</event>
<event>
12    1  0.3147868E-008  0.1058738E+04  0.7818608E-02  0.9246369E-01
          2   -1    0    0  501    0  0.00000000000E+00  0.00000000000E+00  0.12816406005E+04  0.12816406005E+04  0.00000000000E+00 0. -1.
         -2   -1    0    0    0  501 -0.00000000000E+00 -0.00000000000E+00 -0.13641254975E+04  0.13641254975E+04  0.00000000000E+00 0.  1.
         23    2    1    2    0    0  0.56026550292E+03  0.84703764868E+03 -0.77344024241E+03  0.12788108356E+04  0.76007450554E+02 0.  0.
    5000000    2    1    2    0    0 -0.56026550292E+03 -0.84703764868E+03  0.69095534540E+03  0.13669552624E+04  0.59981429465E+03 0.  0.
         23    2    4    4    0    0 -0.60100726405E+03 -0.71168594482E+03  0.73834614881E+03  0.11920439237E+04  0.90039242486E+02 0.  0.
         23    2    4    4    0    0  0.40741761132E+02 -0.13535170386E+03 -0.47390803409E+02  0.17491133867E+03  0.91477392340E+02 0.  0.
          5    1    3    3  502    0  0.17281085392E+03  0.32146028608E+03 -0.29531799552E+03  0.46950518127E+03  0.47000000000E+01 0. -1.
         -5    1    3    3    0  502  0.38745464900E+03  0.52557736259E+03 -0.47812224689E+03  0.80930565429E+03  0.47000000000E+01 0.  1.
         13    1    5    5    0    0 -0.42191865484E+03 -0.50791515022E+03  0.57363747198E+03  0.87467313917E+03  0.00000000000E+00 0. -1.
        -13    1    5    5    0    0 -0.17908860921E+03 -0.20377079461E+03  0.16470867683E+03  0.31737078458E+03  0.00000000000E+00 0.  1.
          2    1    6    6  503    0 -0.24933046648E+02 -0.10912214505E+02 -0.12463717774E+02  0.29934553635E+02  0.00000000000E+00 0.  1.
         -2    1    6    6    0  503  0.65674807780E+02 -0.12443948935E+03 -0.34927085635E+02  0.14497678503E+03  0.00000000000E+00 0. -1.
<mgrwt>
<rscale>  0 0.10587378E+04</rscale>
<asrwt>0</asrwt>
<pdfrwt beam="1">  1        2 0.19717548E+00 0.10587378E+04</pdfrwt>
<pdfrwt beam="2">  1       -2 0.20986546E+00 0.10587378E+04</pdfrwt>
<totfact> 0.19170825E+00</totfact>
</mgrwt>
</event>
<event>
12    1  0.3147868E-008  0.4024905E+03  0.7818608E-02  0.1042921E+00
          2   -1    0    0  501    0  0.00000000000E+00  0.00000000000E+00  0.16510008980E+04  0.16510008980E+04  0.00000000000E+00 0. -1.
         -2   -1    0    0    0  501 -0.00000000000E+00 -0.00000000000E+00 -0.11583217778E+03  0.11583217778E+03  0.00000000000E+00 0.  1.
         23    2    1    2    0    0  0.12671442503E+03 -0.16975486433E+03  0.30016408251E+03  0.37758154824E+03  0.87155548685E+02 0.  0.
    5000000    2    1    2    0    0 -0.12671442503E+03  0.16975486433E+03  0.12350046377E+04  0.13892515275E+04  0.59992507210E+03 0.  0.
         23    2    4    4    0    0 -0.13147524942E+03 -0.17866653116E+03  0.29252357883E+03  0.38009954892E+03  0.98479197537E+02 0.  0.
         23    2    4    4    0    0  0.47608243856E+01  0.34842139550E+03  0.94248105886E+03  0.10091519786E+04  0.93257896877E+02 0.  0.
          5    1    3    3  502    0  0.43395873789E+02 -0.91156760862E+02  0.78298413095E+02  0.12784947558E+03  0.47000000000E+01 0. -1.
         -5    1    3    3    0  502  0.83318551241E+02 -0.78598103470E+02  0.22186566941E+03  0.24973207266E+03  0.47000000000E+01 0.  1.
         13    1    5    5    0    0 -0.86227370669E+02 -0.68418646844E+02  0.20344736667E+03  0.23131602126E+03  0.00000000000E+00 0.  1.
        -13    1    5    5    0    0 -0.45247878746E+02 -0.11024788432E+03  0.89076212165E+02  0.14878352766E+03  0.00000000000E+00 0. -1.
          4    1    6    6  503    0  0.47492940556E+02  0.20136681666E+03  0.51052036914E+03  0.55084954530E+03  0.00000000000E+00 0. -1.
         -4    1    6    6    0  503 -0.42732116170E+02  0.14705457884E+03  0.43196068972E+03  0.45830243331E+03  0.00000000000E+00 0.  1.
<mgrwt>
<rscale>  0 0.40249051E+03</rscale>
<asrwt>0</asrwt>
<pdfrwt beam="1">  1        2 0.25400012E+00 0.40249051E+03</pdfrwt>
<pdfrwt beam="2">  1       -2 0.17820336E-01 0.40249051E+03</pdfrwt>
<totfact> 0.28623581E+02</totfact>
</mgrwt>
</event>
<event>
12    1  0.3147868E-008  0.1265952E+04  0.7818608E-02  0.9057010E-01
          2   -1    0    0  501    0  0.00000000000E+00  0.00000000000E+00  0.20725539025E+04  0.20725539025E+04  0.00000000000E+00 0. -1.
         -2   -1    0    0    0  501 -0.00000000000E+00 -0.00000000000E+00 -0.86208953129E+03  0.86208953129E+03  0.00000000000E+00 0.  1.
         23    2    1    2    0    0  0.72790679476E+03 -0.10220870226E+04  0.37890841863E+03  0.13142061240E+04  0.95162823756E+02 0.  0.
    5000000    2    1    2    0    0 -0.72790679476E+03  0.10220870226E+04  0.83155595253E+03  0.16204373098E+04  0.59985130581E+03 0.  0.
         23    2    4    4    0    0 -0.24054884934E+03  0.25707571496E+03 -0.29859800964E+02  0.36581746493E+03  0.94758312508E+02 0.  0.
         23    2    4    4    0    0 -0.48735794541E+03  0.76501130762E+03  0.86141575349E+03  0.12546198448E+04  0.96300503276E+02 0.  0.
          5    1    3    3  502    0  0.60926472276E+03 -0.90586102483E+03  0.31562634393E+03  0.11364109194E+04  0.47000000000E+01 0. -1.
         -5    1    3    3    0  502  0.11864207200E+03 -0.11622599775E+03  0.63282074707E+02  0.17779520460E+03  0.47000000000E+01 0.  1.
         11    1    5    5    0    0 -0.24777466362E+03  0.24471949786E+03 -0.20791473207E+02  0.34887275893E+03  0.00000000000E+00 0. -1.
        -11    1    5    5    0    0  0.72258142784E+01  0.12356217094E+02 -0.90683277563E+01  0.16944705992E+02  0.00000000000E+00 0.  1.
          1    1    6    6  503    0 -0.46619841653E+03  0.75663528708E+03  0.83173192960E+03  0.12172164655E+04  0.00000000000E+00 0. -1.
         -1    1    6    6    0  503 -0.21159528888E+02  0.83760205459E+01  0.29683823888E+02  0.37403379306E+02  0.00000000000E+00 0.  1.
<mgrwt>
<rscale>  0 0.12659522E+04</rscale>
<asrwt>0</asrwt>
<pdfrwt beam="1">  1        2 0.31885445E+00 0.12659522E+04</pdfrwt>
<pdfrwt beam="2">  1       -2 0.13262916E+00 0.12659522E+04</pdfrwt>
<totfact> 0.24332264E+00</totfact>
</mgrwt>
</event>
<event>
12    1  0.3147868E-008  0.3874895E+03  0.7818608E-02  0.1048200E+00
         -2   -1    0    0    0  501 -0.00000000000E+00  0.00000000000E+00  0.18059126520E+04  0.18059126520E+04  0.00000000000E+00 0. -1.
          2   -1    0    0  501    0  0.00000000000E+00 -0.00000000000E+00 -0.16932920813E+04  0.16932920813E+04  0.00000000000E+00 0.  1.
         23    2    1    2    0    0  0.33861148815E+03 -0.10536667307E+03 -0.16046201851E+04  0.16459175586E+04  0.92080375179E+02 0.  0.
    5000000    2    1    2    0    0 -0.33861148815E+03  0.10536667307E+03  0.17172407558E+04  0.18532871747E+04  0.59999805226E+03 0.  0.
         23    2    4    4    0    0 -0.90150193304E+02  0.10610581539E+03  0.63957299119E+02  0.17882105356E+03  0.92200497136E+02 0.  0.
         23    2    4    4    0    0 -0.24846129484E+03 -0.73914231294E+00  0.16532834567E+04  0.16744661211E+04  0.93579064215E+02 0.  0.
          5    1    3    3  502    0  0.25891249610E+03 -0.43035449145E+02 -0.10651103959E+04  0.10969822131E+04  0.47000000000E+01 0. -1.
         -5    1    3    3    0  502  0.79698992052E+02 -0.62331223929E+02 -0.53950978928E+03  0.54893534550E+03  0.47000000000E+01 0.  1.
         11    1    5    5    0    0  0.85738201797E+01  0.45049122939E+02  0.38747902143E+02  0.60036104058E+02  0.00000000000E+00 0. -1.
        -11    1    5    5    0    0 -0.98724013484E+02  0.61056692449E+02  0.25209396977E+02  0.11878494950E+03  0.00000000000E+00 0.  1.
          3    1    6    6  503    0 -0.16379245011E+03  0.88865673084E+01  0.13324542365E+04  0.13425130279E+04  0.00000000000E+00 0. -1.
         -3    1    6    6    0  503 -0.84668844736E+02 -0.96257096214E+01  0.32082922021E+03  0.33195309322E+03  0.00000000000E+00 0.  1.
<mgrwt>
<rscale>  0 0.38748946E+03</rscale>
<asrwt>0</asrwt>
<pdfrwt beam="1">  1        2 0.26050647E+00 0.38748946E+03</pdfrwt>
<pdfrwt beam="2">  1       -2 0.27783271E+00 0.38748946E+03</pdfrwt>
<totfact> 0.50713401E-01</totfact>
</mgrwt>
</event>
<event>
12    1  0.3147868E-008  0.1582681E+04  0.7818608E-02  0.8831259E-01
         -1   -1    0    0    0  501 -0.00000000000E+00  0.00000000000E+00  0.16863085243E+04  0.16863085243E+04  0.00000000000E+00 0.  1.
          1   -1    0    0  501    0  0.00000000000E+00 -0.00000000000E+00 -0.15847587551E+04  0.15847587551E+04  0.00000000000E+00 0. -1.
         23    2    1    2    0    0 -0.56656313478E+03  0.14703019776E+04 -0.42352401479E+02  0.15789097949E+04  0.91546291650E+02 0.  0.
    5000000    2    1    2    0    0  0.56656313478E+03 -0.14703019776E+04  0.14390217066E+03  0.16921574844E+04  0.59992285034E+03 0.  0.
         23    2    4    4    0    0  0.26618063933E+03 -0.86833388833E+03 -0.19436646138E+03  0.93317005413E+03  0.90399968091E+02 0.  0.
         23    2    4    4    0    0  0.30038249545E+03 -0.60196808926E+03  0.33826863204E+03  0.75898743029E+03  0.95084319733E+02 0.  0.
          5    1    3    3  502    0 -0.10375442506E+03  0.28182741875E+03  0.27294418391E+02  0.30159368355E+03  0.47000000000E+01 0. -1.
         -5    1    3    3    0  502 -0.46280870972E+03  0.11884745588E+04 -0.69646819870E+02  0.12773161114E+04  0.47000000000E+01 0.  1.
         13    1    5    5    0    0  0.18360722720E+03 -0.47008772782E+03 -0.13248972130E+03  0.52177352556E+03  0.00000000000E+00 0. -1.
        -13    1    5    5    0    0  0.82573412134E+02 -0.39824616051E+03 -0.61876740080E+02  0.41139652857E+03  0.00000000000E+00 0.  1.
          1    1    6    6  503    0  0.20029002317E+03 -0.30558922555E+03  0.20500755951E+03  0.41896177345E+03  0.00000000000E+00 0. -1.
         -1    1    6    6    0  503  0.10009247228E+03 -0.29637886371E+03  0.13326107253E+03  0.34002565684E+03  0.00000000000E+00 0.  1.
<mgrwt>
<rscale>  0 0.15826813E+04</rscale>
<asrwt>0</asrwt>
<pdfrwt beam="1">  1        1 0.24380904E+00 0.15826813E+04</pdfrwt>
<pdfrwt beam="2">  1       -1 0.25943208E+00 0.15826813E+04</pdfrwt>
<totfact> 0.32398270E-01</totfact>
</mgrwt>
</event>
<event>
12    1  0.3147868E-008  0.5312613E+03  0.7818608E-02  0.1005927E+00
          1   -1    0    0  501    0  0.00000000000E+00  0.00000000000E+00  0.12560445429E+04  0.12560445429E+04  0.00000000000E+00 0. -1.
         -1   -1    0    0    0  501 -0.00000000000E+00 -0.00000000000E+00 -0.92512005591E+03  0.92512005591E+03  0.00000000000E+00 0.  1.
         23    2    1    2    0    0  0.10236450182E+03  0.36973465634E+03  0.10784668052E+04  0.11484917872E+04  0.93597692149E+02 0.  0.
    5000000    2    1    2    0    0 -0.10236450182E+03 -0.36973465634E+03 -0.74754231828E+03  0.10326728116E+04  0.60034274441E+03 0.  0.
         23    2    4    4    0    0  0.22475934119E+03 -0.18770518800E+03 -0.21141055642E+03  0.37231023568E+03  0.90390758178E+02 0.  0.
         23    2    4    4    0    0 -0.32712384301E+03 -0.18202946833E+03 -0.53613176186E+03  0.66036257588E+03  0.92177706281E+02 0.  0.
          5    1    3    3  502    0  0.66223829668E+01  0.14995524622E+03  0.50666277158E+03  0.52845026817E+03  0.47000000000E+01 0. -1.
         -5    1    3    3    0  502  0.95742118852E+02  0.21977941011E+03  0.57180403366E+03  0.62004151904E+03  0.47000000000E+01 0.  1.
         13    1    5    5    0    0  0.16754408520E+03 -0.12610269603E+03 -0.98879252452E+02  0.23184049904E+03  0.00000000000E+00 0.  1.
        -13    1    5    5    0    0  0.57215255995E+02 -0.61602491972E+02 -0.11253130397E+03  0.14046973663E+03  0.00000000000E+00 0. -1.
          3    1    6    6  503    0 -0.89721151120E+02 -0.80715193342E+02 -0.11675584236E+03  0.16791889149E+03  0.00000000000E+00 0. -1.
         -3    1    6    6    0  503 -0.23740269189E+03 -0.10131427499E+03 -0.41937591950E+03  0.49244368439E+03  0.00000000000E+00 0.  1.
<mgrwt>
<rscale>  0 0.53126133E+03</rscale>
<asrwt>0</asrwt>
<pdfrwt beam="1">  1        1 0.19323762E+00 0.53126133E+03</pdfrwt>
<pdfrwt beam="2">  1       -1 0.14232616E+00 0.53126133E+03</pdfrwt>
<totfact> 0.42422501E+00</totfact>
</mgrwt>
</event>
<event>
12    1  0.3147868E-008  0.6421771E+03  0.7818608E-02  0.9821570E-01
          1   -1    0    0  501    0  0.00000000000E+00  0.00000000000E+00  0.23649593216E+04  0.23649593216E+04  0.00000000000E+00 0. -1.
         -1   -1    0    0    0  501 -0.00000000000E+00 -0.00000000000E+00 -0.23220413963E+03  0.23220413963E+03  0.00000000000E+00 0.  1.
         23    2    1    2    0    0 -0.86013217961E+02  0.58975308330E+03  0.11661557363E+04  0.13127544685E+04  0.90543471445E+02 0.  0.
    5000000    2    1    2    0    0  0.86013217961E+02 -0.58975308330E+03  0.96659944559E+03  0.12844089927E+04  0.60015414637E+03 0.  0.
         23    2    4    4    0    0  0.19582646408E+03 -0.22983235225E+03  0.80597078075E+03  0.86519817784E+03  0.88363303059E+02 0.  0.
         23    2    4    4    0    0 -0.10981324612E+03 -0.35992073105E+03  0.16062866484E+03  0.41921081487E+03  0.91292155598E+02 0.  0.
          5    1    3    3  502    0 -0.12356310253E+02  0.21167739234E+03  0.50211877946E+03  0.54507371567E+03  0.47000000000E+01 0. -1.
         -5    1    3    3    0  502 -0.73656907708E+02  0.37807569095E+03  0.66403695689E+03  0.76768075282E+03  0.47000000000E+01 0.  1.
         13    1    5    5    0    0  0.15270791594E+03 -0.18853148259E+03  0.53074073878E+03  0.58356624244E+03  0.00000000000E+00 0.  1.
        -13    1    5    5    0    0  0.43118548146E+02 -0.41300869656E+02  0.27523004197E+03  0.28163193539E+03  0.00000000000E+00 0. -1.
          3    1    6    6  503    0 -0.50499696650E+02 -0.57431493404E+02  0.13538276901E+02  0.77665183563E+02  0.00000000000E+00 0. -1.
         -3    1    6    6    0  503 -0.59313549473E+02 -0.30248923764E+03  0.14709038793E+03  0.34154563131E+03  0.00000000000E+00 0.  1.
<mgrwt>
<rscale>  0 0.64217705E+03</rscale>
<asrwt>0</asrwt>
<pdfrwt beam="1">  1        1 0.36383988E+00 0.64217705E+03</pdfrwt>
<pdfrwt beam="2">  1       -1 0.35723715E-01 0.64217705E+03</pdfrwt>
<totfact> 0.13421078E+01</totfact>
</mgrwt>
</event>
<event>
12    1  0.3147868E-008  0.8144431E+03  0.7818608E-02  0.9539343E-01
          2   -1    0    0  501    0  0.00000000000E+00  0.00000000000E+00  0.74024686982E+03  0.74024686982E+03  0.00000000000E+00 0. -1.
         -2   -1    0    0    0  501 -0.00000000000E+00 -0.00000000000E+00 -0.12761863403E+04  0.12761863403E+04  0.00000000000E+00 0.  1.
         23    2    1    2    0    0 -0.20686368476E+03 -0.72340360317E+03  0.22431065397E+03  0.79027686150E+03  0.90093791036E+02 0.  0.
    5000000    2    1    2    0    0  0.20686368476E+03  0.72340360317E+03 -0.76025012448E+03  0.12261563486E+04  0.59947792486E+03 0.  0.
         23    2    4    4    0    0  0.30939487525E+02  0.69167206262E+03 -0.75090560052E+03  0.10254042629E+04  0.90703844239E+02 0.  0.
         23    2    4    4    0    0  0.17592419723E+03  0.31731540556E+02 -0.93445239598E+01  0.20075208576E+03  0.90872801043E+02 0.  0.
          5    1    3    3  502    0 -0.17583960116E+03 -0.67815433620E+03  0.22287925557E+03  0.73519393469E+03  0.47000000000E+01 0. -1.
         -5    1    3    3    0  502 -0.31024083595E+02 -0.45249266968E+02  0.14313984034E+01  0.55082926805E+02  0.47000000000E+01 0.  1.
         13    1    5    5    0    0 -0.14627544250E+02  0.19882007960E+03 -0.16796819619E+03  0.26068506676E+03  0.00000000000E+00 0.  1.
        -13    1    5    5    0    0  0.45567031775E+02  0.49285198301E+03 -0.58293740434E+03  0.76471919612E+03  0.00000000000E+00 0. -1.
          1    1    6    6  503    0  0.17308743967E+02  0.53744557458E+01 -0.33567034022E+02  0.38147387398E+02  0.00000000000E+00 0. -1.
         -1    1    6    6    0  503  0.15861545327E+03  0.26357084810E+02  0.24222510062E+02  0.16260469836E+03  0.00000000000E+00 0.  1.
<mgrwt>
<rscale>  0 0.81444312E+03</rscale>
<asrwt>0</asrwt>
<pdfrwt beam="1">  1        2 0.11388413E+00 0.81444312E+03</pdfrwt>
<pdfrwt beam="2">  1       -2 0.19633636E+00 0.81444312E+03</pdfrwt>
<totfact> 0.54315452E+00</totfact>
</mgrwt>
</event>
<event>
12    1  0.3147868E-008  0.1165870E+04  0.7818608E-02  0.9143266E-01
          2   -1    0    0  501    0  0.00000000000E+00  0.00000000000E+00  0.60349893529E+03  0.60349893529E+03  0.00000000000E+00 0. -1.
         -2   -1    0    0    0  501 -0.00000000000E+00 -0.00000000000E+00 -0.26961635054E+04  0.26961635054E+04  0.00000000000E+00 0.  1.
         23    2    1    2    0    0  0.54125642032E+03 -0.94893009998E+03 -0.16421099589E+04  0.19743939972E+04  0.90992812945E+02 0.  0.
    5000000    2    1    2    0    0 -0.54125642032E+03  0.94893009998E+03 -0.45055461125E+03  0.13252684435E+04  0.59992511403E+03 0.  0.
         23    2    4    4    0    0 -0.41541545479E+03  0.99260733357E+03 -0.36790727925E+03  0.11404379790E+04  0.86044750297E+02 0.  0.
         23    2    4    4    0    0 -0.12584096553E+03 -0.43677233595E+02 -0.82647332000E+02  0.18483046451E+03  0.97918689668E+02 0.  0.
          5    1    3    3  502    0  0.29815797503E+03 -0.60736218293E+03 -0.98993155924E+03  0.11990719667E+04  0.47000000000E+01 0. -1.
         -5    1    3    3    0  502  0.24309844529E+03 -0.34156791705E+03 -0.65217839961E+03  0.77532203050E+03  0.47000000000E+01 0.  1.
         11    1    5    5    0    0 -0.32996304535E+03  0.76091641952E+03 -0.31950097427E+03  0.88879147236E+03  0.00000000000E+00 0.  1.
        -11    1    5    5    0    0 -0.85452409437E+02  0.23169091405E+03 -0.48406304985E+02  0.25164650662E+03  0.00000000000E+00 0. -1.
          3    1    6    6  503    0  0.40129233822E+01 -0.28510623154E+02 -0.35828341473E+02  0.45963346695E+02  0.00000000000E+00 0. -1.
         -3    1    6    6    0  503 -0.12985388891E+03 -0.15166610441E+02 -0.46818990527E+02  0.13886711782E+03  0.00000000000E+00 0.  1.
<mgrwt>
<rscale>  0 0.11658702E+04</rscale>
<asrwt>0</asrwt>
<pdfrwt beam="1">  1        2 0.92845986E-01 0.11658702E+04</pdfrwt>
<pdfrwt beam="2">  1       -2 0.41479440E+00 0.11658702E+04</pdfrwt>
<totfact> 0.29121707E-01</totfact>
</mgrwt>
</event>
<event>
12    1  0.3147868E-008  0.6453640E+03  0.7818608E-02  0.9815517E-01
          2   -1    0    0  501    0  0.00000000000E+00  0.00000000000E+00  0.21975492830E+04  0.21975492830E+04  0.00000000000E+00 0. -1.
         -2   -1    0    0    0  501 -0.00000000000E+00 -0.00000000000E+00 -0.27686632552E+03  0.27686632552E+03  0.00000000000E+00 0.  1.
         23    2    1    2    0    0 -0.48384037803E+03 -0.24490524127E+03  0.22183091629E+03  0.59287212938E+03  0.90599766873E+02 0.  0.
    5000000    2    1    2    0    0  0.48384037803E+03  0.24490524127E+03  0.16988520412E+04  0.18815434791E+04  0.60002293077E+03 0.  0.
         23    2    4    4    0    0  0.54387426290E+03  0.98402270462E+02  0.88442391796E+03  0.10467373404E+04  0.89281423017E+02 0.  0.
         23    2    4    4    0    0 -0.60033884872E+02  0.14650297081E+03  0.81442812321E+03  0.83480613871E+03  0.92417171313E+02 0.  0.
          5    1    3    3  502    0 -0.23256947329E+03 -0.75100187890E+02  0.12460401567E+03  0.27436626770E+03  0.47000000000E+01 0. -1.
         -5    1    3    3    0  502 -0.25127090474E+03 -0.16980505338E+03  0.97226900611E+02  0.31850586168E+03  0.47000000000E+01 0.  1.
         13    1    5    5    0    0  0.36484947425E+03  0.23524630046E+02  0.59127692364E+03  0.69518123357E+03  0.00000000000E+00 0.  1.
        -13    1    5    5    0    0  0.17902478865E+03  0.74877640416E+02  0.29314699432E+03  0.35155610685E+03  0.00000000000E+00 0. -1.
          1    1    6    6  503    0 -0.86395215032E+00  0.11736796194E+03  0.52169265504E+03  0.53473284099E+03  0.00000000000E+00 0. -1.
         -1    1    6    6    0  503 -0.59169932721E+02  0.29135008866E+02  0.29273546817E+03  0.30007329772E+03  0.00000000000E+00 0.  1.
<mgrwt>
<rscale>  0 0.64536401E+03</rscale>
<asrwt>0</asrwt>
<pdfrwt beam="1">  1        2 0.33808449E+00 0.64536401E+03</pdfrwt>
<pdfrwt beam="2">  1       -2 0.42594821E-01 0.64536401E+03</pdfrwt>
<totfact> 0.28506918E+01</totfact>
</mgrwt>
</event>
<event>
12    1  0.3147868E-008  0.6462557E+03  0.7818608E-02  0.9813831E-01
         -1   -1    0    0    0  501 -0.00000000000E+00  0.00000000000E+00  0.14351696821E+04  0.14351696821E+04  0.00000000000E+00 0.  1.
          1   -1    0    0  501    0  0.00000000000E+00 -0.00000000000E+00 -0.37747254499E+03  0.37747254499E+03  0.00000000000E+00 0. -1.
         23    2    1    2    0    0  0.57650798962E+03 -0.19066817325E+03  0.37429275155E+03  0.71916671284E+03  0.91596302308E+02 0.  0.
    5000000    2    1    2    0    0 -0.57650798962E+03  0.19066817325E+03  0.68340438552E+03  0.10934755142E+04  0.59994277364E+03 0.  0.
         23    2    4    4    0    0  0.32473540733E+02  0.28335847900E+02 -0.56539971910E+02  0.11732299152E+03  0.93329870848E+02 0.  0.
         23    2    4    4    0    0 -0.60898153036E+03  0.16233232535E+03  0.73994435743E+03  0.97615252269E+03  0.90254126137E+02 0.  0.
          5    1    3    3  502    0  0.27069780409E+03 -0.98702956568E+02  0.23003416871E+03  0.36872399373E+03  0.47000000000E+01 0. -1.
         -5    1    3    3    0  502  0.30581018553E+03 -0.91965216686E+02  0.14425858285E+03  0.35044271911E+03  0.47000000000E+01 0.  1.
         13    1    5    5    0    0  0.14732452604E+02  0.28105011961E+02  0.20821135729E+02  0.37953347021E+02  0.00000000000E+00 0. -1.
        -13    1    5    5    0    0  0.17741088130E+02  0.23083593868E+00 -0.77361107639E+02  0.79369644502E+02  0.00000000000E+00 0.  1.
          2    1    6    6  503    0 -0.38108187501E+03  0.60408495693E+02  0.41991807640E+03  0.57026640502E+03  0.00000000000E+00 0.  1.
         -2    1    6    6    0  503 -0.22789965534E+03  0.10192382966E+03  0.32002628103E+03  0.40588611766E+03  0.00000000000E+00 0. -1.
<mgrwt>
<rscale>  0 0.64625568E+03</rscale>
<asrwt>0</asrwt>
<pdfrwt beam="1">  1        1 0.58072700E-01 0.64625568E+03</pdfrwt>
<pdfrwt beam="2">  1       -1 0.22079533E+00 0.64625568E+03</pdfrwt>
<totfact> 0.73967730E+00</totfact>
</mgrwt>
</event>
<event>
12    1  0.3147868E-008  0.5581259E+03  0.7818608E-02  0.9996304E-01
          2   -1    0    0  501    0  0.00000000000E+00  0.00000000000E+00  0.87719705955E+03  0.87719705955E+03  0.00000000000E+00 0. -1.
         -2   -1    0    0    0  501 -0.00000000000E+00 -0.00000000000E+00 -0.78130569191E+03  0.78130569191E+03  0.00000000000E+00 0.  1.
         23    2    1    2    0    0 -0.29840518141E+03 -0.37691814944E+03 -0.48968127980E+03  0.69217491024E+03  0.90583701040E+02 0.  0.
    5000000    2    1    2    0    0  0.29840518141E+03  0.37691814944E+03  0.58557264745E+03  0.96632784122E+03  0.59981766197E+03 0.  0.
         23    2    4    4    0    0  0.75589530628E+02  0.38412038518E+03  0.86775380126E+02  0.41234005307E+03  0.96083845242E+02 0.  0.
         23    2    4    4    0    0  0.22281565078E+03 -0.72022357346E+01  0.49879726733E+03  0.55398778816E+03  0.91679163938E+02 0.  0.
          5    1    3    3  502    0 -0.16229472851E+03 -0.23671822213E+03 -0.23400620943E+03  0.37034590810E+03  0.47000000000E+01 0. -1.
         -5    1    3    3    0  502 -0.13611045291E+03 -0.14019992731E+03 -0.25567507037E+03  0.32182900214E+03  0.47000000000E+01 0.  1.
         13    1    5    5    0    0  0.74579744750E+01  0.16402953450E+03  0.77985235138E+02  0.18177735412E+03  0.00000000000E+00 0. -1.
        -13    1    5    5    0    0  0.68131556153E+02  0.22009085068E+03  0.87901449875E+01  0.23056269894E+03  0.00000000000E+00 0.  1.
          3    1    6    6  503    0  0.13229987626E+03 -0.46824584060E+02  0.32620054631E+03  0.35510927240E+03  0.00000000000E+00 0. -1.
         -3    1    6    6    0  503  0.90515774521E+02  0.39622348325E+02  0.17259672102E+03  0.19887851576E+03  0.00000000000E+00 0.  1.
<mgrwt>
<rscale>  0 0.55812591E+03</rscale>
<asrwt>0</asrwt>
<pdfrwt beam="1">  1        2 0.13495339E+00 0.55812591E+03</pdfrwt>
<pdfrwt beam="2">  1       -2 0.12020088E+00 0.55812591E+03</pdfrwt>
<totfact> 0.16702499E+01</totfact>
</mgrwt>
</event>
<event>
12    1  0.3147868E-008  0.4342958E+03  0.7818608E-02  0.1032511E+00
          2   -1    0    0  501    0  0.00000000000E+00  0.00000000000E+00  0.92154493603E+03  0.92154493603E+03  0.00000000000E+00 0. -1.
         -2   -1    0    0    0  501 -0.00000000000E+00 -0.00000000000E+00 -0.23558629011E+03  0.23558629011E+03  0.00000000000E+00 0.  1.
         23    2    1    2    0    0  0.22024496196E+03 -0.94132537227E+02  0.33597757186E+03  0.42241803029E+03  0.90483621091E+02 0.  0.
    5000000    2    1    2    0    0 -0.22024496196E+03  0.94132537227E+02  0.34998107405E+03  0.73471319585E+03  0.59995662354E+03 0.  0.
         23    2    4    4    0    0 -0.12124028907E+03  0.32886790432E+03  0.12479151746E+03  0.38315824943E+03  0.91564267508E+02 0.  0.
         23    2    4    4    0    0 -0.99004672882E+02 -0.23473536710E+03  0.22518955659E+03  0.35155494642E+03  0.89319237205E+02 0.  0.
          5    1    3    3  502    0  0.14275315720E+03 -0.93386463742E+02  0.17911609108E+03  0.24739474445E+03  0.47000000000E+01 0. -1.
         -5    1    3    3    0  502  0.77491804760E+02 -0.74607348518E+00  0.15686148079E+03  0.17502328584E+03  0.47000000000E+01 0.  1.
         13    1    5    5    0    0 -0.75360294361E+02  0.20748337047E+03  0.30700364732E+02  0.22286999659E+03  0.00000000000E+00 0.  1.
        -13    1    5    5    0    0 -0.45879994713E+02  0.12138453386E+03  0.94091152731E+02  0.16028825283E+03  0.00000000000E+00 0. -1.
          1    1    6    6  503    0 -0.22098248763E+02 -0.16342522391E+03  0.14373063048E+03  0.21875701257E+03  0.00000000000E+00 0. -1.
         -1    1    6    6    0  503 -0.76906424119E+02 -0.71310143184E+02  0.81458926107E+02  0.13279793385E+03  0.00000000000E+00 0.  1.
<mgrwt>
<rscale>  0 0.43429582E+03</rscale>
<asrwt>0</asrwt>
<pdfrwt beam="1">  1        2 0.14177614E+00 0.43429582E+03</pdfrwt>
<pdfrwt beam="2">  1       -2 0.36244045E-01 0.43429582E+03</pdfrwt>
<totfact> 0.20974574E+02</totfact>
</mgrwt>
</event>
<event>
12    1  0.3147868E-008  0.6083101E+03  0.7818608E-02  0.9888314E-01
          2   -1    0    0  501    0  0.00000000000E+00  0.00000000000E+00  0.13585458641E+04  0.13585458641E+04  0.00000000000E+00 0.  1.
         -2   -1    0    0    0  501 -0.00000000000E+00 -0.00000000000E+00 -0.41953304449E+03  0.41953304449E+03  0.00000000000E+00 0. -1.
         23    2    1    2    0    0  0.44020077863E+03 -0.27133868015E+03  0.82443568664E+03  0.97756936043E+03  0.92445920386E+02 0.  0.
    5000000    2    1    2    0    0 -0.44020077863E+03  0.27133868015E+03  0.11457713299E+03  0.80050954817E+03  0.60023846300E+03 0.  0.
         23    2    4    4    0    0  0.52815344621E+02 -0.29800728278E+02  0.18064525028E+03  0.21146817306E+03  0.91698079243E+02 0.  0.
         23    2    4    4    0    0 -0.49301612325E+03  0.30113940842E+03 -0.66068117288E+02  0.58904137511E+03  0.94100501488E+02 0.  0.
          5    1    3    3  502    0  0.13423333253E+03 -0.46146464493E+02  0.17756647131E+03  0.22737639605E+03  0.47000000000E+01 0. -1.
         -5    1    3    3    0  502  0.30596744611E+03 -0.22519221565E+03  0.64686921533E+03  0.75019296438E+03  0.47000000000E+01 0.  1.
         11    1    5    5    0    0  0.69382950957E+02 -0.48717868589E+02  0.14060037551E+03  0.16418249053E+03  0.00000000000E+00 0.  1.
        -11    1    5    5    0    0 -0.16567606336E+02  0.18917140311E+02  0.40044874763E+02  0.47285682527E+02  0.00000000000E+00 0. -1.
          1    1    6    6  503    0 -0.18335423140E+03  0.62225586376E+02 -0.95081411383E+01  0.19385871794E+03  0.00000000000E+00 0. -1.
         -1    1    6    6    0  503 -0.30966189186E+03  0.23891382205E+03 -0.56559976150E+02  0.39518265718E+03  0.00000000000E+00 0.  1.
<mgrwt>
<rscale>  0 0.60831013E+03</rscale>
<asrwt>0</asrwt>
<pdfrwt beam="1">  1        2 0.20900705E+00 0.60831013E+03</pdfrwt>
<pdfrwt beam="2">  1       -2 0.64543546E-01 0.60831013E+03</pdfrwt>
<totfact> 0.35172646E+01</totfact>
</mgrwt>
</event>
<event>
12    1  0.3147868E-008  0.3601772E+03  0.7818608E-02  0.1058514E+00
          2   -1    0    0  501    0  0.00000000000E+00  0.00000000000E+00  0.10520266237E+04  0.10520266237E+04  0.00000000000E+00 0. -1.
         -2   -1    0    0    0  501 -0.00000000000E+00 -0.00000000000E+00 -0.34374881046E+03  0.34374881046E+03  0.00000000000E+00 0.  1.
         23    2    1    2    0    0 -0.99569491741E+02 -0.21927511685E+03  0.70401896272E+03  0.74953328016E+03  0.90342557230E+02 0.  0.
    5000000    2    1    2    0    0  0.99569491741E+02  0.21927511685E+03  0.42588505002E+01  0.64624215398E+03  0.59967918357E+03 0.  0.
         23    2    4    4    0    0  0.12220219560E+03 -0.90041628195E+02 -0.19613439968E+03  0.26401973773E+03  0.90536444340E+02 0.  0.
         23    2    4    4    0    0 -0.22632703860E+02  0.30931674505E+03  0.20039325018E+03  0.38222241625E+03  0.98729087486E+02 0.  0.
          5    1    3    3  502    0 -0.38168889457E+02 -0.13841722778E+03  0.29563632289E+03  0.32869304599E+03  0.47000000000E+01 0. -1.
         -5    1    3    3    0  502 -0.61400602283E+02 -0.80857889069E+02  0.40838263983E+03  0.42084023417E+03  0.47000000000E+01 0.  1.
         13    1    5    5    0    0  0.11725238601E+03 -0.98523878087E+02 -0.14150816890E+03  0.20851771734E+03  0.00000000000E+00 0. -1.
        -13    1    5    5    0    0  0.49498095940E+01  0.84822498915E+01 -0.54626230779E+02  0.55502020390E+02  0.00000000000E+00 0.  1.
          2    1    6    6  503    0  0.94198177702E+01  0.72676195889E+02  0.98059002137E+02  0.12241785130E+03  0.00000000000E+00 0. -1.
         -2    1    6    6    0  503 -0.32052521630E+02  0.23664054916E+03  0.10233424804E+03  0.25980456495E+03  0.00000000000E+00 0.  1.
<mgrwt>
<rscale>  0 0.36017720E+03</rscale>
<asrwt>0</asrwt>
<pdfrwt beam="1">  1        2 0.16185025E+00 0.36017720E+03</pdfrwt>
<pdfrwt beam="2">  1       -2 0.52884433E-01 0.36017720E+03</pdfrwt>
<totfact> 0.83431752E+01</totfact>
</mgrwt>
</event>
<event>
12    1  0.3147868E-008  0.6450551E+03  0.7818608E-02  0.9816102E-01
          1   -1    0    0  501    0  0.00000000000E+00  0.00000000000E+00  0.22215421354E+04  0.22215421354E+04  0.00000000000E+00 0. -1.
         -1   -1    0    0    0  501 -0.00000000000E+00 -0.00000000000E+00 -0.41461150973E+03  0.41461150973E+03  0.00000000000E+00 0.  1.
         23    2    1    2    0    0  0.55961814022E+03  0.24483568669E+03 -0.20670658358E+02  0.61790510642E+03  0.90898119249E+02 0.  0.
    5000000    2    1    2    0    0 -0.55961814022E+03 -0.24483568669E+03  0.18276012840E+04  0.20182485387E+04  0.60006977454E+03 0.  0.
         23    2    4    4    0    0 -0.19667954971E+02 -0.60289052929E+02  0.10148032844E+04  0.10208893755E+04  0.91475749104E+02 0.  0.
         23    2    4    4    0    0 -0.53995018525E+03 -0.18454663376E+03  0.81279799966E+03  0.99735916322E+03  0.92092614449E+02 0.  0.
          5    1    3    3  502    0  0.27335032692E+03  0.72574438887E+02 -0.22657310379E+02  0.28376556190E+03  0.47000000000E+01 0. -1.
         -5    1    3    3    0  502  0.28626781330E+03  0.17226124780E+03  0.19866520207E+01  0.33413954452E+03  0.47000000000E+01 0.  1.
         13    1    5    5    0    0 -0.34399670287E+02  0.57130450476E+01  0.56012940702E+03  0.56121379955E+03  0.00000000000E+00 0. -1.
        -13    1    5    5    0    0  0.14731715316E+02 -0.66002097977E+02  0.45467387736E+03  0.45967557596E+03  0.00000000000E+00 0.  1.
          3    1    6    6  503    0 -0.12852168034E+03 -0.44778706470E+02  0.26728533525E+03  0.29994066965E+03  0.00000000000E+00 0. -1.
         -3    1    6    6    0  503 -0.41142850490E+03 -0.13976792729E+03  0.54551266441E+03  0.69741849357E+03  0.00000000000E+00 0.  1.
<mgrwt>
<rscale>  0 0.64505515E+03</rscale>
<asrwt>0</asrwt>
<pdfrwt beam="1">  1        1 0.34177571E+00 0.64505515E+03</pdfrwt>
<pdfrwt beam="2">  1       -1 0.63786387E-01 0.64505515E+03</pdfrwt>
<totfact> 0.56398068E+00</totfact>
</mgrwt>
</event>
<event>
12    1  0.3147868E-008  0.6733638E+03  0.7818608E-02  0.9763900E-01
         -2   -1    0    0    0  501 -0.00000000000E+00  0.00000000000E+00  0.26935897046E+03  0.26935897046E+03  0.00000000000E+00 0.  1.
          2   -1    0    0  501    0  0.00000000000E+00 -0.00000000000E+00 -0.22469612395E+04  0.22469612395E+04  0.00000000000E+00 0. -1.
         23    2    1    2    0    0 -0.35230098747E+03  0.42838445650E+03 -0.27097984067E+03  0.62427620190E+03  0.93067039633E+02 0.  0.
    5000000    2    1    2    0    0  0.35230098747E+03 -0.42838445650E+03 -0.17066224284E+04  0.18920440081E+04  0.59970091468E+03 0.  0.
         23    2    4    4    0    0  0.45167237999E+03 -0.14786214771E+03 -0.81713906194E+03  0.94929102240E+03  0.86983016059E+02 0.  0.
         23    2    4    4    0    0 -0.99371392523E+02 -0.28052230879E+03 -0.88948336647E+03  0.94275298569E+03  0.95053108503E+02 0.  0.
          5    1    3    3  502    0 -0.14034739772E+03  0.16296071378E+03 -0.15568435637E+03  0.26554339589E+03  0.47000000000E+01 0. -1.
         -5    1    3    3    0  502 -0.21195358975E+03  0.26542374272E+03 -0.11529548430E+03  0.35873280601E+03  0.47000000000E+01 0.  1.
         11    1    5    5    0    0  0.20931321342E+03 -0.30022346804E+02 -0.40472985980E+03  0.45663948804E+03  0.00000000000E+00 0. -1.
        -11    1    5    5    0    0  0.24235916656E+03 -0.11783980091E+03 -0.41240920214E+03  0.49265153436E+03  0.00000000000E+00 0.  1.
          3    1    6    6  503    0 -0.10356135495E+03 -0.16138907359E+03 -0.59164422615E+03  0.62194395056E+03  0.00000000000E+00 0. -1.
         -3    1    6    6    0  503  0.41899624233E+01 -0.11913323520E+03 -0.29783914032E+03  0.32080903513E+03  0.00000000000E+00 0.  1.
<mgrwt>
<rscale>  0 0.67336380E+03</rscale>
<asrwt>0</asrwt>
<pdfrwt beam="1">  1        2 0.34568635E+00 0.67336380E+03</pdfrwt>
<pdfrwt beam="2">  1       -2 0.41439841E-01 0.67336380E+03</pdfrwt>
<totfact> 0.28139189E+01</totfact>
</mgrwt>
</event>
<event>
12    1  0.3147868E-008  0.9169280E+03  0.7818608E-02  0.9404664E-01
          1   -1    0    0  501    0  0.00000000000E+00  0.00000000000E+00  0.19484916021E+04  0.19484916021E+04  0.00000000000E+00 0. -1.
         -1   -1    0    0    0  501 -0.00000000000E+00 -0.00000000000E+00 -0.10985178329E+04  0.10985178329E+04  0.00000000000E+00 0.  1.
         23    2    1    2    0    0 -0.46617005437E+03  0.72356278548E+03  0.15576028342E+04  0.17817153625E+04  0.86749176938E+02 0.  0.
    5000000    2    1    2    0    0  0.46617005437E+03 -0.72356278548E+03 -0.70762906499E+03  0.12652940726E+04  0.59947691562E+03 0.  0.
         23    2    4    4    0    0  0.44896348303E+03 -0.30502275978E+03 -0.16688099488E+03  0.57542509787E+03  0.93046674997E+02 0.  0.
         23    2    4    4    0    0  0.17206571338E+02 -0.41854002570E+03 -0.54074807011E+03  0.68986897470E+03  0.89659956083E+02 0.  0.
          5    1    3    3  502    0 -0.12714059876E+02  0.57864300124E+02  0.11650816565E+03  0.13079054710E+03  0.47000000000E+01 0. -1.
         -5    1    3    3    0  502 -0.45345599449E+03  0.66569848536E+03  0.14410946686E+04  0.16509248154E+04  0.47000000000E+01 0.  1.
         13    1    5    5    0    0  0.18251307429E+03 -0.91076962544E+02 -0.10023187361E+03  0.22727178417E+03  0.00000000000E+00 0. -1.
        -13    1    5    5    0    0  0.26645040874E+03 -0.21394579724E+03 -0.66649121269E+02  0.34815331370E+03  0.00000000000E+00 0.  1.
          1    1    6    6  503    0  0.36430984384E+02 -0.16436659200E+03 -0.26851244850E+03  0.31692669214E+03  0.00000000000E+00 0. -1.
         -1    1    6    6    0  503 -0.19224413046E+02 -0.25417343370E+03 -0.27223562161E+03  0.37294228257E+03  0.00000000000E+00 0.  1.
<mgrwt>
<rscale>  0 0.91692804E+03</rscale>
<asrwt>0</asrwt>
<pdfrwt beam="1">  1        1 0.29976794E+00 0.91692804E+03</pdfrwt>
<pdfrwt beam="2">  1       -1 0.16900274E+00 0.91692804E+03</pdfrwt>
<totfact> 0.82851593E-01</totfact>
</mgrwt>
</event>
<event>
12    1  0.3147868E-008  0.8697538E+03  0.7818608E-02  0.9464201E-01
         -1   -1    0    0    0  501 -0.00000000000E+00  0.00000000000E+00  0.64236148848E+03  0.64236148848E+03  0.00000000000E+00 0.  1.
          1   -1    0    0  501    0  0.00000000000E+00 -0.00000000000E+00 -0.18905924099E+04  0.18905924099E+04  0.00000000000E+00 0. -1.
         23    2    1    2    0    0  0.46511293643E+03 -0.64847483452E+03 -0.13055367498E+04  0.15328741758E+04  0.91800758519E+02 0.  0.
    5000000    2    1    2    0    0 -0.46511293643E+03  0.64847483452E+03  0.57305828336E+02  0.10000797226E+04  0.60002153203E+03 0.  0.
         23    2    4    4    0    0 -0.29972480202E+03  0.46151050076E+02  0.16962484437E+03  0.35861924431E+03  0.88714701100E+02 0.  0.
         23    2    4    4    0    0 -0.16538813442E+03  0.60232378444E+03 -0.11231901604E+03  0.64146047826E+03  0.93320991745E+02 0.  0.
          5    1    3    3  502    0  0.39612429593E+03 -0.59516409382E+03 -0.11379781695E+04  0.13439312336E+04  0.47000000000E+01 0. -1.
         -5    1    3    3    0  502  0.68988640504E+02 -0.53310740692E+02 -0.16755858024E+03  0.18894294219E+03  0.47000000000E+01 0.  1.
         13    1    5    5    0    0 -0.87004216438E+02 -0.19712212651E+02  0.23431978324E+02  0.92235365310E+02  0.00000000000E+00 0.  1.
        -13    1    5    5    0    0 -0.21272058558E+03  0.65863262726E+02  0.14619286605E+03  0.26638387900E+03  0.00000000000E+00 0. -1.
          2    1    6    6  503    0 -0.15913097436E+03  0.54711822028E+03 -0.75409438861E+02  0.57475872976E+03  0.00000000000E+00 0. -1.
         -2    1    6    6    0  503 -0.62571600585E+01  0.55205564160E+02 -0.36909577177E+02  0.66701748505E+02  0.00000000000E+00 0.  1.
<mgrwt>
<rscale>  0 0.86975384E+03</rscale>
<asrwt>0</asrwt>
<pdfrwt beam="1">  1        1 0.29086037E+00 0.86975384E+03</pdfrwt>
<pdfrwt beam="2">  1       -1 0.98824844E-01 0.86975384E+03</pdfrwt>
<totfact> 0.35617631E+00</totfact>
</mgrwt>
</event>
<event>
12    1  0.3147868E-008  0.8186248E+03  0.7818608E-02  0.9533443E-01
          1   -1    0    0  501    0  0.00000000000E+00  0.00000000000E+00  0.13940107258E+04  0.13940107258E+04  0.00000000000E+00 0. -1.
         -1   -1    0    0    0  501 -0.00000000000E+00 -0.00000000000E+00 -0.58904767884E+03  0.58904767884E+03  0.00000000000E+00 0.  1.
         23    2    1    2    0    0  0.44628784976E+03 -0.56064707952E+03 -0.39837031241E+02  0.72322525714E+03  0.89273685335E+02 0.  0.
    5000000    2    1    2    0    0 -0.44628784976E+03  0.56064707952E+03  0.84480007820E+03  0.12598331475E+04  0.59999532897E+03 0.  0.
         23    2    4    4    0    0 -0.34581111001E+03  0.58395478687E+01  0.26810079005E+03  0.44770866864E+03  0.94581151553E+02 0.  0.
         23    2    4    4    0    0 -0.10047673975E+03  0.55480753165E+03  0.57669928815E+03  0.81212447885E+03  0.95168943381E+02 0.  0.
          5    1    3    3  502    0  0.30367990989E+03 -0.34229202640E+03 -0.60378644532E+02  0.46157663473E+03  0.47000000000E+01 0. -1.
         -5    1    3    3    0  502  0.14260793987E+03 -0.21835505311E+03  0.20541613291E+02  0.26164862241E+03  0.47000000000E+01 0.  1.
         13    1    5    5    0    0 -0.98342843116E+02 -0.21609993801E+02  0.12507129812E+03  0.16056505297E+03  0.00000000000E+00 0.  1.
        -13    1    5    5    0    0 -0.24746826690E+03  0.27449541670E+02  0.14302949193E+03  0.28714361567E+03  0.00000000000E+00 0. -1.
          3    1    6    6  503    0 -0.11131670105E+03  0.44223985123E+03  0.49192735124E+03  0.67079058792E+03  0.00000000000E+00 0.  1.
         -3    1    6    6    0  503  0.10839961309E+02  0.11256768041E+03  0.84771936917E+02  0.14133389092E+03  0.00000000000E+00 0. -1.
<mgrwt>
<rscale>  0 0.81862483E+03</rscale>
<asrwt>0</asrwt>
<pdfrwt beam="1">  1        1 0.21446319E+00 0.81862483E+03</pdfrwt>
<pdfrwt beam="2">  1       -1 0.90622720E-01 0.81862483E+03</pdfrwt>
<totfact> 0.94803473E+00</totfact>
</mgrwt>
</event>
<event>
12    1  0.3147868E-008  0.9004088E+03  0.7818608E-02  0.9425071E-01
         -1   -1    0    0    0  501 -0.00000000000E+00  0.00000000000E+00  0.58460115077E+03  0.58460115077E+03  0.00000000000E+00 0.  1.
          1   -1    0    0  501    0  0.00000000000E+00 -0.00000000000E+00 -0.29167324434E+04  0.29167324434E+04  0.00000000000E+00 0. -1.
         23    2    1    2    0    0 -0.13619501040E+03 -0.80243838397E+03 -0.23509140718E+04  0.24900143495E+04  0.10448945936E+03 0.  0.
    5000000    2    1    2    0    0  0.13619501040E+03  0.80243838397E+03  0.18782779153E+02  0.10113192446E+04  0.59996448298E+03 0.  0.
         23    2    4    4    0    0  0.33807360756E+03  0.62672986760E+03  0.80140896764E+02  0.72227391975E+03  0.90404428746E+02 0.  0.
         23    2    4    4    0    0 -0.20187859716E+03  0.17570851636E+03 -0.61358117611E+02  0.28904532488E+03  0.90299116954E+02 0.  0.
          5    1    3    3  502    0 -0.13272505084E+02 -0.32496355097E+03 -0.84538374431E+03  0.90579977588E+03  0.47000000000E+01 0. -1.
         -5    1    3    3    0  502 -0.12292250532E+03 -0.47747483300E+03 -0.15055303275E+04  0.15842145737E+04  0.47000000000E+01 0.  1.
         11    1    5    5    0    0  0.19569293409E+02  0.13579474539E+02  0.15273129849E+02  0.28295368325E+02  0.00000000000E+00 0.  1.
        -11    1    5    5    0    0  0.31850431416E+03  0.61315039306E+03  0.64867766915E+02  0.69397855142E+03  0.00000000000E+00 0. -1.
          3    1    6    6  503    0 -0.48860972961E+02  0.46489784391E+02 -0.57659495455E+02  0.88731686266E+02  0.00000000000E+00 0. -1.
         -3    1    6    6    0  503 -0.15301762420E+03  0.12921873197E+03 -0.36986221566E+01  0.20031363861E+03  0.00000000000E+00 0.  1.
<mgrwt>
<rscale>  0 0.90040883E+03</rscale>
<asrwt>0</asrwt>
<pdfrwt beam="1">  1        1 0.44872807E+00 0.90040883E+03</pdfrwt>
<pdfrwt beam="2">  1       -1 0.89938638E-01 0.90040883E+03</pdfrwt>
<totfact> 0.86825845E-01</totfact>
</mgrwt>
</event>
<event>
12    1  0.3147868E-008  0.8017129E+03  0.7818608E-02  0.9557541E-01
          2   -1    0    0  501    0  0.00000000000E+00  0.00000000000E+00  0.11573439795E+04  0.11573439795E+04  0.00000000000E+00 0. -1.
         -2   -1    0    0    0  501 -0.00000000000E+00 -0.00000000000E+00 -0.78206970619E+03  0.78206970619E+03  0.00000000000E+00 0.  1.
         23    2    1    2    0    0  0.69517987955E+03 -0.14070317119E+03  0.65411892819E+03  0.96925931125E+03  0.92301640923E+02 0.  0.
    5000000    2    1    2    0    0 -0.69517987955E+03  0.14070317119E+03 -0.27884465488E+03  0.97015437445E+03  0.60031052081E+03 0.  0.
         23    2    4    4    0    0 -0.70322139295E+03  0.25414523728E+03 -0.13469914928E+03  0.76515035038E+03  0.90559752292E+02 0.  0.
         23    2    4    4    0    0  0.80415134026E+01 -0.11344206609E+03 -0.14414550560E+03  0.20500402407E+03  0.91186374000E+02 0.  0.
          5    1    3    3  502    0  0.56616040085E+03 -0.13492381937E+03  0.49339350176E+03  0.76302114918E+03  0.47000000000E+01 0. -1.
         -5    1    3    3    0  502  0.12901947870E+03 -0.57793518213E+01  0.16072542643E+03  0.20623816207E+03  0.47000000000E+01 0.  1.
         13    1    5    5    0    0 -0.29088262545E+03  0.13269204931E+03 -0.94653543828E+02  0.33343541368E+03  0.00000000000E+00 0. -1.
        -13    1    5    5    0    0 -0.41233876750E+03  0.12145318797E+03 -0.40045605455E+02  0.43171493670E+03  0.00000000000E+00 0.  1.
          4    1    6    6  503    0  0.47205055775E+02 -0.63103467561E+02 -0.58145108627E+02  0.97934766892E+02  0.00000000000E+00 0.  1.
         -4    1    6    6    0  503 -0.39163542373E+02 -0.50338598530E+02 -0.86000396968E+02  0.10706925717E+03  0.00000000000E+00 0. -1.
<mgrwt>
<rscale>  0 0.80171286E+03</rscale>
<asrwt>0</asrwt>
<pdfrwt beam="1">  1        2 0.17805292E+00 0.80171286E+03</pdfrwt>
<pdfrwt beam="2">  1       -2 0.12031842E+00 0.80171286E+03</pdfrwt>
<totfact> 0.10737324E+01</totfact>
</mgrwt>
</event>
<event>
12    1  0.3147868E-008  0.1318269E+04  0.7818608E-02  0.9015202E-01
          2   -1    0    0  501    0  0.00000000000E+00  0.00000000000E+00  0.43001434944E+04  0.43001434944E+04  0.00000000000E+00 0. -1.
         -2   -1    0    0    0  501 -0.00000000000E+00 -0.00000000000E+00 -0.46726957145E+03  0.46726957145E+03  0.00000000000E+00 0.  1.
         23    2    1    2    0    0 -0.11729171580E+04 -0.50931861119E+03  0.10920168843E+04  0.16839929019E+04  0.90504755228E+02 0.  0.
    5000000    2    1    2    0    0  0.11729171580E+04  0.50931861119E+03  0.27408570387E+04  0.30834201640E+04  0.60003541078E+03 0.  0.
         23    2    4    4    0    0  0.18808511509E+03 -0.59270582314E+02  0.82830145521E+03  0.85640520879E+03  0.91965039562E+02 0.  0.
         23    2    4    4    0    0  0.98483204289E+03  0.56858919351E+03  0.19125555835E+04  0.22270149552E+04  0.92406316024E+02 0.  0.
          5    1    3    3  502    0 -0.85243562880E+03 -0.38977695239E+03  0.75242170380E+03  0.12019705006E+04  0.47000000000E+01 0. -1.
         -5    1    3    3    0  502 -0.32048152918E+03 -0.11954165880E+03  0.33959518051E+03  0.48202240131E+03  0.47000000000E+01 0.  1.
         13    1    5    5    0    0  0.22003149483E+02 -0.45796340089E+02  0.20764086559E+03  0.21376663073E+03  0.00000000000E+00 0.  1.
        -13    1    5    5    0    0  0.16608196561E+03 -0.13474242225E+02  0.62066058962E+03  0.64263857806E+03  0.00000000000E+00 0. -1.
          3    1    6    6  503    0  0.57607708940E+03  0.28940904589E+03  0.11332101592E+04  0.13037590551E+04  0.00000000000E+00 0. -1.
         -3    1    6    6    0  503  0.40875495349E+03  0.27918014762E+03  0.77934542428E+03  0.92325590016E+03  0.00000000000E+00 0.  1.
<mgrwt>
<rscale>  0 0.13182686E+04</rscale>
<asrwt>0</asrwt>
<pdfrwt beam="1">  1        2 0.66156051E+00 0.13182686E+04</pdfrwt>
<pdfrwt beam="2">  1       -2 0.71887630E-01 0.13182686E+04</pdfrwt>
<totfact> 0.33517088E-01</totfact>
</mgrwt>
</event>
<event>
12    1  0.3147868E-008  0.8593800E+03  0.7818608E-02  0.9477833E-01
          2   -1    0    0  501    0  0.00000000000E+00  0.00000000000E+00  0.39767590501E+03  0.39767590501E+03  0.00000000000E+00 0. -1.
         -2   -1    0    0    0  501 -0.00000000000E+00 -0.00000000000E+00 -0.20963896480E+04  0.20963896480E+04  0.00000000000E+00 0.  1.
         23    2    1    2    0    0 -0.58618191865E+03 -0.50585372176E+03 -0.42728392443E+03  0.88907257930E+03  0.91549274192E+02 0.  0.
    5000000    2    1    2    0    0  0.58618191865E+03  0.50585372176E+03 -0.12714298186E+04  0.16049929737E+04  0.59997619336E+03 0.  0.
         23    2    4    4    0    0  0.51674620526E+03  0.96971074753E+02 -0.53382862278E+03  0.75407370606E+03  0.84994856791E+02 0.  0.
         23    2    4    4    0    0  0.69435713385E+02  0.40888264701E+03 -0.73760119581E+03  0.85091926769E+03  0.89452438424E+02 0.  0.
          5    1    3    3  502    0 -0.44010513084E+03 -0.41588528825E+03 -0.36173851610E+03  0.70535802484E+03  0.47000000000E+01 0. -1.
         -5    1    3    3    0  502 -0.14607678781E+03 -0.89968433510E+02 -0.65545408329E+02  0.18371455445E+03  0.47000000000E+01 0.  1.
         11    1    5    5    0    0  0.35260773575E+03  0.81855724352E+02 -0.41608563269E+03  0.55150687090E+03  0.00000000000E+00 0. -1.
        -11    1    5    5    0    0  0.16413846951E+03  0.15115350401E+02 -0.11774299009E+03  0.20256683516E+03  0.00000000000E+00 0.  1.
          4    1    6    6  503    0  0.55635938470E+02  0.31212742877E+03 -0.47856433415E+03  0.57405810800E+03  0.00000000000E+00 0. -1.
         -4    1    6    6    0  503  0.13799774915E+02  0.96755218243E+02 -0.25903686166E+03  0.27686115969E+03  0.00000000000E+00 0.  1.
<mgrwt>
<rscale>  0 0.85937996E+03</rscale>
<asrwt>0</asrwt>
<pdfrwt beam="1">  1        2 0.61180910E-01 0.85937996E+03</pdfrwt>
<pdfrwt beam="2">  1       -2 0.32252148E+00 0.85937996E+03</pdfrwt>
<totfact> 0.19040907E+00</totfact>
</mgrwt>
</event>
<event>
12    1  0.3147868E-008  0.6781111E+03  0.7818608E-02  0.9755415E-01
         -1   -1    0    0    0  501 -0.00000000000E+00  0.00000000000E+00  0.51514346060E+03  0.51514346060E+03  0.00000000000E+00 0.  1.
          1   -1    0    0  501    0  0.00000000000E+00 -0.00000000000E+00 -0.11164632913E+04  0.11164632913E+04  0.00000000000E+00 0. -1.
         23    2    1    2    0    0  0.19458090457E+03 -0.59490069655E+03 -0.37721011999E+03  0.73638908298E+03  0.90624719194E+02 0.  0.
    5000000    2    1    2    0    0 -0.19458090457E+03  0.59490069655E+03 -0.22410971069E+03  0.89521766890E+03  0.59951726006E+03 0.  0.
         23    2    4    4    0    0  0.57648586270E+02  0.38218026956E+03 -0.34989338851E+03  0.53002765200E+03  0.95492463695E+02 0.  0.
         23    2    4    4    0    0 -0.25222949084E+03  0.21272042698E+03  0.12578367782E+03  0.36519001690E+03  0.93126358948E+02 0.  0.
          5    1    3    3  502    0  0.68802481013E+02 -0.21729664615E+03 -0.87950326545E+02  0.24435417689E+03  0.47000000000E+01 0. -1.
         -5    1    3    3    0  502  0.12577842356E+03 -0.37760405039E+03 -0.28925979345E+03  0.49203490609E+03  0.47000000000E+01 0.  1.
         13    1    5    5    0    0  0.38201321155E+01  0.18994409814E+03 -0.22529157509E+03  0.29470264273E+03  0.00000000000E+00 0. -1.
        -13    1    5    5    0    0  0.53828454154E+02  0.19223617143E+03 -0.12460181342E+03  0.23532500927E+03  0.00000000000E+00 0.  1.
          3    1    6    6  503    0 -0.23110844174E+03  0.15276177601E+03  0.11810543348E+03  0.30115804069E+03  0.00000000000E+00 0. -1.
         -3    1    6    6    0  503 -0.21121049099E+02  0.59958650969E+02  0.76782443439E+01  0.64031976209E+02  0.00000000000E+00 0.  1.
<mgrwt>
<rscale>  0 0.67811109E+03</rscale>
<asrwt>0</asrwt>
<pdfrwt beam="1">  1        1 0.17176358E+00 0.67811109E+03</pdfrwt>
<pdfrwt beam="2">  1       -1 0.79252841E-01 0.67811109E+03</pdfrwt>
<totfact> 0.20391865E+01</totfact>
</mgrwt>
</event>
<event>
12    1  0.3147868E-008  0.1144854E+04  0.7818608E-02  0.9162544E-01
         -2   -1    0    0    0  501 -0.00000000000E+00  0.00000000000E+00  0.12696739614E+04  0.12696739614E+04  0.00000000000E+00 0.  1.
          2   -1    0    0  501    0  0.00000000000E+00 -0.00000000000E+00 -0.10835358478E+04  0.10835358478E+04  0.00000000000E+00 0. -1.
         23    2    1    2    0    0  0.58053927742E+03  0.92723165581E+03  0.64701150460E+02  0.10995673001E+04  0.89875538947E+02 0.  0.
    5000000    2    1    2    0    0 -0.58053927742E+03 -0.92723165581E+03  0.12143696306E+03  0.12536425091E+04  0.60007350250E+03 0.  0.
         23    2    4    4    0    0 -0.51805807491E+03 -0.95314233080E+03  0.21244128645E+03  0.11089900514E+04  0.88674473503E+02 0.  0.
         23    2    4    4    0    0 -0.62481202514E+02  0.25910674990E+02 -0.91004323392E+02  0.14465245764E+03  0.89818054309E+02 0.  0.
          5    1    3    3  502    0  0.47659935322E+03  0.76141440266E+03  0.18723043073E+02  0.89848287597E+03  0.47000000000E+01 0. -1.
         -5    1    3    3    0  502  0.10393992420E+03  0.16581725314E+03  0.45978107386E+02  0.20108442416E+03  0.47000000000E+01 0.  1.
         13    1    5    5    0    0 -0.60085570796E+02 -0.12979182876E+03 -0.72477994270E+00  0.14302699024E+03  0.00000000000E+00 0. -1.
        -13    1    5    5    0    0 -0.45797250411E+03 -0.82335050203E+03  0.21316606640E+03  0.96596306119E+03  0.00000000000E+00 0.  1.
          3    1    6    6  503    0 -0.19836958410E+02  0.55265904516E+02 -0.34879980473E+02  0.68296692151E+02  0.00000000000E+00 0. -1.
         -3    1    6    6    0  503 -0.42644244105E+02 -0.29355229526E+02 -0.56124342919E+02  0.76355765492E+02  0.00000000000E+00 0.  1.
<mgrwt>
<rscale>  0 0.11448544E+04</rscale>
<asrwt>0</asrwt>
<pdfrwt beam="1">  1        2 0.16669782E+00 0.11448544E+04</pdfrwt>
<pdfrwt beam="2">  1       -2 0.19533446E+00 0.11448544E+04</pdfrwt>
<totfact> 0.31115116E+00</totfact>
</mgrwt>
</event>
<event>
12    1  0.3147868E-008  0.1093217E+04  0.7818608E-02  0.9211828E-01
          2   -1    0    0  501    0  0.00000000000E+00  0.00000000000E+00  0.18149551518E+04  0.18149551518E+04  0.00000000000E+00 0. -1.
         -2   -1    0    0    0  501 -0.00000000000E+00 -0.00000000000E+00 -0.70951711602E+03  0.70951711602E+03  0.00000000000E+00 0.  1.
         23    2    1    2    0    0 -0.10131669712E+04 -0.25259575748E+03  0.36122964117E+03  0.11087591586E+04  0.92455881138E+02 0.  0.
    5000000    2    1    2    0    0  0.10131669712E+04  0.25259575748E+03  0.74420839460E+03  0.14157131092E+04  0.60007128294E+03 0.  0.
         23    2    4    4    0    0  0.97113281424E+03  0.31217548359E+03  0.78565719638E+03  0.12907268192E+04  0.90366011676E+02 0.  0.
         23    2    4    4    0    0  0.42034156970E+02 -0.59579726108E+02 -0.41448801783E+02  0.12498628998E+03  0.92665826491E+02 0.  0.
          5    1    3    3  502    0 -0.45347589819E+03 -0.16014098872E+03  0.16189567243E+03  0.50746214170E+03  0.47000000000E+01 0. -1.
         -5    1    3    3    0  502 -0.55969107302E+03 -0.92454768760E+02  0.19933396874E+03  0.60129701694E+03  0.47000000000E+01 0.  1.
         11    1    5    5    0    0  0.80424799063E+03  0.24993240367E+03  0.68872637502E+03  0.10879453371E+04  0.00000000000E+00 0.  1.
        -11    1    5    5    0    0  0.16688482361E+03  0.62243079919E+02  0.96930821359E+02  0.20278148209E+03  0.00000000000E+00 0. -1.
          3    1    6    6  503    0  0.70200208652E+02 -0.28006482026E+02 -0.25411317836E+02  0.79738117638E+02  0.00000000000E+00 0. -1.
         -3    1    6    6    0  503 -0.28166051682E+02 -0.31573244083E+02 -0.16037483947E+02  0.45248172346E+02  0.00000000000E+00 0.  1.
<mgrwt>
<rscale>  0 0.10932170E+04</rscale>
<asrwt>0</asrwt>
<pdfrwt beam="1">  1        2 0.27922387E+00 0.10932170E+04</pdfrwt>
<pdfrwt beam="2">  1       -2 0.10915648E+00 0.10932170E+04</pdfrwt>
<totfact> 0.55949180E+00</totfact>
</mgrwt>
</event>
<event>
12    1  0.3147868E-008  0.6490589E+03  0.7818608E-02  0.9808547E-01
          2   -1    0    0  501    0  0.00000000000E+00  0.00000000000E+00  0.15635120566E+04  0.15635120566E+04  0.00000000000E+00 0. -1.
         -2   -1    0    0    0  501 -0.00000000000E+00 -0.00000000000E+00 -0.33114302843E+03  0.33114302843E+03  0.00000000000E+00 0.  1.
         23    2    1    2    0    0  0.16680178946E+03 -0.56217832680E+03  0.41946289843E+03  0.72646470832E+03  0.89076041622E+02 0.  0.
    5000000    2    1    2    0    0 -0.16680178946E+03  0.56217832680E+03  0.81290612975E+03  0.11681903767E+04  0.59998756017E+03 0.  0.
         23    2    4    4    0    0 -0.25531355979E+03  0.51826891697E+03  0.33517302232E+03  0.67343634688E+03  0.85952744557E+02 0.  0.
         23    2    4    4    0    0  0.88511770330E+02  0.43909409833E+02  0.47773310744E+03  0.49475402984E+03  0.82403023839E+02 0.  0.
          5    1    3    3  502    0  0.14943857108E+03 -0.35560440958E+03  0.27537527469E+03  0.47396203914E+03  0.47000000000E+01 0. -1.
         -5    1    3    3    0  502  0.17363218380E+02 -0.20657391722E+03  0.14408762374E+03  0.25250266918E+03  0.47000000000E+01 0.  1.
         13    1    5    5    0    0 -0.21827379076E+03  0.36873677142E+03  0.26778231050E+03  0.50528963986E+03  0.00000000000E+00 0. -1.
        -13    1    5    5    0    0 -0.37039769032E+02  0.14953214555E+03  0.67390711812E+02  0.16814670702E+03  0.00000000000E+00 0.  1.
          1    1    6    6  503    0  0.38201847272E+01 -0.17456167785E+02  0.14167386390E+03  0.14279634210E+03  0.00000000000E+00 0. -1.
         -1    1    6    6    0  503  0.84691585603E+02  0.61365577618E+02  0.33605924353E+03  0.35195768773E+03  0.00000000000E+00 0.  1.
<mgrwt>
<rscale>  0 0.64905886E+03</rscale>
<asrwt>0</asrwt>
<pdfrwt beam="1">  1        2 0.24054031E+00 0.64905886E+03</pdfrwt>
<pdfrwt beam="2">  1       -2 0.50945082E-01 0.64905886E+03</pdfrwt>
<totfact> 0.44082286E+01</totfact>
</mgrwt>
</event>
<event>
12    1  0.3147868E-008  0.6885524E+03  0.7818608E-02  0.9737012E-01
         -1   -1    0    0    0  501 -0.00000000000E+00  0.00000000000E+00  0.22438270915E+03  0.22438270915E+03  0.00000000000E+00 0.  1.
          1   -1    0    0  501    0  0.00000000000E+00 -0.00000000000E+00 -0.27455311047E+04  0.27455311047E+04  0.00000000000E+00 0. -1.
         23    2    1    2    0    0  0.46960649311E+03 -0.41581439230E+03 -0.65365165652E+03  0.91052971161E+03  0.91498636259E+02 0.  0.
    5000000    2    1    2    0    0 -0.46960649311E+03  0.41581439230E+03 -0.18674967391E+04  0.20593841023E+04  0.60007244817E+03 0.  0.
         23    2    4    4    0    0 -0.12869244959E+03  0.37570025910E+03 -0.49187655773E+03  0.63866236714E+03  0.90744916620E+02 0.  0.
         23    2    4    4    0    0 -0.34091404352E+03  0.40114133202E+02 -0.13756201813E+04  0.14207217351E+04  0.91037556130E+02 0.  0.
          5    1    3    3  502    0  0.77723102679E+02 -0.86336168669E+02 -0.17180428523E+03  0.20744545580E+03  0.47000000000E+01 0. -1.
         -5    1    3    3    0  502  0.39188339043E+03 -0.32947822363E+03 -0.48184737129E+03  0.70308425581E+03  0.47000000000E+01 0.  1.
         11    1    5    5    0    0 -0.94947907313E+02  0.24736257504E+03 -0.38942562637E+03  0.47101556992E+03  0.00000000000E+00 0. -1.
        -11    1    5    5    0    0 -0.33744542277E+02  0.12833768406E+03 -0.10245093137E+03  0.16764679723E+03  0.00000000000E+00 0.  1.
          3    1    6    6  503    0 -0.73187808656E+02 -0.21838150594E+02 -0.39547632943E+03  0.40278392135E+03  0.00000000000E+00 0. -1.
         -3    1    6    6    0  503 -0.26772623486E+03  0.61952283796E+02 -0.98014385189E+03  0.10179378138E+04  0.00000000000E+00 0.  1.
<mgrwt>
<rscale>  0 0.68855240E+03</rscale>
<asrwt>0</asrwt>
<pdfrwt beam="1">  1        1 0.42238941E+00 0.68855240E+03</pdfrwt>
<pdfrwt beam="2">  1       -1 0.34520416E-01 0.68855240E+03</pdfrwt>
<totfact> 0.77652698E+00</totfact>
</mgrwt>
</event>
<event>
12    1  0.3147868E-008  0.5932475E+03  0.7818608E-02  0.9919515E-01
          1   -1    0    0  501    0  0.00000000000E+00  0.00000000000E+00  0.16480573017E+04  0.16480573017E+04  0.00000000000E+00 0. -1.
         -1   -1    0    0    0  501 -0.00000000000E+00 -0.00000000000E+00 -0.31539192536E+03  0.31539192536E+03  0.00000000000E+00 0.  1.
         23    2    1    2    0    0 -0.47893202406E+03  0.20304461534E+03  0.93598176559E+03  0.10757072215E+04  0.10237754374E+03 0.  0.
    5000000    2    1    2    0    0  0.47893202406E+03 -0.20304461534E+03  0.39668361071E+03  0.88774200547E+03  0.60010414245E+03 0.  0.
         23    2    4    4    0    0  0.16265123254E+03 -0.26055102997E+03  0.44429664568E+03  0.54791282733E+03  0.92014641925E+02 0.  0.
         23    2    4    4    0    0  0.31628079152E+03  0.57506414635E+02 -0.47613034972E+02  0.33982917814E+03  0.99379788708E+02 0.  0.
          5    1    3    3  502    0 -0.16894897076E+03  0.12571190193E+03  0.37586487510E+03  0.43086393600E+03  0.47000000000E+01 0. -1.
         -5    1    3    3    0  502 -0.30998305330E+03  0.77332713410E+02  0.56011689049E+03  0.64484328554E+03  0.47000000000E+01 0.  1.
         13    1    5    5    0    0  0.90422374070E+02 -0.63495171377E+02  0.14260152926E+03  0.18039689207E+03  0.00000000000E+00 0.  1.
        -13    1    5    5    0    0  0.72228858470E+02 -0.19705585860E+03  0.30169511642E+03  0.36751593527E+03  0.00000000000E+00 0. -1.
          1    1    6    6  503    0 -0.26403940902E+01  0.13822164502E+02 -0.58208415104E+01  0.15228463756E+02  0.00000000000E+00 0. -1.
         -1    1    6    6    0  503  0.31892118561E+03  0.43684250133E+02 -0.41792193462E+02  0.32460071438E+03  0.00000000000E+00 0.  1.
<mgrwt>
<rscale>  0 0.59324754E+03</rscale>
<asrwt>0</asrwt>
<pdfrwt beam="1">  1        1 0.25354727E+00 0.59324754E+03</pdfrwt>
<pdfrwt beam="2">  1       -1 0.48521836E-01 0.59324754E+03</pdfrwt>
<totfact> 0.23294264E+01</totfact>
</mgrwt>
</event>
<event>
12    1  0.3147868E-008  0.4200392E+03  0.7818608E-02  0.1037054E+00
         -2   -1    0    0    0  501 -0.00000000000E+00  0.00000000000E+00  0.11837758502E+04  0.11837758502E+04  0.00000000000E+00 0.  1.
          2   -1    0    0  501    0  0.00000000000E+00 -0.00000000000E+00 -0.23542743661E+03  0.23542743661E+03  0.00000000000E+00 0. -1.
         23    2    1    2    0    0 -0.29130344673E+03  0.96877344114E+02  0.99713094571E+02  0.33553370168E+03  0.91636487597E+02 0.  0.
    5000000    2    1    2    0    0  0.29130344673E+03 -0.96877344114E+02  0.84863531901E+03  0.10836695851E+04  0.59992911845E+03 0.  0.
         23    2    4    4    0    0  0.80282798124E+02  0.16450757833E+03  0.65038003757E+03  0.68268854695E+03  0.97782349446E+02 0.  0.
         23    2    4    4    0    0  0.21102064860E+03 -0.26138492244E+03  0.19825528144E+03  0.40098103817E+03  0.92891574078E+02 0.  0.
          5    1    3    3  502    0 -0.10320566191E+03  0.17715870707E+02 -0.72603828484E+01  0.10507170830E+03  0.47000000000E+01 0. -1.
         -5    1    3    3    0  502 -0.18809778482E+03  0.79161473407E+02  0.10697347742E+03  0.23046199339E+03  0.47000000000E+01 0.  1.
         13    1    5    5    0    0  0.66351596471E+02  0.13291294164E+03  0.61710996543E+03  0.63473860277E+03  0.00000000000E+00 0.  1.
        -13    1    5    5    0    0  0.13931201653E+02  0.31594636687E+02  0.33270072143E+02  0.47949944184E+02  0.00000000000E+00 0. -1.
          4    1    6    6  503    0  0.88337192787E+02 -0.44616655626E+02  0.66162964041E+02  0.11904471177E+03  0.00000000000E+00 0. -1.
         -4    1    6    6    0  503  0.12268345582E+03 -0.21676826682E+03  0.13209231740E+03  0.28193632640E+03  0.00000000000E+00 0.  1.
<mgrwt>
<rscale>  0 0.42003916E+03</rscale>
<asrwt>0</asrwt>
<pdfrwt beam="1">  1        2 0.36219606E-01 0.42003916E+03</pdfrwt>
<pdfrwt beam="2">  1       -2 0.18211936E+00 0.42003916E+03</pdfrwt>
<totfact> 0.26417204E+01</totfact>
</mgrwt>
</event>
<event>
12    1  0.3147868E-008  0.5446054E+03  0.7818608E-02  0.1002750E+00
         -1   -1    0    0    0  501 -0.00000000000E+00  0.00000000000E+00  0.58083426415E+03  0.58083426415E+03  0.00000000000E+00 0.  1.
          1   -1    0    0  501    0  0.00000000000E+00 -0.00000000000E+00 -0.52323954713E+03  0.52323954713E+03  0.00000000000E+00 0. -1.
         23    2    1    2    0    0  0.35209615024E+03 -0.14385274991E+03  0.53772511823E+01  0.39178103571E+03  0.93798467187E+02 0.  0.
    5000000    2    1    2    0    0 -0.35209615024E+03  0.14385274991E+03  0.52217465842E+02  0.71229277557E+03  0.59997418421E+03 0.  0.
         23    2    4    4    0    0 -0.47303143090E+03  0.22275183421E+03 -0.10967180374E+02  0.53079495872E+03  0.90806909933E+02 0.  0.
         23    2    4    4    0    0  0.12093528066E+03 -0.78899084307E+02  0.63184646217E+02  0.18149781685E+03  0.89993057460E+02 0.  0.
          5    1    3    3  502    0  0.30225672123E+03 -0.15496446148E+03 -0.36243268367E+01  0.33971802366E+03  0.47000000000E+01 0. -1.
         -5    1    3    3    0  502  0.49839429007E+02  0.11111711573E+02  0.90015780190E+01  0.52063012059E+02  0.47000000000E+01 0.  1.
         11    1    5    5    0    0  0.28921411656E+01  0.95046500268E+00 -0.48050192369E+01  0.56882399835E+01  0.00000000000E+00 0. -1.
        -11    1    5    5    0    0 -0.47592357206E+03  0.22180136921E+03 -0.61621611374E+01  0.52510671873E+03  0.00000000000E+00 0.  1.
          4    1    6    6  503    0  0.13571390572E+03 -0.68296303414E+02  0.55438399055E+02  0.16172836905E+03  0.00000000000E+00 0.  1.
         -4    1    6    6    0  503 -0.14778625058E+02 -0.10602780893E+02  0.77462471615E+01  0.19769447801E+02  0.00000000000E+00 0. -1.
<mgrwt>
<rscale>  0 0.54460545E+03</rscale>
<asrwt>0</asrwt>
<pdfrwt beam="1">  1        1 0.80498392E-01 0.54460545E+03</pdfrwt>
<pdfrwt beam="2">  1       -1 0.89359118E-01 0.54460545E+03</pdfrwt>
<totfact> 0.53202722E+01</totfact>
</mgrwt>
</event>
<event>
12    1  0.3147868E-008  0.4079751E+03  0.7818608E-02  0.1041053E+00
         -2   -1    0    0    0  501 -0.00000000000E+00  0.00000000000E+00  0.44667415630E+03  0.44667415630E+03  0.00000000000E+00 0. -1.
          2   -1    0    0  501    0  0.00000000000E+00 -0.00000000000E+00 -0.53806507404E+03  0.53806507404E+03  0.00000000000E+00 0.  1.
         23    2    1    2    0    0 -0.38861619555E+02  0.25141499928E+03 -0.18296690881E+03  0.32661250747E+03  0.92082099137E+02 0.  0.
    5000000    2    1    2    0    0  0.38861619555E+02 -0.25141499928E+03  0.91575991074E+02  0.65812672287E+03  0.60002074454E+03 0.  0.
         23    2    4    4    0    0  0.18477338042E+03 -0.33681231352E+03  0.19272789825E+03  0.44122306766E+03  0.99749766997E+02 0.  0.
         23    2    4    4    0    0 -0.14591176087E+03  0.85397314244E+02 -0.10115190718E+03  0.21690365521E+03  0.90733368049E+02 0.  0.
          5    1    3    3  502    0  0.15271975916E+02  0.88438644878E+02 -0.25129753447E+02  0.93317852872E+02  0.47000000000E+01 0. -1.
         -5    1    3    3    0  502 -0.54133595470E+02  0.16297635440E+03 -0.15783715537E+03  0.23329465460E+03  0.47000000000E+01 0.  1.
         13    1    5    5    0    0  0.13615800569E+03 -0.25990469898E+03  0.96693141989E+02  0.30893206175E+03  0.00000000000E+00 0. -1.
        -13    1    5    5    0    0  0.48615374733E+02 -0.76907614536E+02  0.96034756264E+02  0.13229100591E+03  0.00000000000E+00 0.  1.
          3    1    6    6  503    0 -0.59478313296E+02  0.25411407747E+02 -0.90386683299E+02  0.11114477907E+03  0.00000000000E+00 0. -1.
         -3    1    6    6    0  503 -0.86433447572E+02  0.59985906497E+02 -0.10765223879E+02  0.10575887614E+03  0.00000000000E+00 0.  1.
<mgrwt>
<rscale>  0 0.40797507E+03</rscale>
<asrwt>0</asrwt>
<pdfrwt beam="1">  1        2 0.82779242E-01 0.40797507E+03</pdfrwt>
<pdfrwt beam="2">  1       -2 0.68719101E-01 0.40797507E+03</pdfrwt>
<totfact> 0.11319375E+02</totfact>
</mgrwt>
</event>
<event>
12    1  0.3147868E-008  0.2352057E+04  0.7818608E-02  0.8457674E-01
         -2   -1    0    0    0  501 -0.00000000000E+00  0.00000000000E+00  0.25524615626E+04  0.25524615626E+04  0.00000000000E+00 0.  1.
          2   -1    0    0  501    0  0.00000000000E+00 -0.00000000000E+00 -0.24949701153E+04  0.24949701153E+04  0.00000000000E+00 0. -1.
         23    2    1    2    0    0 -0.19232175146E+04  0.13381594583E+04  0.86241310848E+03  0.24984554340E+04  0.95324927043E+02 0.  0.
    5000000    2    1    2    0    0  0.19232175146E+04 -0.13381594583E+04 -0.80492166114E+03  0.25489762439E+04  0.59995388748E+03 0.  0.
         23    2    4    4    0    0  0.16534643801E+04 -0.11923372365E+04 -0.87685871036E+03  0.22210612309E+04  0.92839926169E+02 0.  0.
         23    2    4    4    0    0  0.26975313448E+03 -0.14582222182E+03  0.71937049226E+02  0.32791501294E+03  0.91227423099E+02 0.  0.
          5    1    3    3  502    0 -0.12576225582E+04  0.91506020589E+03  0.60457687564E+03  0.16686776105E+04  0.47000000000E+01 0. -1.
         -5    1    3    3    0  502 -0.66559495639E+03  0.42309925242E+03  0.25783623283E+03  0.82977782348E+03  0.47000000000E+01 0.  1.
         11    1    5    5    0    0  0.44936418523E+03 -0.27635998131E+03 -0.24032524891E+03  0.57970616307E+03  0.00000000000E+00 0. -1.
        -11    1    5    5    0    0  0.12041001948E+04 -0.91597725519E+03 -0.63653346145E+03  0.16413550679E+04  0.00000000000E+00 0.  1.
          4    1    6    6  503    0  0.10287541002E+03 -0.79247718930E+01  0.29494542173E+02  0.10731300021E+03  0.00000000000E+00 0. -1.
         -4    1    6    6    0  503  0.16687772446E+03 -0.13789744992E+03  0.42442507053E+02  0.22060201273E+03  0.00000000000E+00 0.  1.
<mgrwt>
<rscale>  0 0.23520569E+04</rscale>
<asrwt>0</asrwt>
<pdfrwt beam="1">  1        2 0.38384155E+00 0.23520569E+04</pdfrwt>
<pdfrwt beam="2">  1       -2 0.39268640E+00 0.23520569E+04</pdfrwt>
<totfact> 0.24727109E-02</totfact>
</mgrwt>
</event>
<event>
12    1  0.3147868E-008  0.8560644E+03  0.7818608E-02  0.9482233E-01
          2   -1    0    0  501    0  0.00000000000E+00  0.00000000000E+00  0.30327952902E+04  0.30327952902E+04  0.00000000000E+00 0.  1.
         -2   -1    0    0    0  501 -0.00000000000E+00 -0.00000000000E+00 -0.28091148602E+03  0.28091148602E+03  0.00000000000E+00 0. -1.
         23    2    1    2    0    0 -0.22297274921E+03  0.78830035282E+03  0.11004074183E+04  0.13750204028E+04  0.93007143517E+02 0.  0.
    5000000    2    1    2    0    0  0.22297274921E+03 -0.78830035282E+03  0.16514763859E+04  0.19386863734E+04  0.59999692343E+03 0.  0.
         23    2    4    4    0    0 -0.79265684205E+02 -0.24339912376E+03  0.98399995723E+03  0.10208065619E+04  0.90906209103E+02 0.  0.
         23    2    4    4    0    0  0.30223843342E+03 -0.54490122906E+03  0.66747642866E+03  0.91787981150E+03  0.93344231090E+02 0.  0.
          5    1    3    3  502    0 -0.11511080292E+03  0.48304291653E+03  0.73199622060E+03  0.88454593614E+03  0.47000000000E+01 0. -1.
         -5    1    3    3    0  502 -0.10786194630E+03  0.30525743629E+03  0.36841119768E+03  0.49047446666E+03  0.47000000000E+01 0.  1.
         13    1    5    5    0    0 -0.16360742103E+02 -0.17464817672E+03  0.71188091327E+03  0.73317398631E+03  0.00000000000E+00 0.  1.
        -13    1    5    5    0    0 -0.62904942101E+02 -0.68750947044E+02  0.27211904396E+03  0.28763257560E+03  0.00000000000E+00 0. -1.
          1    1    6    6  503    0  0.92674009526E+02 -0.16034543719E+03  0.13922867352E+03  0.23169755027E+03  0.00000000000E+00 0. -1.
         -1    1    6    6    0  503  0.20956442389E+03 -0.38455579187E+03  0.52824775514E+03  0.68618226123E+03  0.00000000000E+00 0.  1.
<mgrwt>
<rscale>  0 0.85606440E+03</rscale>
<asrwt>0</asrwt>
<pdfrwt beam="1">  1        2 0.46658387E+00 0.85606440E+03</pdfrwt>
<pdfrwt beam="2">  1       -2 0.43217154E-01 0.85606440E+03</pdfrwt>
<totfact> 0.88139963E+00</totfact>
</mgrwt>
</event>
<event>
12    1  0.3147868E-008  0.8592349E+03  0.7818608E-02  0.9478025E-01
         -2   -1    0    0    0  501 -0.00000000000E+00  0.00000000000E+00  0.65100884271E+03  0.65100884271E+03  0.00000000000E+00 0.  1.
          2   -1    0    0  501    0  0.00000000000E+00 -0.00000000000E+00 -0.15854911646E+04  0.15854911646E+04  0.00000000000E+00 0. -1.
         23    2    1    2    0    0  0.65288675734E+03 -0.40835000327E+03 -0.99139285219E+03  0.12585897222E+04  0.90429300873E+02 0.  0.
    5000000    2    1    2    0    0 -0.65288675734E+03  0.40835000327E+03  0.56910530262E+02  0.97791028511E+03  0.60004905982E+03 0.  0.
         23    2    4    4    0    0 -0.65858301535E+03  0.48958673266E+03 -0.33239273492E+02  0.82611033617E+03  0.89031911793E+02 0.  0.
         23    2    4    4    0    0  0.56962580031E+01 -0.81236729389E+02  0.90149803754E+02  0.15179994895E+03  0.91018590551E+02 0.  0.
          5    1    3    3  502    0  0.15156625513E+03 -0.72544659364E+02 -0.27060596883E+03  0.31856669264E+03  0.47000000000E+01 0. -1.
         -5    1    3    3    0  502  0.50132050221E+03 -0.33580534391E+03 -0.72078688336E+03  0.94002302959E+03  0.47000000000E+01 0.  1.
         11    1    5    5    0    0 -0.46519798258E+03  0.29401876337E+03 -0.16672958463E+02  0.55057622883E+03  0.00000000000E+00 0. -1.
        -11    1    5    5    0    0 -0.19338503276E+03  0.19556796929E+03 -0.16566315029E+02  0.27553410734E+03  0.00000000000E+00 0.  1.
          1    1    6    6  503    0 -0.38367496575E+02 -0.63304802154E+02  0.47865028031E+02  0.88151141103E+02  0.00000000000E+00 0. -1.
         -1    1    6    6    0  503  0.44063754578E+02 -0.17931927234E+02  0.42284775723E+02  0.63648807843E+02  0.00000000000E+00 0.  1.
<mgrwt>
<rscale>  0 0.85923487E+03</rscale>
<asrwt>0</asrwt>
<pdfrwt beam="1">  1        2 0.24392172E+00 0.85923487E+03</pdfrwt>
<pdfrwt beam="2">  1       -2 0.10015521E+00 0.85923487E+03</pdfrwt>
<totfact> 0.94620222E+00</totfact>
</mgrwt>
</event>
<event>
12    1  0.3147868E-008  0.5181024E+03  0.7818608E-02  0.1009159E+00
          2   -1    0    0  501    0  0.00000000000E+00  0.00000000000E+00  0.16869192328E+04  0.16869192328E+04  0.00000000000E+00 0. -1.
         -2   -1    0    0    0  501 -0.00000000000E+00 -0.00000000000E+00 -0.33237955970E+03  0.33237955970E+03  0.00000000000E+00 0.  1.
         23    2    1    2    0    0  0.43120366420E+03  0.24382328356E+03  0.10845941450E+04  0.11957233348E+04  0.89573660024E+02 0.  0.
    5000000    2    1    2    0    0 -0.43120366420E+03 -0.24382328356E+03  0.26994552817E+03  0.82357545769E+03  0.60001629370E+03 0.  0.
         23    2    4    4    0    0 -0.26593332855E+03 -0.40832220225E+02  0.42122182886E+03  0.50794381029E+03  0.90505689648E+02 0.  0.
         23    2    4    4    0    0 -0.16527033565E+03 -0.20299106334E+03 -0.15127630069E+03  0.31563164740E+03  0.90659594372E+02 0.  0.
          5    1    3    3  502    0  0.22113110442E+03  0.14146581057E+03  0.67291560731E+03  0.72232198185E+03  0.47000000000E+01 0. -1.
         -5    1    3    3    0  502  0.21007255978E+03  0.10235747299E+03  0.41167853765E+03  0.47340135299E+03  0.47000000000E+01 0.  1.
         11    1    5    5    0    0 -0.12641463952E+03 -0.14222328390E+02  0.28052262037E+03  0.30801927902E+03  0.00000000000E+00 0. -1.
        -11    1    5    5    0    0 -0.13951868903E+03 -0.26609891834E+02  0.14069920849E+03  0.19992453126E+03  0.00000000000E+00 0.  1.
          1    1    6    6  503    0 -0.37645813339E+02 -0.99439332868E+02 -0.92985524789E+02  0.14125047258E+03  0.00000000000E+00 0. -1.
         -1    1    6    6    0  503 -0.12762452231E+03 -0.10355173047E+03 -0.58290775902E+02  0.17438117483E+03  0.00000000000E+00 0.  1.
<mgrwt>
<rscale>  0 0.51810236E+03</rscale>
<asrwt>0</asrwt>
<pdfrwt beam="1">  1        2 0.25952603E+00 0.51810236E+03</pdfrwt>
<pdfrwt beam="2">  1       -2 0.51135318E-01 0.51810236E+03</pdfrwt>
<totfact> 0.38196316E+01</totfact>
</mgrwt>
</event>
<event>
12    1  0.3147868E-008  0.8156674E+03  0.7818608E-02  0.9537612E-01
          1   -1    0    0  501    0  0.00000000000E+00  0.00000000000E+00  0.22642812359E+04  0.22642812359E+04  0.00000000000E+00 0. -1.
         -1   -1    0    0    0  501 -0.00000000000E+00 -0.00000000000E+00 -0.39475374577E+03  0.39475374577E+03  0.00000000000E+00 0.  1.
         23    2    1    2    0    0  0.45269052314E+03 -0.55467972735E+03  0.20522517291E+03  0.75039680618E+03  0.91540621833E+02 0.  0.
    5000000    2    1    2    0    0 -0.45269052314E+03  0.55467972735E+03  0.16643023172E+04  0.19086381755E+04  0.60033255133E+03 0.  0.
         23    2    4    4    0    0 -0.52543226991E+03  0.60342494253E+03  0.14764420174E+04  0.16818241249E+04  0.91927280001E+02 0.  0.
         23    2    4    4    0    0  0.72741746772E+02 -0.48745215178E+02  0.18786029979E+03  0.22681405058E+03  0.92117661577E+02 0.  0.
          5    1    3    3  502    0  0.11769726918E+03 -0.14639744520E+03  0.96281166333E+02  0.21113268843E+03  0.47000000000E+01 0. -1.
         -5    1    3    3    0  502  0.33499325396E+03 -0.40828228215E+03  0.10894400658E+03  0.53926411774E+03  0.47000000000E+01 0.  1.
         11    1    5    5    0    0 -0.47002274428E+03  0.49206252666E+03  0.12696171595E+04  0.14404772272E+04  0.00000000000E+00 0.  1.
        -11    1    5    5    0    0 -0.55409525632E+02  0.11136241587E+03  0.20682485790E+03  0.24134689773E+03  0.00000000000E+00 0. -1.
          2    1    6    6  503    0  0.28763583402E+02 -0.58671387273E+02  0.51512650562E+02  0.83205940790E+02  0.00000000000E+00 0. -1.
         -2    1    6    6    0  503  0.43978163369E+02  0.99261720951E+01  0.13634764923E+03  0.14360810979E+03  0.00000000000E+00 0.  1.
<mgrwt>
<rscale>  0 0.81566735E+03</rscale>
<asrwt>0</asrwt>
<pdfrwt beam="1">  1        1 0.34835095E+00 0.81566735E+03</pdfrwt>
<pdfrwt beam="2">  1       -1 0.60731347E-01 0.81566735E+03</pdfrwt>
<totfact> 0.56425599E+00</totfact>
</mgrwt>
</event>
<event>
12    1  0.3147868E-008  0.1150561E+04  0.7818608E-02  0.9157266E-01
         -2   -1    0    0    0  501 -0.00000000000E+00  0.00000000000E+00  0.16521468045E+04  0.16521468045E+04  0.00000000000E+00 0.  1.
          2   -1    0    0  501    0  0.00000000000E+00 -0.00000000000E+00 -0.11009155667E+04  0.11009155667E+04  0.00000000000E+00 0. -1.
         23    2    1    2    0    0 -0.93472026039E+03 -0.56515327848E+03 -0.41968671622E+03  0.11732904271E+04  0.85867881655E+02 0.  0.
    5000000    2    1    2    0    0  0.93472026039E+03  0.56515327848E+03  0.97091795407E+03  0.15797719442E+04  0.59991460120E+03 0.  0.
         23    2    4    4    0    0  0.74709578926E+03  0.17595256217E+03  0.77902970621E+03  0.10973738625E+04  0.90723141846E+02 0.  0.
         23    2    4    4    0    0  0.18762447113E+03  0.38920071631E+03  0.19188824786E+03  0.48239808169E+03  0.95951392937E+02 0.  0.
          5    1    3    3  502    0 -0.53719772027E+03 -0.36492895702E+03 -0.27467518313E+03  0.70514046868E+03  0.47000000000E+01 0. -1.
         -5    1    3    3    0  502 -0.39752254011E+03 -0.20022432146E+03 -0.14501153308E+03  0.46814995838E+03  0.47000000000E+01 0.  1.
         11    1    5    5    0    0  0.14868117137E+03  0.80460812150E+01  0.18666042626E+03  0.23877383624E+03  0.00000000000E+00 0. -1.
        -11    1    5    5    0    0  0.59841461789E+03  0.16790648096E+03  0.59236927995E+03  0.85860002626E+03  0.00000000000E+00 0.  1.
          1    1    6    6  503    0  0.36608969543E+00  0.39060038302E+02 -0.46723913183E+01  0.39340206589E+02  0.00000000000E+00 0. -1.
         -1    1    6    6    0  503  0.18725838143E+03  0.35014067801E+03  0.19656063918E+03  0.44305787510E+03  0.00000000000E+00 0.  1.
<mgrwt>
<rscale>  0 0.11505613E+04</rscale>
<asrwt>0</asrwt>
<pdfrwt beam="1">  1        2 0.16937163E+00 0.11505613E+04</pdfrwt>
<pdfrwt beam="2">  1       -2 0.25417643E+00 0.11505613E+04</pdfrwt>
<totfact> 0.12902889E+00</totfact>
</mgrwt>
</event>
<event>
12    1  0.3147868E-008  0.1170792E+04  0.7818608E-02  0.9138813E-01
          2   -1    0    0  501    0  0.00000000000E+00  0.00000000000E+00  0.28888183619E+04  0.28888183619E+04  0.00000000000E+00 0.  1.
         -2   -1    0    0    0  501 -0.00000000000E+00 -0.00000000000E+00 -0.59881544430E+03  0.59881544430E+03  0.00000000000E+00 0. -1.
         23    2    1    2    0    0 -0.14481508896E+03 -0.11064176960E+04  0.35469820724E+03  0.11744757516E+04  0.91929021619E+02 0.  0.
    5000000    2    1    2    0    0  0.14481508896E+03  0.11064176960E+04  0.19353047104E+04  0.23131580546E+04  0.60013693055E+03 0.  0.
         23    2    4    4    0    0 -0.16352246068E+03  0.61146132245E+03  0.12842062785E+04  0.14346328746E+04  0.91439461555E+02 0.  0.
         23    2    4    4    0    0  0.30833754964E+03  0.49495637353E+03  0.65109843183E+03  0.87852517993E+03  0.88450368087E+02 0.  0.
          5    1    3    3  502    0  0.27640720716E+01 -0.27688515934E+03  0.95339487824E+02  0.29289031991E+03  0.47000000000E+01 0. -1.
         -5    1    3    3    0  502 -0.14757916103E+03 -0.82953253664E+03  0.25935871942E+03  0.88158543174E+03  0.47000000000E+01 0.  1.
         11    1    5    5    0    0 -0.10851026061E+03  0.24603488067E+03  0.50016668958E+03  0.56786825632E+03  0.00000000000E+00 0.  1.
        -11    1    5    5    0    0 -0.55012200072E+02  0.36542644177E+03  0.78403958895E+03  0.86676461831E+03  0.00000000000E+00 0. -1.
          3    1    6    6  503    0  0.25059563525E+03  0.41895926941E+03  0.58737330215E+03  0.76376202963E+03  0.00000000000E+00 0. -1.
         -3    1    6    6    0  503  0.57741914392E+02  0.75997104125E+02  0.63725129682E+02  0.11476315030E+03  0.00000000000E+00 0.  1.
<mgrwt>
<rscale>  0 0.11707924E+04</rscale>
<asrwt>0</asrwt>
<pdfrwt beam="1">  1        2 0.44443359E+00 0.11707924E+04</pdfrwt>
<pdfrwt beam="2">  1       -2 0.92125454E-01 0.11707924E+04</pdfrwt>
<totfact> 0.20304246E+00</totfact>
</mgrwt>
</event>
<event>
12    1  0.3147868E-008  0.2707522E+03  0.7818608E-02  0.1100850E+00
          1   -1    0    0  501    0  0.00000000000E+00  0.00000000000E+00  0.17981875935E+04  0.17981875935E+04  0.00000000000E+00 0. -1.
         -1   -1    0    0    0  501 -0.00000000000E+00 -0.00000000000E+00 -0.17430973410E+03  0.17430973410E+03  0.00000000000E+00 0.  1.
         23    2    1    2    0    0  0.14581926504E+03 -0.20416249868E+03  0.53226634421E+02  0.27253659554E+03  0.92182088136E+02 0.  0.
    5000000    2    1    2    0    0 -0.14581926504E+03  0.20416249868E+03  0.15706512249E+04  0.16999607320E+04  0.59997969640E+03 0.  0.
         23    2    4    4    0    0 -0.81014845970E+02  0.11249987668E+03  0.49715850313E+02  0.17221682291E+03  0.89259961900E+02 0.  0.
         23    2    4    4    0    0 -0.64804419073E+02  0.91662621996E+02  0.15209353746E+04  0.15277439091E+04  0.90307192715E+02 0.  0.
          5    1    3    3  502    0  0.47556664037E+02 -0.68395185718E+02  0.63061709214E+02  0.10458683900E+03  0.47000000000E+01 0. -1.
         -5    1    3    3    0  502  0.98262601005E+02 -0.13576731296E+03 -0.98350747925E+01  0.16794975654E+03  0.47000000000E+01 0.  1.
         13    1    5    5    0    0 -0.27164406926E+02  0.67461505119E+01 -0.20163992333E+02  0.34496407599E+02  0.00000000000E+00 0. -1.
        -13    1    5    5    0    0 -0.53850439043E+02  0.10575372617E+03  0.69879842646E+02  0.13772041531E+03  0.00000000000E+00 0.  1.
          3    1    6    6  503    0 -0.15077857007E+01 -0.17495273100E+02  0.22242936680E+03  0.22312144947E+03  0.00000000000E+00 0. -1.
         -3    1    6    6    0  503 -0.63296633372E+02  0.10915789510E+03  0.12985060078E+04  0.13046224596E+04  0.00000000000E+00 0.  1.
<mgrwt>
<rscale>  0 0.27075225E+03</rscale>
<asrwt>0</asrwt>
<pdfrwt beam="1">  1        1 0.27664423E+00 0.27075225E+03</pdfrwt>
<pdfrwt beam="2">  1       -1 0.26816883E-01 0.27075225E+03</pdfrwt>
<totfact> 0.57035592E+01</totfact>
</mgrwt>
</event>
<event>
12    1  0.3147868E-008  0.5779118E+03  0.7818608E-02  0.9952322E-01
          2   -1    0    0  501    0  0.00000000000E+00  0.00000000000E+00  0.24677108359E+04  0.24677108359E+04  0.00000000000E+00 0. -1.
         -2   -1    0    0    0  501 -0.00000000000E+00 -0.00000000000E+00 -0.17737770361E+03  0.17737770361E+03  0.00000000000E+00 0.  1.
         23    2    1    2    0    0  0.38776488765E+03  0.34306206473E+03  0.10077183171E+04  0.11373748941E+04  0.10036062406E+03 0.  0.
    5000000    2    1    2    0    0 -0.38776488765E+03 -0.34306206473E+03  0.12826148152E+04  0.15077136454E+04  0.60003873532E+03 0.  0.
         23    2    4    4    0    0 -0.20293038751E+03  0.30503499932E+02  0.90687720991E+02  0.24169815128E+03  0.89902880420E+02 0.  0.
         23    2    4    4    0    0 -0.18483450014E+03 -0.37356556466E+03  0.11919270942E+04  0.12660154941E+04  0.91596996717E+02 0.  0.
          5    1    3    3  502    0  0.14770571298E+03  0.96602312926E+02  0.43178020287E+03  0.46648174466E+03  0.47000000000E+01 0. -1.
         -5    1    3    3    0  502  0.24005917468E+03  0.24645975181E+03  0.57593811418E+03  0.67089314944E+03  0.47000000000E+01 0.  1.
         11    1    5    5    0    0 -0.64400864006E+02 -0.17334767858E+02  0.64575918477E+02  0.92833262943E+02  0.00000000000E+00 0. -1.
        -11    1    5    5    0    0 -0.13852952351E+03  0.47838267790E+02  0.26111802514E+02  0.14886488833E+03  0.00000000000E+00 0.  1.
          4    1    6    6  503    0 -0.37078066804E+02 -0.14581990064E+03  0.51964663628E+03  0.54099062197E+03  0.00000000000E+00 0.  1.
         -4    1    6    6    0  503 -0.14775643334E+03 -0.22774566402E+03  0.67228045793E+03  0.72502487212E+03  0.00000000000E+00 0. -1.
<mgrwt>
<rscale>  0 0.57791179E+03</rscale>
<asrwt>0</asrwt>
<pdfrwt beam="1">  1        2 0.37964780E+00 0.57791179E+03</pdfrwt>
<pdfrwt beam="2">  1       -2 0.27288879E-01 0.57791179E+03</pdfrwt>
<totfact> 0.47421353E+01</totfact>
</mgrwt>
</event>
<event>
12    1  0.3147868E-008  0.4466091E+03  0.7818608E-02  0.1028738E+00
         -2   -1    0    0    0  501 -0.00000000000E+00  0.00000000000E+00  0.35593620041E+03  0.35593620041E+03  0.00000000000E+00 0.  1.
          2   -1    0    0  501    0  0.00000000000E+00 -0.00000000000E+00 -0.86160211248E+03  0.86160211248E+03  0.00000000000E+00 0. -1.
         23    2    1    2    0    0 -0.21942496612E+03  0.18367626919E+03 -0.46236637383E+03  0.55146837751E+03  0.91926166728E+02 0.  0.
    5000000    2    1    2    0    0  0.21942496612E+03 -0.18367626919E+03 -0.43299538243E+02  0.66606993538E+03  0.59990834398E+03 0.  0.
         23    2    4    4    0    0 -0.14166163248E+03 -0.17800894962E+03  0.10482026691E+03  0.26626383515E+03  0.90299154444E+02 0.  0.
         23    2    4    4    0    0  0.36108659859E+03 -0.56673195749E+01 -0.14811980515E+03  0.39980610023E+03  0.86543578071E+02 0.  0.
          5    1    3    3  502    0 -0.95423327993E+02  0.13692806575E+03 -0.23532134212E+03  0.28853618624E+03  0.47000000000E+01 0. -1.
         -5    1    3    3    0  502 -0.12400163812E+03  0.46748203448E+02 -0.22704503171E+03  0.26293219127E+03  0.47000000000E+01 0.  1.
         13    1    5    5    0    0 -0.10219058493E+03 -0.12660127128E+03  0.11689231384E+03  0.20033624378E+03  0.00000000000E+00 0.  1.
        -13    1    5    5    0    0 -0.39471047549E+02 -0.51407678341E+02 -0.12072046927E+02  0.65927591371E+02  0.00000000000E+00 0. -1.
          3    1    6    6  503    0  0.96192656605E+02  0.25236453786E+02 -0.70989504615E+02  0.12218598754E+03  0.00000000000E+00 0. -1.
         -3    1    6    6    0  503  0.26489394199E+03 -0.30903773361E+02 -0.77130300538E+02  0.27762011269E+03  0.00000000000E+00 0.  1.
<mgrwt>
<rscale>  0 0.44660913E+03</rscale>
<asrwt>0</asrwt>
<pdfrwt beam="1">  1        2 0.13255417E+00 0.44660913E+03</pdfrwt>
<pdfrwt beam="2">  1       -2 0.54759416E-01 0.44660913E+03</pdfrwt>
<totfact> 0.10162518E+02</totfact>
</mgrwt>
</event>
<event>
12    1  0.3147868E-008  0.1272678E+04  0.7818608E-02  0.9051517E-01
          2   -1    0    0  501    0  0.00000000000E+00  0.00000000000E+00  0.28627450729E+04  0.28627450729E+04  0.00000000000E+00 0. -1.
         -2   -1    0    0    0  501 -0.00000000000E+00 -0.00000000000E+00 -0.89317440628E+03  0.89317440628E+03  0.00000000000E+00 0.  1.
         23    2    1    2    0    0 -0.12209508011E+04 -0.23812625157E+03  0.20199055746E+04  0.23736956179E+04  0.83590583237E+02 0.  0.
    5000000    2    1    2    0    0  0.12209508011E+04  0.23812625157E+03 -0.50334907985E+02  0.13822238613E+04  0.60048666048E+03 0.  0.
         23    2    4    4    0    0  0.92573583780E+03  0.26075269767E+02  0.17208114016E+03  0.94638964550E+03  0.91513284442E+02 0.  0.
         23    2    4    4    0    0  0.29521496331E+03  0.21205098181E+03 -0.22241604815E+03  0.43583421581E+03  0.91460766217E+02 0.  0.
          5    1    3    3  502    0 -0.40216150520E+03 -0.43903275608E+02  0.62002829786E+03  0.74035029143E+03  0.47000000000E+01 0. -1.
         -5    1    3    3    0  502 -0.81878929590E+03 -0.19422297597E+03  0.13998772768E+04  0.16333453265E+04  0.47000000000E+01 0.  1.
         13    1    5    5    0    0  0.26411409206E+03  0.38182353416E+02  0.21386710043E+02  0.26771540318E+03  0.00000000000E+00 0.  1.
        -13    1    5    5    0    0  0.66162174574E+03 -0.12107083649E+02  0.15069443012E+03  0.67867424232E+03  0.00000000000E+00 0. -1.
          1    1    6    6  503    0  0.24687876148E+03  0.20678642802E+03 -0.21354884606E+03  0.38641022158E+03  0.00000000000E+00 0. -1.
         -1    1    6    6    0  503  0.48336201827E+02  0.52645537828E+01 -0.88672020824E+01  0.49423994238E+02  0.00000000000E+00 0.  1.
<mgrwt>
<rscale>  0 0.12726776E+04</rscale>
<asrwt>0</asrwt>
<pdfrwt beam="1">  1        2 0.44042231E+00 0.12726776E+04</pdfrwt>
<pdfrwt beam="2">  1       -2 0.13741145E+00 0.12726776E+04</pdfrwt>
<totfact> 0.77779075E-01</totfact>
</mgrwt>
</event>
<event>
12    1  0.3147868E-008  0.4298332E+03  0.7818608E-02  0.1033913E+00
         -1   -1    0    0    0  501 -0.00000000000E+00  0.00000000000E+00  0.32678060451E+03  0.32678060451E+03  0.00000000000E+00 0.  1.
          1   -1    0    0  501    0  0.00000000000E+00 -0.00000000000E+00 -0.16656974190E+04  0.16656974190E+04  0.00000000000E+00 0. -1.
         23    2    1    2    0    0  0.26874813430E+03  0.65357558950E+02 -0.12982062966E+04  0.13304632476E+04  0.91080703023E+02 0.  0.
    5000000    2    1    2    0    0 -0.26874813430E+03 -0.65357558950E+02 -0.40710517822E+02  0.66201477584E+03  0.60009086559E+03 0.  0.
         23    2    4    4    0    0 -0.21128576108E+03  0.20290537692E+03 -0.16351686383E+03  0.34788917491E+03  0.92069801996E+02 0.  0.
         23    2    4    4    0    0 -0.57462373221E+02 -0.26826293587E+03  0.12280634601E+03  0.31412560094E+03  0.91250027092E+02 0.  0.
          5    1    3    3  502    0  0.15806918423E+03  0.81032927800E+02 -0.72675997338E+03  0.74816732841E+03  0.47000000000E+01 0. -1.
         -5    1    3    3    0  502  0.11067895007E+03 -0.15675368850E+02 -0.57144632326E+03  0.58229591922E+03  0.47000000000E+01 0.  1.
         11    1    5    5    0    0 -0.17110377279E+03  0.16334917603E+03 -0.85298746254E+02  0.25146636055E+03  0.00000000000E+00 0. -1.
        -11    1    5    5    0    0 -0.40181988292E+02  0.39556200890E+02 -0.78218117576E+02  0.96422814360E+02  0.00000000000E+00 0.  1.
          1    1    6    6  503    0  0.11904455323E+01 -0.78958531564E+02  0.77888434004E+02  0.11091652275E+03  0.00000000000E+00 0. -1.
         -1    1    6    6    0  503 -0.58652818754E+02 -0.18930440431E+03  0.44917912004E+02  0.20320907819E+03  0.00000000000E+00 0.  1.
<mgrwt>
<rscale>  0 0.42983325E+03</rscale>
<asrwt>0</asrwt>
<pdfrwt beam="1">  1        1 0.25626114E+00 0.42983325E+03</pdfrwt>
<pdfrwt beam="2">  1       -1 0.50273939E-01 0.42983325E+03</pdfrwt>
<totfact> 0.21917504E+01</totfact>
</mgrwt>
</event>
<event>
12    1  0.3147868E-008  0.6834619E+03  0.7818608E-02  0.9745940E-01
         -2   -1    0    0    0  501 -0.00000000000E+00  0.00000000000E+00  0.13321038071E+03  0.13321038071E+03  0.00000000000E+00 0.  1.
          2   -1    0    0  501    0  0.00000000000E+00 -0.00000000000E+00 -0.38736855530E+04  0.38736855530E+04  0.00000000000E+00 0. -1.
         23    2    1    2    0    0  0.34489878689E+03 -0.46902043485E+03 -0.17953300396E+04  0.18897114389E+04  0.94148975674E+02 0.  0.
    5000000    2    1    2    0    0 -0.34489878689E+03  0.46902043485E+03 -0.19451451326E+04  0.21171844948E+04  0.59995437864E+03 0.  0.
         23    2    4    4    0    0  0.14101545471E+03  0.11855433222E+03 -0.29875526201E+03  0.36281318490E+03  0.91859743116E+02 0.  0.
         23    2    4    4    0    0 -0.48591424160E+03  0.35046610263E+03 -0.16463898706E+04  0.17543713099E+04  0.90994217265E+02 0.  0.
          5    1    3    3  502    0  0.20663267200E+02 -0.20586120431E+02 -0.43751725142E+02  0.52792636027E+02  0.47000000000E+01 0. -1.
         -5    1    3    3    0  502  0.32423551969E+03 -0.44843431442E+03 -0.17515783145E+04  0.18369188029E+04  0.47000000000E+01 0.  1.
         11    1    5    5    0    0  0.66457206570E+02  0.65883563560E+02 -0.71064496771E+02  0.11750475290E+03  0.00000000000E+00 0. -1.
        -11    1    5    5    0    0  0.74558248139E+02  0.52670768660E+02 -0.22769076524E+03  0.24530843200E+03  0.00000000000E+00 0.  1.
          1    1    6    6  503    0 -0.23741926244E+03  0.16968696046E+03 -0.67079209468E+03  0.73152143168E+03  0.00000000000E+00 0. -1.
         -1    1    6    6    0  503 -0.24849497916E+03  0.18077914217E+03 -0.97559777595E+03  0.10228498782E+04  0.00000000000E+00 0.  1.
<mgrwt>
<rscale>  0 0.68346192E+03</rscale>
<asrwt>0</asrwt>
<pdfrwt beam="1">  1        2 0.59595168E+00 0.68346192E+03</pdfrwt>
<pdfrwt beam="2">  1       -2 0.20493903E-01 0.68346192E+03</pdfrwt>
<totfact> 0.97898797E+00</totfact>
</mgrwt>
</event>
<event>
12    1  0.3147868E-008  0.7281759E+03  0.7818608E-02  0.9670225E-01
         -1   -1    0    0    0  501 -0.00000000000E+00  0.00000000000E+00  0.43747905233E+03  0.43747905233E+03  0.00000000000E+00 0.  1.
          1   -1    0    0  501    0  0.00000000000E+00 -0.00000000000E+00 -0.16465778498E+04  0.16465778498E+04  0.00000000000E+00 0. -1.
         23    2    1    2    0    0  0.71657469895E+03 -0.84401744059E+02 -0.33206889868E+03  0.79958039969E+03  0.91957101495E+02 0.  0.
    5000000    2    1    2    0    0 -0.71657469895E+03  0.84401744059E+02 -0.87702989875E+03  0.12844765024E+04  0.60007956834E+03 0.  0.
         23    2    4    4    0    0 -0.34628714486E+03  0.12486397351E+02 -0.81660416154E+03  0.89201265573E+03  0.93667094163E+02 0.  0.
         23    2    4    4    0    0 -0.37028755409E+03  0.71915346708E+02 -0.60425737209E+02  0.39246384666E+03  0.89955052213E+02 0.  0.
          5    1    3    3  502    0  0.51599809541E+03 -0.25895746772E+02 -0.26091122283E+03  0.57881031466E+03  0.47000000000E+01 0. -1.
         -5    1    3    3    0  502  0.20057660354E+03 -0.58505997287E+02 -0.71157675849E+02  0.22077008502E+03  0.47000000000E+01 0.  1.
         13    1    5    5    0    0 -0.24118014942E+03  0.14426445043E+02 -0.45158610394E+03  0.51215817485E+03  0.00000000000E+00 0.  1.
        -13    1    5    5    0    0 -0.10510699544E+03 -0.19400476922E+01 -0.36501805759E+03  0.37985448088E+03  0.00000000000E+00 0. -1.
          1    1    6    6  503    0 -0.21592002476E+03  0.57167494578E+01 -0.61201808805E+02  0.22449899714E+03  0.00000000000E+00 0. -1.
         -1    1    6    6    0  503 -0.15436752933E+03  0.66198597250E+02  0.77607159690E+00  0.16796484952E+03  0.00000000000E+00 0.  1.
<mgrwt>
<rscale>  0 0.72817591E+03</rscale>
<asrwt>0</asrwt>
<pdfrwt beam="1">  1        1 0.25331967E+00 0.72817591E+03</pdfrwt>
<pdfrwt beam="2">  1       -1 0.67304469E-01 0.72817591E+03</pdfrwt>
<totfact> 0.12088759E+01</totfact>
</mgrwt>
</event>
<event>
12    1  0.3147868E-008  0.6300976E+03  0.7818608E-02  0.9844858E-01
         -1   -1    0    0    0  501 -0.00000000000E+00  0.00000000000E+00  0.12574313215E+04  0.12574313215E+04  0.00000000000E+00 0.  1.
          1   -1    0    0  501    0  0.00000000000E+00 -0.00000000000E+00 -0.39335708058E+03  0.39335708058E+03  0.00000000000E+00 0. -1.
         23    2    1    2    0    0 -0.73560885861E+02 -0.48898514980E+03  0.69055405454E+03  0.85410388616E+03  0.90060343374E+02 0.  0.
    5000000    2    1    2    0    0  0.73560885861E+02  0.48898514980E+03  0.17352018638E+03  0.79668451593E+03  0.60006606485E+03 0.  0.
         23    2    4    4    0    0 -0.35972584506E+02 -0.11831086300E+03  0.29852707621E+02  0.15640123130E+03  0.90987218119E+02 0.  0.
         23    2    4    4    0    0  0.10953347037E+03  0.60729601280E+03  0.14366747876E+03  0.64028328462E+03  0.92283865431E+02 0.  0.
          5    1    3    3  502    0 -0.49085829768E+02 -0.15945922824E+03  0.29227907113E+03  0.33657957391E+03  0.47000000000E+01 0. -1.
         -5    1    3    3    0  502 -0.24475056092E+02 -0.32952592156E+03  0.39827498342E+03  0.51752431225E+03  0.47000000000E+01 0.  1.
         11    1    5    5    0    0  0.18041464961E+02 -0.45884014019E+02  0.42597394048E+02  0.65156543648E+02  0.00000000000E+00 0. -1.
        -11    1    5    5    0    0 -0.54014049467E+02 -0.72426848983E+02 -0.12744686427E+02  0.91244687657E+02  0.00000000000E+00 0.  1.
          1    1    6    6  503    0  0.16901231341E+01  0.24865218614E+03  0.73156914481E+02  0.25919625831E+03  0.00000000000E+00 0.  1.
         -1    1    6    6    0  503  0.10784334723E+03  0.35864382667E+03  0.70510564278E+02  0.38108702631E+03  0.00000000000E+00 0. -1.
<mgrwt>
<rscale>  0 0.63009762E+03</rscale>
<asrwt>0</asrwt>
<pdfrwt beam="1">  1        1 0.60516474E-01 0.63009762E+03</pdfrwt>
<pdfrwt beam="2">  1       -1 0.19345097E+00 0.63009762E+03</pdfrwt>
<totfact> 0.10737378E+01</totfact>
</mgrwt>
</event>
<event>
12    1  0.3147868E-008  0.9041272E+03  0.7818608E-02  0.9420437E-01
          1   -1    0    0  501    0  0.00000000000E+00  0.00000000000E+00  0.17625109657E+04  0.17625109657E+04  0.00000000000E+00 0. -1.
         -1   -1    0    0    0  501 -0.00000000000E+00 -0.00000000000E+00 -0.77570234654E+03  0.77570234654E+03  0.00000000000E+00 0.  1.
         23    2    1    2    0    0  0.10322620976E+03 -0.87887650305E+03  0.11534549200E+04  0.14559889210E+04  0.79786763508E+02 0.  0.
    5000000    2    1    2    0    0 -0.10322620976E+03  0.87887650305E+03 -0.16664630091E+03  0.10822243912E+04  0.60029916312E+03 0.  0.
         23    2    4    4    0    0  0.62526267895E+02  0.25215158103E+03 -0.30767100835E+03  0.41241003522E+03  0.89054105907E+02 0.  0.
         23    2    4    4    0    0 -0.16575247765E+03  0.62672492202E+03  0.14102470745E+03  0.66981435595E+03  0.92224137792E+02 0.  0.
          5    1    3    3  502    0  0.88537733868E+02 -0.72307756538E+03  0.89744808525E+03  0.11559045166E+04  0.47000000000E+01 0. -1.
         -5    1    3    3    0  502  0.14688475888E+02 -0.15579893766E+03  0.25600683479E+03  0.30008440440E+03  0.47000000000E+01 0.  1.
         13    1    5    5    0    0  0.81379752171E+02  0.23654752706E+03 -0.28015991437E+03  0.37558883668E+03  0.00000000000E+00 0. -1.
        -13    1    5    5    0    0 -0.18853484276E+02  0.15604053964E+02 -0.27511093986E+02  0.36821198538E+02  0.00000000000E+00 0.  1.
          3    1    6    6  503    0 -0.15878179706E+03  0.58043898287E+03  0.15416160341E+03  0.62119793293E+03  0.00000000000E+00 0. -1.
         -3    1    6    6    0  503 -0.69706805944E+01  0.46285939158E+02 -0.13136895967E+02  0.48616423021E+02  0.00000000000E+00 0.  1.
<mgrwt>
<rscale>  0 0.90412716E+03</rscale>
<asrwt>0</asrwt>
<pdfrwt beam="1">  1        1 0.27115553E+00 0.90412716E+03</pdfrwt>
<pdfrwt beam="2">  1       -1 0.11933882E+00 0.90412716E+03</pdfrwt>
<totfact> 0.27709906E+00</totfact>
</mgrwt>
</event>
<event>
12    1  0.3147868E-008  0.5476442E+03  0.7818608E-02  0.1002041E+00
          1   -1    0    0  501    0  0.00000000000E+00  0.00000000000E+00  0.32074705920E+04  0.32074705920E+04  0.00000000000E+00 0. -1.
         -1   -1    0    0    0  501 -0.00000000000E+00 -0.00000000000E+00 -0.19046886369E+03  0.19046886369E+03  0.00000000000E+00 0.  1.
         23    2    1    2    0    0  0.15526681132E+03  0.46654799723E+03  0.22582012569E+04  0.23129424513E+04  0.91951345954E+02 0.  0.
    5000000    2    1    2    0    0 -0.15526681132E+03 -0.46654799723E+03  0.75880047137E+03  0.10849970043E+04  0.59972120828E+03 0.  0.
         23    2    4    4    0    0 -0.21875748261E+03 -0.47677562234E+03  0.80459824170E+03  0.96488038596E+03  0.91902113175E+02 0.  0.
         23    2    4    4    0    0  0.63490671295E+02  0.10227625105E+02 -0.45797770331E+02  0.12011661838E+03  0.90525668112E+02 0.  0.
          5    1    3    3  502    0  0.42851984562E+02  0.19133630620E+03  0.10895574156E+04  0.11070697026E+04  0.47000000000E+01 0. -1.
         -5    1    3    3    0  502  0.11241482676E+03  0.27521169103E+03  0.11686438413E+04  0.12058727487E+04  0.47000000000E+01 0.  1.
         11    1    5    5    0    0 -0.77058362415E+02 -0.26045657920E+03  0.45727195349E+03  0.53185830850E+03  0.00000000000E+00 0.  1.
        -11    1    5    5    0    0 -0.14169912020E+03 -0.21631904313E+03  0.34732628821E+03  0.43302207746E+03  0.00000000000E+00 0. -1.
          2    1    6    6  503    0 -0.68013350490E+00  0.73528797096E+01 -0.54763204899E+02  0.55258809546E+02  0.00000000000E+00 0. -1.
         -2    1    6    6    0  503  0.64170804800E+02  0.28747453958E+01  0.89654345686E+01  0.64857808834E+02  0.00000000000E+00 0.  1.
<mgrwt>
<rscale>  0 0.54764421E+03</rscale>
<asrwt>0</asrwt>
<pdfrwt beam="1">  1        1 0.49345697E+00 0.54764421E+03</pdfrwt>
<pdfrwt beam="2">  1       -1 0.29302904E-01 0.54764421E+03</pdfrwt>
<totfact> 0.50019626E+00</totfact>
</mgrwt>
</event>
<event>
12    1  0.3147868E-008  0.5842408E+03  0.7818608E-02  0.9938652E-01
         -2   -1    0    0    0  501 -0.00000000000E+00  0.00000000000E+00  0.57560845739E+03  0.57560845739E+03  0.00000000000E+00 0. -1.
          2   -1    0    0  501    0  0.00000000000E+00 -0.00000000000E+00 -0.81292297662E+03  0.81292297662E+03  0.00000000000E+00 0.  1.
         23    2    1    2    0    0  0.23880959844E+03  0.49308590451E+03 -0.10019276788E+03  0.56411189332E+03  0.89553916234E+02 0.  0.
    5000000    2    1    2    0    0 -0.23880959844E+03 -0.49308590451E+03 -0.13712175135E+03  0.82441954069E+03  0.60058427456E+03 0.  0.
         23    2    4    4    0    0  0.33964769264E+02 -0.22030800685E+03 -0.31070894442E+03  0.39201019455E+03  0.86271206392E+02 0.  0.
         23    2    4    4    0    0 -0.27277436771E+03 -0.27277789766E+03  0.17358719307E+03  0.43240934614E+03  0.89619707112E+02 0.  0.
          5    1    3    3  502    0  0.20758346858E+03  0.39666765324E+03 -0.48790843074E+02  0.45037624263E+03  0.47000000000E+01 0. -1.
         -5    1    3    3    0  502  0.31226129857E+02  0.96418251277E+02 -0.51401924808E+02  0.11373565070E+03  0.47000000000E+01 0.  1.
         11    1    5    5    0    0  0.22822455851E+02 -0.90836548147E+02 -0.20173109733E+03  0.22241308100E+03  0.00000000000E+00 0.  1.
        -11    1    5    5    0    0  0.11142313413E+02 -0.12947145871E+03 -0.10897784710E+03  0.16959711355E+03  0.00000000000E+00 0. -1.
          4    1    6    6  503    0 -0.79960466046E+02 -0.29411381154E+02  0.30007049064E+02  0.90327894170E+02  0.00000000000E+00 0.  1.
         -4    1    6    6    0  503 -0.19281390166E+03 -0.24336651650E+03  0.14358014401E+03  0.34208145197E+03  0.00000000000E+00 0. -1.
<mgrwt>
<rscale>  0 0.58424082E+03</rscale>
<asrwt>0</asrwt>
<pdfrwt beam="1">  1        2 0.12506507E+00 0.58424082E+03</pdfrwt>
<pdfrwt beam="2">  1       -2 0.88555147E-01 0.58424082E+03</pdfrwt>
<totfact> 0.38108568E+01</totfact>
</mgrwt>
</event>
<event>
12    1  0.3147868E-008  0.7713605E+03  0.7818608E-02  0.9602423E-01
         -2   -1    0    0    0  501 -0.00000000000E+00  0.00000000000E+00  0.27888580096E+03  0.27888580096E+03  0.00000000000E+00 0.  1.
          2   -1    0    0  501    0  0.00000000000E+00 -0.00000000000E+00 -0.22074703986E+04  0.22074703986E+04  0.00000000000E+00 0. -1.
         23    2    1    2    0    0 -0.65145496659E+03 -0.13811314992E+03 -0.86411885039E+03  0.10947333170E+04  0.90944115659E+02 0.  0.
    5000000    2    1    2    0    0  0.65145496659E+03  0.13811314992E+03 -0.10644657473E+04  0.13916228825E+04  0.60004841837E+03 0.  0.
         23    2    4    4    0    0  0.58458113198E+03  0.30957595545E+03 -0.93358766165E+03  0.11477625340E+04  0.90556834621E+02 0.  0.
         23    2    4    4    0    0  0.66873834615E+02 -0.17146280553E+03 -0.13087808563E+03  0.24386034858E+03  0.92017350954E+02 0.  0.
          5    1    3    3  502    0 -0.55474257319E+03 -0.14395076058E+03 -0.76685674240E+03  0.95736748291E+03  0.47000000000E+01 0. -1.
         -5    1    3    3    0  502 -0.96712393399E+02  0.58376106579E+01 -0.97262107991E+02  0.13736583413E+03  0.47000000000E+01 0.  1.
         13    1    5    5    0    0  0.31593462323E+03  0.11932283205E+03 -0.44548792428E+03  0.55902783033E+03  0.00000000000E+00 0. -1.
        -13    1    5    5    0    0  0.26864650875E+03  0.19025312340E+03 -0.48809973737E+03  0.58873470362E+03  0.00000000000E+00 0.  1.
          4    1    6    6  503    0  0.80563685846E+02 -0.81216577894E+02 -0.69236634753E+02  0.13371743190E+03  0.00000000000E+00 0. -1.
         -4    1    6    6    0  503 -0.13689851231E+02 -0.90246227638E+02 -0.61641450874E+02  0.11014291668E+03  0.00000000000E+00 0.  1.
<mgrwt>
<rscale>  0 0.77136047E+03</rscale>
<asrwt>0</asrwt>
<pdfrwt beam="1">  1        2 0.33961082E+00 0.77136047E+03</pdfrwt>
<pdfrwt beam="2">  1       -2 0.42905509E-01 0.77136047E+03</pdfrwt>
<totfact> 0.27242083E+01</totfact>
</mgrwt>
</event>
<event>
12    1  0.3147868E-008  0.1784990E+04  0.7818608E-02  0.8714322E-01
          2   -1    0    0  501    0  0.00000000000E+00  0.00000000000E+00  0.19346349038E+04  0.19346349038E+04  0.00000000000E+00 0. -1.
         -2   -1    0    0    0  501 -0.00000000000E+00 -0.00000000000E+00 -0.17545819926E+04  0.17545819926E+04  0.00000000000E+00 0.  1.
         23    2    1    2    0    0 -0.13113802900E+04 -0.11874779267E+04  0.37579548835E+03  0.18108420910E+04  0.90026318675E+02 0.  0.
    5000000    2    1    2    0    0  0.13113802900E+04  0.11874779267E+04 -0.19574257712E+03  0.18783748054E+04  0.60012887086E+03 0.  0.
         23    2    4    4    0    0  0.11691208700E+04  0.88965038195E+03 -0.33261872819E+03  0.15089922896E+04  0.90006116171E+02 0.  0.
         23    2    4    4    0    0  0.14225941994E+03  0.29782754474E+03  0.13687615107E+03  0.36938251575E+03  0.93644931745E+02 0.  0.
          5    1    3    3  502    0 -0.52861773741E+03 -0.44924782415E+03  0.10868239109E+03  0.70220671596E+03  0.47000000000E+01 0. -1.
         -5    1    3    3    0  502 -0.78276255258E+03 -0.73823010254E+03  0.26711309726E+03  0.11086353750E+04  0.47000000000E+01 0.  1.
         11    1    5    5    0    0  0.27233725056E+03  0.22351248520E+03 -0.11714930101E+03  0.37128071295E+03  0.00000000000E+00 0. -1.
        -11    1    5    5    0    0  0.89678361948E+03  0.66613789675E+03 -0.21546942718E+03  0.11377115767E+04  0.00000000000E+00 0.  1.
          4    1    6    6  503    0  0.36380462985E+02  0.55321788501E+02  0.70200941617E+02  0.96499795719E+02  0.00000000000E+00 0.  1.
         -4    1    6    6    0  503  0.10587895696E+03  0.24250575624E+03  0.66675209450E+02  0.27288272003E+03  0.00000000000E+00 0. -1.
<mgrwt>
<rscale>  0 0.17849902E+04</rscale>
<asrwt>0</asrwt>
<pdfrwt beam="1">  1        2 0.29763614E+00 0.17849902E+04</pdfrwt>
<pdfrwt beam="2">  1       -2 0.26993569E+00 0.17849902E+04</pdfrwt>
<totfact> 0.32096349E-01</totfact>
</mgrwt>
</event>
<event>
12    1  0.3147868E-008  0.8495216E+03  0.7818608E-02  0.9490979E-01
         -2   -1    0    0    0  501 -0.00000000000E+00  0.00000000000E+00  0.10311975839E+04  0.10311975839E+04  0.00000000000E+00 0.  1.
          2   -1    0    0  501    0  0.00000000000E+00 -0.00000000000E+00 -0.84090682199E+03  0.84090682199E+03  0.00000000000E+00 0. -1.
         23    2    1    2    0    0  0.77110795788E+03  0.16916854268E+03  0.34884019093E+03  0.86790882554E+03  0.91382559073E+02 0.  0.
    5000000    2    1    2    0    0 -0.77110795788E+03 -0.16916854268E+03 -0.15854942899E+03  0.10041955804E+04  0.60003780186E+03 0.  0.
         23    2    4    4    0    0 -0.71015035430E+03 -0.28283389116E+03  0.15337130900E+02  0.77011427237E+03  0.92370066695E+02 0.  0.
         23    2    4    4    0    0 -0.60957603587E+02  0.11366534848E+03 -0.17388655989E+03  0.23408130801E+03  0.89004955856E+02 0.  0.
          5    1    3    3  502    0  0.22756224354E+03  0.72750900070E+02  0.14452948923E+03  0.27926355187E+03  0.47000000000E+01 0. -1.
         -5    1    3    3    0  502  0.54354571434E+03  0.96417642606E+02  0.20431070170E+03  0.58864527367E+03  0.47000000000E+01 0.  1.
         13    1    5    5    0    0 -0.21114898632E+03 -0.13043746103E+03  0.74480706867E+01  0.24830082444E+03  0.00000000000E+00 0. -1.
        -13    1    5    5    0    0 -0.49900136798E+03 -0.15239643013E+03  0.78890602128E+01  0.52181344793E+03  0.00000000000E+00 0.  1.
          1    1    6    6  503    0  0.69815780920E+01  0.17924506060E+01  0.74999873117E+01  0.10402169077E+02  0.00000000000E+00 0. -1.
         -1    1    6    6    0  503 -0.67939181679E+02  0.11187289788E+03 -0.18138654720E+03  0.22367913893E+03  0.00000000000E+00 0.  1.
<mgrwt>
<rscale>  0 0.84952161E+03</rscale>
<asrwt>0</asrwt>
<pdfrwt beam="1">  1        2 0.12937028E+00 0.84952161E+03</pdfrwt>
<pdfrwt beam="2">  1       -2 0.15864578E+00 0.84952161E+03</pdfrwt>
<totfact> 0.83531217E+00</totfact>
</mgrwt>
</event>
<event>
12    1  0.3147868E-008  0.4598110E+03  0.7818608E-02  0.1024836E+00
         -2   -1    0    0    0  501 -0.00000000000E+00  0.00000000000E+00  0.28182375494E+03  0.28182375494E+03  0.00000000000E+00 0.  1.
          2   -1    0    0  501    0  0.00000000000E+00 -0.00000000000E+00 -0.86152548062E+03  0.86152548062E+03  0.00000000000E+00 0. -1.
         23    2    1    2    0    0  0.15404515190E+03  0.21764863622E+03 -0.24617588249E+02  0.28360809614E+03  0.93416748361E+02 0.  0.
    5000000    2    1    2    0    0 -0.15404515190E+03 -0.21764863622E+03 -0.55508413743E+03  0.85974113942E+03  0.59994632220E+03 0.  0.
         23    2    4    4    0    0 -0.36642871120E+03 -0.19309463605E+03 -0.38692503420E+03  0.57241521643E+03  0.79954105891E+02 0.  0.
         23    2    4    4    0    0  0.21238355930E+03 -0.24554000170E+02 -0.16815910322E+03  0.28732592299E+03  0.92569038236E+02 0.  0.
          5    1    3    3  502    0  0.18409382911E+02  0.10283200341E+03 -0.14217284179E+02  0.10553457951E+03  0.47000000000E+01 0. -1.
         -5    1    3    3    0  502  0.13563576899E+03  0.11481663281E+03 -0.10400304070E+02  0.17807351663E+03  0.47000000000E+01 0.  1.
         11    1    5    5    0    0 -0.22535391695E+03 -0.16138392480E+03 -0.24954544938E+03  0.37296392637E+03  0.00000000000E+00 0.  1.
        -11    1    5    5    0    0 -0.14107479425E+03 -0.31710711245E+02 -0.13737958482E+03  0.19945129006E+03  0.00000000000E+00 0. -1.
          3    1    6    6  503    0  0.12365658081E+03 -0.82555185135E+00 -0.14877599370E+03  0.19345781922E+03  0.00000000000E+00 0. -1.
         -3    1    6    6    0  503  0.88726978489E+02 -0.23728448318E+02 -0.19383109521E+02  0.93868103773E+02  0.00000000000E+00 0.  1.
<mgrwt>
<rscale>  0 0.45981103E+03</rscale>
<asrwt>0</asrwt>
<pdfrwt beam="1">  1        2 0.13254238E+00 0.45981103E+03</pdfrwt>
<pdfrwt beam="2">  1       -2 0.43357502E-01 0.45981103E+03</pdfrwt>
<totfact> 0.16227522E+02</totfact>
</mgrwt>
</event>
<event>
12    1  0.3147868E-008  0.5441720E+03  0.7818608E-02  0.1002852E+00
         -2   -1    0    0    0  501 -0.00000000000E+00  0.00000000000E+00  0.13148530538E+03  0.13148530538E+03  0.00000000000E+00 0.  1.
          2   -1    0    0  501    0  0.00000000000E+00 -0.00000000000E+00 -0.24562112249E+04  0.24562112249E+04  0.00000000000E+00 0. -1.
         23    2    1    2    0    0  0.35449659571E+03 -0.15551517274E+03 -0.58315595542E+03  0.70543905763E+03  0.87866889998E+02 0.  0.
    5000000    2    1    2    0    0 -0.35449659571E+03  0.15551517274E+03 -0.17415699641E+04  0.18822574726E+04  0.59997870646E+03 0.  0.
         23    2    4    4    0    0  0.21200584850E+02 -0.17563986115E+03 -0.54932485340E+03  0.58591983158E+03  0.10121970584E+03 0.  0.
         23    2    4    4    0    0 -0.37569718056E+03  0.33115503389E+03 -0.11922451107E+04  0.12963376411E+04  0.90724019660E+02 0.  0.
          5    1    3    3  502    0  0.11062025225E+03 -0.94354165686E+02 -0.21638593975E+03  0.26073840092E+03  0.47000000000E+01 0. -1.
         -5    1    3    3    0  502  0.24387634346E+03 -0.61161007056E+02 -0.36677001567E+03  0.44470065671E+03  0.47000000000E+01 0.  1.
         11    1    5    5    0    0  0.32142762209E+02 -0.73340395181E+02 -0.37538721097E+03  0.38383268346E+03  0.00000000000E+00 0.  1.
        -11    1    5    5    0    0 -0.10942177359E+02 -0.10229946597E+03 -0.17393764243E+03  0.20208714812E+03  0.00000000000E+00 0. -1.
          3    1    6    6  503    0 -0.18959398626E+03  0.10920856708E+03 -0.54221220027E+03  0.58469347600E+03  0.00000000000E+00 0. -1.
         -3    1    6    6    0  503 -0.18610319430E+03  0.22194646681E+03 -0.65003291040E+03  0.71164416506E+03  0.00000000000E+00 0.  1.
<mgrwt>
<rscale>  0 0.54417201E+03</rscale>
<asrwt>0</asrwt>
<pdfrwt beam="1">  1        2 0.37787860E+00 0.54417201E+03</pdfrwt>
<pdfrwt beam="2">  1       -2 0.20228511E-01 0.54417201E+03</pdfrwt>
<totfact> 0.82491449E+01</totfact>
</mgrwt>
</event>
<event>
12    1  0.3147868E-008  0.1117988E+04  0.7818608E-02  0.9187835E-01
         -2   -1    0    0    0  501 -0.00000000000E+00  0.00000000000E+00  0.11550807495E+04  0.11550807495E+04  0.00000000000E+00 0. -1.
          2   -1    0    0  501    0  0.00000000000E+00 -0.00000000000E+00 -0.11821078251E+04  0.11821078251E+04  0.00000000000E+00 0.  1.
         23    2    1    2    0    0  0.94050509152E+03  0.44420875748E+03  0.30984197630E+03  0.10891912349E+04  0.92001350041E+02 0.  0.
    5000000    2    1    2    0    0 -0.94050509152E+03 -0.44420875748E+03 -0.33686905185E+03  0.12479973398E+04  0.60178513987E+03 0.  0.
         23    2    4    4    0    0 -0.35810531265E+03  0.10853234884E+03 -0.42782322192E+02  0.38752745731E+03  0.91260711103E+02 0.  0.
         23    2    4    4    0    0 -0.58239977888E+03 -0.55274110632E+03 -0.29408672966E+03  0.86046988245E+03  0.95964477795E+02 0.  0.
          5    1    3    3  502    0  0.10226410890E+03  0.26728305378E+02  0.51942603911E+02  0.11786634116E+03  0.47000000000E+01 0. -1.
         -5    1    3    3    0  502  0.83824098262E+03  0.41748045210E+03  0.25789937238E+03  0.97132489369E+03  0.47000000000E+01 0.  1.
         13    1    5    5    0    0 -0.10471532940E+03 -0.10255187012E+02 -0.15442129110E+02  0.10634344560E+03  0.00000000000E+00 0. -1.
        -13    1    5    5    0    0 -0.25338998325E+03  0.11878753585E+03 -0.27340193082E+02  0.28118401171E+03  0.00000000000E+00 0.  1.
          1    1    6    6  503    0 -0.23468043527E+02 -0.13489601444E+01 -0.77769435567E+01  0.24759838682E+02  0.00000000000E+00 0. -1.
         -1    1    6    6    0  503 -0.55893173535E+03 -0.55139214617E+03 -0.28630978610E+03  0.83571004377E+03  0.00000000000E+00 0.  1.
<mgrwt>
<rscale>  0 0.11179878E+04</rscale>
<asrwt>0</asrwt>
<pdfrwt beam="1">  1        2 0.18186274E+00 0.11179878E+04</pdfrwt>
<pdfrwt beam="2">  1       -2 0.17770473E+00 0.11179878E+04</pdfrwt>
<totfact> 0.35760359E+00</totfact>
</mgrwt>
</event>
<event>
12    1  0.3147868E-008  0.1695555E+04  0.7818608E-02  0.8763904E-01
          1   -1    0    0  501    0  0.00000000000E+00  0.00000000000E+00  0.11054280616E+04  0.11054280616E+04  0.00000000000E+00 0. -1.
         -1   -1    0    0    0  501 -0.00000000000E+00 -0.00000000000E+00 -0.29925766533E+04  0.29925766533E+04  0.00000000000E+00 0.  1.
         23    2    1    2    0    0  0.73090772460E+03  0.14892005789E+04 -0.16078260470E+04  0.23119948183E+04  0.90944908933E+02 0.  0.
    5000000    2    1    2    0    0 -0.73090772460E+03 -0.14892005789E+04 -0.27932254473E+03  0.17860098966E+04  0.59988815688E+03 0.  0.
         23    2    4    4    0    0 -0.66573511830E+03 -0.14741254988E+04 -0.34287073330E+03  0.16559355526E+04  0.91175549396E+02 0.  0.
         23    2    4    4    0    0 -0.65172606300E+02 -0.15075080063E+02  0.63548188577E+02  0.13007434395E+03  0.91685527925E+02 0.  0.
          5    1    3    3  502    0  0.66818840369E+03  0.13782306766E+04 -0.14509261245E+04  0.21097877262E+04  0.47000000000E+01 0. -1.
         -5    1    3    3    0  502  0.62719320916E+02  0.11096990223E+03 -0.15689992253E+03  0.20220709213E+03  0.47000000000E+01 0.  1.
         11    1    5    5    0    0 -0.35152856625E+03 -0.67301908006E+03 -0.17479355680E+03  0.77915325996E+03  0.00000000000E+00 0.  1.
        -11    1    5    5    0    0 -0.31420655206E+03 -0.80110641874E+03 -0.16807717651E+03  0.87678229268E+03  0.00000000000E+00 0. -1.
          4    1    6    6  503    0  0.22936996944E+02 -0.27516459567E+01  0.21934315570E+02  0.31855793567E+02  0.00000000000E+00 0.  1.
         -4    1    6    6    0  503 -0.88109603244E+02 -0.12323434107E+02  0.41613873007E+02  0.98218550380E+02  0.00000000000E+00 0. -1.
<mgrwt>
<rscale>  0 0.16955549E+04</rscale>
<asrwt>0</asrwt>
<pdfrwt beam="1">  1        1 0.17006586E+00 0.16955549E+04</pdfrwt>
<pdfrwt beam="2">  1       -1 0.46039641E+00 0.16955549E+04</pdfrwt>
<totfact> 0.31947795E-02</totfact>
</mgrwt>
</event>
<event>
12    1  0.3147868E-008  0.2495071E+04  0.7818608E-02  0.8404744E-01
          2   -1    0    0  501    0  0.00000000000E+00  0.00000000000E+00  0.31993898638E+04  0.31993898638E+04  0.00000000000E+00 0.  1.
         -2   -1    0    0    0  501 -0.00000000000E+00 -0.00000000000E+00 -0.19715547712E+04  0.19715547712E+04  0.00000000000E+00 0. -1.
         23    2    1    2    0    0 -0.14408818171E+04  0.20069173683E+04  0.75573655019E+03  0.25850715856E+04  0.87175887779E+02 0.  0.
    5000000    2    1    2    0    0  0.14408818171E+04 -0.20069173683E+04  0.47209854241E+03  0.25858730493E+04  0.60000388307E+03 0.  0.
         23    2    4    4    0    0  0.17054532286E+03 -0.75246199747E+02 -0.45679487931E+02  0.21489078624E+03  0.96663005673E+02 0.  0.
         23    2    4    4    0    0  0.12703364942E+04 -0.19316711685E+04  0.51777803034E+03  0.23709822631E+04  0.91402906958E+02 0.  0.
          5    1    3    3  502    0 -0.36070278328E+03  0.56060259274E+03  0.18509379251E+03  0.69185516323E+03  0.47000000000E+01 0. -1.
         -5    1    3    3    0  502 -0.10801790338E+04  0.14463147755E+04  0.57064275768E+03  0.18932164223E+04  0.47000000000E+01 0.  1.
         11    1    5    5    0    0  0.16546709373E+03 -0.41182107657E+02 -0.55080262774E+02  0.17919029116E+03  0.00000000000E+00 0. -1.
        -11    1    5    5    0    0  0.50782291302E+01 -0.34064092090E+02  0.94007748437E+01  0.35700495077E+02  0.00000000000E+00 0.  1.
          2    1    6    6  503    0  0.12109103623E+04 -0.18062133003E+04  0.47649307276E+03  0.22261527441E+04  0.00000000000E+00 0. -1.
         -2    1    6    6    0  503  0.59426131982E+02 -0.12545786816E+03  0.41284957575E+02  0.14482951898E+03  0.00000000000E+00 0.  1.
<mgrwt>
<rscale>  0 0.24950705E+04</rscale>
<asrwt>0</asrwt>
<pdfrwt beam="1">  1        2 0.49221382E+00 0.24950705E+04</pdfrwt>
<pdfrwt beam="2">  1       -2 0.30331612E+00 0.24950705E+04</pdfrwt>
<totfact> 0.33160350E-02</totfact>
</mgrwt>
</event>
<event>
12    1  0.3147868E-008  0.5125601E+03  0.7818608E-02  0.1010552E+00
         -2   -1    0    0    0  501 -0.00000000000E+00  0.00000000000E+00  0.12937962315E+04  0.12937962315E+04  0.00000000000E+00 0.  1.
          2   -1    0    0  501    0  0.00000000000E+00 -0.00000000000E+00 -0.27341510683E+03  0.27341510683E+03  0.00000000000E+00 0. -1.
         23    2    1    2    0    0 -0.43171426450E+03 -0.70634574783E+01  0.48143560503E+03  0.65257531524E+03  0.87448279926E+02 0.  0.
    5000000    2    1    2    0    0  0.43171426450E+03  0.70634574783E+01  0.53894551964E+03  0.91463602310E+03  0.59972467267E+03 0.  0.
         23    2    4    4    0    0  0.16369019174E+03 -0.18360770874E+03 -0.16359400268E+02  0.26333891854E+03  0.92593123174E+02 0.  0.
         23    2    4    4    0    0  0.26802407276E+03  0.19067116622E+03  0.55530491991E+03  0.65129710456E+03  0.87361130524E+02 0.  0.
          5    1    3    3  502    0 -0.19413025704E+03 -0.44227045100E+02  0.19787783524E+03  0.28074956081E+03  0.47000000000E+01 0. -1.
         -5    1    3    3    0  502 -0.23758400746E+03  0.37163587622E+02  0.28355776979E+03  0.37182575443E+03  0.47000000000E+01 0.  1.
         11    1    5    5    0    0  0.11755735598E+02 -0.30740295957E+02  0.28096593532E+02  0.43273336861E+02  0.00000000000E+00 0.  1.
        -11    1    5    5    0    0  0.15193445614E+03 -0.15286741278E+03 -0.44455993800E+02  0.22006558168E+03  0.00000000000E+00 0. -1.
          1    1    6    6  503    0  0.57819101828E+02  0.82091704387E+02  0.12600010819E+03  0.16111524983E+03  0.00000000000E+00 0. -1.
         -1    1    6    6    0  503  0.21020497093E+03  0.10857946183E+03  0.42930481172E+03  0.49018185473E+03  0.00000000000E+00 0.  1.
<mgrwt>
<rscale>  0 0.51256009E+03</rscale>
<asrwt>0</asrwt>
<pdfrwt beam="1">  1        2 0.42063863E-01 0.51256009E+03</pdfrwt>
<pdfrwt beam="2">  1       -2 0.19904557E+00 0.51256009E+03</pdfrwt>
<totfact> 0.17126577E+01</totfact>
</mgrwt>
</event>
<event>
12    1  0.3147868E-008  0.7537972E+03  0.7818608E-02  0.9629412E-01
         -1   -1    0    0    0  501 -0.00000000000E+00  0.00000000000E+00  0.45681991109E+03  0.45681991109E+03  0.00000000000E+00 0.  1.
          1   -1    0    0  501    0  0.00000000000E+00 -0.00000000000E+00 -0.14152519505E+04  0.14152519505E+04  0.00000000000E+00 0. -1.
         23    2    1    2    0    0  0.57427268361E+03 -0.29161460953E+03 -0.13054929321E+03  0.66368800271E+03  0.92792517800E+02 0.  0.
    5000000    2    1    2    0    0 -0.57427268361E+03  0.29161460953E+03 -0.82788274625E+03  0.12083838589E+04  0.59997792739E+03 0.  0.
         23    2    4    4    0    0  0.91310570995E+02  0.11458775112E+03 -0.25563748258E+03  0.30840896016E+03  0.91091114404E+02 0.  0.
         23    2    4    4    0    0 -0.66558325460E+03  0.17702685841E+03 -0.57224526366E+03  0.89997489877E+03  0.90280669132E+02 0.  0.
          5    1    3    3  502    0  0.81333040700E+02 -0.10553384193E+02 -0.29615598994E+02  0.87324745240E+02  0.47000000000E+01 0. -1.
         -5    1    3    3    0  502  0.49293964291E+03 -0.28106122534E+03 -0.10093369421E+03  0.57636325747E+03  0.47000000000E+01 0.  1.
         11    1    5    5    0    0  0.96133593435E+01  0.79009262257E+02 -0.15317439667E+03  0.17261887497E+03  0.00000000000E+00 0.  1.
        -11    1    5    5    0    0  0.81697211651E+02  0.35578488865E+02 -0.10246308591E+03  0.13579008519E+03  0.00000000000E+00 0. -1.
          1    1    6    6  503    0 -0.21294558831E+03  0.70163632757E+02 -0.13549322534E+03  0.26196788554E+03  0.00000000000E+00 0. -1.
         -1    1    6    6    0  503 -0.45263766629E+03  0.10686322565E+03 -0.43675203832E+03  0.63800701322E+03  0.00000000000E+00 0.  1.
<mgrwt>
<rscale>  0 0.75379719E+03</rscale>
<asrwt>0</asrwt>
<pdfrwt beam="1">  1        1 0.21773107E+00 0.75379719E+03</pdfrwt>
<pdfrwt beam="2">  1       -1 0.70279987E-01 0.75379719E+03</pdfrwt>
<totfact> 0.15865650E+01</totfact>
</mgrwt>
</event>
<event>
12    1  0.3147868E-008  0.5759820E+03  0.7818608E-02  0.9956528E-01
         -3   -1    0    0    0  501 -0.00000000000E+00  0.00000000000E+00  0.75770547875E+03  0.75770547875E+03  0.00000000000E+00 0.  1.
          3   -1    0    0  501    0  0.00000000000E+00 -0.00000000000E+00 -0.64461727394E+03  0.64461727394E+03  0.00000000000E+00 0. -1.
         23    2    1    2    0    0  0.48362171044E+02  0.53021400657E+03  0.23559660075E+03  0.59059049218E+03  0.99124057695E+02 0.  0.
    5000000    2    1    2    0    0 -0.48362171044E+02 -0.53021400657E+03 -0.12250839594E+03  0.81173226052E+03  0.60036252659E+03 0.  0.
         23    2    4    4    0    0 -0.13162968431E+03 -0.86336092051E+02 -0.27236153900E+03  0.32755134565E+03  0.91262158263E+02 0.  0.
         23    2    4    4    0    0  0.83267513266E+02 -0.44387791452E+03  0.14985314306E+03  0.48418091487E+03  0.89521573230E+02 0.  0.
          5    1    3    3  502    0  0.15057300846E+02  0.16133564923E+03  0.23622490175E+02  0.16381705058E+03  0.47000000000E+01 0. -1.
         -5    1    3    3    0  502  0.33304870198E+02  0.36887835734E+03  0.21197411057E+03  0.42677344159E+03  0.47000000000E+01 0.  1.
         11    1    5    5    0    0 -0.46582678055E+02 -0.45691928937E+02 -0.19494324659E+03  0.20557375235E+03  0.00000000000E+00 0. -1.
        -11    1    5    5    0    0 -0.85047006254E+02 -0.40644163115E+02 -0.77418292409E+02  0.12197759330E+03  0.00000000000E+00 0.  1.
          4    1    6    6  503    0  0.10044817608E+03 -0.33570911585E+03  0.10478677028E+03  0.36574678914E+03  0.00000000000E+00 0. -1.
         -4    1    6    6    0  503 -0.17180662818E+02 -0.10816879867E+03  0.45066372779E+02  0.11843412572E+03  0.00000000000E+00 0.  1.
<mgrwt>
<rscale>  0 0.57598197E+03</rscale>
<asrwt>0</asrwt>
<pdfrwt beam="1">  1        3 0.99171888E-01 0.57598197E+03</pdfrwt>
<pdfrwt beam="2">  1       -3 0.11657007E+00 0.57598197E+03</pdfrwt>
<totfact> 0.14139783E+00</totfact>
</mgrwt>
</event>
<event>
12    1  0.3307632E-008  0.1023792E+04  0.7818608E-02  0.9282829E-01
          2   -1    0    0  501    0  0.00000000000E+00  0.00000000000E+00  0.14690051619E+04  0.14690051619E+04  0.00000000000E+00 0. -1.
         -2   -1    0    0    0  501 -0.00000000000E+00 -0.00000000000E+00 -0.80439067124E+03  0.80439067124E+03  0.00000000000E+00 0.  1.
         23    2    1    2    0    0  0.54747110421E+03 -0.78699750624E+03  0.25887858028E+01  0.96292585139E+03  0.90165451856E+02 0.  0.
    5000000    2    1    2    0    0 -0.54747110421E+03  0.78699750624E+03  0.66202570485E+03  0.13104699817E+04  0.59996987791E+03 0.  0.
         23    2    4    4    0    0 -0.64676809259E+03  0.68672698913E+03  0.47706221488E+03  0.10610367541E+04  0.91146659387E+02 0.  0.
         23    2    4    4    0    0  0.99296988383E+02  0.10027051710E+03  0.18496348997E+03  0.24943322763E+03  0.89952064572E+02 0.  0.
          5    1    3    3  502    0  0.41952946682E+03 -0.57440570105E+03  0.37569700304E+02  0.71230643357E+03  0.47000000000E+01 0. -1.
         -5    1    3    3    0  502  0.12794163738E+03 -0.21259180519E+03 -0.34980914501E+02  0.25061941782E+03  0.47000000000E+01 0.  1.
         13    1    5    5    0    0 -0.22760743596E+03  0.27313851062E+03  0.13687024866E+03  0.38097671301E+03  0.00000000000E+00 0. -1.
        -13    1    5    5    0    0 -0.41916065663E+03  0.41358847851E+03  0.34019196621E+03  0.68006004110E+03  0.00000000000E+00 0.  1.
          2    1    6    6  503    0  0.70702538861E+02  0.52625975857E+02  0.45249874738E+02  0.99075191144E+02  0.00000000000E+00 0.  1.
         -2    1    6    6    0  503  0.28594449522E+02  0.47644541246E+02  0.13971361524E+03  0.15035803649E+03  0.00000000000E+00 0. -1.
<mgrwt>
<rscale>  0 0.10237916E+04</rscale>
<asrwt>0</asrwt>
<pdfrwt beam="1">  1        2 0.22600079E+00 0.10237916E+04</pdfrwt>
<pdfrwt beam="2">  1       -2 0.12375241E+00 0.10237916E+04</pdfrwt>
<totfact> 0.64411971E+00</totfact>
</mgrwt>
</event>
<event>
12    1  0.3147868E-008  0.1106286E+04  0.7818608E-02  0.9199086E-01
          2   -1    0    0  501    0  0.00000000000E+00  0.00000000000E+00  0.23623293374E+04  0.23623293374E+04  0.00000000000E+00 0. -1.
         -2   -1    0    0    0  501 -0.00000000000E+00 -0.00000000000E+00 -0.55781175955E+03  0.55781175955E+03  0.00000000000E+00 0.  1.
         23    2    1    2    0    0 -0.36253253662E+03  0.10037202229E+04  0.87978295954E+03  0.13859007190E+04  0.88422966092E+02 0.  0.
    5000000    2    1    2    0    0  0.36253253662E+03 -0.10037202229E+04  0.92473461827E+03  0.15342403780E+04  0.59989607193E+03 0.  0.
         23    2    4    4    0    0 -0.68386883364E+02 -0.24783398471E+03  0.47913157460E+03  0.55244513888E+03  0.97622312497E+02 0.  0.
         23    2    4    4    0    0  0.43091941999E+03 -0.75588623820E+03  0.44560304367E+03  0.98179523907E+03  0.91127752694E+02 0.  0.
          5    1    3    3  502    0 -0.16959324732E+03  0.57747643928E+03  0.52543086286E+03  0.79896219504E+03  0.47000000000E+01 0. -1.
         -5    1    3    3    0  502 -0.19293928930E+03  0.42624378364E+03  0.35435209668E+03  0.58693852393E+03  0.47000000000E+01 0.  1.
         11    1    5    5    0    0 -0.60159782274E+01 -0.16058978658E+03  0.34593111358E+03  0.38143624224E+03  0.00000000000E+00 0. -1.
        -11    1    5    5    0    0 -0.62370905137E+02 -0.87244198127E+02  0.13320046102E+03  0.17100889664E+03  0.00000000000E+00 0.  1.
          3    1    6    6  503    0  0.35009882630E+03 -0.67558233690E+03  0.38616868659E+03  0.85329182382E+03  0.00000000000E+00 0. -1.
         -3    1    6    6    0  503  0.80820593685E+02 -0.80303901306E+02  0.59434357082E+02  0.12850341525E+03  0.00000000000E+00 0.  1.
<mgrwt>
<rscale>  0 0.11062864E+04</rscale>
<asrwt>0</asrwt>
<pdfrwt beam="1">  1        2 0.36343528E+00 0.11062864E+04</pdfrwt>
<pdfrwt beam="2">  1       -2 0.85817195E-01 0.11062864E+04</pdfrwt>
<totfact> 0.48967492E+00</totfact>
</mgrwt>
</event>
<event>
12    1  0.3147868E-008  0.3086576E+03  0.7818608E-02  0.1080991E+00
         -1   -1    0    0    0  501 -0.00000000000E+00  0.00000000000E+00  0.18099939189E+03  0.18099939189E+03  0.00000000000E+00 0.  1.
          1   -1    0    0  501    0  0.00000000000E+00 -0.00000000000E+00 -0.85620433589E+03  0.85620433589E+03  0.00000000000E+00 0. -1.
         23    2    1    2    0    0 -0.11752559432E+02 -0.12539456965E+03 -0.54840187698E+02  0.16489809751E+03  0.91225082210E+02 0.  0.
    5000000    2    1    2    0    0  0.11752559432E+02  0.12539456965E+03 -0.62036475631E+03  0.87230563027E+03  0.60016894371E+03 0.  0.
         23    2    4    4    0    0  0.22934947354E+03  0.12999050843E+03 -0.56522912850E+03  0.63018613250E+03  0.90287765524E+02 0.  0.
         23    2    4    4    0    0 -0.21759691410E+03 -0.45959387847E+01 -0.55135627809E+02  0.24211949777E+03  0.90622149973E+02 0.  0.
          5    1    3    3  502    0 -0.53861359176E+01 -0.52212453666E+02  0.23235501438E+02  0.57594524957E+02  0.47000000000E+01 0. -1.
         -5    1    3    3    0  502 -0.63664235141E+01 -0.73182115982E+02 -0.78075689136E+02  0.10730357255E+03  0.47000000000E+01 0.  1.
         13    1    5    5    0    0  0.22353229974E+03  0.10530153779E+03 -0.46245167781E+03  0.52432495382E+03  0.00000000000E+00 0.  1.
        -13    1    5    5    0    0  0.58171737937E+01  0.24688970645E+02 -0.10277745069E+03  0.10586117868E+03  0.00000000000E+00 0. -1.
          1    1    6    6  503    0 -0.83942077592E+02 -0.11443252945E+02 -0.66652043619E+02  0.10779478349E+03  0.00000000000E+00 0. -1.
         -1    1    6    6    0  503 -0.13365483651E+03  0.68473141603E+01  0.11516415809E+02  0.13432471428E+03  0.00000000000E+00 0.  1.
<mgrwt>
<rscale>  0 0.30865759E+03</rscale>
<asrwt>0</asrwt>
<pdfrwt beam="1">  1        1 0.13172374E+00 0.30865759E+03</pdfrwt>
<pdfrwt beam="2">  1       -1 0.27846061E-01 0.30865759E+03</pdfrwt>
<totfact> 0.24125326E+02</totfact>
</mgrwt>
</event>
<event>
12    1  0.3147868E-008  0.5334726E+03  0.7818608E-02  0.1005393E+00
         -1   -1    0    0    0  501 -0.00000000000E+00  0.00000000000E+00  0.64575030121E+03  0.64575030121E+03  0.00000000000E+00 0.  1.
          1   -1    0    0  501    0  0.00000000000E+00 -0.00000000000E+00 -0.14874815942E+04  0.14874815942E+04  0.00000000000E+00 0. -1.
         23    2    1    2    0    0  0.38420344187E+03 -0.14441679916E+03 -0.12364117757E+04  0.13060628594E+04  0.92831120074E+02 0.  0.
    5000000    2    1    2    0    0 -0.38420344187E+03  0.14441679916E+03  0.39468048266E+03  0.82716903611E+03  0.59997286128E+03 0.  0.
         23    2    4    4    0    0 -0.32888101086E+03 -0.13416968470E+03  0.38169895956E+03  0.52952795949E+03  0.92420455255E+02 0.  0.
         23    2    4    4    0    0 -0.55322431011E+02  0.27858648386E+03  0.12981523100E+02  0.29764107662E+03  0.88038004204E+02 0.  0.
          5    1    3    3  502    0  0.10773253540E+03 -0.61189314432E+02 -0.49785416485E+03  0.51306070873E+03  0.47000000000E+01 0. -1.
         -5    1    3    3    0  502  0.27647090648E+03 -0.83227484725E+02 -0.73855761085E+03  0.79300215062E+03  0.47000000000E+01 0.  1.
         13    1    5    5    0    0 -0.52176341762E+02 -0.68101181069E+01  0.10749222505E+03  0.11968010191E+03  0.00000000000E+00 0.  1.
        -13    1    5    5    0    0 -0.27670466910E+03 -0.12735956660E+03  0.27420673452E+03  0.40984785758E+03  0.00000000000E+00 0. -1.
          3    1    6    6  503    0 -0.74776712336E+02  0.15775377239E+03  0.15130896630E+02  0.17523342559E+03  0.00000000000E+00 0. -1.
         -3    1    6    6    0  503  0.19454281325E+02  0.12083271147E+03 -0.21493735299E+01  0.12240765102E+03  0.00000000000E+00 0.  1.
<mgrwt>
<rscale>  0 0.53347258E+03</rscale>
<asrwt>0</asrwt>
<pdfrwt beam="1">  1        1 0.22884332E+00 0.53347258E+03</pdfrwt>
<pdfrwt beam="2">  1       -1 0.99346202E-01 0.53347258E+03</pdfrwt>
<totfact> 0.69985390E+00</totfact>
</mgrwt>
</event>
<event>
12    1  0.3147868E-008  0.1197026E+04  0.7818608E-02  0.9115464E-01
         -1   -1    0    0    0  501 -0.00000000000E+00  0.00000000000E+00  0.20614021878E+04  0.20614021878E+04  0.00000000000E+00 0.  1.
          1   -1    0    0  501    0  0.00000000000E+00 -0.00000000000E+00 -0.77630904701E+03  0.77630904701E+03  0.00000000000E+00 0. -1.
         23    2    1    2    0    0 -0.70705324262E+03 -0.95849828431E+03  0.55534902021E+03  0.13174401867E+04  0.92697692897E+02 0.  0.
    5000000    2    1    2    0    0  0.70705324262E+03  0.95849828431E+03  0.72974412062E+03  0.15202710482E+04  0.60004527282E+03 0.  0.
         23    2    4    4    0    0  0.14331682689E+03  0.18154255058E+03  0.45332905350E+03  0.51711690881E+03  0.91680183751E+02 0.  0.
         23    2    4    4    0    0  0.56373641573E+03  0.77695573373E+03  0.27641506712E+03  0.10031541394E+04  0.91945524121E+02 0.  0.
          5    1    3    3  502    0 -0.55711605157E+03 -0.68774791127E+03  0.40660361548E+03  0.97402467859E+03  0.47000000000E+01 0. -1.
         -5    1    3    3    0  502 -0.14993719105E+03 -0.27075037304E+03  0.14874540473E+03  0.34341550808E+03  0.47000000000E+01 0.  1.
         13    1    5    5    0    0  0.81932193858E+02  0.69662269456E+02  0.29355634703E+03  0.31263564266E+03  0.00000000000E+00 0. -1.
        -13    1    5    5    0    0  0.61384633032E+02  0.11188028113E+03  0.15977270647E+03  0.20448126616E+03  0.00000000000E+00 0.  1.
          3    1    6    6  503    0  0.51020269208E+03  0.64879608673E+03  0.23285414048E+03  0.85759209412E+03  0.00000000000E+00 0. -1.
         -3    1    6    6    0  503  0.53533723654E+02  0.12815964700E+03  0.43560926641E+02  0.14556204525E+03  0.00000000000E+00 0.  1.
<mgrwt>
<rscale>  0 0.11970256E+04</rscale>
<asrwt>0</asrwt>
<pdfrwt beam="1">  1        1 0.11943216E+00 0.11970256E+04</pdfrwt>
<pdfrwt beam="2">  1       -1 0.31713880E+00 0.11970256E+04</pdfrwt>
<totfact> 0.58609699E-01</totfact>
</mgrwt>
</event>
<event>
12    1  0.3147868E-008  0.3419881E+03  0.7818608E-02  0.1065952E+00
          2   -1    0    0  501    0  0.00000000000E+00  0.00000000000E+00  0.19542517039E+04  0.19542517039E+04  0.00000000000E+00 0. -1.
         -2   -1    0    0    0  501 -0.00000000000E+00 -0.00000000000E+00 -0.15774481096E+03  0.15774481096E+03  0.00000000000E+00 0.  1.
         23    2    1    2    0    0  0.18531490755E+03 -0.20574905143E+03  0.12904167916E+03  0.31836287441E+03  0.89604005031E+02 0.  0.
    5000000    2    1    2    0    0 -0.18531490755E+03  0.20574905143E+03  0.16674652138E+04  0.17936336405E+04  0.60000592485E+03 0.  0.
         23    2    4    4    0    0 -0.77272149297E+02 -0.65705840715E+02  0.46663170399E+02  0.14423263343E+03  0.91309137077E+02 0.  0.
         23    2    4    4    0    0 -0.10804275826E+03  0.27145489215E+03  0.16208020434E+04  0.16494010071E+04  0.90351657585E+02 0.  0.
          5    1    3    3  502    0  0.12335434963E+03 -0.72879756817E+02  0.50572536384E+02  0.15201126920E+03  0.47000000000E+01 0. -1.
         -5    1    3    3    0  502  0.61960557919E+02 -0.13286929461E+03  0.78469142777E+02  0.16635160521E+03  0.47000000000E+01 0.  1.
         13    1    5    5    0    0 -0.45556870917E+02 -0.33301511880E+02 -0.23144040507E+02  0.60992342079E+02  0.00000000000E+00 0.  1.
        -13    1    5    5    0    0 -0.31715278380E+02 -0.32404328835E+02  0.69807210906E+02  0.83240291353E+02  0.00000000000E+00 0. -1.
          1    1    6    6  503    0 -0.54135673608E+02  0.13401239180E+03  0.10461534310E+04  0.10560904287E+04  0.00000000000E+00 0. -1.
         -1    1    6    6    0  503 -0.53907084648E+02  0.13744250034E+03  0.57464861242E+03  0.59331057839E+03  0.00000000000E+00 0.  1.
<mgrwt>
<rscale>  0 0.34198805E+03</rscale>
<asrwt>0</asrwt>
<pdfrwt beam="1">  1        2 0.30065409E+00 0.34198805E+03</pdfrwt>
<pdfrwt beam="2">  1       -2 0.24268434E-01 0.34198805E+03</pdfrwt>
<totfact> 0.11660891E+02</totfact>
</mgrwt>
</event>
<event>
12    1  0.3147868E-008  0.9921130E+03  0.7818608E-02  0.9317238E-01
         -2   -1    0    0    0  501 -0.00000000000E+00  0.00000000000E+00  0.98533660238E+03  0.98533660238E+03  0.00000000000E+00 0.  1.
          2   -1    0    0  501    0  0.00000000000E+00 -0.00000000000E+00 -0.11074051800E+04  0.11074051800E+04  0.00000000000E+00 0. -1.
         23    2    1    2    0    0  0.41869559430E+03 -0.85896652457E+03 -0.33888305382E+02  0.96091236188E+03  0.95261004330E+02 0.  0.
    5000000    2    1    2    0    0 -0.41869559430E+03  0.85896652457E+03 -0.88180272187E+02  0.11318294205E+04  0.60011047782E+03 0.  0.
         23    2    4    4    0    0 -0.41713162279E+03  0.85138327763E+03 -0.21687245583E+03  0.97725975029E+03  0.95659193445E+02 0.  0.
         23    2    4    4    0    0 -0.15639715101E+01  0.75832469477E+01  0.12869218365E+03  0.15456967016E+03  0.85265193143E+02 0.  0.
          5    1    3    3  502    0  0.30633633588E+03 -0.52951165203E+03 -0.35546926442E+02  0.61278888232E+03  0.47000000000E+01 0. -1.
         -5    1    3    3    0  502  0.11235925841E+03 -0.32945487255E+03  0.16586210596E+01  0.34812347956E+03  0.47000000000E+01 0.  1.
         13    1    5    5    0    0 -0.15935119030E+03  0.34919149108E+03 -0.13491137979E+03  0.40685203661E+03  0.00000000000E+00 0. -1.
        -13    1    5    5    0    0 -0.25778043249E+03  0.50219178654E+03 -0.81961076045E+02  0.57040771368E+03  0.00000000000E+00 0.  1.
          1    1    6    6  503    0  0.37016413906E+02  0.51264263455E+01  0.27953132341E+02  0.46667684249E+02  0.00000000000E+00 0. -1.
         -1    1    6    6    0  503 -0.38580385416E+02  0.24568206023E+01  0.10073905131E+03  0.10790198591E+03  0.00000000000E+00 0.  1.
<mgrwt>
<rscale>  0 0.99211299E+03</rscale>
<asrwt>0</asrwt>
<pdfrwt beam="1">  1        2 0.17037003E+00 0.99211299E+03</pdfrwt>
<pdfrwt beam="2">  1       -2 0.15159025E+00 0.99211299E+03</pdfrwt>
<totfact> 0.62304216E+00</totfact>
</mgrwt>
</event>
<event>
12    1  0.3147868E-008  0.1099585E+04  0.7818608E-02  0.9205597E-01
         -1   -1    0    0    0  501 -0.00000000000E+00  0.00000000000E+00  0.84850443693E+03  0.84850443693E+03  0.00000000000E+00 0.  1.
          1   -1    0    0  501    0  0.00000000000E+00 -0.00000000000E+00 -0.16536732224E+04  0.16536732224E+04  0.00000000000E+00 0. -1.
         23    2    1    2    0    0 -0.10402668768E+04 -0.12216872828E+03 -0.75420777178E+03  0.12939797342E+04  0.92053333331E+02 0.  0.
    5000000    2    1    2    0    0  0.10402668768E+04  0.12216872828E+03 -0.50961013663E+02  0.12081979251E+04  0.60005402106E+03 0.  0.
         23    2    4    4    0    0  0.64599591084E+03 -0.15594050457E+03 -0.19175486072E+03  0.69754006049E+03  0.90355141442E+02 0.  0.
         23    2    4    4    0    0  0.39427096600E+03  0.27810923285E+03  0.14079384706E+03  0.51065786466E+03  0.90300649744E+02 0.  0.
          5    1    3    3  502    0 -0.78531595693E+03 -0.12091056415E+03 -0.60340949281E+03  0.99773023546E+03  0.47000000000E+01 0. -1.
         -5    1    3    3    0  502 -0.25495091991E+03 -0.12581641319E+01 -0.15079827897E+03  0.29624949870E+03  0.47000000000E+01 0.  1.
         11    1    5    5    0    0  0.53568780840E+03 -0.11122483801E+03 -0.12552482542E+03  0.56132777809E+03  0.00000000000E+00 0. -1.
        -11    1    5    5    0    0  0.11030810244E+03 -0.44715666559E+02 -0.66230035299E+02  0.13621228240E+03  0.00000000000E+00 0.  1.
          2    1    6    6  503    0  0.27634456910E+03  0.21166215732E+03  0.14029231196E+03  0.37529871104E+03  0.00000000000E+00 0. -1.
         -2    1    6    6    0  503  0.11792639690E+03  0.66447075527E+02  0.50153510187E+00  0.13535915362E+03  0.00000000000E+00 0.  1.
<mgrwt>
<rscale>  0 0.10995846E+04</rscale>
<asrwt>0</asrwt>
<pdfrwt beam="1">  1        1 0.25441126E+00 0.10995846E+04</pdfrwt>
<pdfrwt beam="2">  1       -1 0.13053915E+00 0.10995846E+04</pdfrwt>
<totfact> 0.25574174E+00</totfact>
</mgrwt>
</event>
<event>
12    1  0.3147868E-008  0.6012490E+03  0.7818608E-02  0.9902818E-01
         -2   -1    0    0    0  501 -0.00000000000E+00  0.00000000000E+00  0.29966555909E+03  0.29966555909E+03  0.00000000000E+00 0.  1.
          2   -1    0    0  501    0  0.00000000000E+00 -0.00000000000E+00 -0.16470643586E+04  0.16470643586E+04  0.00000000000E+00 0. -1.
         23    2    1    2    0    0  0.20697398625E+03 -0.52355007244E+03 -0.43175318542E+03  0.71548116209E+03  0.92517948804E+02 0.  0.
    5000000    2    1    2    0    0 -0.20697398625E+03  0.52355007244E+03 -0.91564561413E+03  0.12312487556E+04  0.60051952363E+03 0.  0.
         23    2    4    4    0    0  0.32894497261E+02  0.68294752243E+02 -0.61964509053E+03  0.63116554000E+03  0.93078888703E+02 0.  0.
         23    2    4    4    0    0 -0.23986848351E+03  0.45525532019E+03 -0.29600052360E+03  0.60008321565E+03  0.87688424455E+02 0.  0.
          5    1    3    3  502    0  0.24730964709E+02 -0.11003668552E+03 -0.48194964143E+02  0.12273767695E+03  0.47000000000E+01 0. -1.
         -5    1    3    3    0  502  0.18224302154E+03 -0.41351338692E+03 -0.38355822128E+03  0.59274348514E+03  0.47000000000E+01 0.  1.
         11    1    5    5    0    0 -0.28522008210E+02  0.66233153474E+01 -0.97008004278E+02  0.10133077594E+03  0.00000000000E+00 0.  1.
        -11    1    5    5    0    0  0.61416505471E+02  0.61671436896E+02 -0.52263708626E+03  0.52983476406E+03  0.00000000000E+00 0. -1.
          1    1    6    6  503    0 -0.11145522350E+03  0.29921961973E+03 -0.16701642191E+03  0.36034585173E+03  0.00000000000E+00 0. -1.
         -1    1    6    6    0  503 -0.12841326001E+03  0.15603570047E+03 -0.12898410169E+03  0.23973736391E+03  0.00000000000E+00 0.  1.
<mgrwt>
<rscale>  0 0.60124905E+03</rscale>
<asrwt>0</asrwt>
<pdfrwt beam="1">  1        2 0.25339451E+00 0.60124905E+03</pdfrwt>
<pdfrwt beam="2">  1       -2 0.46102394E-01 0.60124905E+03</pdfrwt>
<totfact> 0.48839207E+01</totfact>
</mgrwt>
</event>
<event>
12    1  0.3147868E-008  0.1063143E+04  0.7818608E-02  0.9241879E-01
         -1   -1    0    0    0  501 -0.00000000000E+00  0.00000000000E+00  0.10165614771E+04  0.10165614771E+04  0.00000000000E+00 0.  1.
          1   -1    0    0  501    0  0.00000000000E+00 -0.00000000000E+00 -0.12042508529E+04  0.12042508529E+04  0.00000000000E+00 0. -1.
         23    2    1    2    0    0  0.25735691688E+03  0.95372129341E+03 -0.35450978947E+03  0.10534737940E+04  0.91175411125E+02 0.  0.
    5000000    2    1    2    0    0 -0.25735691688E+03 -0.95372129341E+03  0.16682041363E+03  0.11673385361E+04  0.59919389115E+03 0.  0.
         23    2    4    4    0    0 -0.17613806604E+03 -0.11874957058E+02  0.78467148158E+02  0.21350159034E+03  0.90885657965E+02 0.  0.
         23    2    4    4    0    0 -0.81218850837E+02 -0.94184633635E+03  0.88353265473E+02  0.95383694572E+03  0.91255665421E+02 0.  0.
          5    1    3    3  502    0  0.39438059302E+02  0.78394951947E+02 -0.12541790893E+02  0.88772267804E+02  0.47000000000E+01 0. -1.
         -5    1    3    3    0  502  0.21791885757E+03  0.87532634146E+03 -0.34196799858E+03  0.96470152617E+03  0.47000000000E+01 0.  1.
         13    1    5    5    0    0 -0.98811604045E+02  0.28310138209E+02  0.11161626443E+02  0.10339138709E+03  0.00000000000E+00 0. -1.
        -13    1    5    5    0    0 -0.77326461995E+02 -0.40185095267E+02  0.67305521715E+02  0.11011020325E+03  0.00000000000E+00 0.  1.
          2    1    6    6  503    0 -0.56473037526E+01 -0.31213450640E+03  0.66732422844E+02  0.31923824706E+03  0.00000000000E+00 0. -1.
         -2    1    6    6    0  503 -0.75571547084E+02 -0.62971182995E+03  0.21620842629E+02  0.63459869866E+03  0.00000000000E+00 0.  1.
<mgrwt>
<rscale>  0 0.10631434E+04</rscale>
<asrwt>0</asrwt>
<pdfrwt beam="1">  1        1 0.18526936E+00 0.10631434E+04</pdfrwt>
<pdfrwt beam="2">  1       -1 0.15639407E+00 0.10631434E+04</pdfrwt>
<totfact> 0.32895409E+00</totfact>
</mgrwt>
</event>
<event>
12    1  0.3147868E-008  0.3892144E+03  0.7818608E-02  0.1047580E+00
         -2   -1    0    0    0  501 -0.00000000000E+00  0.00000000000E+00  0.80207299241E+03  0.80207299241E+03  0.00000000000E+00 0.  1.
          2   -1    0    0  501    0  0.00000000000E+00 -0.00000000000E+00 -0.43441286047E+03  0.43441286047E+03  0.00000000000E+00 0. -1.
         23    2    1    2    0    0 -0.15149763006E+03 -0.31771987471E+03 -0.12262855352E+03  0.38523779435E+03  0.97329057094E+02 0.  0.
    5000000    2    1    2    0    0  0.15149763006E+03  0.31771987471E+03  0.49028868546E+03  0.85124805853E+03  0.60028560816E+03 0.  0.
         23    2    4    4    0    0  0.16110568747E+03  0.31538682876E+03  0.60252854287E+03  0.70520317981E+03  0.94058415626E+02 0.  0.
         23    2    4    4    0    0 -0.96080574057E+01  0.23330459489E+01 -0.11223985741E+03  0.14604487873E+03  0.92916969070E+02 0.  0.
          5    1    3    3  502    0 -0.39644877306E+02 -0.17448014363E+03 -0.90695475236E+02  0.20065591456E+03  0.47000000000E+01 0. -1.
         -5    1    3    3    0  502 -0.11185275275E+03 -0.14323973108E+03 -0.31933078284E+02  0.18458187979E+03  0.47000000000E+01 0.  1.
         13    1    5    5    0    0  0.10793206130E+03  0.21085219599E+03  0.48184409476E+03  0.53691871831E+03  0.00000000000E+00 0. -1.
        -13    1    5    5    0    0  0.53173626163E+02  0.10453463277E+03  0.12068444811E+03  0.16828446150E+03  0.00000000000E+00 0.  1.
          2    1    6    6  503    0  0.89213064311E+01 -0.27198947282E+02 -0.10703295386E+03  0.11079451996E+03  0.00000000000E+00 0. -1.
         -2    1    6    6    0  503 -0.18529363837E+02  0.29531993231E+02 -0.52069035450E+01  0.35250358763E+02  0.00000000000E+00 0.  1.
<mgrwt>
<rscale>  0 0.38921440E+03</rscale>
<asrwt>0</asrwt>
<pdfrwt beam="1">  1        2 0.66832748E-01 0.38921440E+03</pdfrwt>
<pdfrwt beam="2">  1       -2 0.12339585E+00 0.38921440E+03</pdfrwt>
<totfact> 0.37552222E+01</totfact>
</mgrwt>
</event>
<event>
12    1  0.4235208E-008  0.8287771E+03  0.7818608E-02  0.9519273E-01
          2   -1    0    0  501    0  0.00000000000E+00  0.00000000000E+00  0.12699938465E+04  0.12699938465E+04  0.00000000000E+00 0. -1.
         -2   -1    0    0    0  501 -0.00000000000E+00 -0.00000000000E+00 -0.56140485339E+03  0.56140485339E+03  0.00000000000E+00 0.  1.
         23    2    1    2    0    0  0.30426785532E+03 -0.66613737449E+03  0.37209552909E+03  0.82662947395E+03  0.92429838070E+02 0.  0.
    5000000    2    1    2    0    0 -0.30426785532E+03  0.66613737449E+03  0.33649346403E+03  0.10047692259E+04  0.60001284703E+03 0.  0.
         23    2    4    4    0    0 -0.45730237159E+03  0.59939944050E+03  0.29602508408E+03  0.81459323995E+03  0.86753373682E+02 0.  0.
         23    2    4    4    0    0  0.15303451627E+03  0.66737933992E+02  0.40468379947E+02  0.19017598599E+03  0.81582478943E+02 0.  0.
          5    1    3    3  502    0  0.17622483405E+03 -0.47305492194E+03  0.22959271574E+03  0.55459089105E+03  0.47000000000E+01 0. -1.
         -5    1    3    3    0  502  0.12804302127E+03 -0.19308245255E+03  0.14250281335E+03  0.27203858291E+03  0.47000000000E+01 0.  1.
         13    1    5    5    0    0 -0.24327881424E+03  0.32896496014E+03  0.11454216137E+03  0.42487931602E+03  0.00000000000E+00 0. -1.
        -13    1    5    5    0    0 -0.21402355735E+03  0.27043448036E+03  0.18148292271E+03  0.38971392393E+03  0.00000000000E+00 0.  1.
          1    1    6    6  503    0  0.93500701325E+02  0.39760763751E+02 -0.17154207790E+02  0.10304157572E+03  0.00000000000E+00 0. -1.
         -1    1    6    6    0  503  0.59533814941E+02  0.26977170241E+02  0.57622587737E+02  0.87134410270E+02  0.00000000000E+00 0.  1.
<mgrwt>
<rscale>  0 0.82877707E+03</rscale>
<asrwt>0</asrwt>
<pdfrwt beam="1">  1        2 0.19538367E+00 0.82877707E+03</pdfrwt>
<pdfrwt beam="2">  1       -2 0.86369978E-01 0.82877707E+03</pdfrwt>
<totfact> 0.20227313E+01</totfact>
</mgrwt>
</event>
<event>
12    1  0.3147868E-008  0.6736849E+03  0.7818608E-02  0.9763324E-01
          1   -1    0    0  501    0  0.00000000000E+00  0.00000000000E+00  0.17477451300E+04  0.17477451300E+04  0.00000000000E+00 0. -1.
         -1   -1    0    0    0  501 -0.00000000000E+00 -0.00000000000E+00 -0.26989340708E+03  0.26989340708E+03  0.00000000000E+00 0.  1.
         23    2    1    2    0    0  0.51104436031E+03  0.20610308633E+03  0.58300333881E+03  0.80754667702E+03  0.92703409391E+02 0.  0.
    5000000    2    1    2    0    0 -0.51104436031E+03 -0.20610308633E+03  0.89484838411E+03  0.12100918601E+04  0.59993654569E+03 0.  0.
         23    2    4    4    0    0  0.73052055303E+02 -0.18164855016E+03  0.17322226572E+03  0.27697504807E+03  0.91522813302E+02 0.  0.
         23    2    4    4    0    0 -0.58409641561E+03 -0.24454536173E+02  0.72162611840E+03  0.93311681200E+03  0.90532220841E+02 0.  0.
          5    1    3    3  502    0  0.21954882367E+03  0.46615592623E+02  0.20210200211E+03  0.30206292177E+03  0.47000000000E+01 0. -1.
         -5    1    3    3    0  502  0.29149553664E+03  0.15948749371E+03  0.38090133670E+03  0.50548375526E+03  0.47000000000E+01 0.  1.
         11    1    5    5    0    0  0.80056154159E+02 -0.13014672838E+03  0.85720035941E+02  0.17520012354E+03  0.00000000000E+00 0. -1.
        -11    1    5    5    0    0 -0.70040988563E+01 -0.51501821778E+02  0.87502229776E+02  0.10177492453E+03  0.00000000000E+00 0.  1.
          1    1    6    6  503    0 -0.21322716387E+03 -0.26916856531E+02  0.20386387383E+03  0.29622764832E+03  0.00000000000E+00 0. -1.
         -1    1    6    6    0  503 -0.37086925174E+03  0.24623203573E+01  0.51776224457E+03  0.63688916368E+03  0.00000000000E+00 0.  1.
<mgrwt>
<rscale>  0 0.67368493E+03</rscale>
<asrwt>0</asrwt>
<pdfrwt beam="1">  1        1 0.26888386E+00 0.67368493E+03</pdfrwt>
<pdfrwt beam="2">  1       -1 0.41522064E-01 0.67368493E+03</pdfrwt>
<totfact> 0.26316187E+01</totfact>
</mgrwt>
</event>
<event>
12    1  0.3147868E-008  0.5188953E+03  0.7818608E-02  0.1008961E+00
          2   -1    0    0  501    0  0.00000000000E+00  0.00000000000E+00  0.11528262378E+04  0.11528262378E+04  0.00000000000E+00 0.  1.
         -2   -1    0    0    0  501 -0.00000000000E+00 -0.00000000000E+00 -0.26869398833E+03  0.26869398833E+03  0.00000000000E+00 0. -1.
         23    2    1    2    0    0  0.35129306633E+03 -0.23374951763E+02  0.52355822617E+03  0.63800278836E+03  0.94768850050E+02 0.  0.
    5000000    2    1    2    0    0 -0.35129306633E+03  0.23374951763E+02  0.36057402325E+03  0.78351743773E+03  0.59994394918E+03 0.  0.
         23    2    4    4    0    0 -0.44371303767E+03  0.17755346068E+03  0.30410042751E+03  0.57394110696E+03  0.92330022475E+02 0.  0.
         23    2    4    4    0    0  0.92419971339E+02 -0.15417850891E+03  0.56473595739E+02  0.20957633077E+03  0.91763324312E+02 0.  0.
          5    1    3    3  502    0  0.30716119123E+03  0.10894519259E+02  0.45991187187E+03  0.55317963433E+03  0.47000000000E+01 0. -1.
         -5    1    3    3    0  502  0.44131875098E+02 -0.34269471022E+02  0.63646354306E+02  0.84823154034E+02  0.47000000000E+01 0.  1.
         13    1    5    5    0    0 -0.20424791971E+03  0.72081514141E+02  0.85057001155E+02  0.23269647791E+03  0.00000000000E+00 0. -1.
        -13    1    5    5    0    0 -0.23946511796E+03  0.10547194653E+03  0.21904342636E+03  0.34124462905E+03  0.00000000000E+00 0.  1.
          1    1    6    6  503    0  0.55641023540E+02 -0.23649198324E+02  0.41078321109E+02  0.73093341332E+02  0.00000000000E+00 0. -1.
         -1    1    6    6    0  503  0.36778947799E+02 -0.13052931059E+03  0.15395274630E+02  0.13648298943E+03  0.00000000000E+00 0.  1.
<mgrwt>
<rscale>  0 0.51889526E+03</rscale>
<asrwt>0</asrwt>
<pdfrwt beam="1">  1        2 0.17735788E+00 0.51889526E+03</pdfrwt>
<pdfrwt beam="2">  1       -2 0.41337537E-01 0.51889526E+03</pdfrwt>
<totfact> 0.11609885E+02</totfact>
</mgrwt>
</event>
<event>
12    1  0.3147868E-008  0.1356004E+04  0.7818608E-02  0.8986295E-01
         -2   -1    0    0    0  501 -0.00000000000E+00  0.00000000000E+00  0.63187583261E+03  0.63187583261E+03  0.00000000000E+00 0.  1.
          2   -1    0    0  501    0  0.00000000000E+00 -0.00000000000E+00 -0.30468125195E+04  0.30468125195E+04  0.00000000000E+00 0. -1.
         23    2    1    2    0    0  0.10809031724E+04  0.74346534378E+03 -0.94614447302E+03  0.16199366590E+04  0.88955212070E+02 0.  0.
    5000000    2    1    2    0    0 -0.10809031724E+04 -0.74346534378E+03 -0.14687922138E+04  0.20587516931E+04  0.60001298393E+03 0.  0.
         23    2    4    4    0    0 -0.14521021954E+03 -0.33641966074E+03 -0.19934177717E+03  0.42710085779E+03  0.91726782374E+02 0.  0.
         23    2    4    4    0    0 -0.93569295287E+03 -0.40704568304E+03 -0.12694504367E+04  0.16316508353E+04  0.97839394430E+02 0.  0.
          5    1    3    3  502    0  0.63214262255E+03  0.47811002295E+03 -0.54044951679E+03  0.95932333418E+03  0.47000000000E+01 0. -1.
         -5    1    3    3    0  502  0.44876054986E+03  0.26535532083E+03 -0.40569495623E+03  0.66061332481E+03  0.47000000000E+01 0.  1.
         13    1    5    5    0    0 -0.12987425824E+03 -0.21903815097E+03 -0.16650660785E+03  0.30425233769E+03  0.00000000000E+00 0.  1.
        -13    1    5    5    0    0 -0.15335961305E+02 -0.11738150977E+03 -0.32835169319E+02  0.12284852010E+03  0.00000000000E+00 0. -1.
          4    1    6    6  503    0 -0.32930216504E+03 -0.19451335172E+03 -0.48213367287E+03  0.61540900091E+03  0.00000000000E+00 0. -1.
         -4    1    6    6    0  503 -0.60639078783E+03 -0.21253233132E+03 -0.78731676379E+03  0.10162418344E+04  0.00000000000E+00 0.  1.
<mgrwt>
<rscale>  0 0.13560042E+04</rscale>
<asrwt>0</asrwt>
<pdfrwt beam="1">  1        2 0.46874039E+00 0.13560042E+04</pdfrwt>
<pdfrwt beam="2">  1       -2 0.97211667E-01 0.13560042E+04</pdfrwt>
<totfact> 0.13975376E+00</totfact>
</mgrwt>
</event>
<event>
12    1  0.3147868E-008  0.5476831E+03  0.7818608E-02  0.1002032E+00
         -1   -1    0    0    0  501 -0.00000000000E+00  0.00000000000E+00  0.37325397538E+03  0.37325397538E+03  0.00000000000E+00 0.  1.
          1   -1    0    0  501    0  0.00000000000E+00 -0.00000000000E+00 -0.12032346785E+04  0.12032346785E+04  0.00000000000E+00 0. -1.
         23    2    1    2    0    0  0.85025807560E+02  0.49195290317E+03 -0.54578349397E+03  0.74580920270E+03  0.95418539290E+02 0.  0.
    5000000    2    1    2    0    0 -0.85025807560E+02 -0.49195290317E+03 -0.28419720919E+03  0.83067945122E+03  0.60001104163E+03 0.  0.
         23    2    4    4    0    0 -0.16528573174E+03 -0.19566871838E+03 -0.40553868064E+03  0.48803578722E+03  0.90064907914E+02 0.  0.
         23    2    4    4    0    0  0.80259924177E+02 -0.29628418479E+03  0.12134147146E+03  0.34264366400E+03  0.91950824895E+02 0.  0.
          5    1    3    3  502    0  0.10621818710E+02  0.26779745323E+03 -0.24320831478E+03  0.36194015164E+03  0.47000000000E+01 0. -1.
         -5    1    3    3    0  502  0.74403988850E+02  0.22415544994E+03 -0.30257517920E+03  0.38386905106E+03  0.47000000000E+01 0.  1.
         13    1    5    5    0    0  0.98611566898E+01 -0.23157770932E+02 -0.29639651902E+02  0.38884877918E+02  0.00000000000E+00 0.  1.
        -13    1    5    5    0    0 -0.17514688843E+03 -0.17251094745E+03 -0.37589902874E+03  0.44915090930E+03  0.00000000000E+00 0. -1.
          3    1    6    6  503    0 -0.13408634576E+02 -0.11733801816E+03  0.52620771144E+02  0.12929403522E+03  0.00000000000E+00 0. -1.
         -3    1    6    6    0  503  0.93668558754E+02 -0.17894616663E+03  0.68720700312E+02  0.21334962878E+03  0.00000000000E+00 0.  1.
<mgrwt>
<rscale>  0 0.54768310E+03</rscale>
<asrwt>0</asrwt>
<pdfrwt beam="1">  1        1 0.18511303E+00 0.54768310E+03</pdfrwt>
<pdfrwt beam="2">  1       -1 0.57423688E-01 0.54768310E+03</pdfrwt>
<totfact> 0.34469688E+01</totfact>
</mgrwt>
</event>
<event>
12    1  0.3147868E-008  0.6340114E+03  0.7818608E-02  0.9837252E-01
         -2   -1    0    0    0  501 -0.00000000000E+00  0.00000000000E+00  0.78711486975E+03  0.78711486975E+03  0.00000000000E+00 0.  1.
          2   -1    0    0  501    0  0.00000000000E+00 -0.00000000000E+00 -0.12369774741E+04  0.12369774741E+04  0.00000000000E+00 0. -1.
         23    2    1    2    0    0  0.57653661727E+02 -0.62326377801E+03  0.44844028490E+03  0.77562630606E+03  0.93358426751E+02 0.  0.
    5000000    2    1    2    0    0 -0.57653661727E+02  0.62326377801E+03 -0.89830288922E+03  0.12484660378E+04  0.59994806856E+03 0.  0.
         23    2    4    4    0    0  0.28383564596E+02  0.23730631602E+03  0.86320046933E+01  0.25470811354E+03  0.87645862628E+02 0.  0.
         23    2    4    4    0    0 -0.86037226323E+02  0.38595746199E+03 -0.90693489391E+03  0.99375792422E+03  0.93050219609E+02 0.  0.
          5    1    3    3  502    0  0.82999581373E+02 -0.49499011942E+03  0.35044100710E+03  0.61215613882E+03  0.47000000000E+01 0. -1.
         -5    1    3    3    0  502 -0.25345919646E+02 -0.12827365859E+03  0.97999277792E+02  0.16347016724E+03  0.47000000000E+01 0.  1.
         13    1    5    5    0    0  0.78693844626E+01  0.50008962074E+02 -0.34696159799E+02  0.61373015278E+02  0.00000000000E+00 0.  1.
        -13    1    5    5    0    0  0.20514180133E+02  0.18729735395E+03  0.43328164492E+02  0.19333509826E+03  0.00000000000E+00 0. -1.
          4    1    6    6  503    0 -0.10676969984E+02  0.20942185586E+02 -0.12927425457E+03  0.13139408556E+03  0.00000000000E+00 0. -1.
         -4    1    6    6    0  503 -0.75360256339E+02  0.36501527641E+03 -0.77766063935E+03  0.86236383866E+03  0.00000000000E+00 0.  1.
<mgrwt>
<rscale>  0 0.63401142E+03</rscale>
<asrwt>0</asrwt>
<pdfrwt beam="1">  1        2 0.19030423E+00 0.63401142E+03</pdfrwt>
<pdfrwt beam="2">  1       -2 0.12109460E+00 0.63401142E+03</pdfrwt>
<totfact> 0.96931908E+00</totfact>
</mgrwt>
</event>
<event>
12    1  0.3147868E-008  0.1287920E+04  0.7818608E-02  0.9039200E-01
          2   -1    0    0  501    0  0.00000000000E+00  0.00000000000E+00  0.27715111830E+04  0.27715111830E+04  0.00000000000E+00 0. -1.
         -2   -1    0    0    0  501 -0.00000000000E+00 -0.00000000000E+00 -0.10778317119E+04  0.10778317119E+04  0.00000000000E+00 0.  1.
         23    2    1    2    0    0 -0.51236665174E+03  0.11677592798E+04  0.20313603135E+04  0.24000796411E+04  0.88182986154E+02 0.  0.
    5000000    2    1    2    0    0  0.51236665174E+03 -0.11677592798E+04 -0.33768084240E+03  0.14492632539E+04  0.60012857490E+03 0.  0.
         23    2    4    4    0    0  0.26171288242E+03 -0.81729810249E+03 -0.47905687532E+03  0.98699150841E+03  0.90481637484E+02 0.  0.
         23    2    4    4    0    0  0.25065376933E+03 -0.35046117729E+03  0.14137603293E+03  0.46227174548E+03  0.89764330968E+02 0.  0.
          5    1    3    3  502    0 -0.27004221051E+03  0.51552177803E+03  0.95745970202E+03  0.11204627036E+04  0.47000000000E+01 0. -1.
         -5    1    3    3    0  502 -0.24232444124E+03  0.65223750175E+03  0.10739006115E+04  0.12796169375E+04  0.47000000000E+01 0.  1.
         11    1    5    5    0    0  0.10493076614E+03 -0.19897837569E+03 -0.11842067606E+03  0.25421706511E+03  0.00000000000E+00 0.  1.
        -11    1    5    5    0    0  0.15678211628E+03 -0.61831972680E+03 -0.36063619927E+03  0.73277444330E+03  0.00000000000E+00 0. -1.
          1    1    6    6  503    0  0.18947174038E+03 -0.30467514577E+03  0.14196971741E+03  0.38585215500E+03  0.00000000000E+00 0. -1.
         -1    1    6    6    0  503  0.61182028945E+02 -0.45786031523E+02 -0.59368447986E+00  0.76419590484E+02  0.00000000000E+00 0.  1.
<mgrwt>
<rscale>  0 0.12879198E+04</rscale>
<asrwt>0</asrwt>
<pdfrwt beam="1">  1        2 0.42638633E+00 0.12879198E+04</pdfrwt>
<pdfrwt beam="2">  1       -2 0.16582026E+00 0.12879198E+04</pdfrwt>
<totfact> 0.53217437E-01</totfact>
</mgrwt>
</event>
<event>
12    1  0.3147868E-008  0.4141814E+03  0.7818608E-02  0.1038977E+00
         -1   -1    0    0    0  501 -0.00000000000E+00  0.00000000000E+00  0.18448252648E+03  0.18448252648E+03  0.00000000000E+00 0.  1.
          1   -1    0    0  501    0  0.00000000000E+00 -0.00000000000E+00 -0.14973661311E+04  0.14973661311E+04  0.00000000000E+00 0. -1.
         23    2    1    2    0    0  0.84538495695E+02 -0.24265157412E+03 -0.75003565019E+02  0.28245461404E+03  0.90158363718E+02 0.  0.
    5000000    2    1    2    0    0 -0.84538495695E+02  0.24265157412E+03 -0.12378800395E+04  0.13993940435E+04  0.59994179132E+03 0.  0.
         23    2    4    4    0    0 -0.13577654152E+03  0.37339000944E+03 -0.11261785085E+04  0.11978149665E+04  0.92883220472E+02 0.  0.
         23    2    4    4    0    0  0.51238045829E+02 -0.13073843532E+03 -0.11170153105E+03  0.20157907696E+03  0.91864119337E+02 0.  0.
          5    1    3    3  502    0  0.75808464031E+02 -0.15144078916E+03 -0.86090279668E+02  0.19003910675E+03  0.47000000000E+01 0. -1.
         -5    1    3    3    0  502  0.87300316643E+01 -0.91210784963E+02  0.11086714649E+02  0.92415507293E+02  0.47000000000E+01 0.  1.
         11    1    5    5    0    0 -0.41635269750E+02  0.63625399519E+02 -0.13301658873E+03  0.15321586089E+03  0.00000000000E+00 0. -1.
        -11    1    5    5    0    0 -0.94141271774E+02  0.30976460992E+03 -0.99316191977E+03  0.10445991056E+04  0.00000000000E+00 0.  1.
          1    1    6    6  503    0 -0.26338181029E+02 -0.25482893880E+02 -0.18862718819E+02  0.41217469860E+02  0.00000000000E+00 0. -1.
         -1    1    6    6    0  503  0.77576226858E+02 -0.10525554144E+03 -0.92838812228E+02  0.16036160710E+03  0.00000000000E+00 0.  1.
<mgrwt>
<rscale>  0 0.41418143E+03</rscale>
<asrwt>0</asrwt>
<pdfrwt beam="1">  1        1 0.23036403E+00 0.41418143E+03</pdfrwt>
<pdfrwt beam="2">  1       -1 0.28381927E-01 0.41418143E+03</pdfrwt>
<totfact> 0.79085191E+01</totfact>
</mgrwt>
</event>
<event>
12    1  0.3147868E-008  0.1120967E+04  0.7818608E-02  0.9184994E-01
         -2   -1    0    0    0  501 -0.00000000000E+00  0.00000000000E+00  0.24630594561E+04  0.24630594561E+04  0.00000000000E+00 0. -1.
          2   -1    0    0  501    0  0.00000000000E+00 -0.00000000000E+00 -0.56898533913E+03  0.56898533913E+03  0.00000000000E+00 0.  1.
         23    2    1    2    0    0  0.61744849864E+03 -0.90607940736E+03  0.10706342627E+04  0.15352972353E+04  0.93044802809E+02 0.  0.
    5000000    2    1    2    0    0 -0.61744849864E+03  0.90607940736E+03  0.82343985423E+03  0.14967475599E+04  0.59998126938E+03 0.  0.
         23    2    4    4    0    0 -0.71312320846E+02  0.45797017863E+02  0.34713590510E+03  0.36839322767E+03  0.89595868386E+02 0.  0.
         23    2    4    4    0    0 -0.54613617779E+03  0.86028238949E+03  0.47630394913E+03  0.11283543322E+04  0.89261036988E+02 0.  0.
          5    1    3    3  502    0  0.36273939940E+02 -0.27635120810E+02  0.60496609111E+02  0.75904073243E+02  0.47000000000E+01 0. -1.
         -5    1    3    3    0  502  0.58117455870E+03 -0.87844428655E+03  0.10101376536E+04  0.14593931621E+04  0.47000000000E+01 0.  1.
         11    1    5    5    0    0 -0.81663943675E+01  0.58373916247E+02  0.16670746832E+03  0.17682076826E+03  0.00000000000E+00 0. -1.
        -11    1    5    5    0    0 -0.63145926479E+02 -0.12576898384E+02  0.18042843678E+03  0.19157245941E+03  0.00000000000E+00 0.  1.
          4    1    6    6  503    0 -0.43802369430E+03  0.71198658111E+03  0.35393348720E+03  0.90777671363E+03  0.00000000000E+00 0.  1.
         -4    1    6    6    0  503 -0.10811248349E+03  0.14829580838E+03  0.12237046193E+03  0.22057761859E+03  0.00000000000E+00 0. -1.
<mgrwt>
<rscale>  0 0.11209668E+04</rscale>
<asrwt>0</asrwt>
<pdfrwt beam="1">  1        2 0.87536207E-01 0.11209668E+04</pdfrwt>
<pdfrwt beam="2">  1       -2 0.37893222E+00 0.11209668E+04</pdfrwt>
<totfact> 0.53839126E-01</totfact>
</mgrwt>
</event>
<event>
12    1  0.3147868E-008  0.7602408E+03  0.7818608E-02  0.9619420E-01
          2   -1    0    0  501    0  0.00000000000E+00  0.00000000000E+00  0.13868853323E+04  0.13868853323E+04  0.00000000000E+00 0. -1.
         -2   -1    0    0    0  501 -0.00000000000E+00 -0.00000000000E+00 -0.46633966745E+03  0.46633966745E+03  0.00000000000E+00 0.  1.
         23    2    1    2    0    0  0.27712334528E+03  0.58470471727E+03  0.12550295614E+03  0.66544469227E+03  0.91589800583E+02 0.  0.
    5000000    2    1    2    0    0 -0.27712334528E+03 -0.58470471727E+03  0.79504270868E+03  0.11877803075E+04  0.60004349446E+03 0.  0.
         23    2    4    4    0    0 -0.22955494718E+03  0.40163154623E+02  0.21795160326E+03  0.33164225572E+03  0.90416434633E+02 0.  0.
         23    2    4    4    0    0 -0.47568398093E+02 -0.62486787189E+03  0.57709110543E+03  0.85613805173E+03  0.84944745797E+02 0.  0.
          5    1    3    3  502    0  0.18327718047E+03  0.30464936891E+03  0.97705069851E+02  0.36874128266E+03  0.47000000000E+01 0. -1.
         -5    1    3    3    0  502  0.93846164803E+02  0.28005534835E+03  0.27797886291E+02  0.29670340961E+03  0.47000000000E+01 0.  1.
         13    1    5    5    0    0 -0.85384885354E+02 -0.17513220280E+02  0.11902853317E+03  0.14752994015E+03  0.00000000000E+00 0. -1.
        -13    1    5    5    0    0 -0.14417006183E+03  0.57676374903E+02  0.98923070083E+02  0.18411231557E+03  0.00000000000E+00 0.  1.
          1    1    6    6  503    0 -0.35380642681E+02 -0.55731679486E+03  0.54521117953E+03  0.78045437407E+03  0.00000000000E+00 0. -1.
         -1    1    6    6    0  503 -0.12187755412E+02 -0.67551077028E+02  0.31879925896E+02  0.75683677664E+02  0.00000000000E+00 0.  1.
<mgrwt>
<rscale>  0 0.76024080E+03</rscale>
<asrwt>0</asrwt>
<pdfrwt beam="1">  1        2 0.21336697E+00 0.76024080E+03</pdfrwt>
<pdfrwt beam="2">  1       -2 0.71744565E-01 0.76024080E+03</pdfrwt>
<totfact> 0.26462802E+01</totfact>
</mgrwt>
</event>
<event>
12    1  0.3147868E-008  0.5835183E+03  0.7818608E-02  0.9940203E-01
          1   -1    0    0  501    0  0.00000000000E+00  0.00000000000E+00  0.44788580935E+03  0.44788580935E+03  0.00000000000E+00 0. -1.
         -1   -1    0    0    0  501 -0.00000000000E+00 -0.00000000000E+00 -0.86584507897E+03  0.86584507897E+03  0.00000000000E+00 0.  1.
         23    2    1    2    0    0  0.17505627393E+03 -0.43596406373E+03 -0.10649903583E+03  0.49045231038E+03  0.92152375023E+02 0.  0.
    5000000    2    1    2    0    0 -0.17505627393E+03  0.43596406373E+03 -0.31146023379E+03  0.82327857794E+03  0.60005897690E+03 0.  0.
         23    2    4    4    0    0 -0.31109613657E+03  0.41919198932E+03 -0.75364571018E+02  0.53538609117E+03  0.91954977872E+02 0.  0.
         23    2    4    4    0    0  0.13603986265E+03  0.16772074402E+02 -0.23609566277E+03  0.28789248676E+03  0.91393518622E+02 0.  0.
          5    1    3    3  502    0  0.22607955018E+02 -0.17417453165E+03 -0.43200423191E+02  0.18093162706E+03  0.47000000000E+01 0. -1.
         -5    1    3    3    0  502  0.15244831891E+03 -0.26178953208E+03 -0.63298612641E+02  0.30952068332E+03  0.47000000000E+01 0.  1.
         13    1    5    5    0    0 -0.77690416536E+02  0.76565968977E+02  0.17674501945E+02  0.11050129613E+03  0.00000000000E+00 0.  1.
        -13    1    5    5    0    0 -0.23340572004E+03  0.34262602035E+03 -0.93039072963E+02  0.42488479505E+03  0.00000000000E+00 0. -1.
          2    1    6    6  503    0  0.11155791260E+03  0.50969249142E+02 -0.17846992981E+03  0.21655149058E+03  0.00000000000E+00 0. -1.
         -2    1    6    6    0  503  0.24481950042E+02 -0.34197174740E+02 -0.57625732959E+02  0.71340996188E+02  0.00000000000E+00 0.  1.
<mgrwt>
<rscale>  0 0.58351832E+03</rscale>
<asrwt>0</asrwt>
<pdfrwt beam="1">  1        1 0.68905510E-01 0.58351832E+03</pdfrwt>
<pdfrwt beam="2">  1       -1 0.13320693E+00 0.58351832E+03</pdfrwt>
<totfact> 0.25645715E+01</totfact>
</mgrwt>
</event>
<event>
12    1  0.3147868E-008  0.1484572E+04  0.7818608E-02  0.8894778E-01
          2   -1    0    0  501    0  0.00000000000E+00  0.00000000000E+00  0.13418133598E+04  0.13418133598E+04  0.00000000000E+00 0. -1.
         -2   -1    0    0    0  501 -0.00000000000E+00 -0.00000000000E+00 -0.18095162206E+04  0.18095162206E+04  0.00000000000E+00 0.  1.
         23    2    1    2    0    0 -0.10886345058E+04  0.97837476368E+03  0.10161868351E+03  0.14700847788E+04  0.92090361838E+02 0.  0.
    5000000    2    1    2    0    0  0.10886345058E+04 -0.97837476368E+03 -0.56932154429E+03  0.16812448016E+04  0.60009565630E+03 0.  0.
         23    2    4    4    0    0  0.33970427014E+03 -0.52129889238E+03  0.44617327520E+01  0.62896804527E+03  0.91811592711E+02 0.  0.
         23    2    4    4    0    0  0.74893023562E+03 -0.45707587130E+03 -0.57378327704E+03  0.10522767563E+04  0.90797978622E+02 0.  0.
          5    1    3    3  502    0 -0.58834320629E+03  0.57311357697E+03  0.25598785265E+02  0.82175683040E+03  0.47000000000E+01 0. -1.
         -5    1    3    3    0  502 -0.50029129947E+03  0.40526118671E+03  0.76019898248E+02  0.64832794843E+03  0.47000000000E+01 0.  1.
         11    1    5    5    0    0  0.78405282807E+02 -0.10621510935E+03 -0.35946073727E+02  0.13682528291E+03  0.00000000000E+00 0.  1.
        -11    1    5    5    0    0  0.26129898734E+03 -0.41508378303E+03  0.40407806479E+02  0.49214276236E+03  0.00000000000E+00 0. -1.
          4    1    6    6  503    0  0.42920558869E+03 -0.21276252771E+03 -0.33186931445E+03  0.58277145815E+03  0.00000000000E+00 0. -1.
         -4    1    6    6    0  503  0.31972464693E+03 -0.24431334359E+03 -0.24191396259E+03  0.46950529817E+03  0.00000000000E+00 0.  1.
<mgrwt>
<rscale>  0 0.14845720E+04</rscale>
<asrwt>0</asrwt>
<pdfrwt beam="1">  1        2 0.20643283E+00 0.14845720E+04</pdfrwt>
<pdfrwt beam="2">  1       -2 0.27838711E+00 0.14845720E+04</pdfrwt>
<totfact> 0.63544887E-01</totfact>
</mgrwt>
</event>
<event>
12    1  0.3147868E-008  0.7792015E+03  0.7818608E-02  0.9590620E-01
         -1   -1    0    0    0  501 -0.00000000000E+00  0.00000000000E+00  0.83625574138E+03  0.83625574138E+03  0.00000000000E+00 0. -1.
          1   -1    0    0  501    0  0.00000000000E+00 -0.00000000000E+00 -0.23557752288E+04  0.23557752288E+04  0.00000000000E+00 0.  1.
         23    2    1    2    0    0 -0.63410830136E+03  0.36769427010E+03  0.54664677129E+03  0.91906797292E+03  0.92578788953E+02 0.  0.
    5000000    2    1    2    0    0  0.63410830136E+03 -0.36769427010E+03 -0.20661662587E+04  0.22729629973E+04  0.60002113647E+03 0.  0.
         23    2    4    4    0    0  0.67993629077E+03 -0.33522465505E+03 -0.13669740659E+04  0.15657104727E+04  0.90234465306E+02 0.  0.
         23    2    4    4    0    0 -0.45827989408E+02 -0.32469615054E+02 -0.69919219283E+03  0.70725252455E+03  0.90454024006E+02 0.  0.
          5    1    3    3  502    0 -0.53025946034E+03  0.26654078051E+03  0.42912225193E+03  0.73238451653E+03  0.47000000000E+01 0. -1.
         -5    1    3    3    0  502 -0.10384884102E+03  0.10115348959E+03  0.11752451936E+03  0.18668345639E+03  0.47000000000E+01 0.  1.
         13    1    5    5    0    0  0.57046738995E+03 -0.24237046190E+03 -0.11180426018E+04  0.12783566573E+04  0.00000000000E+00 0.  1.
        -13    1    5    5    0    0  0.10946890082E+03 -0.92854193143E+02 -0.24893146411E+03  0.28735381545E+03  0.00000000000E+00 0. -1.
          3    1    6    6  503    0 -0.29254110490E+02 -0.24213268677E+02 -0.67819407570E+03  0.67925642409E+03  0.00000000000E+00 0. -1.
         -3    1    6    6    0  503 -0.16573878918E+02 -0.82563463766E+01 -0.20998117130E+02  0.27996100459E+02  0.00000000000E+00 0.  1.
<mgrwt>
<rscale>  0 0.77920148E+03</rscale>
<asrwt>0</asrwt>
<pdfrwt beam="1">  1        1 0.36242695E+00 0.77920148E+03</pdfrwt>
<pdfrwt beam="2">  1       -1 0.12865473E+00 0.77920148E+03</pdfrwt>
<totfact> 0.93904995E-01</totfact>
</mgrwt>
</event>
<event>
12    1  0.3147868E-008  0.1032997E+04  0.7818608E-02  0.9273076E-01
         -2   -1    0    0    0  501 -0.00000000000E+00  0.00000000000E+00  0.20488122540E+04  0.20488122540E+04  0.00000000000E+00 0.  1.
          2   -1    0    0  501    0  0.00000000000E+00 -0.00000000000E+00 -0.88733350229E+03  0.88733350229E+03  0.00000000000E+00 0. -1.
         23    2    1    2    0    0 -0.96919361837E+03 -0.23999512631E+03 -0.31910722708E+03  0.10522705580E+04  0.92249521662E+02 0.  0.
    5000000    2    1    2    0    0  0.96919361837E+03  0.23999512631E+03  0.14805859788E+04  0.18838751983E+04  0.59993082244E+03 0.  0.
         23    2    4    4    0    0  0.95207209818E+03  0.22244693274E+03  0.14954628908E+04  0.17889406760E+04  0.89306027811E+02 0.  0.
         23    2    4    4    0    0  0.17121520184E+02  0.17548193573E+02 -0.14876911995E+02  0.94934522292E+02  0.90499477685E+02 0.  0.
          5    1    3    3  502    0 -0.40836596776E+03 -0.65068940940E+02 -0.10193645678E+03  0.42592236608E+03  0.47000000000E+01 0. -1.
         -5    1    3    3    0  502 -0.56082765061E+03 -0.17492618537E+03 -0.21717077029E+03  0.62634819189E+03  0.47000000000E+01 0.  1.
         11    1    5    5    0    0  0.67830952146E+03  0.14814781085E+03  0.98766612725E+03  0.12072845396E+04  0.00000000000E+00 0. -1.
        -11    1    5    5    0    0  0.27376257673E+03  0.74299121890E+02  0.50779676353E+03  0.58165613637E+03  0.00000000000E+00 0.  1.
          1    1    6    6  503    0  0.29615037281E+02  0.46686889261E+02  0.79657272135E+01  0.55858471802E+02  0.00000000000E+00 0. -1.
         -1    1    6    6    0  503 -0.12493517097E+02 -0.29138695688E+02 -0.22842639209E+02  0.39076050490E+02  0.00000000000E+00 0.  1.
<mgrwt>
<rscale>  0 0.10329974E+04</rscale>
<asrwt>0</asrwt>
<pdfrwt beam="1">  1        2 0.13651285E+00 0.10329974E+04</pdfrwt>
<pdfrwt beam="2">  1       -2 0.31520188E+00 0.10329974E+04</pdfrwt>
<totfact> 0.76806630E-01</totfact>
</mgrwt>
</event>
<event>
12    1  0.3147868E-008  0.7519795E+03  0.7818608E-02  0.9632250E-01
          1   -1    0    0  501    0  0.00000000000E+00  0.00000000000E+00  0.39049598670E+04  0.39049598670E+04  0.00000000000E+00 0. -1.
         -1   -1    0    0    0  501 -0.00000000000E+00 -0.00000000000E+00 -0.26334340493E+03  0.26334340493E+03  0.00000000000E+00 0.  1.
         23    2    1    2    0    0  0.62367506483E+03 -0.27490279194E+03  0.29441388293E+04  0.30233048324E+04  0.88749827405E+02 0.  0.
    5000000    2    1    2    0    0 -0.62367506483E+03  0.27490279194E+03  0.69747763278E+03  0.11449984395E+04  0.60000353901E+03 0.  0.
         23    2    4    4    0    0 -0.42933491179E+03 -0.48588069995E+02  0.59882516875E+03  0.74393414448E+03  0.90317005924E+02 0.  0.
         23    2    4    4    0    0 -0.19434015304E+03  0.32349086194E+03  0.98652464023E+02  0.40106429506E+03  0.93305022789E+02 0.  0.
          5    1    3    3  502    0  0.34249595634E+03 -0.12194159238E+03  0.17191645752E+04  0.17571915544E+04  0.47000000000E+01 0. -1.
         -5    1    3    3    0  502  0.28117910848E+03 -0.15296119956E+03  0.12249742541E+04  0.12661132780E+04  0.47000000000E+01 0.  1.
         13    1    5    5    0    0 -0.41013505163E+03 -0.37959767507E+02  0.59153664454E+03  0.72081017360E+03  0.00000000000E+00 0. -1.
        -13    1    5    5    0    0 -0.19199860166E+02 -0.10628302488E+02  0.72885242079E+01  0.23123970881E+02  0.00000000000E+00 0.  1.
          1    1    6    6  503    0 -0.20221787990E+03  0.30133542701E+03  0.10282107777E+03  0.37718335668E+03  0.00000000000E+00 0. -1.
         -1    1    6    6    0  503  0.78777268671E+01  0.22155434934E+02 -0.41686137451E+01  0.23880938387E+02  0.00000000000E+00 0.  1.
<mgrwt>
<rscale>  0 0.75197945E+03</rscale>
<asrwt>0</asrwt>
<pdfrwt beam="1">  1        1 0.60076301E+00 0.75197945E+03</pdfrwt>
<pdfrwt beam="2">  1       -1 0.40514373E-01 0.75197945E+03</pdfrwt>
<totfact> 0.76265073E-01</totfact>
</mgrwt>
</event>
<event>
12    1  0.3147868E-008  0.1044699E+04  0.7818608E-02  0.9260834E-01
         -2   -1    0    0    0  501 -0.00000000000E+00  0.00000000000E+00  0.59572164384E+03  0.59572164384E+03  0.00000000000E+00 0.  1.
          2   -1    0    0  501    0  0.00000000000E+00 -0.00000000000E+00 -0.19186241431E+04  0.19186241431E+04  0.00000000000E+00 0. -1.
         23    2    1    2    0    0 -0.45764033484E+03 -0.85599911553E+03 -0.79032644071E+03  0.12550485339E+04  0.91442756138E+02 0.  0.
    5000000    2    1    2    0    0  0.45764033484E+03  0.85599911553E+03 -0.53257605858E+03  0.12592972531E+04  0.60001929270E+03 0.  0.
         23    2    4    4    0    0  0.31287790653E+03  0.90514319628E+03 -0.42566499842E+03  0.10515123321E+04  0.85502651744E+02 0.  0.
         23    2    4    4    0    0  0.14476242831E+03 -0.49144080752E+02 -0.10691106016E+03  0.20778492102E+03  0.91505722735E+02 0.  0.
          5    1    3    3  502    0 -0.16447580839E+03 -0.37869427504E+03 -0.29700486260E+03  0.50862129714E+03  0.47000000000E+01 0. -1.
         -5    1    3    3    0  502 -0.29316452645E+03 -0.47730484049E+03 -0.49332157810E+03  0.74642723674E+03  0.47000000000E+01 0.  1.
         13    1    5    5    0    0  0.12791317907E+03  0.46365913185E+03 -0.24601271386E+03  0.54024422932E+03  0.00000000000E+00 0.  1.
        -13    1    5    5    0    0  0.18496472745E+03  0.44148406443E+03 -0.17965228455E+03  0.51126810275E+03  0.00000000000E+00 0. -1.
          4    1    6    6  503    0  0.67311358062E+02 -0.48934292487E+01  0.13586107239E+01  0.67502669556E+02  0.00000000000E+00 0. -1.
         -4    1    6    6    0  503  0.77451070250E+02 -0.44250651503E+02 -0.10826967089E+03  0.14028225146E+03  0.00000000000E+00 0.  1.
<mgrwt>
<rscale>  0 0.10446993E+04</rscale>
<asrwt>0</asrwt>
<pdfrwt beam="1">  1        2 0.29517294E+00 0.10446993E+04</pdfrwt>
<pdfrwt beam="2">  1       -2 0.91649484E-01 0.10446993E+04</pdfrwt>
<totfact> 0.74769339E+00</totfact>
</mgrwt>
</event>
<event>
12    1  0.3147868E-008  0.6366416E+03  0.7818608E-02  0.9832173E-01
         -2   -1    0    0    0  501 -0.00000000000E+00  0.00000000000E+00  0.26227820601E+03  0.26227820601E+03  0.00000000000E+00 0.  1.
          2   -1    0    0  501    0  0.00000000000E+00 -0.00000000000E+00 -0.18300967936E+04  0.18300967936E+04  0.00000000000E+00 0. -1.
         23    2    1    2    0    0 -0.32427786736E+03  0.45514672842E+03 -0.67924950804E+03  0.88298334813E+03  0.77233537145E+02 0.  0.
    5000000    2    1    2    0    0  0.32427786736E+03 -0.45514672842E+03 -0.88856907958E+03  0.12093916515E+04  0.60063173233E+03 0.  0.
         23    2    4    4    0    0 -0.66549992132E+02 -0.23625454244E+03 -0.68027713056E+02  0.26992064589E+03  0.89354770735E+02 0.  0.
         23    2    4    4    0    0  0.39082785949E+03 -0.21889218597E+03 -0.82054136652E+03  0.93947100561E+03  0.93045318919E+02 0.  0.
          5    1    3    3  502    0 -0.13057983485E+03  0.24607851120E+03 -0.35434757472E+03  0.45076603760E+03  0.47000000000E+01 0. -1.
         -5    1    3    3    0  502 -0.19369803252E+03  0.20906821722E+03 -0.32490193332E+03  0.43221731053E+03  0.47000000000E+01 0.  1.
         13    1    5    5    0    0  0.20984553349E+02 -0.64956639599E+02 -0.25783993725E+02  0.72969382892E+02  0.00000000000E+00 0.  1.
        -13    1    5    5    0    0 -0.87534545481E+02 -0.17129790285E+03 -0.42243719330E+02  0.19695126299E+03  0.00000000000E+00 0. -1.
          3    1    6    6  503    0  0.27044758898E+03 -0.16737293797E+03 -0.49258671161E+03  0.58634227820E+03  0.00000000000E+00 0.  1.
         -3    1    6    6    0  503  0.12038027051E+03 -0.51519248001E+02 -0.32795465492E+03  0.35312872741E+03  0.00000000000E+00 0. -1.
<mgrwt>
<rscale>  0 0.63664159E+03</rscale>
<asrwt>0</asrwt>
<pdfrwt beam="1">  1        2 0.28155335E+00 0.63664159E+03</pdfrwt>
<pdfrwt beam="2">  1       -2 0.40350493E-01 0.63664159E+03</pdfrwt>
<totfact> 0.50282132E+01</totfact>
</mgrwt>
</event>
<event>
12    1  0.3147868E-008  0.7090981E+03  0.7818608E-02  0.9701798E-01
          1   -1    0    0  501    0  0.00000000000E+00  0.00000000000E+00  0.74732579006E+03  0.74732579006E+03  0.00000000000E+00 0. -1.
         -1   -1    0    0    0  501 -0.00000000000E+00 -0.00000000000E+00 -0.76446377212E+03  0.76446377212E+03  0.00000000000E+00 0.  1.
         23    2    1    2    0    0 -0.62806384023E+03 -0.13388781967E+02  0.69016336004E+02  0.63869839144E+03  0.92352226305E+02 0.  0.
    5000000    2    1    2    0    0  0.62806384023E+03  0.13388781967E+02 -0.86154318066E+02  0.87309117073E+03  0.60018512061E+03 0.  0.
         23    2    4    4    0    0  0.91129165472E+02 -0.17258170715E+03  0.14004766160E+03  0.25460223921E+03  0.84379987242E+02 0.  0.
         23    2    4    4    0    0  0.53693467476E+03  0.18597048912E+03 -0.22620197967E+03  0.61848893152E+03  0.92072553060E+02 0.  0.
          5    1    3    3  502    0 -0.12236863729E+03 -0.26460428248E+02 -0.13931732686E+02  0.12605721253E+03  0.47000000000E+01 0. -1.
         -5    1    3    3    0  502 -0.50569520294E+03  0.13071646280E+02  0.82948068690E+02  0.51264117891E+03  0.47000000000E+01 0.  1.
         11    1    5    5    0    0  0.36899672207E+02 -0.14681276387E+03  0.87715467524E+02  0.17495592784E+03  0.00000000000E+00 0. -1.
        -11    1    5    5    0    0  0.54229493265E+02 -0.25768943285E+02  0.52332194079E+02  0.79646311370E+02  0.00000000000E+00 0.  1.
          4    1    6    6  503    0  0.10704668890E+03  0.77756817076E+02 -0.54832795511E+02  0.14321924337E+03  0.00000000000E+00 0. -1.
         -4    1    6    6    0  503  0.42988798586E+03  0.10821367204E+03 -0.17136918416E+03  0.47526968816E+03  0.00000000000E+00 0.  1.
<mgrwt>
<rscale>  0 0.70909811E+03</rscale>
<asrwt>0</asrwt>
<pdfrwt beam="1">  1        1 0.11497320E+00 0.70909811E+03</pdfrwt>
<pdfrwt beam="2">  1       -1 0.11760981E+00 0.70909811E+03</pdfrwt>
<totfact> 0.16548384E+01</totfact>
</mgrwt>
</event>
<event>
12    1  0.3147868E-008  0.6643725E+03  0.7818608E-02  0.9780178E-01
         -2   -1    0    0    0  501 -0.00000000000E+00  0.00000000000E+00  0.85298898326E+03  0.85298898326E+03  0.00000000000E+00 0. -1.
          2   -1    0    0  501    0  0.00000000000E+00 -0.00000000000E+00 -0.63159527094E+03  0.63159527094E+03  0.00000000000E+00 0.  1.
         23    2    1    2    0    0  0.12304900089E+03 -0.52449903481E+03  0.37605855857E+03  0.66357627812E+03  0.93129712081E+02 0.  0.
    5000000    2    1    2    0    0 -0.12304900089E+03  0.52449903481E+03 -0.15466484625E+03  0.82100797607E+03  0.59991048329E+03 0.  0.
         23    2    4    4    0    0  0.59872539057E+02 -0.10023820065E+03 -0.22637890846E+02  0.15027439223E+03  0.91855871090E+02 0.  0.
         23    2    4    4    0    0 -0.18292153995E+03  0.62473723546E+03 -0.13202695541E+03  0.67073358385E+03  0.93249774215E+02 0.  0.
          5    1    3    3  502    0  0.11546539598E+03 -0.33957853889E+03  0.21509359905E+03  0.41825015014E+03  0.47000000000E+01 0. -1.
         -5    1    3    3    0  502  0.75836049168E+01 -0.18492049592E+03  0.16096495952E+03  0.24532612798E+03  0.47000000000E+01 0.  1.
         13    1    5    5    0    0  0.26570503337E+02 -0.93279314444E+02  0.16536142510E+02  0.98389359993E+02  0.00000000000E+00 0. -1.
        -13    1    5    5    0    0  0.33302035720E+02 -0.69588862075E+01 -0.39174033356E+02  0.51885032232E+02  0.00000000000E+00 0.  1.
          1    1    6    6  503    0 -0.86630024127E+02  0.19300990246E+03 -0.76315723774E+02  0.22490369766E+03  0.00000000000E+00 0. -1.
         -1    1    6    6    0  503 -0.96291515823E+02  0.43172733300E+03 -0.55711231631E+02  0.44582988618E+03  0.00000000000E+00 0.  1.
<mgrwt>
<rscale>  0 0.66437254E+03</rscale>
<asrwt>0</asrwt>
<pdfrwt beam="1">  1        2 0.97168503E-01 0.66437254E+03</pdfrwt>
<pdfrwt beam="2">  1       -2 0.13122907E+00 0.66437254E+03</pdfrwt>
<totfact> 0.20190313E+01</totfact>
</mgrwt>
</event>
<event>
12    1  0.3147868E-008  0.4098300E+03  0.7818608E-02  0.1040428E+00
         -2   -1    0    0    0  501 -0.00000000000E+00  0.00000000000E+00  0.11522917688E+03  0.11522917688E+03  0.00000000000E+00 0.  1.
          2   -1    0    0  501    0  0.00000000000E+00 -0.00000000000E+00 -0.18527018367E+04  0.18527018367E+04  0.00000000000E+00 0. -1.
         23    2    1    2    0    0  0.22580061907E+03  0.83103201244E+02 -0.32262327098E+03  0.41239776371E+03  0.89967098999E+02 0.  0.
    5000000    2    1    2    0    0 -0.22580061907E+03 -0.83103201244E+02 -0.14148493888E+04  0.15555332498E+04  0.59999403056E+03 0.  0.
         23    2    4    4    0    0 -0.38293889922E+03 -0.56891629332E+02 -0.59649266040E+03  0.71688169002E+03  0.90757950409E+02 0.  0.
         23    2    4    4    0    0  0.15713828014E+03 -0.26211571912E+02 -0.81835672842E+03  0.83865155982E+03  0.90825207166E+02 0.  0.
          5    1    3    3  502    0  0.12422539724E+03  0.10448833847E+02 -0.20949476805E+03  0.24382632197E+03  0.47000000000E+01 0. -1.
         -5    1    3    3    0  502  0.10157522183E+03  0.72654367397E+02 -0.11312850293E+03  0.16857144173E+03  0.47000000000E+01 0.  1.
         13    1    5    5    0    0 -0.29069097051E+03 -0.32449573133E+02 -0.51082560510E+03  0.58863996973E+03  0.00000000000E+00 0.  1.
        -13    1    5    5    0    0 -0.92247928703E+02 -0.24442056199E+02 -0.85667055295E+02  0.12824172029E+03  0.00000000000E+00 0. -1.
          2    1    6    6  503    0  0.57547041939E+02 -0.53679811039E+02 -0.40545544084E+03  0.41302215274E+03  0.00000000000E+00 0. -1.
         -2    1    6    6    0  503  0.99591238203E+02  0.27468239126E+02 -0.41290128758E+03  0.42562940708E+03  0.00000000000E+00 0.  1.
<mgrwt>
<rscale>  0 0.40982997E+03</rscale>
<asrwt>0</asrwt>
<pdfrwt beam="1">  1        2 0.28503105E+00 0.40982997E+03</pdfrwt>
<pdfrwt beam="2">  1       -2 0.17727566E-01 0.40982997E+03</pdfrwt>
<totfact> 0.22504724E+02</totfact>
</mgrwt>
</event>
<event>
12    1  0.3147868E-008  0.4235516E+03  0.7818608E-02  0.1035917E+00
          2   -1    0    0  501    0  0.00000000000E+00  0.00000000000E+00  0.14927288048E+04  0.14927288048E+04  0.00000000000E+00 0. -1.
         -2   -1    0    0    0  501 -0.00000000000E+00 -0.00000000000E+00 -0.21143778643E+03  0.21143778643E+03  0.00000000000E+00 0.  1.
         23    2    1    2    0    0  0.33165040811E+03 -0.21204406388E+03  0.41217606370E+03  0.57710281729E+03  0.90575250567E+02 0.  0.
    5000000    2    1    2    0    0 -0.33165040811E+03  0.21204406388E+03  0.86911495470E+03  0.11270637740E+04  0.59996438887E+03 0.  0.
         23    2    4    4    0    0 -0.46850233384E+02  0.92125926774E+02  0.78020553044E+03  0.79251316816E+03  0.93136036132E+02 0.  0.
         23    2    4    4    0    0 -0.28480017472E+03  0.11991813710E+03  0.88909424259E+02  0.33455060582E+03  0.92345671272E+02 0.  0.
          5    1    3    3  502    0  0.21708563692E+03 -0.11065861398E+03  0.19879245113E+03  0.31450283183E+03  0.47000000000E+01 0. -1.
         -5    1    3    3    0  502  0.11456477118E+03 -0.10138544990E+03  0.21338361258E+03  0.26259998546E+03  0.47000000000E+01 0.  1.
         11    1    5    5    0    0  0.21157203154E+02  0.18651905867E+02  0.33519775677E+03  0.33638230778E+03  0.00000000000E+00 0. -1.
        -11    1    5    5    0    0 -0.68007436538E+02  0.73474020907E+02  0.44500777367E+03  0.45613086039E+03  0.00000000000E+00 0.  1.
          1    1    6    6  503    0 -0.55459334776E+02  0.66400601251E+02  0.32234859031E+02  0.92324773474E+02  0.00000000000E+00 0. -1.
         -1    1    6    6    0  503 -0.22934083994E+03  0.53517535853E+02  0.56674565228E+02  0.24222583234E+03  0.00000000000E+00 0.  1.
<mgrwt>
<rscale>  0 0.42355161E+03</rscale>
<asrwt>0</asrwt>
<pdfrwt beam="1">  1        2 0.22965058E+00 0.42355161E+03</pdfrwt>
<pdfrwt beam="2">  1       -2 0.32528891E-01 0.42355161E+03</pdfrwt>
<totfact> 0.11916526E+02</totfact>
</mgrwt>
</event>
<event>
12    1  0.3147868E-008  0.1286215E+04  0.7818608E-02  0.9040569E-01
         -2   -1    0    0    0  501 -0.00000000000E+00  0.00000000000E+00  0.10894285629E+04  0.10894285629E+04  0.00000000000E+00 0.  1.
          2   -1    0    0  501    0  0.00000000000E+00 -0.00000000000E+00 -0.16801986463E+04  0.16801986463E+04  0.00000000000E+00 0. -1.
         23    2    1    2    0    0  0.30091063380E+03 -0.12349293875E+04 -0.89821803130E+02  0.12774722506E+04  0.90937303091E+02 0.  0.
    5000000    2    1    2    0    0 -0.30091063380E+03  0.12349293875E+04 -0.50094828026E+03  0.14921549587E+04  0.59998286601E+03 0.  0.
         23    2    4    4    0    0 -0.20491630326E+03  0.10830699715E+04 -0.19085759472E+03  0.11221945974E+04  0.88672646643E+02 0.  0.
         23    2    4    4    0    0 -0.95994330538E+02  0.15185941595E+03 -0.31009068554E+03  0.36996036130E+03  0.91859904015E+02 0.  0.
          5    1    3    3  502    0  0.13029300651E+03 -0.69099720369E+03 -0.75232697310E+02  0.70720255359E+03  0.47000000000E+01 0. -1.
         -5    1    3    3    0  502  0.17061762729E+03 -0.54393218380E+03 -0.14589105820E+02  0.57026969701E+03  0.47000000000E+01 0.  1.
         13    1    5    5    0    0 -0.17992892048E+03  0.90662691027E+03 -0.19174987396E+03  0.94398876319E+03  0.00000000000E+00 0.  1.
        -13    1    5    5    0    0 -0.24987382779E+02  0.17644306127E+03  0.89227924128E+00  0.17820583417E+03  0.00000000000E+00 0. -1.
          3    1    6    6  503    0 -0.63934943269E+02  0.29972837380E+02 -0.73676931151E+02  0.10205066455E+03  0.00000000000E+00 0. -1.
         -3    1    6    6    0  503 -0.32059387269E+02  0.12188657857E+03 -0.23641375439E+03  0.26790969674E+03  0.00000000000E+00 0.  1.
<mgrwt>
<rscale>  0 0.12862146E+04</rscale>
<asrwt>0</asrwt>
<pdfrwt beam="1">  1        2 0.25849210E+00 0.12862146E+04</pdfrwt>
<pdfrwt beam="2">  1       -2 0.16760439E+00 0.12862146E+04</pdfrwt>
<totfact> 0.21463615E+00</totfact>
</mgrwt>
</event>
<event>
12    1  0.3147868E-008  0.4357984E+03  0.7818608E-02  0.1032044E+00
         -2   -1    0    0    0  501 -0.00000000000E+00  0.00000000000E+00  0.28091097547E+03  0.28091097547E+03  0.00000000000E+00 0.  1.
          2   -1    0    0  501    0  0.00000000000E+00 -0.00000000000E+00 -0.17086660216E+04  0.17086660216E+04  0.00000000000E+00 0. -1.
         23    2    1    2    0    0 -0.28769219422E+03 -0.22977709887E+03  0.20667562985E+02  0.37907143619E+03  0.87770677298E+02 0.  0.
    5000000    2    1    2    0    0  0.28769219422E+03  0.22977709887E+03 -0.14484226091E+04  0.16105055609E+04  0.60019646220E+03 0.  0.
         23    2    4    4    0    0  0.20248515525E+03  0.29620769417E+03 -0.37272803706E+03  0.52544433140E+03  0.91794986819E+02 0.  0.
         23    2    4    4    0    0  0.85207038971E+02 -0.66430595301E+02 -0.10756945721E+04  0.10850612295E+04  0.92551584996E+02 0.  0.
          5    1    3    3  502    0 -0.20797296515E+03 -0.19383609024E+03  0.45712490597E+02  0.28798768361E+03  0.47000000000E+01 0. -1.
         -5    1    3    3    0  502 -0.79719229071E+02 -0.35941008626E+02 -0.25044927612E+02  0.91083752579E+02  0.47000000000E+01 0.  1.
         11    1    5    5    0    0  0.81043960494E+02  0.19868146478E+03 -0.21268212029E+03  0.30211940069E+03  0.00000000000E+00 0.  1.
        -11    1    5    5    0    0  0.12144119476E+03  0.97526229390E+02 -0.16004591676E+03  0.22332493071E+03  0.00000000000E+00 0. -1.
          4    1    6    6  503    0  0.26577103227E+01 -0.43639761903E+02 -0.17798468262E+03  0.18327585626E+03  0.00000000000E+00 0.  1.
         -4    1    6    6    0  503  0.82549328648E+02 -0.22790833398E+02 -0.89770988946E+03  0.90178537323E+03  0.00000000000E+00 0. -1.
<mgrwt>
<rscale>  0 0.43579840E+03</rscale>
<asrwt>0</asrwt>
<pdfrwt beam="1">  1        2 0.26287170E+00 0.43579840E+03</pdfrwt>
<pdfrwt beam="2">  1       -2 0.43217072E-01 0.43579840E+03</pdfrwt>
<totfact> 0.52807191E+01</totfact>
</mgrwt>
</event>
<event>
12    1  0.3147868E-008  0.2646085E+03  0.7818608E-02  0.1104406E+00
          2   -1    0    0  501    0  0.00000000000E+00  0.00000000000E+00  0.36229027517E+04  0.36229027517E+04  0.00000000000E+00 0. -1.
         -2   -1    0    0    0  501 -0.00000000000E+00 -0.00000000000E+00 -0.44432124862E+02  0.44432124862E+02  0.00000000000E+00 0.  1.
         23    2    1    2    0    0 -0.15949563833E+03  0.11891421269E+02  0.61354313330E+03  0.63808385658E+03  0.71662870899E+02 0.  0.
    5000000    2    1    2    0    0  0.15949563833E+03 -0.11891421269E+02  0.29649274935E+04  0.30292510199E+04  0.59998869620E+03 0.  0.
         23    2    4    4    0    0 -0.78862961353E+02 -0.56980577925E+02  0.14272823948E+03  0.19526738672E+03  0.91059590577E+02 0.  0.
         23    2    4    4    0    0  0.23835859968E+03  0.45089156656E+02  0.28221992540E+04  0.28339836332E+04  0.88355814287E+02 0.  0.
          5    1    3    3  502    0 -0.78608377033E+02  0.38479390797E+02  0.36279780981E+03  0.37323488752E+03  0.47000000000E+01 0. -1.
         -5    1    3    3    0  502 -0.80887261296E+02 -0.26587969527E+02  0.25074532349E+03  0.26484896907E+03  0.47000000000E+01 0.  1.
         11    1    5    5    0    0 -0.12247657703E+02  0.92856032763E+01 -0.82456481320E+01  0.17441853701E+02  0.00000000000E+00 0. -1.
        -11    1    5    5    0    0 -0.66615303649E+02 -0.66266181202E+02  0.15097388762E+03  0.17782553302E+03  0.00000000000E+00 0.  1.
          4    1    6    6  503    0  0.45459919966E+02  0.27812512582E+02  0.33051170331E+03  0.33478071361E+03  0.00000000000E+00 0. -1.
         -4    1    6    6    0  503  0.19289867972E+03  0.17276644074E+02  0.24916875507E+04  0.24992029196E+04  0.00000000000E+00 0.  1.
<mgrwt>
<rscale>  0 0.26460850E+03</rscale>
<asrwt>0</asrwt>
<pdfrwt beam="1">  1        2 0.55736943E+00 0.26460850E+03</pdfrwt>
<pdfrwt beam="2">  1       -2 0.68357143E-02 0.26460850E+03</pdfrwt>
<totfact> 0.10175771E+02</totfact>
</mgrwt>
</event>
<event>
12    1  0.3147868E-008  0.1057244E+04  0.7818608E-02  0.9247897E-01
          2   -1    0    0  501    0  0.00000000000E+00  0.00000000000E+00  0.95774406299E+03  0.95774406299E+03  0.00000000000E+00 0.  1.
         -2   -1    0    0    0  501 -0.00000000000E+00 -0.00000000000E+00 -0.12515765675E+04  0.12515765675E+04  0.00000000000E+00 0. -1.
         23    2    1    2    0    0 -0.31143839291E+03  0.93568169240E+03  0.85720839248E+02  0.99419483666E+03  0.92634814635E+02 0.  0.
    5000000    2    1    2    0    0  0.31143839291E+03 -0.93568169240E+03 -0.37955334381E+03  0.12151257939E+04  0.59997987639E+03 0.  0.
         23    2    4    4    0    0  0.41238687492E+03 -0.41155683270E+03 -0.31768845926E+03  0.66989576333E+03  0.91610127303E+02 0.  0.
         23    2    4    4    0    0 -0.10094848202E+03 -0.52412485970E+03 -0.61864884548E+02  0.54523003054E+03  0.92471929228E+02 0.  0.
          5    1    3    3  502    0 -0.15944498069E+03  0.48563439893E+03 -0.17555997883E+01  0.51116400834E+03  0.47000000000E+01 0.  1.
         -5    1    3    3    0  502 -0.15199341221E+03  0.45004729347E+03  0.87476439037E+02  0.48303082831E+03  0.47000000000E+01 0.  1.
         13    1    5    5    0    0  0.38070530807E+03 -0.34823094131E+03 -0.25591579073E+03  0.57592899912E+03  0.00000000000E+00 0.  1.
        -13    1    5    5    0    0  0.31681566853E+02 -0.63325891397E+02 -0.61772668530E+02  0.93966764214E+02  0.00000000000E+00 0. -1.
          3    1    6    6  503    0 -0.94008760355E+01 -0.28983161656E+03 -0.26096946883E+02  0.29115596004E+03  0.00000000000E+00 0. -1.
         -3    1    6    6    0  503 -0.91547605980E+02 -0.23429324313E+03 -0.35767937665E+02  0.25407407051E+03  0.00000000000E+00 0.  1.
<mgrwt>
<rscale>  0 0.10572443E+04</rscale>
<asrwt>0</asrwt>
<pdfrwt beam="1">  1        2 0.14734524E+00 0.10572443E+04</pdfrwt>
<pdfrwt beam="2">  1       -2 0.19255024E+00 0.10572443E+04</pdfrwt>
<totfact> 0.39430088E+00</totfact>
</mgrwt>
</event>
<event>
12    1  0.3147868E-008  0.6601481E+03  0.7818608E-02  0.9787921E-01
          1   -1    0    0  501    0  0.00000000000E+00  0.00000000000E+00  0.95116398935E+03  0.95116398935E+03  0.00000000000E+00 0. -1.
         -1   -1    0    0    0  501 -0.00000000000E+00 -0.00000000000E+00 -0.49439216807E+03  0.49439216807E+03  0.00000000000E+00 0.  1.
         23    2    1    2    0    0 -0.52829350420E+03 -0.13400308895E+03  0.10820825579E+03  0.56308898316E+03  0.91155482071E+02 0.  0.
    5000000    2    1    2    0    0  0.52829350420E+03  0.13400308895E+03  0.34856356549E+03  0.88246717425E+03  0.60016739333E+03 0.  0.
         23    2    4    4    0    0 -0.10680823091E+03  0.29566693901E+02  0.13815871296E+03  0.19917899472E+03  0.91116707546E+02 0.  0.
         23    2    4    4    0    0  0.63510173511E+03  0.10443639505E+03  0.21040485254E+03  0.68328817953E+03  0.91385774422E+02 0.  0.
          5    1    3    3  502    0 -0.15471815857E+03 -0.23840110378E+02 -0.73910535462E+01  0.15678895728E+03  0.47000000000E+01 0. -1.
         -5    1    3    3    0  502 -0.37357534563E+03 -0.11016297857E+03  0.11559930933E+03  0.40630002588E+03  0.47000000000E+01 0.  1.
         13    1    5    5    0    0 -0.39735706102E+02  0.41167924658E+02  0.11290827897E+03  0.12657805426E+03  0.00000000000E+00 0.  1.
        -13    1    5    5    0    0 -0.67072524807E+02 -0.11601230757E+02  0.25250433982E+02  0.72600940458E+02  0.00000000000E+00 0. -1.
          4    1    6    6  503    0  0.13452563263E+03 -0.11647249663E+02  0.60856825917E+02  0.14810927560E+03  0.00000000000E+00 0. -1.
         -4    1    6    6    0  503  0.50057610248E+03  0.11608364472E+03  0.14954802662E+03  0.53517890393E+03  0.00000000000E+00 0.  1.
<mgrwt>
<rscale>  0 0.66014813E+03</rscale>
<asrwt>0</asrwt>
<pdfrwt beam="1">  1        1 0.14633292E+00 0.66014813E+03</pdfrwt>
<pdfrwt beam="2">  1       -1 0.76060334E-01 0.66014813E+03</pdfrwt>
<totfact> 0.29792132E+01</totfact>
</mgrwt>
</event>
<event>
12    1  0.3147868E-008  0.3670854E+03  0.7818608E-02  0.1055813E+00
          2   -1    0    0  501    0  0.00000000000E+00  0.00000000000E+00  0.82363906113E+03  0.82363906113E+03  0.00000000000E+00 0. -1.
         -2   -1    0    0    0  501 -0.00000000000E+00 -0.00000000000E+00 -0.22623183371E+03  0.22623183371E+03  0.00000000000E+00 0.  1.
         23    2    1    2    0    0  0.18447044391E+03 -0.90175585145E+02  0.20723489298E+03  0.30508301456E+03  0.89265693679E+02 0.  0.
    5000000    2    1    2    0    0 -0.18447044391E+03  0.90175585145E+02  0.39017233443E+03  0.74478788028E+03  0.60026123915E+03 0.  0.
         23    2    4    4    0    0 -0.29291042016E+03  0.18257405584E+03  0.43684951420E+02  0.35950504021E+03  0.90585312563E+02 0.  0.
         23    2    4    4    0    0  0.10843997625E+03 -0.92398470694E+02  0.34648738301E+03  0.38528284007E+03  0.89959182021E+02 0.  0.
          5    1    3    3  502    0  0.12499442374E+03 -0.16635889808E+02  0.14269189749E+03  0.19048208946E+03  0.47000000000E+01 0. -1.
         -5    1    3    3    0  502  0.59476020178E+02 -0.73539695337E+02  0.64542995489E+02  0.11460092510E+03  0.47000000000E+01 0.  1.
         13    1    5    5    0    0 -0.81674549751E+02  0.40179068952E+02 -0.27341324411E+02  0.95040189811E+02  0.00000000000E+00 0.  1.
        -13    1    5    5    0    0 -0.21123587041E+03  0.14239498689E+03  0.71026275831E+02  0.26446485040E+03  0.00000000000E+00 0. -1.
          4    1    6    6  503    0  0.47517079002E+02 -0.95339118870E+02  0.19988059159E+03  0.22649430739E+03  0.00000000000E+00 0. -1.
         -4    1    6    6    0  503  0.60922897250E+02  0.29406481760E+01  0.14660679142E+03  0.15878853268E+03  0.00000000000E+00 0.  1.
<mgrwt>
<rscale>  0 0.36708539E+03</rscale>
<asrwt>0</asrwt>
<pdfrwt beam="1">  1        2 0.12671370E+00 0.36708539E+03</pdfrwt>
<pdfrwt beam="2">  1       -2 0.34804898E-01 0.36708539E+03</pdfrwt>
<totfact> 0.26496620E+02</totfact>
</mgrwt>
</event>
<event>
12    1  0.3147868E-008  0.7898291E+03  0.7818608E-02  0.9574857E-01
          1   -1    0    0  501    0  0.00000000000E+00  0.00000000000E+00  0.60850802470E+03  0.60850802470E+03  0.00000000000E+00 0. -1.
         -1   -1    0    0    0  501 -0.00000000000E+00 -0.00000000000E+00 -0.11355489531E+04  0.11355489531E+04  0.00000000000E+00 0.  1.
         23    2    1    2    0    0 -0.59549375130E+03 -0.39952698024E+03 -0.16781398889E+03  0.74248008466E+03  0.94236540052E+02 0.  0.
    5000000    2    1    2    0    0  0.59549375130E+03  0.39952698024E+03 -0.35922693953E+03  0.10015768931E+04  0.59989804386E+03 0.  0.
         23    2    4    4    0    0  0.65447350222E+03  0.27602144962E+03 -0.41518871608E+03  0.82762316558E+03  0.89749810489E+02 0.  0.
         23    2    4    4    0    0 -0.58979750922E+02  0.12350553062E+03  0.55961776545E+02  0.17395372757E+03  0.91629426441E+02 0.  0.
          5    1    3    3  502    0 -0.24104192379E+03 -0.11601720798E+03 -0.37017621914E+02  0.27009923343E+03  0.47000000000E+01 0. -1.
         -5    1    3    3    0  502 -0.35445182751E+03 -0.28350977226E+03 -0.13079636697E+03  0.47238085123E+03  0.47000000000E+01 0.  1.
         11    1    5    5    0    0  0.49153918141E+03  0.24312508516E+03 -0.33962634207E+03  0.64503226751E+03  0.00000000000E+00 0.  1.
        -11    1    5    5    0    0  0.16293432082E+03  0.32896364461E+02 -0.75562374003E+02  0.18259089807E+03  0.00000000000E+00 0. -1.
          3    1    6    6  503    0 -0.15295160284E+02  0.32322830384E+01  0.42503191456E+02  0.45286983403E+02  0.00000000000E+00 0. -1.
         -3    1    6    6    0  503 -0.43684590638E+02  0.12027324758E+03  0.13458585089E+02  0.12866674417E+03  0.00000000000E+00 0.  1.
<mgrwt>
<rscale>  0 0.78982914E+03</rscale>
<asrwt>0</asrwt>
<pdfrwt beam="1">  1        1 0.93616620E-01 0.78982914E+03</pdfrwt>
<pdfrwt beam="2">  1       -1 0.17469984E+00 0.78982914E+03</pdfrwt>
<totfact> 0.78341777E+00</totfact>
</mgrwt>
</event>
<event>
12    1  0.4264414E-008  0.1873941E+04  0.7818608E-02  0.8667937E-01
         -2   -1    0    0    0  501 -0.00000000000E+00  0.00000000000E+00  0.14242131592E+04  0.14242131592E+04  0.00000000000E+00 0. -1.
          2   -1    0    0  501    0  0.00000000000E+00 -0.00000000000E+00 -0.26062603790E+04  0.26062603790E+04  0.00000000000E+00 0.  1.
         23    2    1    2    0    0 -0.17237936168E+04 -0.67985273269E+03 -0.25284122112E+03  0.18724888297E+04  0.92852369621E+02 0.  0.
    5000000    2    1    2    0    0  0.17237936168E+04  0.67985273269E+03 -0.92920599873E+03  0.21579847086E+04  0.59984168137E+03 0.  0.
         23    2    4    4    0    0  0.82121190743E+03  0.14109160428E+03 -0.66574332017E+03  0.10704810104E+04  0.91758310356E+02 0.  0.
         23    2    4    4    0    0  0.90258170941E+03  0.53876112841E+03 -0.26346267856E+03  0.10875036982E+04  0.91293016870E+02 0.  0.
          5    1    3    3  502    0 -0.77642158686E+03 -0.26625500012E+03 -0.13905600055E+03  0.83251478480E+03  0.47000000000E+01 0. -1.
         -5    1    3    3    0  502 -0.94737202998E+03 -0.41359773257E+03 -0.11378522057E+03  0.10399740449E+04  0.47000000000E+01 0.  1.
         11    1    5    5    0    0  0.56617628568E+03  0.13985917237E+03 -0.46843268761E+03  0.74802764480E+03  0.00000000000E+00 0. -1.
        -11    1    5    5    0    0  0.25503562175E+03  0.12324319101E+01 -0.19731063256E+03  0.32245336557E+03  0.00000000000E+00 0.  1.
          4    1    6    6  503    0  0.54166128779E+03  0.27080573380E+03 -0.14912892995E+03  0.62367630538E+03  0.00000000000E+00 0. -1.
         -4    1    6    6    0  503  0.36092042162E+03  0.26795539461E+03 -0.11433374861E+03  0.46382739280E+03  0.00000000000E+00 0.  1.
<mgrwt>
<rscale>  0 0.18739414E+04</rscale>
<asrwt>0</asrwt>
<pdfrwt beam="1">  1        2 0.40096313E+00 0.18739414E+04</pdfrwt>
<pdfrwt beam="2">  1       -2 0.21910972E+00 0.18739414E+04</pdfrwt>
<totfact> 0.27279961E-01</totfact>
</mgrwt>
</event>
<event>
12    1  0.3147868E-008  0.8912215E+03  0.7818608E-02  0.9436622E-01
         -2   -1    0    0    0  501 -0.00000000000E+00  0.00000000000E+00  0.49359878117E+03  0.49359878117E+03  0.00000000000E+00 0. -1.
          2   -1    0    0  501    0  0.00000000000E+00 -0.00000000000E+00 -0.19235973034E+04  0.19235973034E+04  0.00000000000E+00 0.  1.
         23    2    1    2    0    0  0.68308604432E+03 -0.55149178291E+03 -0.71837840317E+03  0.11376797331E+04  0.86590498194E+02 0.  0.
    5000000    2    1    2    0    0 -0.68308604432E+03  0.55149178291E+03 -0.71162011907E+03  0.12795163515E+04  0.60000764103E+03 0.  0.
         23    2    4    4    0    0 -0.31180319043E+03  0.15389788514E+03  0.23850343536E+02  0.36009317969E+03  0.90512267448E+02 0.  0.
         23    2    4    4    0    0 -0.37128285389E+03  0.39759389776E+03 -0.73547046260E+03  0.91942317180E+03  0.92142836624E+02 0.  0.
          5    1    3    3  502    0  0.19736327383E+03 -0.11224563574E+03 -0.17467251665E+03  0.28650291914E+03  0.47000000000E+01 0. -1.
         -5    1    3    3    0  502  0.48572277049E+03 -0.43924614717E+03 -0.54370588652E+03  0.85117681396E+03  0.47000000000E+01 0.  1.
         13    1    5    5    0    0 -0.12783692104E+03  0.96364155833E+02 -0.22989176019E+02  0.16173073648E+03  0.00000000000E+00 0. -1.
        -13    1    5    5    0    0 -0.18396626939E+03  0.57533729312E+02  0.46839519554E+02  0.19836244321E+03  0.00000000000E+00 0.  1.
          4    1    6    6  503    0 -0.25182894818E+03  0.22494986114E+03 -0.50687675293E+03  0.60905196973E+03  0.00000000000E+00 0. -1.
         -4    1    6    6    0  503 -0.11945390571E+03  0.17264403662E+03 -0.22859370967E+03  0.31037120206E+03  0.00000000000E+00 0.  1.
<mgrwt>
<rscale>  0 0.89122147E+03</rscale>
<asrwt>0</asrwt>
<pdfrwt beam="1">  1        2 0.29593805E+00 0.89122147E+03</pdfrwt>
<pdfrwt beam="2">  1       -2 0.75938274E-01 0.89122147E+03</pdfrwt>
<totfact> 0.11605432E+01</totfact>
</mgrwt>
</event>
<event>
12    1  0.3147868E-008  0.1189803E+04  0.7818608E-02  0.9121829E-01
          1   -1    0    0  501    0  0.00000000000E+00  0.00000000000E+00  0.88947216123E+03  0.88947216123E+03  0.00000000000E+00 0. -1.
         -1   -1    0    0    0  501 -0.00000000000E+00 -0.00000000000E+00 -0.18521130292E+04  0.18521130292E+04  0.00000000000E+00 0.  1.
         23    2    1    2    0    0  0.11414274728E+04 -0.31385394862E+03 -0.72955609132E+03  0.13938315339E+04  0.95672764711E+02 0.  0.
    5000000    2    1    2    0    0 -0.11414274728E+04  0.31385394862E+03 -0.23308477666E+03  0.13477536565E+04  0.60062503176E+03 0.  0.
         23    2    4    4    0    0 -0.48536354715E+03  0.15560384099E+03 -0.38999174284E+03  0.64835168228E+03  0.92065282257E+02 0.  0.
         23    2    4    4    0    0 -0.65606392565E+03  0.15825010763E+03  0.15690696618E+03  0.69940197422E+03  0.95290893632E+02 0.  0.
          5    1    3    3  502    0  0.97888399839E+03 -0.23647987427E+03 -0.63339728354E+03  0.11896851777E+04  0.47000000000E+01 0. -1.
         -5    1    3    3    0  502  0.16254347440E+03 -0.77374074351E+02 -0.96158807788E+02  0.20414635624E+03  0.47000000000E+01 0.  1.
         11    1    5    5    0    0 -0.60945985874E+02  0.53204948850E+02 -0.70980676197E+02  0.10762637302E+03  0.00000000000E+00 0. -1.
        -11    1    5    5    0    0 -0.42441756128E+03  0.10239889214E+03 -0.31901106665E+03  0.54072530926E+03  0.00000000000E+00 0.  1.
          4    1    6    6  503    0 -0.21853873544E+03  0.58161790968E+02  0.71824845298E+01  0.22625994100E+03  0.00000000000E+00 0. -1.
         -4    1    6    6    0  503 -0.43752519021E+03  0.10008831666E+03  0.14972448165E+03  0.47314203322E+03  0.00000000000E+00 0.  1.
<mgrwt>
<rscale>  0 0.11898034E+04</rscale>
<asrwt>0</asrwt>
<pdfrwt beam="1">  1        1 0.13684187E+00 0.11898034E+04</pdfrwt>
<pdfrwt beam="2">  1       -1 0.28494046E+00 0.11898034E+04</pdfrwt>
<totfact> 0.75701795E-01</totfact>
</mgrwt>
</event>
<event>
12    1  0.3147868E-008  0.4960856E+03  0.7818608E-02  0.1014806E+00
          1   -1    0    0  501    0  0.00000000000E+00  0.00000000000E+00  0.15183764315E+04  0.15183764315E+04  0.00000000000E+00 0. -1.
         -1   -1    0    0    0  501 -0.00000000000E+00 -0.00000000000E+00 -0.43592562551E+03  0.43592562551E+03  0.00000000000E+00 0.  1.
         23    2    1    2    0    0 -0.25775405192E+03  0.22257685976E+03  0.12032228045E+04  0.12537825857E+04  0.90818749333E+02 0.  0.
    5000000    2    1    2    0    0  0.25775405192E+03 -0.22257685976E+03 -0.12077199848E+03  0.70051947131E+03  0.60013668800E+03 0.  0.
         23    2    4    4    0    0 -0.68514244244E+02  0.12874393605E+03 -0.12371723837E+03  0.21244139483E+03  0.92499667208E+02 0.  0.
         23    2    4    4    0    0  0.32626829617E+03 -0.35132079580E+03  0.29452398924E+01  0.48807807648E+03  0.91292013106E+02 0.  0.
          5    1    3    3  502    0 -0.19032880700E+03  0.15200486488E+03  0.70062423107E+03  0.74177283374E+03  0.47000000000E+01 0. -1.
         -5    1    3    3    0  502 -0.67425244924E+02  0.70571994879E+02  0.50259857341E+03  0.51200975197E+03  0.47000000000E+01 0.  1.
         13    1    5    5    0    0 -0.67153596194E+00  0.80351449069E+02 -0.26986482769E+02  0.84764831035E+02  0.00000000000E+00 0.  1.
        -13    1    5    5    0    0 -0.67842708282E+02  0.48392486977E+02 -0.96730755602E+02  0.12767656379E+03  0.00000000000E+00 0. -1.
          3    1    6    6  503    0  0.12436179611E+03 -0.76083683317E+02 -0.12889857464E+02  0.14635823046E+03  0.00000000000E+00 0. -1.
         -3    1    6    6    0  503  0.20190650006E+03 -0.27523711249E+03  0.15835097356E+02  0.34171984602E+03  0.00000000000E+00 0.  1.
<mgrwt>
<rscale>  0 0.49608559E+03</rscale>
<asrwt>0</asrwt>
<pdfrwt beam="1">  1        1 0.23359637E+00 0.49608559E+03</pdfrwt>
<pdfrwt beam="2">  1       -1 0.67065482E-01 0.49608559E+03</pdfrwt>
<totfact> 0.15493786E+01</totfact>
</mgrwt>
</event>
<event>
12    1  0.3147868E-008  0.1455709E+04  0.7818608E-02  0.8914452E-01
          2   -1    0    0  501    0  0.00000000000E+00  0.00000000000E+00  0.28757364850E+04  0.28757364850E+04  0.00000000000E+00 0. -1.
         -2   -1    0    0    0  501 -0.00000000000E+00 -0.00000000000E+00 -0.85853577357E+03  0.85853577357E+03  0.00000000000E+00 0.  1.
         23    2    1    2    0    0 -0.12872460815E+04 -0.55799514335E+03  0.16443367333E+04  0.21634137369E+04  0.90303100849E+02 0.  0.
    5000000    2    1    2    0    0  0.12872460815E+04  0.55799514335E+03  0.37286397811E+03  0.15708585217E+04  0.60017322048E+03 0.  0.
         23    2    4    4    0    0  0.12768427245E+04  0.39675510833E+03  0.32346309985E+03  0.13786751749E+04  0.91514489315E+02 0.  0.
         23    2    4    4    0    0  0.10403357005E+02  0.16124003501E+03  0.49400878257E+02  0.19218334679E+03  0.91582821988E+02 0.  0.
          5    1    3    3  502    0 -0.66352883061E+03 -0.32267390401E+03  0.91186739636E+03  0.11729932634E+04  0.47000000000E+01 0. -1.
         -5    1    3    3    0  502 -0.62371725091E+03 -0.23532123934E+03  0.73246933694E+03  0.99042047350E+03  0.47000000000E+01 0.  1.
         11    1    5    5    0    0  0.28273444650E+03  0.53171268802E+02  0.87785001403E+02  0.30078589982E+03  0.00000000000E+00 0. -1.
        -11    1    5    5    0    0  0.99410827801E+03  0.34358383953E+03  0.23567809845E+03  0.10778892751E+04  0.00000000000E+00 0.  1.
          1    1    6    6  503    0  0.11682151813E+02  0.79460985876E+01  0.35555963910E+02  0.38260158433E+02  0.00000000000E+00 0. -1.
         -1    1    6    6    0  503 -0.12787948086E+01  0.15329393643E+03  0.13844914347E+02  0.15392318836E+03  0.00000000000E+00 0.  1.
<mgrwt>
<rscale>  0 0.14557092E+04</rscale>
<asrwt>0</asrwt>
<pdfrwt beam="1">  1        2 0.44242099E+00 0.14557092E+04</pdfrwt>
<pdfrwt beam="2">  1       -2 0.13208243E+00 0.14557092E+04</pdfrwt>
<totfact> 0.82759336E-01</totfact>
</mgrwt>
</event>
<event>
12    1  0.3147868E-008  0.8937183E+03  0.7818608E-02  0.9433468E-01
         -2   -1    0    0    0  501 -0.00000000000E+00  0.00000000000E+00  0.71578707306E+03  0.71578707306E+03  0.00000000000E+00 0.  1.
          2   -1    0    0  501    0  0.00000000000E+00 -0.00000000000E+00 -0.12795139768E+04  0.12795139768E+04  0.00000000000E+00 0. -1.
         23    2    1    2    0    0  0.27447712720E+03 -0.78781724826E+03 -0.47349342616E+03  0.96349050683E+03  0.90134466922E+02 0.  0.
    5000000    2    1    2    0    0 -0.27447712720E+03  0.78781724826E+03 -0.90233477567E+02  0.10318105430E+04  0.60041419552E+03 0.  0.
         23    2    4    4    0    0 -0.39922695008E+03  0.58642301235E+03  0.88936026984E+02  0.72106343453E+03  0.93534766956E+02 0.  0.
         23    2    4    4    0    0  0.12474982288E+03  0.20139423591E+03 -0.17916950455E+03  0.31074710849E+03  0.91323039297E+02 0.  0.
          5    1    3    3  502    0  0.19519843848E+03 -0.50186546692E+03 -0.34867303391E+03  0.64153437308E+03  0.47000000000E+01 0.  1.
         -5    1    3    3    0  502  0.79278688720E+02 -0.28595178134E+03 -0.12482039225E+03  0.32195613375E+03  0.47000000000E+01 0.  1.
         13    1    5    5    0    0 -0.14305673291E+03  0.16444490662E+03 -0.74685123724E+01  0.21808974029E+03  0.00000000000E+00 0.  1.
        -13    1    5    5    0    0 -0.25617021717E+03  0.42197810573E+03  0.96404539356E+02  0.50297369423E+03  0.00000000000E+00 0. -1.
          1    1    6    6  503    0  0.25284455055E+02  0.78309035476E+02 -0.11163903192E+03  0.13868987761E+03  0.00000000000E+00 0. -1.
         -1    1    6    6    0  503  0.99465367825E+02  0.12308520043E+03 -0.67530472631E+02  0.17205723087E+03  0.00000000000E+00 0.  1.
<mgrwt>
<rscale>  0 0.89371829E+03</rscale>
<asrwt>0</asrwt>
<pdfrwt beam="1">  1        2 0.19684830E+00 0.89371829E+03</pdfrwt>
<pdfrwt beam="2">  1       -2 0.11012109E+00 0.89371829E+03</pdfrwt>
<totfact> 0.11181600E+01</totfact>
</mgrwt>
</event>
<event>
12    1  0.3147868E-008  0.1174898E+04  0.7818608E-02  0.9135116E-01
         -2   -1    0    0    0  501 -0.00000000000E+00  0.00000000000E+00  0.75839755942E+03  0.75839755942E+03  0.00000000000E+00 0.  1.
          2   -1    0    0  501    0  0.00000000000E+00 -0.00000000000E+00 -0.19341154138E+04  0.19341154138E+04  0.00000000000E+00 0. -1.
         23    2    1    2    0    0  0.38910839270E+03  0.10512371049E+04 -0.74919949624E+03  0.13514549279E+04  0.92874888953E+02 0.  0.
    5000000    2    1    2    0    0 -0.38910839270E+03 -0.10512371049E+04 -0.42651835815E+03  0.13410580453E+04  0.60001164904E+03 0.  0.
         23    2    4    4    0    0  0.11819246053E+03 -0.15723492705E+03 -0.17355130393E+03  0.27850650791E+03  0.93560353987E+02 0.  0.
         23    2    4    4    0    0 -0.50730085323E+03 -0.89400217788E+03 -0.25296705421E+03  0.10625515374E+04  0.91811705992E+02 0.  0.
          5    1    3    3  502    0  0.24723717052E+03  0.70545671984E+03 -0.44876887094E+03  0.87190079228E+03  0.47000000000E+01 0. -1.
         -5    1    3    3    0  502  0.14187122218E+03  0.34578038508E+03 -0.30043062531E+03  0.47955413564E+03  0.47000000000E+01 0.  1.
         11    1    5    5    0    0  0.11197149671E+03 -0.15079957291E+03 -0.11707392184E+03  0.22132426537E+03  0.00000000000E+00 0. -1.
        -11    1    5    5    0    0  0.62209638199E+01 -0.64353541453E+01 -0.56477382095E+02  0.57182242542E+02  0.00000000000E+00 0.  1.
          3    1    6    6  503    0 -0.23339175126E+03 -0.32411987625E+03 -0.85422251896E+02  0.40843893651E+03  0.00000000000E+00 0. -1.
         -3    1    6    6    0  503 -0.27390910197E+03 -0.56988230163E+03 -0.16754480232E+03  0.65411260088E+03  0.00000000000E+00 0.  1.
<mgrwt>
<rscale>  0 0.11748983E+04</rscale>
<asrwt>0</asrwt>
<pdfrwt beam="1">  1        2 0.29755622E+00 0.11748983E+04</pdfrwt>
<pdfrwt beam="2">  1       -2 0.11667655E+00 0.11748983E+04</pdfrwt>
<totfact> 0.40498320E+00</totfact>
</mgrwt>
</event>
<event>
12    1  0.3147868E-008  0.6238681E+03  0.7818608E-02  0.9857088E-01
         -1   -1    0    0    0  501 -0.00000000000E+00  0.00000000000E+00  0.43292667428E+03  0.43292667428E+03  0.00000000000E+00 0.  1.
          1   -1    0    0  501    0  0.00000000000E+00 -0.00000000000E+00 -0.13656648832E+04  0.13656648832E+04  0.00000000000E+00 0. -1.
         23    2    1    2    0    0 -0.29416264598E+03  0.46453922034E+03 -0.79814710926E+03  0.97344419440E+03  0.90699735780E+02 0.  0.
    5000000    2    1    2    0    0  0.29416264598E+03 -0.46453922034E+03 -0.13459109968E+03  0.82514736310E+03  0.60035410984E+03 0.  0.
         23    2    4    4    0    0 -0.54123638479E+02 -0.26684344612E+03  0.15079422533E+03  0.32442280994E+03  0.91523047596E+02 0.  0.
         23    2    4    4    0    0  0.34828628446E+03 -0.19769577422E+03 -0.28538532501E+03  0.50072455316E+03  0.94304503152E+02 0.  0.
          5    1    3    3  502    0 -0.98281769709E+02  0.10095847143E+03 -0.25144969360E+03  0.28827236708E+03  0.47000000000E+01 0. -1.
         -5    1    3    3    0  502 -0.19588087627E+03  0.36358074891E+03 -0.54669741566E+03  0.68517182732E+03  0.47000000000E+01 0.  1.
         11    1    5    5    0    0 -0.31734310763E+02 -0.26153763932E+02  0.33134170916E+01  0.41256085372E+02  0.00000000000E+00 0. -1.
        -11    1    5    5    0    0 -0.22389327716E+02 -0.24068968219E+03  0.14748080824E+03  0.28316672457E+03  0.00000000000E+00 0.  1.
          1    1    6    6  503    0  0.26569118698E+03 -0.19257078140E+03 -0.21735521091E+03  0.39359700253E+03  0.00000000000E+00 0. -1.
         -1    1    6    6    0  503  0.82595097481E+02 -0.51249928154E+01 -0.68030114094E+02  0.10712755063E+03  0.00000000000E+00 0.  1.
<mgrwt>
<rscale>  0 0.62386805E+03</rscale>
<asrwt>0</asrwt>
<pdfrwt beam="1">  1        1 0.21010229E+00 0.62386805E+03</pdfrwt>
<pdfrwt beam="2">  1       -1 0.66604104E-01 0.62386805E+03</pdfrwt>
<totfact> 0.19519982E+01</totfact>
</mgrwt>
</event>
<event>
12    1  0.3147868E-008  0.5569958E+03  0.7818608E-02  0.9998875E-01
          1   -1    0    0  501    0  0.00000000000E+00  0.00000000000E+00  0.47236933672E+03  0.47236933672E+03  0.00000000000E+00 0. -1.
         -1   -1    0    0    0  501 -0.00000000000E+00 -0.00000000000E+00 -0.10971653676E+04  0.10971653676E+04  0.00000000000E+00 0.  1.
         23    2    1    2    0    0  0.60257648235E+02 -0.45205012041E+03  0.15019803559E+03  0.48847941946E+03  0.89846523642E+02 0.  0.
    5000000    2    1    2    0    0 -0.60257648235E+02  0.45205012041E+03 -0.77499406650E+03  0.10810552849E+04  0.60007035449E+03 0.  0.
         23    2    4    4    0    0 -0.26806002158E+03  0.24737919259E+03 -0.19034579790E+03  0.42134206668E+03  0.90801840708E+02 0.  0.
         23    2    4    4    0    0  0.20780237335E+03  0.20467092782E+03 -0.58464826860E+03  0.65971321821E+03  0.91301244444E+02 0.  0.
          5    1    3    3  502    0  0.54843581401E+02 -0.28459561280E+03  0.13624279417E+03  0.32029153939E+03  0.47000000000E+01 0. -1.
         -5    1    3    3    0  502  0.54140668337E+01 -0.16745450761E+03  0.13955241425E+02  0.16818788007E+03  0.47000000000E+01 0.  1.
         13    1    5    5    0    0 -0.24355358108E+03  0.22435462838E+03 -0.19937149436E+03  0.38652598735E+03  0.00000000000E+00 0. -1.
        -13    1    5    5    0    0 -0.24506440502E+02  0.23024564210E+02  0.90256964607E+01  0.34816079327E+02  0.00000000000E+00 0.  1.
          2    1    6    6  503    0  0.17791267502E+03  0.17184567466E+03 -0.55110861328E+03  0.60407330637E+03  0.00000000000E+00 0. -1.
         -2    1    6    6    0  503  0.29889698325E+02  0.32825253156E+02 -0.33539655325E+02  0.55639911844E+02  0.00000000000E+00 0.  1.
<mgrwt>
<rscale>  0 0.55699578E+03</rscale>
<asrwt>0</asrwt>
<pdfrwt beam="1">  1        1 0.72672207E-01 0.55699578E+03</pdfrwt>
<pdfrwt beam="2">  1       -1 0.16879467E+00 0.55699578E+03</pdfrwt>
<totfact> 0.12721340E+01</totfact>
</mgrwt>
</event>
<event>
12    1  0.3147868E-008  0.4000645E+03  0.7818608E-02  0.1043757E+00
         -2   -1    0    0    0  501 -0.00000000000E+00  0.00000000000E+00  0.88206393846E+02  0.88206393846E+02  0.00000000000E+00 0. -1.
          2   -1    0    0  501    0  0.00000000000E+00 -0.00000000000E+00 -0.29509002407E+04  0.29509002407E+04  0.00000000000E+00 0.  1.
         23    2    1    2    0    0  0.31237960626E+03 -0.88829546990E+02 -0.88812930092E+03  0.95000312740E+03  0.90887733447E+02 0.  0.
    5000000    2    1    2    0    0 -0.31237960626E+03  0.88829546990E+02 -0.19745645459E+04  0.20891035071E+04  0.59998050858E+03 0.  0.
         23    2    4    4    0    0  0.49171559036E+02  0.34683563565E+01 -0.13648571732E+04  0.13687936142E+04  0.91274220726E+02 0.  0.
         23    2    4    4    0    0 -0.36155116530E+03  0.85361190634E+02 -0.60970737273E+03  0.72030989292E+03  0.95380729130E+02 0.  0.
          5    1    3    3  502    0  0.14963781580E+03 -0.56009177164E-01 -0.34479231186E+03  0.37589268066E+03  0.47000000000E+01 0. -1.
         -5    1    3    3    0  502  0.16274179047E+03 -0.88773537813E+02 -0.54333698906E+03  0.57411044674E+03  0.47000000000E+01 0.  1.
         13    1    5    5    0    0 -0.14073754102E+02  0.22423318327E+02 -0.73681570811E+03  0.73729116601E+03  0.00000000000E+00 0. -1.
        -13    1    5    5    0    0  0.63245313138E+02 -0.18954961970E+02 -0.62804146506E+03  0.63150244818E+03  0.00000000000E+00 0.  1.
          1    1    6    6  503    0 -0.99923731556E+02  0.36163685796E+02 -0.10334105503E+03  0.14822934241E+03  0.00000000000E+00 0. -1.
         -1    1    6    6    0  503 -0.26162743374E+03  0.49197504838E+02 -0.50636631770E+03  0.57208055051E+03  0.00000000000E+00 0.  1.
<mgrwt>
<rscale>  0 0.40006451E+03</rscale>
<asrwt>0</asrwt>
<pdfrwt beam="1">  1        2 0.45398467E+00 0.40006451E+03</pdfrwt>
<pdfrwt beam="2">  1       -2 0.13570214E-01 0.40006451E+03</pdfrwt>
<totfact> 0.86907235E+01</totfact>
</mgrwt>
</event>
<event>
12    1  0.3147868E-008  0.4714964E+03  0.7818608E-02  0.1021499E+00
         -1   -1    0    0    0  501 -0.00000000000E+00  0.00000000000E+00  0.19579918367E+03  0.19579918367E+03  0.00000000000E+00 0.  1.
          1   -1    0    0  501    0  0.00000000000E+00 -0.00000000000E+00 -0.16390666765E+04  0.16390666765E+04  0.00000000000E+00 0. -1.
         23    2    1    2    0    0 -0.24936979932E+03  0.30851530777E+03 -0.44741699596E+03  0.60636223749E+03  0.10062903576E+03 0.  0.
    5000000    2    1    2    0    0  0.24936979932E+03 -0.30851530777E+03 -0.99585049683E+03  0.12285036226E+04  0.60011327837E+03 0.  0.
         23    2    4    4    0    0 -0.67325180489E+01  0.72078110164E+02 -0.61273699393E+03  0.62389718662E+03  0.92522942980E+02 0.  0.
         23    2    4    4    0    0  0.25610231737E+03 -0.38059341793E+03 -0.38311350290E+03  0.60460643602E+03  0.91286579767E+02 0.  0.
          5    1    3    3  502    0 -0.60186559230E+02  0.22135635818E+02 -0.51649902382E+02  0.82475515768E+02  0.47000000000E+01 0. -1.
         -5    1    3    3    0  502 -0.18918324009E+03  0.28637967195E+03 -0.39576709358E+03  0.52388672172E+03  0.47000000000E+01 0.  1.
         13    1    5    5    0    0  0.74510001976E+01  0.18285203837E+02 -0.18486614229E+02  0.27048493285E+02  0.00000000000E+00 0. -1.
        -13    1    5    5    0    0 -0.14183518246E+02  0.53792906327E+02 -0.59425037970E+03  0.59684869333E+03  0.00000000000E+00 0.  1.
          4    1    6    6  503    0  0.32148662004E+02 -0.71154935422E+02 -0.27685321012E+02  0.82843456610E+02  0.00000000000E+00 0. -1.
         -4    1    6    6    0  503  0.22395365536E+03 -0.30943848251E+03 -0.35542818189E+03  0.52176297941E+03  0.00000000000E+00 0.  1.
<mgrwt>
<rscale>  0 0.47149636E+03</rscale>
<asrwt>0</asrwt>
<pdfrwt beam="1">  1        1 0.25216411E+00 0.47149636E+03</pdfrwt>
<pdfrwt beam="2">  1       -1 0.30122951E-01 0.47149636E+03</pdfrwt>
<totfact> 0.56793484E+01</totfact>
</mgrwt>
</event>
<event>
12    1  0.3147868E-008  0.9432305E+03  0.7818608E-02  0.9373098E-01
         -1   -1    0    0    0  501 -0.00000000000E+00  0.00000000000E+00  0.74086317175E+03  0.74086317175E+03  0.00000000000E+00 0.  1.
          1   -1    0    0  501    0  0.00000000000E+00 -0.00000000000E+00 -0.25473448427E+04  0.25473448427E+04  0.00000000000E+00 0. -1.
         23    2    1    2    0    0  0.72056252391E+03 -0.57202197363E+03  0.24907768096E+03  0.95750232156E+03  0.91386626240E+02 0.  0.
    5000000    2    1    2    0    0 -0.72056252391E+03  0.57202197363E+03 -0.20555593519E+04  0.23307056929E+04  0.60037095907E+03 0.  0.
         23    2    4    4    0    0 -0.21085512714E+03  0.33672364470E+03 -0.14191793276E+04  0.14766012602E+04  0.91861962617E+02 0.  0.
         23    2    4    4    0    0 -0.50970739677E+03  0.23529832893E+03 -0.63638002437E+03  0.85410443276E+03  0.96684604355E+02 0.  0.
          5    1    3    3  502    0  0.61011130595E+03 -0.52182829916E+03  0.20835066765E+03  0.82944117944E+03  0.47000000000E+01 0. -1.
         -5    1    3    3    0  502  0.11045121796E+03 -0.50193674476E+02  0.40727013313E+02  0.12806114211E+03  0.47000000000E+01 0.  1.
         11    1    5    5    0    0 -0.13749912882E+03  0.26051705370E+03 -0.11564501296E+04  0.11933784177E+04  0.00000000000E+00 0. -1.
        -11    1    5    5    0    0 -0.73355998318E+02  0.76206591003E+02 -0.26272919800E+03  0.28322284245E+03  0.00000000000E+00 0.  1.
          3    1    6    6  503    0 -0.16673189783E+03  0.65398450154E+02 -0.14017408310E+03  0.22743187245E+03  0.00000000000E+00 0. -1.
         -3    1    6    6    0  503 -0.34297549894E+03  0.16989987878E+03 -0.49620594127E+03  0.62667256030E+03  0.00000000000E+00 0.  1.
<mgrwt>
<rscale>  0 0.94323050E+03</rscale>
<asrwt>0</asrwt>
<pdfrwt beam="1">  1        1 0.39189921E+00 0.94323050E+03</pdfrwt>
<pdfrwt beam="2">  1       -1 0.11397895E+00 0.94323050E+03</pdfrwt>
<totfact> 0.90628265E-01</totfact>
</mgrwt>
</event>
<event>
12    1  0.3147868E-008  0.1122726E+04  0.7818608E-02  0.9183320E-01
          2   -1    0    0  501    0  0.00000000000E+00  0.00000000000E+00  0.33025336929E+04  0.33025336929E+04  0.00000000000E+00 0. -1.
         -2   -1    0    0    0  501 -0.00000000000E+00 -0.00000000000E+00 -0.38782735296E+03  0.38782735296E+03  0.00000000000E+00 0.  1.
         23    2    1    2    0    0  0.37358083563E+03  0.97999719160E+03  0.12731057179E+04  0.16520472335E+04  0.92221237662E+02 0.  0.
    5000000    2    1    2    0    0 -0.37358083563E+03 -0.97999719160E+03  0.16416006220E+04  0.20383138123E+04  0.59992787797E+03 0.  0.
         23    2    4    4    0    0 -0.49972579707E+02 -0.81025004541E+03  0.97037328485E+03  0.12683993286E+04  0.90609878513E+02 0.  0.
         23    2    4    4    0    0 -0.32360825592E+03 -0.16974714620E+03  0.67122733718E+03  0.76991448366E+03  0.93197516216E+02 0.  0.
          5    1    3    3  502    0  0.17288911030E+03  0.57933797865E+03  0.72020210520E+03  0.94033839669E+03  0.47000000000E+01 0. -1.
         -5    1    3    3    0  502  0.20069172532E+03  0.40065921296E+03  0.55290361268E+03  0.71170883685E+03  0.47000000000E+01 0.  1.
         11    1    5    5    0    0 -0.64243763446E+02 -0.77849654222E+03  0.93994782756E+03  0.12221644922E+04  0.00000000000E+00 0. -1.
        -11    1    5    5    0    0  0.14271183738E+02 -0.31753503188E+02  0.30425457289E+02  0.46234836446E+02  0.00000000000E+00 0.  1.
          1    1    6    6  503    0 -0.18841196813E+03 -0.14850201928E+03  0.44358991239E+03  0.50430539343E+03  0.00000000000E+00 0. -1.
         -1    1    6    6    0  503 -0.13519628778E+03 -0.21245126919E+02  0.22763742479E+03  0.26560909023E+03  0.00000000000E+00 0.  1.
<mgrwt>
<rscale>  0 0.11227259E+04</rscale>
<asrwt>0</asrwt>
<pdfrwt beam="1">  1        2 0.50808209E+00 0.11227259E+04</pdfrwt>
<pdfrwt beam="2">  1       -2 0.59665749E-01 0.11227259E+04</pdfrwt>
<totfact> 0.29444102E+00</totfact>
</mgrwt>
</event>
<event>
12    1  0.3147868E-008  0.8594319E+03  0.7818608E-02  0.9477765E-01
         -2   -1    0    0    0  501 -0.00000000000E+00  0.00000000000E+00  0.16123417261E+04  0.16123417261E+04  0.00000000000E+00 0. -1.
          2   -1    0    0  501    0  0.00000000000E+00 -0.00000000000E+00 -0.59092451641E+03  0.59092451641E+03  0.00000000000E+00 0.  1.
         23    2    1    2    0    0  0.50238665223E+03 -0.63895126989E+03  0.78928293473E+02  0.82158647601E+03  0.90130951470E+02 0.  0.
    5000000    2    1    2    0    0 -0.50238665223E+03  0.63895126989E+03  0.94248891621E+03  0.13816797665E+04  0.60008544918E+03 0.  0.
         23    2    4    4    0    0 -0.20463427397E+03  0.88768270232E+01  0.24656275544E+02  0.22574785338E+03  0.91652480820E+02 0.  0.
         23    2    4    4    0    0 -0.29775237826E+03  0.63007444287E+03  0.91783264066E+03  0.11559319131E+04  0.90064139137E+02 0.  0.
          5    1    3    3  502    0  0.12681273476E+03 -0.20100090327E+03 -0.94775893320E+01  0.23789650589E+03  0.47000000000E+01 0. -1.
         -5    1    3    3    0  502  0.37557391747E+03 -0.43795036662E+03  0.88405882805E+02  0.58368997012E+03  0.47000000000E+01 0.  1.
         11    1    5    5    0    0 -0.94089878367E+02  0.15170567146E+02  0.56171350770E+02  0.11062672356E+03  0.00000000000E+00 0.  1.
        -11    1    5    5    0    0 -0.11054439560E+03 -0.62937401231E+01 -0.31515075227E+02  0.11512112982E+03  0.00000000000E+00 0. -1.
          4    1    6    6  503    0 -0.24306892797E+03  0.47209235745E+03  0.75093053914E+03  0.91970124080E+03  0.00000000000E+00 0. -1.
         -4    1    6    6    0  503 -0.54683450291E+02  0.15798208541E+03  0.16690210153E+03  0.23623067231E+03  0.00000000000E+00 0.  1.
<mgrwt>
<rscale>  0 0.85943188E+03</rscale>
<asrwt>0</asrwt>
<pdfrwt beam="1">  1        2 0.90911465E-01 0.85943188E+03</pdfrwt>
<pdfrwt beam="2">  1       -2 0.24805257E+00 0.85943188E+03</pdfrwt>
<totfact> 0.33866814E+00</totfact>
</mgrwt>
</event>
<event>
12    1  0.3147868E-008  0.1674453E+04  0.7818608E-02  0.8776070E-01
         -2   -1    0    0    0  501 -0.00000000000E+00  0.00000000000E+00  0.10029951742E+04  0.10029951742E+04  0.00000000000E+00 0.  1.
          2   -1    0    0  501    0  0.00000000000E+00 -0.00000000000E+00 -0.29084501334E+04  0.29084501334E+04  0.00000000000E+00 0. -1.
         23    2    1    2    0    0 -0.98668038591E+03 -0.12881753212E+04 -0.12915278711E+04  0.20757789077E+04  0.88769305725E+02 0.  0.
    5000000    2    1    2    0    0  0.98668038591E+03  0.12881753212E+04 -0.61392708804E+03  0.18356663999E+04  0.59985900035E+03 0.  0.
         23    2    4    4    0    0  0.48978989067E+03  0.10669753349E+04 -0.44142829214E+03  0.12575951933E+04  0.91412422461E+02 0.  0.
         23    2    4    4    0    0  0.49689049524E+03  0.22119998629E+03 -0.17249879591E+03  0.57807120656E+03  0.92633077639E+02 0.  0.
          5    1    3    3  502    0 -0.50206865918E+03 -0.67087676311E+03 -0.72191557433E+03  0.11060437407E+04  0.47000000000E+01 0. -1.
         -5    1    3    3    0  502 -0.48461172673E+03 -0.61729855806E+03 -0.56961229681E+03  0.96973516701E+03  0.47000000000E+01 0.  1.
         13    1    5    5    0    0  0.21484752292E+02  0.32989825905E+02 -0.32627111398E+02  0.51131708288E+02  0.00000000000E+00 0. -1.
        -13    1    5    5    0    0  0.46830513838E+03  0.10339855090E+04 -0.40880118074E+03  0.12064634851E+04  0.00000000000E+00 0.  1.
          2    1    6    6  503    0  0.28481314296E+03  0.17609859690E+03 -0.10064245177E+03  0.34965432262E+03  0.00000000000E+00 0. -1.
         -2    1    6    6    0  503  0.21207735228E+03  0.45101389394E+02 -0.71856344135E+02  0.22841688394E+03  0.00000000000E+00 0.  1.
<mgrwt>
<rscale>  0 0.16744531E+04</rscale>
<asrwt>0</asrwt>
<pdfrwt beam="1">  1        2 0.44745386E+00 0.16744531E+04</pdfrwt>
<pdfrwt beam="2">  1       -2 0.15430695E+00 0.16744531E+04</pdfrwt>
<totfact> 0.51249258E-01</totfact>
</mgrwt>
</event>
<event>
12    1  0.3147868E-008  0.6276147E+03  0.7818608E-02  0.9849715E-01
         -2   -1    0    0    0  501 -0.00000000000E+00  0.00000000000E+00  0.10502655168E+04  0.10502655168E+04  0.00000000000E+00 0.  1.
          2   -1    0    0  501    0  0.00000000000E+00 -0.00000000000E+00 -0.11704168918E+04  0.11704168918E+04  0.00000000000E+00 0. -1.
         23    2    1    2    0    0  0.27789277051E+03  0.41370649330E+03  0.84148237067E+03  0.98250663196E+03  0.94070437501E+02 0.  0.
    5000000    2    1    2    0    0 -0.27789277051E+03 -0.41370649330E+03 -0.96163374565E+03  0.12381757766E+04  0.59996861452E+03 0.  0.
         23    2    4    4    0    0 -0.33633462549E+03 -0.13338671503E+02 -0.31435509743E+03  0.47011249003E+03  0.94274734393E+02 0.  0.
         23    2    4    4    0    0  0.58441854977E+02 -0.40036782180E+03 -0.64727864822E+03  0.76806328654E+03  0.85098299280E+02 0.  0.
          5    1    3    3  502    0  0.20112236080E+03  0.26174775013E+03  0.62727238969E+03  0.70884048247E+03  0.47000000000E+01 0. -1.
         -5    1    3    3    0  502  0.76770409708E+02  0.15195874317E+03  0.21420998097E+03  0.27366614950E+03  0.47000000000E+01 0.  1.
         11    1    5    5    0    0 -0.11995807519E+03 -0.49687174435E+02 -0.10748904461E+03  0.16856052272E+03  0.00000000000E+00 0. -1.
        -11    1    5    5    0    0 -0.21637655029E+03  0.36348502932E+02 -0.20686605282E+03  0.30155196731E+03  0.00000000000E+00 0.  1.
          3    1    6    6  503    0  0.33392238894E+02 -0.13826982373E+03 -0.15915118001E+03  0.21345417277E+03  0.00000000000E+00 0. -1.
         -3    1    6    6    0  503  0.25049616083E+02 -0.26209799807E+03 -0.48812746821E+03  0.55460911377E+03  0.00000000000E+00 0.  1.
<mgrwt>
<rscale>  0 0.62761470E+03</rscale>
<asrwt>0</asrwt>
<pdfrwt beam="1">  1        2 0.18006414E+00 0.62761470E+03</pdfrwt>
<pdfrwt beam="2">  1       -2 0.16157931E+00 0.62761470E+03</pdfrwt>
<totfact> 0.50393183E+00</totfact>
</mgrwt>
</event>
<event>
12    1  0.3147868E-008  0.5887965E+03  0.7818608E-02  0.9928926E-01
          2   -1    0    0  501    0  0.00000000000E+00  0.00000000000E+00  0.23011251863E+04  0.23011251863E+04  0.00000000000E+00 0. -1.
         -2   -1    0    0    0  501 -0.00000000000E+00 -0.00000000000E+00 -0.26652389034E+03  0.26652389034E+03  0.00000000000E+00 0.  1.
         23    2    1    2    0    0 -0.22664514405E+03  0.40819210814E+03  0.16468951734E+04  0.17143306553E+04  0.93150765356E+02 0.  0.
    5000000    2    1    2    0    0  0.22664514405E+03 -0.40819210814E+03  0.38770612258E+03  0.85331842135E+03  0.59987288009E+03 0.  0.
         23    2    4    4    0    0 -0.17572697600E+03 -0.13760439156E+03  0.23555274694E+03  0.33713644719E+03  0.91438223725E+02 0.  0.
         23    2    4    4    0    0  0.40237212005E+03 -0.27058771657E+03  0.15215337563E+03  0.51618197416E+03  0.90399919144E+02 0.  0.
          5    1    3    3  502    0 -0.70447544893E+02  0.12198721752E+03  0.35599037445E+03  0.38287723166E+03  0.47000000000E+01 0. -1.
         -5    1    3    3    0  502 -0.15619759915E+03  0.28620489061E+03  0.12909047989E+04  0.13314534236E+04  0.47000000000E+01 0.  1.
         11    1    5    5    0    0 -0.16620683706E+03 -0.13697575186E+03  0.24323648398E+03  0.32488622073E+03  0.00000000000E+00 0. -1.
        -11    1    5    5    0    0 -0.95201389448E+01 -0.62863970633E+00 -0.76837370373E+01  0.12250226458E+02  0.00000000000E+00 0.  1.
          2    1    6    6  503    0  0.18206220144E+03 -0.10632797958E+03  0.11112970113E+03  0.23833190073E+03  0.00000000000E+00 0. -1.
         -2    1    6    6    0  503  0.22030991861E+03 -0.16425973700E+03  0.41023674507E+02  0.27785007343E+03  0.00000000000E+00 0.  1.
<mgrwt>
<rscale>  0 0.58879653E+03</rscale>
<asrwt>0</asrwt>
<pdfrwt beam="1">  1        2 0.35401925E+00 0.58879653E+03</pdfrwt>
<pdfrwt beam="2">  1       -2 0.41003677E-01 0.58879653E+03</pdfrwt>
<totfact> 0.27201698E+01</totfact>
</mgrwt>
</event>
<event>
12    1  0.3147868E-008  0.3078088E+03  0.7818608E-02  0.1081401E+00
          1   -1    0    0  501    0  0.00000000000E+00  0.00000000000E+00  0.58364322584E+03  0.58364322584E+03  0.00000000000E+00 0.  1.
         -1   -1    0    0    0  501 -0.00000000000E+00 -0.00000000000E+00 -0.29370340467E+03  0.29370340467E+03  0.00000000000E+00 0. -1.
         23    2    1    2    0    0  0.44299399842E+02 -0.13756012995E+03  0.18480735635E+03  0.25182632653E+03  0.91528758293E+02 0.  0.
    5000000    2    1    2    0    0 -0.44299399842E+02  0.13756012995E+03  0.10513246482E+03  0.62552030399E+03  0.59944773697E+03 0.  0.
         23    2    4    4    0    0  0.17931950369E+03  0.65893962855E+02 -0.15425690733E+03  0.26196122790E+03  0.91274271935E+02 0.  0.
         23    2    4    4    0    0 -0.22361890353E+03  0.71666167091E+02  0.25938937215E+03  0.36355907609E+03  0.98746655118E+02 0.  0.
          5    1    3    3  502    0  0.17619404389E+02 -0.95939271769E+01 -0.51040146243E+01  0.21227996019E+02  0.47000000000E+01 0. -1.
         -5    1    3    3    0  502  0.26679995453E+02 -0.12796620277E+03  0.18991137097E+03  0.23059833051E+03  0.47000000000E+01 0.  1.
         11    1    5    5    0    0  0.58843014403E+02 -0.19446323499E+02 -0.63118950081E+02  0.88457117865E+02  0.00000000000E+00 0. -1.
        -11    1    5    5    0    0  0.12047648929E+03  0.85340286354E+02 -0.91137957248E+02  0.17350411003E+03  0.00000000000E+00 0.  1.
          3    1    6    6  503    0 -0.17341384736E+03  0.81096730835E+01  0.17115020641E+03  0.24378376157E+03  0.00000000000E+00 0. -1.
         -3    1    6    6    0  503 -0.50205056179E+02  0.63556494008E+02  0.88239165742E+02  0.11977531452E+03  0.00000000000E+00 0.  1.
<mgrwt>
<rscale>  0 0.30780883E+03</rscale>
<asrwt>0</asrwt>
<pdfrwt beam="1">  1        1 0.89791265E-01 0.30780883E+03</pdfrwt>
<pdfrwt beam="2">  1       -1 0.45185139E-01 0.30780883E+03</pdfrwt>
<totfact> 0.18206195E+02</totfact>
</mgrwt>
</event>
<event>
12    1  0.3147868E-008  0.7155307E+03  0.7818608E-02  0.9691035E-01
         -2   -1    0    0    0  501 -0.00000000000E+00  0.00000000000E+00  0.94436552015E+03  0.94436552015E+03  0.00000000000E+00 0.  1.
          2   -1    0    0  501    0  0.00000000000E+00 -0.00000000000E+00 -0.69985095684E+03  0.69985095684E+03  0.00000000000E+00 0. -1.
         23    2    1    2    0    0  0.57777851293E+03 -0.34335055086E+03  0.29782375858E+03  0.74161647305E+03  0.97869255412E+02 0.  0.
    5000000    2    1    2    0    0 -0.57777851293E+03  0.34335055086E+03 -0.53309195273E+02  0.90260000393E+03  0.60010606231E+03 0.  0.
         23    2    4    4    0    0 -0.33886146392E+02  0.16931807198E+03 -0.22658771832E+03  0.29890653445E+03  0.90477852711E+02 0.  0.
         23    2    4    4    0    0 -0.54389236654E+03  0.17403247888E+03  0.17327852304E+03  0.60369346948E+03  0.91181952512E+02 0.  0.
          5    1    3    3  502    0  0.34305444250E+03 -0.24237432648E+03  0.22156804507E+03  0.47491699617E+03  0.47000000000E+01 0.  1.
         -5    1    3    3    0  502  0.23472407042E+03 -0.10097622438E+03  0.76255713513E+02  0.26669947688E+03  0.47000000000E+01 0. -1.
         11    1    5    5    0    0 -0.41997133193E+02  0.57212147317E+02 -0.14021672606E+03  0.15715508030E+03  0.00000000000E+00 0.  1.
        -11    1    5    5    0    0  0.81109868012E+01  0.11210592466E+03 -0.86370992255E+02  0.14175145415E+03  0.00000000000E+00 0. -1.
          1    1    6    6  503    0 -0.12460108238E+03  0.25093088118E+02  0.76444309262E+02  0.14832000951E+03  0.00000000000E+00 0. -1.
         -1    1    6    6    0  503 -0.41929128415E+03  0.14893939076E+03  0.96834213780E+02  0.45537345997E+03  0.00000000000E+00 0.  1.
<mgrwt>
<rscale>  0 0.71553068E+03</rscale>
<asrwt>0</asrwt>
<pdfrwt beam="1">  1        2 0.10766938E+00 0.71553068E+03</pdfrwt>
<pdfrwt beam="2">  1       -2 0.14528700E+00 0.71553068E+03</pdfrwt>
<totfact> 0.13608539E+01</totfact>
</mgrwt>
</event>
<event>
12    1  0.3147868E-008  0.9779679E+03  0.7818608E-02  0.9333045E-01
          1   -1    0    0  501    0  0.00000000000E+00  0.00000000000E+00  0.22155147657E+04  0.22155147657E+04  0.00000000000E+00 0. -1.
         -1   -1    0    0    0  501 -0.00000000000E+00 -0.00000000000E+00 -0.48076727080E+03  0.48076727080E+03  0.00000000000E+00 0.  1.
         23    2    1    2    0    0 -0.17175035355E+03  0.92661183357E+03  0.78226508722E+03  0.12281435662E+04  0.91050966453E+02 0.  0.
    5000000    2    1    2    0    0  0.17175035355E+03 -0.92661183357E+03  0.95248240764E+03  0.14681384702E+04  0.60008345828E+03 0.  0.
         23    2    4    4    0    0 -0.83003571477E+02 -0.18243191395E+03 -0.11739216402E+02  0.22064634817E+03  0.91520520385E+02 0.  0.
         23    2    4    4    0    0  0.25475392503E+03 -0.74417991961E+03  0.96422162404E+03  0.12474921221E+04  0.88373860970E+02 0.  0.
          5    1    3    3  502    0 -0.12670525894E+03  0.51014779307E+03  0.39360314649E+03  0.65669667302E+03  0.47000000000E+01 0. -1.
         -5    1    3    3    0  502 -0.45045094608E+02  0.41646404049E+03  0.38866194073E+03  0.57144689320E+03  0.47000000000E+01 0.  1.
         11    1    5    5    0    0  0.14810880387E+02 -0.68883213217E+02 -0.29646862851E+01  0.70519845474E+02  0.00000000000E+00 0. -1.
        -11    1    5    5    0    0 -0.97814451863E+02 -0.11354870074E+03 -0.87745301165E+01  0.15012650269E+03  0.00000000000E+00 0.  1.
          3    1    6    6  503    0  0.55739619623E+02 -0.78838187508E+02  0.10355861253E+03  0.14158655033E+03  0.00000000000E+00 0. -1.
         -3    1    6    6    0  503  0.19901430540E+03 -0.66534173211E+03  0.86066301152E+03  0.11059055718E+04  0.00000000000E+00 0.  1.
<mgrwt>
<rscale>  0 0.97796786E+03</rscale>
<asrwt>0</asrwt>
<pdfrwt beam="1">  1        1 0.34084842E+00 0.97796786E+03</pdfrwt>
<pdfrwt beam="2">  1       -1 0.73964197E-01 0.97796786E+03</pdfrwt>
<totfact> 0.39816800E+00</totfact>
</mgrwt>
</event>
<event>
12    1  0.3147868E-008  0.9378022E+03  0.7818608E-02  0.9379523E-01
         -2   -1    0    0    0  501 -0.00000000000E+00  0.00000000000E+00  0.16773711000E+04  0.16773711000E+04  0.00000000000E+00 0.  1.
          2   -1    0    0  501    0  0.00000000000E+00 -0.00000000000E+00 -0.61087766388E+03  0.61087766388E+03  0.00000000000E+00 0. -1.
         23    2    1    2    0    0 -0.70990285342E+03  0.47723774313E+03  0.87308431944E+03  0.12256595238E+04  0.90813626411E+02 0.  0.
    5000000    2    1    2    0    0  0.70990285342E+03 -0.47723774313E+03  0.19340911669E+03  0.10625892401E+04  0.59997573443E+03 0.  0.
         23    2    4    4    0    0  0.48916636777E+02  0.11015846410E+03 -0.74932888278E+01  0.15124772930E+03  0.91060428691E+02 0.  0.
         23    2    4    4    0    0  0.66098621664E+03 -0.58739620724E+03  0.20090240552E+03  0.91134151076E+03  0.90799173067E+02 0.  0.
          5    1    3    3  502    0 -0.16840479539E+03  0.76282718117E+02  0.15935451058E+03  0.24412123676E+03  0.47000000000E+01 0. -1.
         -5    1    3    3    0  502 -0.54149805803E+03  0.40095502502E+03  0.71372980886E+03  0.98153828708E+03  0.47000000000E+01 0.  1.
         13    1    5    5    0    0 -0.37217949203E+01  0.48974667977E+02  0.34734961350E+02  0.60157189104E+02  0.00000000000E+00 0. -1.
        -13    1    5    5    0    0  0.52638431697E+02  0.61183796125E+02 -0.42228250177E+02  0.91090540194E+02  0.00000000000E+00 0.  1.
          3    1    6    6  503    0  0.42389248258E+03 -0.33093011557E+03  0.15065833024E+03  0.55847785153E+03  0.00000000000E+00 0. -1.
         -3    1    6    6    0  503  0.23709373407E+03 -0.25646609167E+03  0.50244075273E+02  0.35286365924E+03  0.00000000000E+00 0.  1.
<mgrwt>
<rscale>  0 0.93780220E+03</rscale>
<asrwt>0</asrwt>
<pdfrwt beam="1">  1        2 0.93981180E-01 0.93780220E+03</pdfrwt>
<pdfrwt beam="2">  1       -2 0.25805709E+00 0.93780220E+03</pdfrwt>
<totfact> 0.28019201E+00</totfact>
</mgrwt>
</event>
<event>
12    1  0.3147868E-008  0.6327956E+03  0.7818608E-02  0.9839609E-01
         -2   -1    0    0    0  501 -0.00000000000E+00  0.00000000000E+00  0.24054562829E+03  0.24054562829E+03  0.00000000000E+00 0.  1.
          2   -1    0    0  501    0  0.00000000000E+00 -0.00000000000E+00 -0.18952393737E+04  0.18952393737E+04  0.00000000000E+00 0. -1.
         23    2    1    2    0    0  0.89206027952E+02  0.51356154562E+03 -0.46074660615E+03  0.70149364206E+03  0.90015099920E+02 0.  0.
    5000000    2    1    2    0    0 -0.89206027952E+02 -0.51356154562E+03 -0.11939471392E+04  0.14342913599E+04  0.59998229744E+03 0.  0.
         23    2    4    4    0    0 -0.14199324521E+03  0.44620121399E+02 -0.10000028175E+03  0.20153291013E+03  0.91991415890E+02 0.  0.
         23    2    4    4    0    0  0.52787217256E+02 -0.55818166702E+03 -0.10939468575E+04  0.12327584498E+04  0.92846134982E+02 0.  0.
          5    1    3    3  502    0  0.37297656301E+02  0.89753616990E+02 -0.51733078847E+02  0.11020539177E+03  0.47000000000E+01 0. -1.
         -5    1    3    3    0  502  0.51908371650E+02  0.42380792863E+03 -0.40901352730E+03  0.59128825029E+03  0.47000000000E+01 0.  1.
         13    1    5    5    0    0 -0.26028449948E+02 -0.27634310321E+02 -0.27328958294E+02  0.46776140018E+02  0.00000000000E+00 0. -1.
        -13    1    5    5    0    0 -0.11596479526E+03  0.72254431720E+02 -0.72671323452E+02  0.15475677011E+03  0.00000000000E+00 0.  1.
          1    1    6    6  503    0 -0.74701698332E+01 -0.34690123024E+03 -0.71446043092E+03  0.79426064635E+03  0.00000000000E+00 0. -1.
         -1    1    6    6    0  503  0.60257387089E+02 -0.21128043678E+03 -0.37948642655E+03  0.43849780342E+03  0.00000000000E+00 0.  1.
<mgrwt>
<rscale>  0 0.63279560E+03</rscale>
<asrwt>0</asrwt>
<pdfrwt beam="1">  1        2 0.29157530E+00 0.63279560E+03</pdfrwt>
<pdfrwt beam="2">  1       -2 0.37007018E-01 0.63279560E+03</pdfrwt>
<totfact> 0.54821630E+01</totfact>
</mgrwt>
</event>
<event>
12    1  0.3147868E-008  0.5720741E+03  0.7818608E-02  0.9965099E-01
          1   -1    0    0  501    0  0.00000000000E+00  0.00000000000E+00  0.70050936237E+03  0.70050936237E+03  0.00000000000E+00 0. -1.
         -1   -1    0    0    0  501 -0.00000000000E+00 -0.00000000000E+00 -0.79721538781E+03  0.79721538781E+03  0.00000000000E+00 0.  1.
         23    2    1    2    0    0  0.30617653863E+03  0.27372100396E+03 -0.50729013897E+03  0.66268411865E+03  0.11462850954E+03 0.  0.
    5000000    2    1    2    0    0 -0.30617653863E+03 -0.27372100396E+03  0.41058411353E+03  0.83504063153E+03  0.60003856642E+03 0.  0.
         23    2    4    4    0    0  0.18331315441E+02  0.15285380370E+03  0.79394288190E+02  0.19978240728E+03  0.99545139671E+02 0.  0.
         23    2    4    4    0    0 -0.32450785407E+03 -0.42657480766E+03  0.33118982534E+03  0.63525822424E+03  0.81208972218E+02 0.  0.
          5    1    3    3  502    0  0.16150046844E+03  0.69299576330E+02 -0.20208494663E+03  0.26785303478E+03  0.47000000000E+01 0. -1.
         -5    1    3    3    0  502  0.14467607019E+03  0.20442142763E+03 -0.30520519234E+03  0.39483108388E+03  0.47000000000E+01 0.  1.
         13    1    5    5    0    0 -0.38395082387E+02  0.55745671971E+02  0.12213099014E+02  0.68781698747E+02  0.00000000000E+00 0.  1.
        -13    1    5    5    0    0  0.56726397828E+02  0.97108131729E+02  0.67181189176E+02  0.13100070854E+03  0.00000000000E+00 0. -1.
          3    1    6    6  503    0 -0.25288928025E+02 -0.55771825578E+02  0.65692393431E+02  0.89808223252E+02  0.00000000000E+00 0. -1.
         -3    1    6    6    0  503 -0.29921892605E+03 -0.37080298209E+03  0.26549743191E+03  0.54545000099E+03  0.00000000000E+00 0.  1.
<mgrwt>
<rscale>  0 0.57207409E+03</rscale>
<asrwt>0</asrwt>
<pdfrwt beam="1">  1        1 0.10777067E+00 0.57207409E+03</pdfrwt>
<pdfrwt beam="2">  1       -1 0.12264852E+00 0.57207409E+03</pdfrwt>
<totfact> 0.16809740E+01</totfact>
</mgrwt>
</event>
<event>
12    1  0.3147868E-008  0.9067382E+03  0.7818608E-02  0.9417197E-01
          2   -1    0    0  501    0  0.00000000000E+00  0.00000000000E+00  0.43200837235E+04  0.43200837235E+04  0.00000000000E+00 0. -1.
         -2   -1    0    0    0  501 -0.00000000000E+00 -0.00000000000E+00 -0.24660924401E+03  0.24660924401E+03  0.00000000000E+00 0.  1.
         23    2    1    2    0    0  0.96844629250E+02  0.89606911278E+03  0.24766362915E+04  0.26371178030E+04  0.91346864385E+02 0.  0.
    5000000    2    1    2    0    0 -0.96844629250E+02 -0.89606911278E+03  0.15968381880E+04  0.19295751645E+04  0.60087384669E+03 0.  0.
         23    2    4    4    0    0 -0.85269586452E+02 -0.36279416241E+03  0.11980406764E+04  0.12575831039E+04  0.85576249032E+02 0.  0.
         23    2    4    4    0    0 -0.11575042797E+02 -0.53327495037E+03  0.39879751163E+03  0.67199206055E+03  0.89541721337E+02 0.  0.
          5    1    3    3  502    0 -0.12316660786E+02  0.35127245066E+02  0.12214327011E+03  0.12777594418E+03  0.47000000000E+01 0. -1.
         -5    1    3    3    0  502  0.10916129004E+03  0.86094186771E+03  0.23544930214E+04  0.25093418588E+04  0.47000000000E+01 0.  1.
         11    1    5    5    0    0 -0.16827292006E+01 -0.38882995420E+01  0.85378891367E+02  0.85483949031E+02  0.00000000000E+00 0.  1.
        -11    1    5    5    0    0 -0.83586857252E+02 -0.35890586287E+03  0.11126617850E+04  0.11720991549E+04  0.00000000000E+00 0. -1.
          3    1    6    6  503    0 -0.27499716924E+02 -0.22473545622E+03  0.21652302426E+03  0.31328019367E+03  0.00000000000E+00 0. -1.
         -3    1    6    6    0  503  0.15924674126E+02 -0.30853949415E+03  0.18227448737E+03  0.35871186688E+03  0.00000000000E+00 0.  1.
<mgrwt>
<rscale>  0 0.90673820E+03</rscale>
<asrwt>0</asrwt>
<pdfrwt beam="1">  1        2 0.66462821E+00 0.90673820E+03</pdfrwt>
<pdfrwt beam="2">  1       -2 0.37939887E-01 0.90673820E+03</pdfrwt>
<totfact> 0.12972288E+00</totfact>
</mgrwt>
</event>
<event>
12    1  0.3147868E-008  0.5329509E+03  0.7818608E-02  0.1005519E+00
          1   -1    0    0  501    0  0.00000000000E+00  0.00000000000E+00  0.12169318891E+04  0.12169318891E+04  0.00000000000E+00 0. -1.
         -1   -1    0    0    0  501 -0.00000000000E+00 -0.00000000000E+00 -0.35409104331E+03  0.35409104331E+03  0.00000000000E+00 0.  1.
         23    2    1    2    0    0  0.10327909013E+02  0.41564091542E+03  0.70602589249E+03  0.82444744436E+03  0.91525905447E+02 0.  0.
    5000000    2    1    2    0    0 -0.10327909013E+02 -0.41564091542E+03  0.15681495328E+03  0.74657548804E+03  0.59993332420E+03 0.  0.
         23    2    4    4    0    0 -0.24191363516E+03 -0.16126500600E+03 -0.85345357143E+02  0.31616323346E+03  0.90259355055E+02 0.  0.
         23    2    4    4    0    0  0.23158572614E+03 -0.25437590942E+03  0.24216031042E+03  0.43041225457E+03  0.90961756214E+02 0.  0.
          5    1    3    3  502    0  0.35623635850E+02  0.83949013629E+02  0.18416775986E+03  0.20556345515E+03  0.47000000000E+01 0. -1.
         -5    1    3    3    0  502 -0.25295726837E+02  0.33169190179E+03  0.52185813263E+03  0.61888398921E+03  0.47000000000E+01 0.  1.
         13    1    5    5    0    0 -0.14480322210E+02 -0.33539729747E+02  0.10909251442E+02  0.38126171717E+02  0.00000000000E+00 0. -1.
        -13    1    5    5    0    0 -0.22743331295E+03 -0.12772527625E+03 -0.96254608585E+02  0.27803706175E+03  0.00000000000E+00 0.  1.
          3    1    6    6  503    0  0.31147613186E+02 -0.44408367745E+02  0.83586511221E+02  0.99644276258E+02  0.00000000000E+00 0. -1.
         -3    1    6    6    0  503  0.20043811296E+03 -0.20996754168E+03  0.15857379920E+03  0.33076797831E+03  0.00000000000E+00 0.  1.
<mgrwt>
<rscale>  0 0.53295092E+03</rscale>
<asrwt>0</asrwt>
<pdfrwt beam="1">  1        1 0.18722029E+00 0.53295092E+03</pdfrwt>
<pdfrwt beam="2">  1       -1 0.54475546E-01 0.53295092E+03</pdfrwt>
<totfact> 0.37388816E+01</totfact>
</mgrwt>
</event>
<event>
12    1  0.3147868E-008  0.6283855E+03  0.7818608E-02  0.9848204E-01
         -2   -1    0    0    0  501 -0.00000000000E+00  0.00000000000E+00  0.21438570808E+03  0.21438570808E+03  0.00000000000E+00 0. -1.
          2   -1    0    0  501    0  0.00000000000E+00 -0.00000000000E+00 -0.20559763452E+04  0.20559763452E+04  0.00000000000E+00 0.  1.
         23    2    1    2    0    0 -0.18656603416E+03 -0.48510355137E+03 -0.84599986131E+03  0.99705650495E+03  0.90959156077E+02 0.  0.
    5000000    2    1    2    0    0  0.18656603416E+03  0.48510355137E+03 -0.99559077583E+03  0.12733055483E+04  0.59997807118E+03 0.  0.
         23    2    4    4    0    0 -0.16839176260E+03  0.15129583031E+03 -0.57032916114E+03  0.62016196423E+03  0.89884903366E+02 0.  0.
         23    2    4    4    0    0  0.35495779676E+03  0.33380772106E+03 -0.42526161469E+03  0.65314358412E+03  0.91249484523E+02 0.  0.
          5    1    3    3  502    0 -0.81263826189E+02 -0.12768415144E+03 -0.29949237517E+03  0.33559622281E+03  0.47000000000E+01 0. -1.
         -5    1    3    3    0  502 -0.10530220797E+03 -0.35741939993E+03 -0.54650748614E+03  0.66146028215E+03  0.47000000000E+01 0.  1.
         11    1    5    5    0    0 -0.17090849174E+03  0.16003720829E+03 -0.55446997320E+03  0.60187920031E+03  0.00000000000E+00 0. -1.
        -11    1    5    5    0    0  0.25167291338E+01 -0.87413779816E+01 -0.15859187941E+02  0.18282763924E+02  0.00000000000E+00 0.  1.
          3    1    6    6  503    0  0.74020323948E+02  0.45318422229E+02 -0.38982781144E+02  0.95144232491E+02  0.00000000000E+00 0. -1.
         -3    1    6    6    0  503  0.28093747281E+03  0.28848929883E+03 -0.38627883354E+03  0.55799935162E+03  0.00000000000E+00 0.  1.
<mgrwt>
<rscale>  0 0.62838553E+03</rscale>
<asrwt>0</asrwt>
<pdfrwt beam="1">  1        2 0.31630405E+00 0.62838553E+03</pdfrwt>
<pdfrwt beam="2">  1       -2 0.32982417E-01 0.62838553E+03</pdfrwt>
<totfact> 0.55841155E+01</totfact>
</mgrwt>
</event>
<event>
12    1  0.3147868E-008  0.5368013E+03  0.7818608E-02  0.1004596E+00
         -2   -1    0    0    0  501 -0.00000000000E+00  0.00000000000E+00  0.75647768062E+03  0.75647768062E+03  0.00000000000E+00 0.  1.
          2   -1    0    0  501    0  0.00000000000E+00 -0.00000000000E+00 -0.43282060888E+03  0.43282060888E+03  0.00000000000E+00 0. -1.
         23    2    1    2    0    0 -0.37020642031E+03 -0.91336785961E+02  0.27090419633E+03  0.47650774699E+03  0.90968935621E+02 0.  0.
    5000000    2    1    2    0    0  0.37020642031E+03  0.91336785961E+02  0.52752875411E+02  0.71279054250E+03  0.59991023454E+03 0.  0.
         23    2    4    4    0    0 -0.14195174315E+03 -0.40359492071E+02  0.14176885505E+02  0.17504363802E+03  0.93059685929E+02 0.  0.
         23    2    4    4    0    0  0.51215816346E+03  0.13169627803E+03  0.38575989906E+02  0.53774690448E+03  0.89631089702E+02 0.  0.
          5    1    3    3  502    0 -0.84234793201E+02 -0.56484448090E+02  0.48437091570E+02  0.11249104454E+03  0.47000000000E+01 0. -1.
         -5    1    3    3    0  502 -0.28597162711E+03 -0.34852337871E+02  0.22246710476E+03  0.36401670245E+03  0.47000000000E+01 0.  1.
         11    1    5    5    0    0 -0.10577691751E+03 -0.29316137852E+02 -0.32961849309E+02  0.11460661292E+03  0.00000000000E+00 0.  1.
        -11    1    5    5    0    0 -0.36174825640E+02 -0.11043354220E+02  0.47138734814E+02  0.60437025095E+02  0.00000000000E+00 0. -1.
          3    1    6    6  503    0  0.20897313958E+03  0.99558443873E+02  0.16197655545E+02  0.23204314439E+03  0.00000000000E+00 0. -1.
         -3    1    6    6    0  503  0.30318502388E+03  0.32137834160E+02  0.22378334361E+02  0.30570376010E+03  0.00000000000E+00 0.  1.
<mgrwt>
<rscale>  0 0.53680127E+03</rscale>
<asrwt>0</asrwt>
<pdfrwt beam="1">  1        2 0.66587786E-01 0.53680127E+03</pdfrwt>
<pdfrwt beam="2">  1       -2 0.11638118E+00 0.53680127E+03</pdfrwt>
<totfact> 0.42835382E+01</totfact>
</mgrwt>
</event>
<event>
12    1  0.3147868E-008  0.1899761E+04  0.7818608E-02  0.8654975E-01
         -1   -1    0    0    0  501 -0.00000000000E+00  0.00000000000E+00  0.23377044460E+04  0.23377044460E+04  0.00000000000E+00 0.  1.
          1   -1    0    0  501    0  0.00000000000E+00 -0.00000000000E+00 -0.16948522393E+04  0.16948522393E+04  0.00000000000E+00 0. -1.
         23    2    1    2    0    0 -0.18095684255E+04 -0.40735931112E+03 -0.27633283397E+03  0.18773047130E+04  0.86218649155E+02 0.  0.
    5000000    2    1    2    0    0  0.18095684255E+04  0.40735931112E+03  0.91918504062E+03  0.21552519723E+04  0.59977531659E+03 0.  0.
         23    2    4    4    0    0  0.99968948155E+03 -0.62795492068E+02  0.43391918737E+03  0.10963086139E+04  0.10141194435E+03 0.  0.
         23    2    4    4    0    0  0.80987894391E+03  0.47015480319E+03  0.48526585325E+03  0.10589433584E+04  0.94491508316E+02 0.  0.
          5    1    3    3  502    0 -0.13723762014E+04 -0.27674525621E+03 -0.22778578542E+03  0.14184191302E+04  0.47000000000E+01 0. -1.
         -5    1    3    3    0  502 -0.43719222411E+03 -0.13061405491E+03 -0.48547048554E+02  0.45888558278E+03  0.47000000000E+01 0.  1.
         13    1    5    5    0    0  0.58047344793E+03  0.13337773964E+02  0.24341227710E+03  0.62958466993E+03  0.00000000000E+00 0. -1.
        -13    1    5    5    0    0  0.41921603362E+03 -0.76133266032E+02  0.19050691027E+03  0.46672394400E+03  0.00000000000E+00 0.  1.
          4    1    6    6  503    0  0.49385171655E+03  0.28144793222E+03  0.24233389377E+03  0.61792246484E+03  0.00000000000E+00 0. -1.
         -4    1    6    6    0  503  0.31602722736E+03  0.18870687096E+03  0.24293195948E+03  0.44102089352E+03  0.00000000000E+00 0.  1.
<mgrwt>
<rscale>  0 0.18997608E+04</rscale>
<asrwt>0</asrwt>
<pdfrwt beam="1">  1        1 0.26074650E+00 0.18997608E+04</pdfrwt>
<pdfrwt beam="2">  1       -1 0.35964684E+00 0.18997608E+04</pdfrwt>
<totfact> 0.58101173E-02</totfact>
</mgrwt>
</event>
<event>
12    1  0.3147868E-008  0.6114605E+03  0.7818608E-02  0.9881910E-01
         -1   -1    0    0    0  501 -0.00000000000E+00  0.00000000000E+00  0.54318484263E+03  0.54318484263E+03  0.00000000000E+00 0.  1.
          1   -1    0    0  501    0  0.00000000000E+00 -0.00000000000E+00 -0.96425198102E+03  0.96425198102E+03  0.00000000000E+00 0. -1.
         23    2    1    2    0    0 -0.26851105212E+02 -0.59400054193E+03 -0.14654448356E+03  0.61928950540E+03  0.92122636609E+02 0.  0.
    5000000    2    1    2    0    0  0.26851105212E+02  0.59400054193E+03 -0.27452265483E+03  0.88814731825E+03  0.59990444676E+03 0.  0.
         23    2    4    4    0    0 -0.13399899026E+02  0.52216843106E+03  0.58272837346E+02  0.53348665705E+03  0.91503344105E+02 0.  0.
         23    2    4    4    0    0  0.40251004238E+02  0.71832110864E+02 -0.33279549217E+03  0.35466066121E+03  0.90836939086E+02 0.  0.
          5    1    3    3  502    0 -0.42182995770E+02 -0.18718422014E+03 -0.74202575752E+02  0.20578010023E+03  0.47000000000E+01 0. -1.
         -5    1    3    3    0  502  0.15331890558E+02 -0.40681632179E+03 -0.72341907805E+02  0.41350940517E+03  0.47000000000E+01 0.  1.
         11    1    5    5    0    0 -0.40141197032E+02  0.32407623303E+03  0.48787265605E+01  0.32658922592E+03  0.00000000000E+00 0. -1.
        -11    1    5    5    0    0  0.26741298006E+02  0.19809219804E+03  0.53394110786E+02  0.20689743113E+03  0.00000000000E+00 0.  1.
          3    1    6    6  503    0  0.52750076022E+02  0.52750304480E+02 -0.12464289622E+03  0.14526189012E+03  0.00000000000E+00 0.  1.
         -3    1    6    6    0  503 -0.12499071783E+02  0.19081806384E+02 -0.20815259595E+03  0.20939877108E+03  0.00000000000E+00 0. -1.
<mgrwt>
<rscale>  0 0.61146055E+03</rscale>
<asrwt>0</asrwt>
<pdfrwt beam="1">  1        1 0.14834646E+00 0.61146055E+03</pdfrwt>
<pdfrwt beam="2">  1       -1 0.83566900E-01 0.61146055E+03</pdfrwt>
<totfact> 0.24000516E+01</totfact>
</mgrwt>
</event>
<event>
12    1  0.3147868E-008  0.9593566E+03  0.7818608E-02  0.9354281E-01
          2   -1    0    0  501    0  0.00000000000E+00  0.00000000000E+00  0.35786250550E+04  0.35786250550E+04  0.00000000000E+00 0.  1.
         -2   -1    0    0    0  501 -0.00000000000E+00 -0.00000000000E+00 -0.43007661152E+03  0.43007661152E+03  0.00000000000E+00 0. -1.
         23    2    1    2    0    0  0.86888498265E+03  0.13593239735E+03  0.24697322407E+03  0.91799094688E+03  0.90955348463E+02 0.  0.
    5000000    2    1    2    0    0 -0.86888498265E+03 -0.13593239735E+03  0.29015752194E+04  0.30907107196E+04  0.59992938658E+03 0.  0.
         23    2    4    4    0    0 -0.90002511227E+03 -0.15271125216E+02  0.25784570366E+04  0.27326962549E+04  0.94391325262E+02 0.  0.
         23    2    4    4    0    0  0.31140129618E+02 -0.12066127214E+03  0.32311818277E+03  0.35801446465E+03  0.90775253198E+02 0.  0.
          5    1    3    3  502    0  0.56656835522E+03  0.13111503124E+03  0.15338757040E+03  0.60144882518E+03  0.47000000000E+01 0. -1.
         -5    1    3    3    0  502  0.30231662743E+03  0.48173661131E+01  0.93585653663E+02  0.31654212170E+03  0.47000000000E+01 0.  1.
         11    1    5    5    0    0 -0.83143003080E+03  0.11114060226E+02  0.23582469886E+04  0.25005455960E+04  0.00000000000E+00 0. -1.
        -11    1    5    5    0    0 -0.68595081465E+02 -0.26385185442E+02  0.22021004796E+03  0.23215065891E+03  0.00000000000E+00 0.  1.
          2    1    6    6  503    0 -0.68173220816E+01 -0.40479226341E+02  0.21144726748E+03  0.21539496412E+03  0.00000000000E+00 0. -1.
         -2    1    6    6    0  503  0.37957451699E+02 -0.80182045797E+02  0.11167091530E+03  0.14261950053E+03  0.00000000000E+00 0.  1.
<mgrwt>
<rscale>  0 0.95935659E+03</rscale>
<asrwt>0</asrwt>
<pdfrwt beam="1">  1        2 0.55055768E+00 0.95935659E+03</pdfrwt>
<pdfrwt beam="2">  1       -2 0.66165635E-01 0.95935659E+03</pdfrwt>
<totfact> 0.15721390E+00</totfact>
</mgrwt>
</event>
<event>
12    1  0.3147868E-008  0.4954614E+03  0.7818608E-02  0.1014970E+00
          2   -1    0    0  501    0  0.00000000000E+00  0.00000000000E+00  0.17522316432E+04  0.17522316432E+04  0.00000000000E+00 0.  1.
         -2   -1    0    0    0  501 -0.00000000000E+00 -0.00000000000E+00 -0.20159428884E+03  0.20159428884E+03  0.00000000000E+00 0. -1.
         23    2    1    2    0    0  0.15644683065E+03  0.27249869716E+03  0.84456181323E+02  0.33876689180E+03  0.94334562304E+02 0.  0.
    5000000    2    1    2    0    0 -0.15644683065E+03 -0.27249869716E+03  0.14661811731E+04  0.16150590403E+04  0.59999776707E+03 0.  0.
         23    2    4    4    0    0  0.39561140028E+02 -0.40858271085E+03  0.87966448863E+03  0.97505622988E+03  0.91761230759E+02 0.  0.
         23    2    4    4    0    0 -0.19600797067E+03  0.13608401369E+03  0.58651668446E+03  0.64000281039E+03  0.93079497274E+02 0.  0.
          5    1    3    3  502    0  0.87853413432E+02  0.18288779648E+03  0.97342261015E+02  0.22508614825E+03  0.47000000000E+01 0. -1.
         -5    1    3    3    0  502  0.68593417213E+02  0.89610900682E+02 -0.12886079692E+02  0.11368074356E+03  0.47000000000E+01 0.  1.
         11    1    5    5    0    0  0.67036248539E+02 -0.22051225739E+03  0.47255037370E+03  0.52575980253E+03  0.00000000000E+00 0. -1.
        -11    1    5    5    0    0 -0.27475108510E+02 -0.18807045347E+03  0.40711411493E+03  0.44929642735E+03  0.00000000000E+00 0.  1.
          3    1    6    6  503    0 -0.24879267451E+01  0.36977234469E+02  0.62361366277E+02  0.72542716054E+02  0.00000000000E+00 0. -1.
         -3    1    6    6    0  503 -0.19352004393E+03  0.99106779223E+02  0.52415531818E+03  0.56746009434E+03  0.00000000000E+00 0.  1.
<mgrwt>
<rscale>  0 0.49546144E+03</rscale>
<asrwt>0</asrwt>
<pdfrwt beam="1">  1        2 0.26957409E+00 0.49546144E+03</pdfrwt>
<pdfrwt beam="2">  1       -2 0.31014507E-01 0.49546144E+03</pdfrwt>
<totfact> 0.93194129E+01</totfact>
</mgrwt>
</event>
<event>
12    1  0.3147868E-008  0.4454232E+03  0.7818608E-02  0.1029096E+00
         -2   -1    0    0    0  501 -0.00000000000E+00  0.00000000000E+00  0.47315271184E+03  0.47315271184E+03  0.00000000000E+00 0. -1.
          2   -1    0    0  501    0  0.00000000000E+00 -0.00000000000E+00 -0.50469939740E+03  0.50469939740E+03  0.00000000000E+00 0.  1.
         23    2    1    2    0    0 -0.13912932771E+03  0.25881246744E+03  0.12727780530E+02  0.30818119357E+03  0.92047751404E+02 0.  0.
    5000000    2    1    2    0    0  0.13912932771E+03 -0.25881246744E+03 -0.44274466096E+02  0.66967091567E+03  0.60013168873E+03 0.  0.
         23    2    4    4    0    0  0.30974927457E+03 -0.23935386880E+03  0.11548264061E+03  0.41807414818E+03  0.90635895163E+02 0.  0.
         23    2    4    4    0    0 -0.17061994685E+03 -0.19458598640E+02 -0.15975710670E+03  0.25159676749E+03  0.91042830265E+02 0.  0.
          5    1    3    3  502    0 -0.10327772890E+03  0.22103969033E+03 -0.22614314469E+02  0.24506801343E+03  0.47000000000E+01 0. -1.
         -5    1    3    3    0  502 -0.35851598813E+02  0.37772777113E+02  0.35342094999E+02  0.63113180138E+02  0.47000000000E+01 0.  1.
         13    1    5    5    0    0  0.26041396265E+03 -0.15616577803E+03  0.10253363857E+03  0.32049388326E+03  0.00000000000E+00 0.  1.
        -13    1    5    5    0    0  0.49335311917E+02 -0.83188090769E+02  0.12949002038E+02  0.97580264918E+02  0.00000000000E+00 0. -1.
          4    1    6    6  503    0 -0.17259870480E+02 -0.35994125914E+02 -0.37552542347E+02  0.54805781319E+02  0.00000000000E+00 0. -1.
         -4    1    6    6    0  503 -0.15336007637E+03  0.16535527274E+02 -0.12220456436E+03  0.19679098617E+03  0.00000000000E+00 0.  1.
<mgrwt>
<rscale>  0 0.44542323E+03</rscale>
<asrwt>0</asrwt>
<pdfrwt beam="1">  1        2 0.77646061E-01 0.44542323E+03</pdfrwt>
<pdfrwt beam="2">  1       -2 0.72792725E-01 0.44542323E+03</pdfrwt>
<totfact> 0.10717870E+02</totfact>
</mgrwt>
</event>
<event>
12    1  0.3147868E-008  0.5116712E+03  0.7818608E-02  0.1010777E+00
         -2   -1    0    0    0  501 -0.00000000000E+00  0.00000000000E+00  0.13874678257E+03  0.13874678257E+03  0.00000000000E+00 0.  1.
          2   -1    0    0  501    0  0.00000000000E+00 -0.00000000000E+00 -0.21808364391E+04  0.21808364391E+04  0.00000000000E+00 0. -1.
         23    2    1    2    0    0  0.14601686089E+03 -0.30318422042E+03 -0.35610346365E+03  0.49864652970E+03  0.92720491702E+02 0.  0.
    5000000    2    1    2    0    0 -0.14601686089E+03  0.30318422042E+03 -0.16859861929E+04  0.18209366920E+04  0.60001616510E+03 0.  0.
         23    2    4    4    0    0  0.21786973360E+03  0.13806051438E+03 -0.61641332741E+03  0.67470842457E+03  0.93478027041E+02 0.  0.
         23    2    4    4    0    0 -0.36388659449E+03  0.16512370604E+03 -0.10695728655E+04  0.11462282674E+04  0.10086542745E+03 0.  0.
          5    1    3    3  502    0  0.32472792331E+02 -0.13195571232E+02 -0.55323508226E+02  0.65661144556E+02  0.47000000000E+01 0. -1.
         -5    1    3    3    0  502  0.11354406856E+03 -0.28998864919E+03 -0.30077995543E+03  0.43298538515E+03  0.47000000000E+01 0.  1.
         11    1    5    5    0    0  0.79819510780E+02  0.18129751748E+01 -0.19957339140E+03  0.21495111011E+03  0.00000000000E+00 0. -1.
        -11    1    5    5    0    0  0.13805022282E+03  0.13624753921E+03 -0.41683993600E+03  0.45975731447E+03  0.00000000000E+00 0.  1.
          2    1    6    6  503    0 -0.12880559613E+03  0.85131945665E+02 -0.53431320615E+03  0.55617347296E+03  0.00000000000E+00 0. -1.
         -2    1    6    6    0  503 -0.23508099836E+03  0.79991760375E+02 -0.53525965932E+03  0.59005479442E+03  0.00000000000E+00 0.  1.
<mgrwt>
<rscale>  0 0.51167124E+03</rscale>
<asrwt>0</asrwt>
<pdfrwt beam="1">  1        2 0.33551327E+00 0.51167124E+03</pdfrwt>
<pdfrwt beam="2">  1       -2 0.21345660E-01 0.51167124E+03</pdfrwt>
<totfact> 0.10702543E+02</totfact>
</mgrwt>
</event>
<event>
12    1  0.3147868E-008  0.5628860E+03  0.7818608E-02  0.9985546E-01
          1   -1    0    0  501    0  0.00000000000E+00  0.00000000000E+00  0.70866616661E+03  0.70866616661E+03  0.00000000000E+00 0. -1.
         -1   -1    0    0    0  501 -0.00000000000E+00 -0.00000000000E+00 -0.67621178534E+03  0.67621178534E+03  0.00000000000E+00 0.  1.
         23    2    1    2    0    0  0.26898718594E+03 -0.48205693742E+03  0.93070119281E+02  0.56723846806E+03  0.91457287463E+02 0.  0.
    5000000    2    1    2    0    0 -0.26898718594E+03  0.48205693742E+03 -0.60615738005E+02  0.81763948388E+03  0.60010587465E+03 0.  0.
         23    2    4    4    0    0 -0.23031278119E+03  0.33503449278E+03  0.23128276359E+03  0.47622955146E+03  0.89502963240E+02 0.  0.
         23    2    4    4    0    0 -0.38674404754E+02  0.14702244465E+03 -0.29189850159E+03  0.34140993242E+03  0.90800318882E+02 0.  0.
          5    1    3    3  502    0  0.71678754820E+02 -0.15460936523E+03 -0.11496833685E+02  0.17086885876E+03  0.47000000000E+01 0. -1.
         -5    1    3    3    0  502  0.19730843112E+03 -0.32744757220E+03  0.10456695297E+03  0.39636960931E+03  0.47000000000E+01 0.  1.
         11    1    5    5    0    0 -0.18396036355E+03  0.28404372172E+03  0.22637262831E+03  0.40714471390E+03  0.00000000000E+00 0.  1.
        -11    1    5    5    0    0 -0.46352417630E+02  0.50990771059E+02  0.49101352774E+01  0.69084837568E+02  0.00000000000E+00 0. -1.
          4    1    6    6  503    0 -0.20515994195E+01  0.12027024178E+03 -0.14904292701E+03  0.19152789408E+03  0.00000000000E+00 0. -1.
         -4    1    6    6    0  503 -0.36622805334E+02  0.26752202872E+02 -0.14285557458E+03  0.14988203834E+03  0.00000000000E+00 0.  1.
<mgrwt>
<rscale>  0 0.56288597E+03</rscale>
<asrwt>0</asrwt>
<pdfrwt beam="1">  1        1 0.10902556E+00 0.56288597E+03</pdfrwt>
<pdfrwt beam="2">  1       -1 0.10403258E+00 0.56288597E+03</pdfrwt>
<totfact> 0.24432475E+01</totfact>
</mgrwt>
</event>
<event>
12    1  0.3147868E-008  0.1141700E+04  0.7818608E-02  0.9165475E-01
          2   -1    0    0  501    0  0.00000000000E+00  0.00000000000E+00  0.12208631393E+04  0.12208631393E+04  0.00000000000E+00 0. -1.
         -2   -1    0    0    0  501 -0.00000000000E+00 -0.00000000000E+00 -0.11930555668E+04  0.11930555668E+04  0.00000000000E+00 0.  1.
         23    2    1    2    0    0 -0.10981837083E+04  0.16437178838E+03 -0.19831008164E+03  0.11315789158E+04  0.90102231213E+02 0.  0.
    5000000    2    1    2    0    0  0.10981837083E+04 -0.16437178838E+03  0.22611765414E+03  0.12823397903E+04  0.60020046844E+03 0.  0.
         23    2    4    4    0    0  0.84232038376E+03 -0.27697434195E+03  0.35924470147E+03  0.96007977972E+03  0.80486103785E+02 0.  0.
         23    2    4    4    0    0  0.25586332458E+03  0.11260255357E+03 -0.13312704732E+03  0.32226001062E+03  0.89349469956E+02 0.  0.
          5    1    3    3  502    0 -0.10240185143E+04  0.16838021787E+03 -0.20118517397E+03  0.10571014046E+04  0.47000000000E+01 0. -1.
         -5    1    3    3    0  502 -0.74165193998E+02 -0.40084294949E+01  0.28750923259E+01  0.74477511127E+02  0.47000000000E+01 0.  1.
         11    1    5    5    0    0  0.35508962813E+03 -0.77965039511E+02  0.16230681680E+03  0.39813401534E+03  0.00000000000E+00 0. -1.
        -11    1    5    5    0    0  0.48723075563E+03 -0.19900930244E+03  0.19693788467E+03  0.56194576438E+03  0.00000000000E+00 0.  1.
          1    1    6    6  503    0  0.19228905767E+02 -0.12451161182E+00 -0.39491205849E+02  0.43924044207E+02  0.00000000000E+00 0. -1.
         -1    1    6    6    0  503  0.23663441881E+03  0.11272706518E+03 -0.93635841476E+02  0.27833596641E+03  0.00000000000E+00 0.  1.
<mgrwt>
<rscale>  0 0.11416996E+04</rscale>
<asrwt>0</asrwt>
<pdfrwt beam="1">  1        2 0.18782510E+00 0.11416996E+04</pdfrwt>
<pdfrwt beam="2">  1       -2 0.18354701E+00 0.11416996E+04</pdfrwt>
<totfact> 0.30816362E+00</totfact>
</mgrwt>
</event>
<event>
12    1  0.3147868E-008  0.4245133E+03  0.7818608E-02  0.1035607E+00
          2   -1    0    0  501    0  0.00000000000E+00  0.00000000000E+00  0.24570746276E+04  0.24570746276E+04  0.00000000000E+00 0. -1.
         -2   -1    0    0    0  501 -0.00000000000E+00 -0.00000000000E+00 -0.56194600147E+03  0.56194600147E+03  0.00000000000E+00 0.  1.
         23    2    1    2    0    0 -0.78869264599E+02 -0.27316744564E+03 -0.47328320678E+03  0.55927801901E+03  0.89185730242E+02 0.  0.
    5000000    2    1    2    0    0  0.78869264599E+02  0.27316744564E+03  0.23684118329E+04  0.24597426101E+04  0.60009856124E+03 0.  0.
         23    2    4    4    0    0  0.83377062058E+02 -0.12931382299E+03  0.13327194387E+04  0.13446050402E+04  0.90265234323E+02 0.  0.
         23    2    4    4    0    0 -0.45077974591E+01  0.40248126863E+03  0.10356923942E+04  0.11151375698E+04  0.94135925436E+02 0.  0.
          5    1    3    3  502    0 -0.71466178938E+02 -0.12691495438E+03 -0.29065471450E+03  0.32514162059E+03  0.47000000000E+01 0. -1.
         -5    1    3    3    0  502 -0.74030856613E+01 -0.14625249126E+03 -0.18262849228E+03  0.23413639843E+03  0.47000000000E+01 0.  1.
         13    1    5    5    0    0  0.29309054156E+02 -0.37278846335E+02  0.79386727136E+03  0.79528232571E+03  0.00000000000E+00 0. -1.
        -13    1    5    5    0    0  0.54068007902E+02 -0.92034976657E+02  0.53885216737E+03  0.54932271452E+03  0.00000000000E+00 0.  1.
          1    1    6    6  503    0  0.20312340779E+01  0.23835076352E+03  0.73253124127E+03  0.77033579159E+03  0.00000000000E+00 0. -1.
         -1    1    6    6    0  503 -0.65390315369E+01  0.16413050511E+03  0.30316115293E+03  0.34480177825E+03  0.00000000000E+00 0.  1.
<mgrwt>
<rscale>  0 0.42451333E+03</rscale>
<asrwt>0</asrwt>
<pdfrwt beam="1">  1        2 0.37801147E+00 0.42451333E+03</pdfrwt>
<pdfrwt beam="2">  1       -2 0.86453232E-01 0.42451333E+03</pdfrwt>
<totfact> 0.48458630E+00</totfact>
</mgrwt>
</event>
<event>
12    1  0.3147868E-008  0.1437887E+04  0.7818608E-02  0.8926842E-01
         -2   -1    0    0    0  501 -0.00000000000E+00  0.00000000000E+00  0.63780588617E+03  0.63780588617E+03  0.00000000000E+00 0.  1.
          2   -1    0    0  501    0  0.00000000000E+00 -0.00000000000E+00 -0.35406899601E+04  0.35406899601E+04  0.00000000000E+00 0. -1.
         23    2    1    2    0    0  0.39210618006E+03  0.13430421961E+04 -0.91378156563E+03  0.16736828092E+04  0.93315588905E+02 0.  0.
    5000000    2    1    2    0    0 -0.39210618006E+03 -0.13430421961E+04 -0.19891025083E+04  0.25048130371E+04  0.60004163634E+03 0.  0.
         23    2    4    4    0    0 -0.47328884542E+03 -0.12949005083E+04 -0.17252295277E+04  0.22102106271E+04  0.88568815538E+02 0.  0.
         23    2    4    4    0    0  0.81182665368E+02 -0.48141687829E+02 -0.26387298058E+03  0.29460241004E+03  0.90848130757E+02 0.  0.
          5    1    3    3  502    0  0.24349825434E+03  0.75994799445E+03 -0.47179060205E+03  0.92704952205E+03  0.47000000000E+01 0. -1.
         -5    1    3    3    0  502  0.14860792571E+03  0.58309420164E+03 -0.44199096357E+03  0.74663328713E+03  0.47000000000E+01 0.  1.
         11    1    5    5    0    0 -0.19289217602E+03 -0.65673832448E+03 -0.85515804338E+03  0.10953574291E+04  0.00000000000E+00 0. -1.
        -11    1    5    5    0    0 -0.28039666940E+03 -0.63816218378E+03 -0.87007148435E+03  0.11148531979E+04  0.00000000000E+00 0.  1.
          3    1    6    6  503    0  0.60571284399E+01 -0.49347511098E+01  0.68224550102E+01  0.10372389591E+02  0.00000000000E+00 0. -1.
         -3    1    6    6    0  503  0.75125536929E+02 -0.43206936719E+02 -0.27069543559E+03  0.28423002045E+03  0.00000000000E+00 0.  1.
<mgrwt>
<rscale>  0 0.14378869E+04</rscale>
<asrwt>0</asrwt>
<pdfrwt beam="1">  1        2 0.54472154E+00 0.14378869E+04</pdfrwt>
<pdfrwt beam="2">  1       -2 0.98123982E-01 0.14378869E+04</pdfrwt>
<totfact> 0.63780665E-01</totfact>
</mgrwt>
</event>
<event>
12    1  0.3147868E-008  0.6761915E+03  0.7818608E-02  0.9758837E-01
         -1   -1    0    0    0  501 -0.00000000000E+00  0.00000000000E+00  0.10242150464E+04  0.10242150464E+04  0.00000000000E+00 0.  1.
          1   -1    0    0  501    0  0.00000000000E+00 -0.00000000000E+00 -0.96105831358E+03  0.96105831358E+03  0.00000000000E+00 0. -1.
         23    2    1    2    0    0  0.58304276439E+03  0.81146363778E+02  0.70855884895E+03  0.92574743267E+03  0.91809962458E+02 0.  0.
    5000000    2    1    2    0    0 -0.58304276439E+03 -0.81146363778E+02 -0.64540211617E+03  0.10595259273E+04  0.59960628879E+03 0.  0.
         23    2    4    4    0    0 -0.65035511189E+03 -0.16757115673E+02 -0.65465444764E+03  0.92756851341E+03  0.92565267612E+02 0.  0.
         23    2    4    4    0    0  0.67312347505E+02 -0.64389248105E+02  0.92523314679E+01  0.13195741387E+03  0.93006591372E+02 0.  0.
          5    1    3    3  502    0  0.45170327051E+03  0.44328308097E+02  0.59392992355E+03  0.74751300161E+03  0.47000000000E+01 0. -1.
         -5    1    3    3    0  502  0.13133949388E+03  0.36818055681E+02  0.11462892540E+03  0.17823443106E+03  0.47000000000E+01 0.  1.
         11    1    5    5    0    0 -0.38222563849E+03  0.19836195164E+02 -0.43172788283E+03  0.57695656523E+03  0.00000000000E+00 0.  1.
        -11    1    5    5    0    0 -0.26812947340E+03 -0.36593310837E+02 -0.22292656481E+03  0.35061194818E+03  0.00000000000E+00 0. -1.
          3    1    6    6  503    0  0.60136259349E+02 -0.19545738308E+02 -0.31764139130E+02  0.70762745206E+02  0.00000000000E+00 0. -1.
         -3    1    6    6    0  503  0.71760881564E+01 -0.44843509797E+02  0.41016470598E+02  0.61194668661E+02  0.00000000000E+00 0.  1.
<mgrwt>
<rscale>  0 0.67619146E+03</rscale>
<asrwt>0</asrwt>
<pdfrwt beam="1">  1        1 0.14785513E+00 0.67619146E+03</pdfrwt>
<pdfrwt beam="2">  1       -1 0.15757155E+00 0.67619146E+03</pdfrwt>
<totfact> 0.51940073E+00</totfact>
</mgrwt>
</event>
<event>
12    1  0.3147868E-008  0.4845386E+03  0.7818608E-02  0.1017895E+00
         -2   -1    0    0    0  501 -0.00000000000E+00  0.00000000000E+00  0.35714150592E+03  0.35714150592E+03  0.00000000000E+00 0.  1.
          2   -1    0    0  501    0  0.00000000000E+00 -0.00000000000E+00 -0.10181242038E+04  0.10181242038E+04  0.00000000000E+00 0. -1.
         23    2    1    2    0    0  0.34590754203E+03  0.11187077699E+03 -0.55005515539E+03  0.66508775845E+03  0.87257974365E+02 0.  0.
    5000000    2    1    2    0    0 -0.34590754203E+03 -0.11187077699E+03 -0.11092754243E+03  0.71017795122E+03  0.59990057873E+03 0.  0.
         23    2    4    4    0    0 -0.25394133601E+03 -0.29165861438E+03  0.93270026903E+02  0.40877564293E+03  0.94059974789E+02 0.  0.
         23    2    4    4    0    0 -0.91966206017E+02  0.17978783739E+03 -0.20419756934E+03  0.30140230829E+03  0.91461765766E+02 0.  0.
          5    1    3    3  502    0  0.51986242115E+02  0.18403839702E+02 -0.37439107113E+02  0.66821010367E+02  0.47000000000E+01 0. -1.
         -5    1    3    3    0  502  0.29392129992E+03  0.93466937289E+02 -0.51261604828E+03  0.59826674809E+03  0.47000000000E+01 0.  1.
         11    1    5    5    0    0 -0.44433787459E+02 -0.23263950728E+02  0.39994267809E+02  0.64149156885E+02  0.00000000000E+00 0.  1.
        -11    1    5    5    0    0 -0.20950754856E+03 -0.26839466365E+03  0.53275759094E+02  0.34462648605E+03  0.00000000000E+00 0. -1.
          3    1    6    6  503    0 -0.10150236007E+03  0.13535605938E+03 -0.18857899466E+03  0.25334961839E+03  0.00000000000E+00 0. -1.
         -3    1    6    6    0  503  0.95361540576E+01  0.44431778015E+02 -0.15618574673E+02  0.48052689900E+02  0.00000000000E+00 0.  1.
<mgrwt>
<rscale>  0 0.48453857E+03</rscale>
<asrwt>0</asrwt>
<pdfrwt beam="1">  1        2 0.15663449E+00 0.48453857E+03</pdfrwt>
<pdfrwt beam="2">  1       -2 0.54944848E-01 0.48453857E+03</pdfrwt>
<totfact> 0.79543679E+01</totfact>
</mgrwt>
</event>
<event>
12    1  0.3147868E-008  0.5948459E+03  0.7818608E-02  0.9916157E-01
         -1   -1    0    0    0  501 -0.00000000000E+00  0.00000000000E+00  0.10848968063E+04  0.10848968063E+04  0.00000000000E+00 0.  1.
          1   -1    0    0  501    0  0.00000000000E+00 -0.00000000000E+00 -0.82318437975E+03  0.82318437975E+03  0.00000000000E+00 0. -1.
         23    2    1    2    0    0 -0.52694084545E+03 -0.12302938644E+03 -0.53974500010E+03  0.77004947934E+03  0.94067268370E+02 0.  0.
    5000000    2    1    2    0    0  0.52694084545E+03  0.12302938644E+03  0.80145742662E+03  0.11380317067E+04  0.59998272825E+03 0.  0.
         23    2    4    4    0    0  0.12692136662E+03  0.18457634803E+03  0.84322637456E+01  0.24320119779E+03  0.94330578167E+02 0.  0.
         23    2    4    4    0    0  0.40001947883E+03 -0.61546961591E+02  0.79302516288E+03  0.89483050889E+03  0.89605350116E+02 0.  0.
          5    1    3    3  502    0 -0.14994589885E+03 -0.76812214898E+02 -0.18586206040E+03  0.25089974977E+03  0.47000000000E+01 0. -1.
         -5    1    3    3    0  502 -0.37699494660E+03 -0.46217171538E+02 -0.35388293970E+03  0.51914972957E+03  0.47000000000E+01 0.  1.
         13    1    5    5    0    0  0.74431947259E+02  0.72219110346E+02 -0.38470089489E+02  0.11061492873E+03  0.00000000000E+00 0. -1.
        -13    1    5    5    0    0  0.52489419360E+02  0.11235723768E+03  0.46902353235E+02  0.13258626906E+03  0.00000000000E+00 0.  1.
          3    1    6    6  503    0  0.87579198089E+02 -0.50176241970E+02  0.16849674794E+03  0.19641518593E+03  0.00000000000E+00 0. -1.
         -3    1    6    6    0  503  0.31244028074E+03 -0.11370719621E+02  0.62452841494E+03  0.69841532297E+03  0.00000000000E+00 0.  1.
<mgrwt>
<rscale>  0 0.59484589E+03</rscale>
<asrwt>0</asrwt>
<pdfrwt beam="1">  1        1 0.12664375E+00 0.59484589E+03</pdfrwt>
<pdfrwt beam="2">  1       -1 0.16690720E+00 0.59484589E+03</pdfrwt>
<totfact> 0.58148531E+00</totfact>
</mgrwt>
</event>
<event>
12    1  0.3147868E-008  0.5001369E+03  0.7818608E-02  0.1013743E+00
          1   -1    0    0  501    0  0.00000000000E+00  0.00000000000E+00  0.11545873621E+04  0.11545873621E+04  0.00000000000E+00 0. -1.
         -1   -1    0    0    0  501 -0.00000000000E+00 -0.00000000000E+00 -0.28688097491E+03  0.28688097491E+03  0.00000000000E+00 0.  1.
         23    2    1    2    0    0 -0.17990924864E+03  0.33915079557E+03  0.50901441539E+03  0.64394451476E+03  0.90433749956E+02 0.  0.
    5000000    2    1    2    0    0  0.17990924864E+03 -0.33915079557E+03  0.35869197181E+03  0.79752382226E+03  0.59999476376E+03 0.  0.
         23    2    4    4    0    0 -0.66872745488E+02  0.84522519880E+02 -0.54860864567E+02  0.14952808213E+03  0.87936979867E+02 0.  0.
         23    2    4    4    0    0  0.24678199413E+03 -0.42367331545E+03  0.41355283638E+03  0.64799574013E+03  0.92044010654E+02 0.  0.
          5    1    3    3  502    0 -0.15906857715E+03  0.26053506876E+03  0.34412431738E+03  0.46002714062E+03  0.47000000000E+01 0.  1.
         -5    1    3    3    0  502 -0.20840671488E+02  0.78615726805E+02  0.16489009801E+03  0.18391737414E+03  0.47000000000E+01 0. -1.
         13    1    5    5    0    0 -0.11804638779E+02  0.47577822653E+02  0.16869235418E+02  0.51841776674E+02  0.00000000000E+00 0. -1.
        -13    1    5    5    0    0 -0.55068106709E+02  0.36944697227E+02 -0.71730099985E+02  0.97686305456E+02  0.00000000000E+00 0.  1.
          3    1    6    6  503    0  0.15436594989E+03 -0.17750915671E+03  0.21232078066E+03  0.31688872037E+03  0.00000000000E+00 0. -1.
         -3    1    6    6    0  503  0.92416044238E+02 -0.24616415874E+03  0.20123205572E+03  0.33110701975E+03  0.00000000000E+00 0.  1.
<mgrwt>
<rscale>  0 0.50013689E+03</rscale>
<asrwt>0</asrwt>
<pdfrwt beam="1">  1        1 0.17762882E+00 0.50013689E+03</pdfrwt>
<pdfrwt beam="2">  1       -1 0.44135535E-01 0.50013689E+03</pdfrwt>
<totfact> 0.61808707E+01</totfact>
</mgrwt>
</event>
<event>
12    1  0.3147868E-008  0.8820066E+03  0.7818608E-02  0.9448358E-01
          1   -1    0    0  501    0  0.00000000000E+00  0.00000000000E+00  0.22941145634E+04  0.22941145634E+04  0.00000000000E+00 0. -1.
         -1   -1    0    0    0  501 -0.00000000000E+00 -0.00000000000E+00 -0.35683655190E+03  0.35683655190E+03  0.00000000000E+00 0.  1.
         23    2    1    2    0    0  0.90677338791E+02 -0.79057580001E+03  0.10150458275E+04  0.12930766581E+04  0.92177744752E+02 0.  0.
    5000000    2    1    2    0    0 -0.90677338791E+02  0.79057580001E+03  0.92223218403E+03  0.13578744572E+04  0.60006530046E+03 0.  0.
         23    2    4    4    0    0 -0.30817699845E+03  0.35987877254E+03  0.60311199677E+03  0.77240795457E+03  0.91565137072E+02 0.  0.
         23    2    4    4    0    0  0.21749965966E+03  0.43069702747E+03  0.31912018725E+03  0.58546650259E+03  0.90151540870E+02 0.  0.
          5    1    3    3  502    0  0.22316032111E+02 -0.21228753376E+03  0.20986131468E+03  0.29937913033E+03  0.47000000000E+01 0. -1.
         -5    1    3    3    0  502  0.68361306681E+02 -0.57828826625E+03  0.80518451280E+03  0.99369752781E+03  0.47000000000E+01 0.  1.
         13    1    5    5    0    0 -0.49114061345E+01  0.44371798720E+02  0.64027608758E+02  0.78054552174E+02  0.00000000000E+00 0. -1.
        -13    1    5    5    0    0 -0.30326559232E+03  0.31550697382E+03  0.53908438801E+03  0.69435340239E+03  0.00000000000E+00 0.  1.
          1    1    6    6  503    0  0.12124847590E+03  0.17686250947E+03  0.18237674701E+03  0.28150100891E+03  0.00000000000E+00 0. -1.
         -1    1    6    6    0  503  0.96251183760E+02  0.25383451800E+03  0.13674344024E+03  0.30396549368E+03  0.00000000000E+00 0.  1.
<mgrwt>
<rscale>  0 0.88200655E+03</rscale>
<asrwt>0</asrwt>
<pdfrwt beam="1">  1        1 0.35294069E+00 0.88200655E+03</pdfrwt>
<pdfrwt beam="2">  1       -1 0.54897933E-01 0.88200655E+03</pdfrwt>
<totfact> 0.64980925E+00</totfact>
</mgrwt>
</event>
<event>
12    1  0.3147868E-008  0.6573560E+03  0.7818608E-02  0.9793073E-01
          1   -1    0    0  501    0  0.00000000000E+00  0.00000000000E+00  0.91652393430E+03  0.91652393430E+03  0.00000000000E+00 0. -1.
         -1   -1    0    0    0  501 -0.00000000000E+00 -0.00000000000E+00 -0.10166111114E+04  0.10166111114E+04  0.00000000000E+00 0.  1.
         23    2    1    2    0    0  0.57322142097E+03  0.18054474598E+02 -0.70055926534E+03  0.90869416010E+03  0.77672587439E+02 0.  0.
    5000000    2    1    2    0    0 -0.57322142097E+03 -0.18054474598E+02  0.60047208828E+03  0.10244408856E+04  0.60000303140E+03 0.  0.
         23    2    4    4    0    0 -0.22079879999E+03  0.21265805712E+03  0.48025030543E+03  0.57714432687E+03  0.92085063062E+02 0.  0.
         23    2    4    4    0    0 -0.35242262098E+03 -0.23071253172E+03  0.12022178285E+03  0.44729655868E+03  0.90503913005E+02 0.  0.
          5    1    3    3  502    0  0.28107833551E+03 -0.40170947495E+01 -0.40020061224E+03  0.48908464276E+03  0.47000000000E+01 0. -1.
         -5    1    3    3    0  502  0.29214308546E+03  0.22071569347E+02 -0.30035865310E+03  0.41960951734E+03  0.47000000000E+01 0.  1.
         11    1    5    5    0    0 -0.16622632677E+02  0.63309923454E+02  0.76380461324E+02  0.10059042299E+03  0.00000000000E+00 0.  1.
        -11    1    5    5    0    0 -0.20417616732E+03  0.14934813367E+03  0.40386984411E+03  0.47655390389E+03  0.00000000000E+00 0. -1.
          4    1    6    6  503    0 -0.16235334751E+03 -0.89902085377E+02  0.97570332609E+02  0.20966870107E+03  0.00000000000E+00 0. -1.
         -4    1    6    6    0  503 -0.19006927347E+03 -0.14081044634E+03  0.22651450238E+02  0.23762785762E+03  0.00000000000E+00 0.  1.
<mgrwt>
<rscale>  0 0.65735601E+03</rscale>
<asrwt>0</asrwt>
<pdfrwt beam="1">  1        1 0.14100368E+00 0.65735601E+03</pdfrwt>
<pdfrwt beam="2">  1       -1 0.15640171E+00 0.65735601E+03</pdfrwt>
<totfact> 0.57703020E+00</totfact>
</mgrwt>
</event>
<event>
12    1  0.3147868E-008  0.6094117E+03  0.7818608E-02  0.9886070E-01
         -1   -1    0    0    0  501 -0.00000000000E+00  0.00000000000E+00  0.24683201391E+03  0.24683201391E+03  0.00000000000E+00 0.  1.
          1   -1    0    0  501    0  0.00000000000E+00 -0.00000000000E+00 -0.15511889216E+04  0.15511889216E+04  0.00000000000E+00 0. -1.
         23    2    1    2    0    0 -0.34645882506E+03  0.30967624149E+03 -0.58371505643E+03  0.75153593981E+03  0.90276850408E+02 0.  0.
    5000000    2    1    2    0    0  0.34645882506E+03 -0.30967624149E+03 -0.72064185130E+03  0.10464849957E+04  0.59989422103E+03 0.  0.
         23    2    4    4    0    0  0.11770690981E+03 -0.44761649542E+03 -0.39622378653E+03  0.61625240577E+03  0.92511053446E+02 0.  0.
         23    2    4    4    0    0  0.22875191526E+03  0.13794025393E+03 -0.32441806476E+03  0.43023258996E+03  0.92184859554E+02 0.  0.
          5    1    3    3  502    0 -0.94824326275E+02  0.12704225244E+03 -0.24374554524E+03  0.29080125100E+03  0.47000000000E+01 0. -1.
         -5    1    3    3    0  502 -0.25163449879E+03  0.18263398905E+03 -0.33996951118E+03  0.46073468881E+03  0.47000000000E+01 0.  1.
         11    1    5    5    0    0 -0.10084958647E+02 -0.32398647722E+02 -0.11142742836E+02  0.35714695617E+02  0.00000000000E+00 0. -1.
        -11    1    5    5    0    0  0.12779186846E+03 -0.41521784770E+03 -0.38508104370E+03  0.58053771015E+03  0.00000000000E+00 0.  1.
          1    1    6    6  503    0  0.16689480626E+03  0.51616208981E+02 -0.17850255756E+03  0.24976243201E+03  0.00000000000E+00 0. -1.
         -1    1    6    6    0  503  0.61857108999E+02  0.86324044948E+02 -0.14591550720E+03  0.18047015795E+03  0.00000000000E+00 0.  1.
<mgrwt>
<rscale>  0 0.60941169E+03</rscale>
<asrwt>0</asrwt>
<pdfrwt beam="1">  1        1 0.23864446E+00 0.60941169E+03</pdfrwt>
<pdfrwt beam="2">  1       -1 0.37974155E-01 0.60941169E+03</pdfrwt>
<totfact> 0.42335756E+01</totfact>
</mgrwt>
</event>
<event>
12    1  0.3147868E-008  0.8479597E+03  0.7818608E-02  0.9493080E-01
         -2   -1    0    0    0  501 -0.00000000000E+00  0.00000000000E+00  0.75732448118E+03  0.75732448118E+03  0.00000000000E+00 0.  1.
          2   -1    0    0  501    0  0.00000000000E+00 -0.00000000000E+00 -0.10277821318E+04  0.10277821318E+04  0.00000000000E+00 0. -1.
         23    2    1    2    0    0 -0.66069852357E+03  0.40914359255E+03 -0.10846213045E+03  0.78997713696E+03  0.91535920850E+02 0.  0.
    5000000    2    1    2    0    0  0.66069852357E+03 -0.40914359255E+03 -0.16199552012E+03  0.99512947598E+03  0.60009924767E+03 0.  0.
         23    2    4    4    0    0  0.65565369794E+03 -0.47030480216E+03 -0.16205789064E+02  0.81250738327E+03  0.94006604600E+02 0.  0.
         23    2    4    4    0    0  0.50448256263E+01  0.61161209617E+02 -0.14578973106E+03  0.18262209271E+03  0.91269048611E+02 0.  0.
          5    1    3    3  502    0 -0.74926677498E+02  0.19322941038E+02  0.29158333750E+01  0.77575609153E+02  0.47000000000E+01 0. -1.
         -5    1    3    3    0  502 -0.58577184607E+03  0.38982065151E+03 -0.11137796382E+03  0.71240152780E+03  0.47000000000E+01 0.  1.
         13    1    5    5    0    0  0.54559115388E+03 -0.39607649650E+03 -0.48302127437E+02  0.67592854192E+03  0.00000000000E+00 0. -1.
        -13    1    5    5    0    0  0.11006254407E+03 -0.74228305666E+02  0.32096338373E+02  0.13657884135E+03  0.00000000000E+00 0.  1.
          3    1    6    6  503    0  0.36894385482E+02 -0.21236868262E+01 -0.68085337626E+02  0.77468180084E+02  0.00000000000E+00 0. -1.
         -3    1    6    6    0  503 -0.31849559856E+02  0.63284896443E+02 -0.77704393434E+02  0.10515391262E+03  0.00000000000E+00 0.  1.
<mgrwt>
<rscale>  0 0.84795968E+03</rscale>
<asrwt>0</asrwt>
<pdfrwt beam="1">  1        2 0.15812033E+00 0.84795968E+03</pdfrwt>
<pdfrwt beam="2">  1       -2 0.11651146E+00 0.84795968E+03</pdfrwt>
<totfact> 0.13900947E+01</totfact>
</mgrwt>
</event>
<event>
12    1  0.3147868E-008  0.7161732E+03  0.7818608E-02  0.9689967E-01
         -1   -1    0    0    0  501 -0.00000000000E+00  0.00000000000E+00  0.85488486087E+03  0.85488486087E+03  0.00000000000E+00 0.  1.
          1   -1    0    0  501    0  0.00000000000E+00 -0.00000000000E+00 -0.85355432895E+03  0.85355432895E+03  0.00000000000E+00 0. -1.
         23    2    1    2    0    0  0.39886512280E+03  0.49283502165E+03 -0.38974586544E+03  0.75200508355E+03  0.10784276197E+03 0.  0.
    5000000    2    1    2    0    0 -0.39886512280E+03 -0.49283502165E+03  0.39107639736E+03  0.95643410627E+03  0.59987140814E+03 0.  0.
         23    2    4    4    0    0 -0.17668341835E+03 -0.51407035826E+03  0.70333802732E+02  0.55575335226E+03  0.91812750653E+02 0.  0.
         23    2    4    4    0    0 -0.22218170445E+03  0.21235336602E+02  0.32074259462E+03  0.40068075401E+03  0.88620569366E+02 0.  0.
          5    1    3    3  502    0  0.28825615602E+03  0.42404640247E+03 -0.31311739394E+03  0.60080908391E+03  0.47000000000E+01 0. -1.
         -5    1    3    3    0  502  0.11060896678E+03  0.68788619185E+02 -0.76628471505E+02  0.15119599964E+03  0.47000000000E+01 0.  1.
         11    1    5    5    0    0  0.84504463685E+01 -0.32188369654E+02 -0.63128726193E+01  0.33872607598E+02  0.00000000000E+00 0. -1.
        -11    1    5    5    0    0 -0.18513386472E+03 -0.48188198860E+03  0.76646675351E+02  0.52188074466E+03  0.00000000000E+00 0.  1.
          3    1    6    6  503    0 -0.35269473269E+01  0.20788100321E+02  0.35255398119E+02  0.41079527370E+02  0.00000000000E+00 0. -1.
         -3    1    6    6    0  503 -0.21865475712E+03  0.44723628164E+00  0.28548719650E+03  0.35960122664E+03  0.00000000000E+00 0.  1.
<mgrwt>
<rscale>  0 0.71617323E+03</rscale>
<asrwt>0</asrwt>
<pdfrwt beam="1">  1        1 0.13131605E+00 0.71617323E+03</pdfrwt>
<pdfrwt beam="2">  1       -1 0.13152075E+00 0.71617323E+03</pdfrwt>
<totfact> 0.10148432E+01</totfact>
</mgrwt>
</event>
<event>
12    1  0.3147868E-008  0.5258985E+03  0.7818608E-02  0.1007232E+00
         -2   -1    0    0    0  501 -0.00000000000E+00  0.00000000000E+00  0.46480223013E+03  0.46480223013E+03  0.00000000000E+00 0.  1.
          2   -1    0    0  501    0  0.00000000000E+00 -0.00000000000E+00 -0.10195616315E+04  0.10195616315E+04  0.00000000000E+00 0. -1.
         23    2    1    2    0    0  0.28703319935E+03  0.40149367728E+03 -0.49500955827E+03  0.70515252774E+03  0.92846077856E+02 0.  0.
    5000000    2    1    2    0    0 -0.28703319935E+03 -0.40149367728E+03 -0.59749843118E+02  0.77921133392E+03  0.60001252381E+03 0.  0.
         23    2    4    4    0    0 -0.15343437033E+02 -0.32817448638E+01  0.20367682001E+03  0.22240931254E+03  0.87951488834E+02 0.  0.
         23    2    4    4    0    0 -0.27168976232E+03 -0.39821193242E+03 -0.26342666312E+03  0.55680202137E+03  0.90811971080E+02 0.  0.
          5    1    3    3  502    0  0.75876455000E+02  0.11726126850E+03 -0.85751614641E+02  0.16395996745E+03  0.47000000000E+01 0. -1.
         -5    1    3    3    0  502  0.21115674435E+03  0.28423240878E+03 -0.40925794363E+03  0.54119256029E+03  0.47000000000E+01 0.  1.
         13    1    5    5    0    0 -0.43892372389E+02 -0.87130050572E+01  0.17829442323E+03  0.18382425891E+03  0.00000000000E+00 0. -1.
        -13    1    5    5    0    0  0.28548935356E+02  0.54312601934E+01  0.25382396779E+02  0.38585053628E+02  0.00000000000E+00 0.  1.
          4    1    6    6  503    0 -0.10980536089E+03 -0.20043572304E+03 -0.79718094808E+02  0.24204683635E+03  0.00000000000E+00 0. -1.
         -4    1    6    6    0  503 -0.16188440143E+03 -0.19777620938E+03 -0.18370856832E+03  0.31475518502E+03  0.00000000000E+00 0.  1.
<mgrwt>
<rscale>  0 0.52589848E+03</rscale>
<asrwt>0</asrwt>
<pdfrwt beam="1">  1        2 0.15685563E+00 0.52589848E+03</pdfrwt>
<pdfrwt beam="2">  1       -2 0.71508036E-01 0.52589848E+03</pdfrwt>
<totfact> 0.45174773E+01</totfact>
</mgrwt>
</event>
<event>
12    1  0.3147868E-008  0.8568703E+03  0.7818608E-02  0.9481162E-01
          1   -1    0    0  501    0  0.00000000000E+00  0.00000000000E+00  0.11273378184E+04  0.11273378184E+04  0.00000000000E+00 0. -1.
         -1   -1    0    0    0  501 -0.00000000000E+00 -0.00000000000E+00 -0.11316983818E+04  0.11316983818E+04  0.00000000000E+00 0.  1.
         23    2    1    2    0    0 -0.76217832285E+03 -0.65727085371E+02  0.71392590223E+03  0.10503485976E+04  0.91138010759E+02 0.  0.
    5000000    2    1    2    0    0  0.76217832285E+03  0.65727085371E+02 -0.71828646565E+03  0.12086876026E+04  0.59979532196E+03 0.  0.
         23    2    4    4    0    0  0.35158094051E+02 -0.16138798889E+03 -0.60898119970E+02  0.19835097976E+03  0.91391222874E+02 0.  0.
         23    2    4    4    0    0  0.72702022880E+03  0.22711507426E+03 -0.65738834568E+03  0.10103366228E+04  0.92092259638E+02 0.  0.
          5    1    3    3  502    0 -0.41724733349E+03 -0.72819872805E+01  0.43572528551E+03  0.60334648344E+03  0.47000000000E+01 0. -1.
         -5    1    3    3    0  502 -0.34493098936E+03 -0.58445098091E+02  0.27820061672E+03  0.44700211415E+03  0.47000000000E+01 0.  1.
         13    1    5    5    0    0  0.40874375820E+02 -0.25196753396E+02 -0.35449402371E+02  0.59684596914E+02  0.00000000000E+00 0. -1.
        -13    1    5    5    0    0 -0.57162817689E+01 -0.13619123549E+03 -0.25448717599E+02  0.13866638284E+03  0.00000000000E+00 0.  1.
          3    1    6    6  503    0  0.58611578698E+03  0.17124570770E+03 -0.47784691995E+03  0.77536732395E+03  0.00000000000E+00 0.  1.
         -3    1    6    6    0  503  0.14090444183E+03  0.55869366560E+02 -0.17954142573E+03  0.23496929884E+03  0.00000000000E+00 0. -1.
<mgrwt>
<rscale>  0 0.85687030E+03</rscale>
<asrwt>0</asrwt>
<pdfrwt beam="1">  1        1 0.17343659E+00 0.85687030E+03</pdfrwt>
<pdfrwt beam="2">  1       -1 0.17410744E+00 0.85687030E+03</pdfrwt>
<totfact> 0.28421247E+00</totfact>
</mgrwt>
</event>
<event>
12    1  0.3147868E-008  0.1458011E+04  0.7818608E-02  0.8912865E-01
         -2   -1    0    0    0  501 -0.00000000000E+00  0.00000000000E+00  0.16443618091E+04  0.16443618091E+04  0.00000000000E+00 0.  1.
          2   -1    0    0  501    0  0.00000000000E+00 -0.00000000000E+00 -0.20509491350E+04  0.20509491350E+04  0.00000000000E+00 0. -1.
         23    2    1    2    0    0  0.77963696302E+03  0.11622266846E+04 -0.13147630331E+04  0.19223544786E+04  0.90775810744E+02 0.  0.
    5000000    2    1    2    0    0 -0.77963696302E+03 -0.11622266846E+04  0.90817570720E+03  0.17729564654E+04  0.59998904378E+03 0.  0.
         23    2    4    4    0    0 -0.45282658337E+03 -0.21327392472E+03  0.22988492053E+03  0.55819928463E+03  0.90563144264E+02 0.  0.
         23    2    4    4    0    0 -0.32681037965E+03 -0.94895275989E+03  0.67829078666E+03  0.12147571808E+04  0.90775835418E+02 0.  0.
          5    1    3    3  502    0  0.12242131150E+03  0.12935851080E+03 -0.17155086228E+03  0.24733052819E+03  0.47000000000E+01 0. -1.
         -5    1    3    3    0  502  0.65721565152E+03  0.10328681738E+04 -0.11432121708E+04  0.16750239504E+04  0.47000000000E+01 0.  1.
         11    1    5    5    0    0 -0.36662798207E+03 -0.20445526116E+03  0.17015148165E+03  0.45295646343E+03  0.00000000000E+00 0.  1.
        -11    1    5    5    0    0 -0.86198601302E+02 -0.88186635562E+01  0.59733438889E+02  0.10524282120E+03  0.00000000000E+00 0. -1.
          4    1    6    6  503    0 -0.64608849873E+02 -0.30742551483E+03  0.23055066411E+03  0.38966441892E+03  0.00000000000E+00 0. -1.
         -4    1    6    6    0  503 -0.26220152978E+03 -0.64152724506E+03  0.44774012255E+03  0.82509276188E+03  0.00000000000E+00 0.  1.
<mgrwt>
<rscale>  0 0.14580114E+04</rscale>
<asrwt>0</asrwt>
<pdfrwt beam="1">  1        2 0.31553064E+00 0.14580114E+04</pdfrwt>
<pdfrwt beam="2">  1       -2 0.25297874E+00 0.14580114E+04</pdfrwt>
<totfact> 0.36318270E-01</totfact>
</mgrwt>
</event>
<event>
12    1  0.3147868E-008  0.4444865E+03  0.7818608E-02  0.1029379E+00
          1   -1    0    0  501    0  0.00000000000E+00  0.00000000000E+00  0.14479086550E+04  0.14479086550E+04  0.00000000000E+00 0. -1.
         -1   -1    0    0    0  501 -0.00000000000E+00 -0.00000000000E+00 -0.35223162086E+03  0.35223162086E+03  0.00000000000E+00 0.  1.
         23    2    1    2    0    0 -0.36476923415E+03  0.54891252795E+02  0.10219685773E+04  0.10902908348E+04  0.90800261826E+02 0.  0.
    5000000    2    1    2    0    0  0.36476923415E+03 -0.54891252795E+02  0.73708456855E+02  0.70984944113E+03  0.60198309664E+03 0.  0.
         23    2    4    4    0    0  0.91151064848E+02  0.13554722650E+03 -0.19615494182E+03  0.27088687131E+03  0.90671763025E+02 0.  0.
         23    2    4    4    0    0  0.27361816930E+03 -0.19043847929E+03  0.26986339868E+03  0.43896256982E+03  0.93424658364E+02 0.  0.
          5    1    3    3  502    0 -0.10453899651E+03  0.49570882838E+02  0.24766585182E+03  0.27339740008E+03  0.47000000000E+01 0. -1.
         -5    1    3    3    0  502 -0.26023023764E+03  0.53203699567E+01  0.77430272548E+03  0.81689343467E+03  0.47000000000E+01 0.  1.
         11    1    5    5    0    0  0.63678854091E+02  0.65038500836E+02 -0.44317004822E+02  0.10123734472E+03  0.00000000000E+00 0. -1.
        -11    1    5    5    0    0  0.27472210757E+02  0.70508725660E+02 -0.15183793700E+03  0.16964952659E+03  0.00000000000E+00 0.  1.
          2    1    6    6  503    0  0.17760202673E+03 -0.17421423906E+03  0.19056685980E+03  0.31338284740E+03  0.00000000000E+00 0. -1.
         -2    1    6    6    0  503  0.96016142571E+02 -0.16224240231E+02  0.79296538875E+02  0.12557972242E+03  0.00000000000E+00 0.  1.
<mgrwt>
<rscale>  0 0.44448653E+03</rscale>
<asrwt>0</asrwt>
<pdfrwt beam="1">  1        1 0.22275517E+00 0.44448653E+03</pdfrwt>
<pdfrwt beam="2">  1       -1 0.54189481E-01 0.44448653E+03</pdfrwt>
<totfact> 0.26533322E+01</totfact>
</mgrwt>
</event>
<event>
12    1  0.3147868E-008  0.8048480E+03  0.7818608E-02  0.9553026E-01
         -2   -1    0    0    0  501 -0.00000000000E+00  0.00000000000E+00  0.97631595941E+03  0.97631595941E+03  0.00000000000E+00 0.  1.
          2   -1    0    0  501    0  0.00000000000E+00 -0.00000000000E+00 -0.92136444119E+03  0.92136444119E+03  0.00000000000E+00 0. -1.
         23    2    1    2    0    0  0.45063652258E+03 -0.64866295809E+03  0.34072878935E+03  0.86547190145E+03  0.95438962819E+02 0.  0.
    5000000    2    1    2    0    0 -0.45063652258E+03  0.64866295809E+03 -0.28577727113E+03  0.10322084992E+04  0.59995735545E+03 0.  0.
         23    2    4    4    0    0 -0.13798247962E+03  0.11801131202E+03 -0.35236045213E+03  0.40605257648E+03  0.88062319949E+02 0.  0.
         23    2    4    4    0    0 -0.31265404295E+03  0.53065164607E+03  0.66583180997E+02  0.62615592268E+03  0.91072495636E+02 0.  0.
          5    1    3    3  502    0  0.21239051830E+03 -0.23037452378E+03  0.15338982182E+03  0.34890210792E+03  0.47000000000E+01 0. -1.
         -5    1    3    3    0  502  0.23824600427E+03 -0.41828843432E+03  0.18733896752E+03  0.51656979353E+03  0.47000000000E+01 0.  1.
         11    1    5    5    0    0 -0.36497513480E+02 -0.25672012823E+01 -0.11868800927E+03  0.12419944669E+03  0.00000000000E+00 0. -1.
        -11    1    5    5    0    0 -0.10148496614E+03  0.12057851330E+03 -0.23367244285E+03  0.28185312979E+03  0.00000000000E+00 0.  1.
          3    1    6    6  503    0 -0.19137119706E+03  0.24877069270E+03  0.93700914455E+01  0.31400253379E+03  0.00000000000E+00 0. -1.
         -3    1    6    6    0  503 -0.12128284589E+03  0.28188095337E+03  0.57213089552E+02  0.31215338890E+03  0.00000000000E+00 0.  1.
<mgrwt>
<rscale>  0 0.80484797E+03</rscale>
<asrwt>0</asrwt>
<pdfrwt beam="1">  1        2 0.14174838E+00 0.80484797E+03</pdfrwt>
<pdfrwt beam="2">  1       -2 0.15020245E+00 0.80484797E+03</pdfrwt>
<totfact> 0.85620301E+00</totfact>
</mgrwt>
</event>
<event>
12    1  0.3147868E-008  0.6577906E+03  0.7818608E-02  0.9792270E-01
         -3   -1    0    0    0  501 -0.00000000000E+00  0.00000000000E+00  0.13826111927E+04  0.13826111927E+04  0.00000000000E+00 0.  1.
          3   -1    0    0  501    0  0.00000000000E+00 -0.00000000000E+00 -0.41291134901E+03  0.41291134901E+03  0.00000000000E+00 0. -1.
         23    2    1    2    0    0 -0.28719408696E+03  0.56402268394E+03  0.42114682121E+03  0.76533074570E+03  0.88116251097E+02 0.  0.
    5000000    2    1    2    0    0  0.28719408696E+03 -0.56402268394E+03  0.54855302252E+03  0.10301917961E+04  0.59981887812E+03 0.  0.
         23    2    4    4    0    0  0.22803431274E+02 -0.67704025723E+02 -0.10946425203E+03  0.15981472605E+03  0.91948314895E+02 0.  0.
         23    2    4    4    0    0  0.26439065569E+03 -0.49631865822E+03  0.65801727454E+03  0.87037707000E+03  0.91295569866E+02 0.  0.
          5    1    3    3  502    0 -0.23259289641E+03  0.39964068564E+03  0.34018198517E+03  0.57407142945E+03  0.47000000000E+01 0. -1.
         -5    1    3    3    0  502 -0.54601190546E+02  0.16438199830E+03  0.80964836045E+02  0.19125931625E+03  0.47000000000E+01 0.  1.
         11    1    5    5    0    0 -0.29147783356E+02 -0.47791672460E+02 -0.77649837231E+02  0.95724262614E+02  0.00000000000E+00 0.  1.
        -11    1    5    5    0    0  0.51951214630E+02 -0.19912353263E+02 -0.31814414799E+02  0.64090463432E+02  0.00000000000E+00 0. -1.
          4    1    6    6  503    0  0.22326432099E+03 -0.34094179191E+03  0.49908254270E+03  0.64433814641E+03  0.00000000000E+00 0. -1.
         -4    1    6    6    0  503  0.41126334692E+02 -0.15537686632E+03  0.15893473185E+03  0.22603892359E+03  0.00000000000E+00 0.  1.
<mgrwt>
<rscale>  0 0.65779058E+03</rscale>
<asrwt>0</asrwt>
<pdfrwt beam="1">  1        3 0.63524823E-01 0.65779058E+03</pdfrwt>
<pdfrwt beam="2">  1       -3 0.21270941E+00 0.65779058E+03</pdfrwt>
<totfact> 0.77193799E-01</totfact>
</mgrwt>
</event>
<event>
12    1  0.3147868E-008  0.5643326E+03  0.7818608E-02  0.9982299E-01
          1   -1    0    0  501    0  0.00000000000E+00  0.00000000000E+00  0.10351827443E+04  0.10351827443E+04  0.00000000000E+00 0. -1.
         -1   -1    0    0    0  501 -0.00000000000E+00 -0.00000000000E+00 -0.35920921969E+03  0.35920921969E+03  0.00000000000E+00 0.  1.
         23    2    1    2    0    0  0.40937140294E+03 -0.22895405000E+02  0.48697675638E+03  0.64338412540E+03  0.93207437683E+02 0.  0.
    5000000    2    1    2    0    0 -0.40937140294E+03  0.22895405000E+02  0.18899676825E+03  0.75100783862E+03  0.60015318889E+03 0.  0.
         23    2    4    4    0    0 -0.24959435054E+02  0.24848093094E+03  0.11682594480E+03  0.29055006220E+03  0.91680373181E+02 0.  0.
         23    2    4    4    0    0 -0.38441196789E+03 -0.22558552594E+03  0.72170823446E+02  0.46045777642E+03  0.90284802358E+02 0.  0.
          5    1    3    3  502    0  0.23350546403E+03 -0.57465216872E+01  0.34501940589E+03  0.41667529887E+03  0.47000000000E+01 0. -1.
         -5    1    3    3    0  502  0.17586593891E+03 -0.17148883313E+02  0.14195735049E+03  0.22670882653E+03  0.47000000000E+01 0.  1.
         11    1    5    5    0    0 -0.42643844542E+02  0.51709312818E+02  0.16758546241E+02  0.69088344759E+02  0.00000000000E+00 0. -1.
        -11    1    5    5    0    0  0.17684409488E+02  0.19677161812E+03  0.10006739856E+03  0.22146171744E+03  0.00000000000E+00 0.  1.
          1    1    6    6  503    0 -0.16181259925E+03 -0.47561238653E+02  0.11562898435E+02  0.16905351023E+03  0.00000000000E+00 0. -1.
         -1    1    6    6    0  503 -0.22259936863E+03 -0.17802428729E+03  0.60607925011E+02  0.29140426619E+03  0.00000000000E+00 0.  1.
<mgrwt>
<rscale>  0 0.56433255E+03</rscale>
<asrwt>0</asrwt>
<pdfrwt beam="1">  1        1 0.15925888E+00 0.56433255E+03</pdfrwt>
<pdfrwt beam="2">  1       -1 0.55262957E-01 0.56433255E+03</pdfrwt>
<totfact> 0.49224359E+01</totfact>
</mgrwt>
</event>
<event>
12    1  0.3147868E-008  0.1353336E+04  0.7818608E-02  0.8988307E-01
          2   -1    0    0  501    0  0.00000000000E+00  0.00000000000E+00  0.23346630507E+04  0.23346630507E+04  0.00000000000E+00 0. -1.
         -2   -1    0    0    0  501 -0.00000000000E+00 -0.00000000000E+00 -0.87441565354E+03  0.87441565354E+03  0.00000000000E+00 0.  1.
         23    2    1    2    0    0 -0.13558900285E+03 -0.13366708036E+04  0.43358619001E+03  0.14148742915E+04  0.93803313772E+02 0.  0.
    5000000    2    1    2    0    0  0.13558900285E+03  0.13366708036E+04  0.10266612072E+04  0.17942044128E+04  0.60005251920E+03 0.  0.
         23    2    4    4    0    0  0.12304362686E+03  0.39973186863E+03  0.65418464781E+03  0.78184038242E+03  0.91605290507E+02 0.  0.
         23    2    4    4    0    0  0.12545375992E+02  0.93693893493E+03  0.37247655935E+03  0.10123640304E+04  0.90167557720E+02 0.  0.
          5    1    3    3  502    0 -0.43491183201E+02 -0.70858482445E+03  0.18993524574E+03  0.73490232278E+03  0.47000000000E+01 0. -1.
         -5    1    3    3    0  502 -0.92097819654E+02 -0.62808597911E+03  0.24365094427E+03  0.67997196867E+03  0.47000000000E+01 0.  1.
         13    1    5    5    0    0  0.83044556417E+02  0.35082962675E+03  0.59235334152E+03  0.69344091786E+03  0.00000000000E+00 0. -1.
        -13    1    5    5    0    0  0.39999070445E+02  0.48902241880E+02  0.61831306295E+02  0.88399464566E+02  0.00000000000E+00 0.  1.
          3    1    6    6  503    0  0.29535737733E+02  0.72365186828E+03  0.32153990727E+03  0.79242179314E+03  0.00000000000E+00 0. -1.
         -3    1    6    6    0  503 -0.16990361741E+02  0.21328706664E+03  0.50936652075E+02  0.21994223722E+03  0.00000000000E+00 0.  1.
<mgrwt>
<rscale>  0 0.13533361E+04</rscale>
<asrwt>0</asrwt>
<pdfrwt beam="1">  1        2 0.35917893E+00 0.13533361E+04</pdfrwt>
<pdfrwt beam="2">  1       -2 0.13452549E+00 0.13533361E+04</pdfrwt>
<totfact> 0.16569797E+00</totfact>
</mgrwt>
</event>
<event>
12    1  0.3147868E-008  0.7228229E+03  0.7818608E-02  0.9678979E-01
          1   -1    0    0  501    0  0.00000000000E+00  0.00000000000E+00  0.23981644124E+04  0.23981644124E+04  0.00000000000E+00 0. -1.
         -1   -1    0    0    0  501 -0.00000000000E+00 -0.00000000000E+00 -0.27520451615E+03  0.27520451615E+03  0.00000000000E+00 0.  1.
         23    2    1    2    0    0 -0.45210445885E+02 -0.61766381666E+03  0.14509432598E+04  0.15801791359E+04  0.90427780647E+02 0.  0.
    5000000    2    1    2    0    0  0.45210445885E+02  0.61766381666E+03  0.67201663640E+03  0.10931897926E+04  0.59992081831E+03 0.  0.
         23    2    4    4    0    0 -0.19725764849E+03  0.53391110887E+02  0.28367880945E+03  0.36082217651E+03  0.89206420840E+02 0.  0.
         23    2    4    4    0    0  0.24246809437E+03  0.56427270578E+03  0.38833782695E+03  0.73236761611E+03  0.91441752025E+02 0.  0.
          5    1    3    3  502    0  0.22421564000E+02 -0.30925269939E+03  0.71477105933E+03  0.77914036981E+03  0.47000000000E+01 0. -1.
         -5    1    3    3    0  502 -0.67632009885E+02 -0.30841111727E+03  0.73617220051E+03  0.80103876612E+03  0.47000000000E+01 0.  1.
         11    1    5    5    0    0 -0.90520124288E+02  0.13193564984E+02  0.19819555439E+03  0.21828751874E+03  0.00000000000E+00 0. -1.
        -11    1    5    5    0    0 -0.10673752420E+03  0.40197545903E+02  0.85483255062E+02  0.14253465777E+03  0.00000000000E+00 0.  1.
          1    1    6    6  503    0  0.17035308000E+03  0.40752381127E+03  0.32574850178E+03  0.54882412031E+03  0.00000000000E+00 0. -1.
         -1    1    6    6    0  503  0.72115014370E+02  0.15674889450E+03  0.62589325170E+02  0.18354349580E+03  0.00000000000E+00 0.  1.
<mgrwt>
<rscale>  0 0.72282289E+03</rscale>
<asrwt>0</asrwt>
<pdfrwt beam="1">  1        1 0.36894836E+00 0.72282289E+03</pdfrwt>
<pdfrwt beam="2">  1       -1 0.42339158E-01 0.72282289E+03</pdfrwt>
<totfact> 0.92414700E+00</totfact>
</mgrwt>
</event>
<event>
12    1  0.3209522E-008  0.7923087E+03  0.7818608E-02  0.9571217E-01
         -1   -1    0    0    0  501 -0.00000000000E+00  0.00000000000E+00  0.17683314508E+04  0.17683314508E+04  0.00000000000E+00 0.  1.
          1   -1    0    0  501    0  0.00000000000E+00 -0.00000000000E+00 -0.37623924419E+03  0.37623924419E+03  0.00000000000E+00 0. -1.
         23    2    1    2    0    0  0.49834559703E+03  0.48508977113E+03  0.73522812514E+03  0.10152604806E+04  0.80827144339E+02 0.  0.
    5000000    2    1    2    0    0 -0.49834559703E+03 -0.48508977113E+03  0.65686408151E+03  0.11293102145E+04  0.60017557329E+03 0.  0.
         23    2    4    4    0    0 -0.58200807341E+03 -0.49902003312E+03  0.46638448606E+03  0.90202066756E+03  0.91500846495E+02 0.  0.
         23    2    4    4    0    0  0.83662476380E+02  0.13930261990E+02  0.19047959545E+03  0.22728954690E+03  0.90468777446E+02 0.  0.
          5    1    3    3  502    0  0.30039646623E+03  0.34022423246E+03  0.45225165366E+03  0.64073724217E+03  0.47000000000E+01 0. -1.
         -5    1    3    3    0  502  0.19794913081E+03  0.14486553867E+03  0.28297647148E+03  0.37452323839E+03  0.47000000000E+01 0.  1.
         13    1    5    5    0    0 -0.28051039819E+03 -0.25474840712E+03  0.17852635088E+03  0.41887288332E+03  0.00000000000E+00 0. -1.
        -13    1    5    5    0    0 -0.30149767522E+03 -0.24427162600E+03  0.28785813518E+03  0.48314778424E+03  0.00000000000E+00 0.  1.
          2    1    6    6  503    0  0.53824821530E+02 -0.32770347716E+02  0.13443697569E+03  0.14847325529E+03  0.00000000000E+00 0.  1.
         -2    1    6    6    0  503  0.29837654850E+02  0.46700609706E+02  0.56042619759E+02  0.78816291611E+02  0.00000000000E+00 0. -1.
<mgrwt>
<rscale>  0 0.79230870E+03</rscale>
<asrwt>0</asrwt>
<pdfrwt beam="1">  1        1 0.57882962E-01 0.79230870E+03</pdfrwt>
<pdfrwt beam="2">  1       -1 0.27205099E+00 0.79230870E+03</pdfrwt>
<totfact> 0.33858119E+00</totfact>
</mgrwt>
</event>
<event>
12    1  0.3147868E-008  0.6655584E+03  0.7818608E-02  0.9778015E-01
         -2   -1    0    0    0  501 -0.00000000000E+00  0.00000000000E+00  0.56947697211E+03  0.56947697211E+03  0.00000000000E+00 0.  1.
          2   -1    0    0  501    0  0.00000000000E+00 -0.00000000000E+00 -0.22435795173E+04  0.22435795173E+04  0.00000000000E+00 0. -1.
         23    2    1    2    0    0  0.47467908595E+03  0.31226597759E+03  0.31717990082E+03  0.65705291479E+03  0.91022897942E+02 0.  0.
    5000000    2    1    2    0    0 -0.47467908595E+03 -0.31226597759E+03 -0.19912824460E+04  0.21560035746E+04  0.60026274128E+03 0.  0.
         23    2    4    4    0    0 -0.29666556618E+03 -0.43991509118E+03 -0.16773272692E+04  0.17614970284E+04  0.88934062501E+02 0.  0.
         23    2    4    4    0    0 -0.17801351977E+03  0.12764911359E+03 -0.31395517676E+03  0.39450654617E+03  0.95312394424E+02 0.  0.
          5    1    3    3  502    0  0.18576465222E+03  0.77920252846E+02  0.13714991038E+03  0.24374630199E+03  0.47000000000E+01 0. -1.
         -5    1    3    3    0  502  0.28891443373E+03  0.23434572475E+03  0.18002999044E+03  0.41330661280E+03  0.47000000000E+01 0.  1.
         13    1    5    5    0    0 -0.16641289697E+03 -0.27865539297E+03 -0.11489128502E+04  0.11938772205E+04  0.00000000000E+00 0. -1.
        -13    1    5    5    0    0 -0.13025266920E+03 -0.16125969822E+03 -0.52841441903E+03  0.56761980792E+03  0.00000000000E+00 0.  1.
          3    1    6    6  503    0 -0.15895404009E+03  0.13147632082E+03 -0.31322895345E+03  0.37505304568E+03  0.00000000000E+00 0. -1.
         -3    1    6    6    0  503 -0.19059479675E+02 -0.38272072357E+01 -0.72622331683E+00  0.19453500482E+02  0.00000000000E+00 0.  1.
<mgrwt>
<rscale>  0 0.66555835E+03</rscale>
<asrwt>0</asrwt>
<pdfrwt beam="1">  1        2 0.34516607E+00 0.66555835E+03</pdfrwt>
<pdfrwt beam="2">  1       -2 0.87611843E-01 0.66555835E+03</pdfrwt>
<totfact> 0.58064536E+00</totfact>
</mgrwt>
</event>
<event>
12    1  0.3147868E-008  0.1782191E+04  0.7818608E-02  0.8715828E-01
         -2   -1    0    0    0  501 -0.00000000000E+00  0.00000000000E+00  0.91688673403E+03  0.91688673403E+03  0.00000000000E+00 0.  1.
          2   -1    0    0  501    0  0.00000000000E+00 -0.00000000000E+00 -0.36141832793E+04  0.36141832793E+04  0.00000000000E+00 0. -1.
         23    2    1    2    0    0 -0.10049251002E+04  0.14390823416E+04 -0.15937810794E+04  0.23726894208E+04  0.93190749211E+02 0.  0.
    5000000    2    1    2    0    0  0.10049251002E+04 -0.14390823416E+04 -0.11035154659E+04  0.21583805925E+04  0.60002329617E+03 0.  0.
         23    2    4    4    0    0  0.54002314280E+03 -0.11127610326E+04 -0.53887065821E+03  0.13522508714E+04  0.91316605375E+02 0.  0.
         23    2    4    4    0    0  0.46490195742E+03 -0.32632130890E+03 -0.56464480765E+03  0.80612972110E+03  0.91662106583E+02 0.  0.
          5    1    3    3  502    0 -0.29840010620E+03  0.35913726460E+03 -0.43993546953E+03  0.64155085968E+03  0.47000000000E+01 0. -1.
         -5    1    3    3    0  502 -0.70652499402E+03  0.10799450770E+04 -0.11538456099E+04  0.17311385611E+04  0.47000000000E+01 0.  1.
         11    1    5    5    0    0  0.29173535405E+03 -0.52310466293E+03 -0.29367093462E+03  0.66707617482E+03  0.00000000000E+00 0. -1.
        -11    1    5    5    0    0  0.24828778875E+03 -0.58965636972E+03 -0.24519972359E+03  0.68517469659E+03  0.00000000000E+00 0.  1.
          2    1    6    6  503    0  0.10369094570E+03 -0.79371257524E+02 -0.79797328286E+02  0.15303340270E+03  0.00000000000E+00 0. -1.
         -2    1    6    6    0  503  0.36121101172E+03 -0.24695005138E+03 -0.48484747936E+03  0.65309631840E+03  0.00000000000E+00 0.  1.
<mgrwt>
<rscale>  0 0.17821908E+04</rscale>
<asrwt>0</asrwt>
<pdfrwt beam="1">  1        2 0.55602819E+00 0.17821908E+04</pdfrwt>
<pdfrwt beam="2">  1       -2 0.14105950E+00 0.17821908E+04</pdfrwt>
<totfact> 0.21971196E-01</totfact>
</mgrwt>
</event>
<event>
12    1  0.3147868E-008  0.6462926E+03  0.7818608E-02  0.9813761E-01
         -1   -1    0    0    0  501 -0.00000000000E+00  0.00000000000E+00  0.13211796675E+04  0.13211796675E+04  0.00000000000E+00 0.  1.
          1   -1    0    0  501    0  0.00000000000E+00 -0.00000000000E+00 -0.13475500912E+04  0.13475500912E+04  0.00000000000E+00 0. -1.
         23    2    1    2    0    0  0.53899177208E+03 -0.25471369172E+03 -0.11284421373E+04  0.12794921157E+04  0.91253612950E+02 0.  0.
    5000000    2    1    2    0    0 -0.53899177208E+03  0.25471369172E+03  0.11020717136E+04  0.13892376430E+04  0.60002330939E+03 0.  0.
         23    2    4    4    0    0 -0.35999962245E+03  0.53081415111E-01  0.18321076876E+03  0.41489092841E+03  0.94702511567E+02 0.  0.
         23    2    4    4    0    0 -0.17899214963E+03  0.25466061031E+03  0.91886094484E+03  0.97434671464E+03  0.90309846143E+02 0.  0.
          5    1    3    3  502    0  0.52306842346E+03 -0.22592268542E+03 -0.10703673364E+04  0.12125798779E+04  0.47000000000E+01 0. -1.
         -5    1    3    3    0  502  0.15923348619E+02 -0.28791006303E+02 -0.58074800854E+02  0.66912237815E+02  0.47000000000E+01 0.  1.
         13    1    5    5    0    0 -0.16235880147E+03 -0.46783205367E+02  0.89418384701E+02  0.19116667137E+03  0.00000000000E+00 0. -1.
        -13    1    5    5    0    0 -0.19764082098E+03  0.46836286783E+02  0.93792384062E+02  0.22372425704E+03  0.00000000000E+00 0.  1.
          4    1    6    6  503    0 -0.12615950818E+03  0.22206441419E+03  0.80654556381E+03  0.84601688639E+03  0.00000000000E+00 0.  1.
         -4    1    6    6    0  503 -0.52832641444E+02  0.32596196116E+02  0.11231538103E+03  0.12832982825E+03  0.00000000000E+00 0. -1.
<mgrwt>
<rscale>  0 0.64629262E+03</rscale>
<asrwt>0</asrwt>
<pdfrwt beam="1">  1        1 0.20731540E+00 0.64629262E+03</pdfrwt>
<pdfrwt beam="2">  1       -1 0.20325841E+00 0.64629262E+03</pdfrwt>
<totfact> 0.12839662E+00</totfact>
</mgrwt>
</event>
<event>
12    1  0.3147868E-008  0.4706747E+03  0.7818608E-02  0.1021730E+00
          1   -1    0    0  501    0  0.00000000000E+00  0.00000000000E+00  0.14318270863E+03  0.14318270863E+03  0.00000000000E+00 0. -1.
         -1   -1    0    0    0  501 -0.00000000000E+00 -0.00000000000E+00 -0.20605484045E+04  0.20605484045E+04  0.00000000000E+00 0.  1.
         23    2    1    2    0    0 -0.96124216026E+02  0.34877904606E+03 -0.83646943999E+03  0.91562697470E+03  0.88345599136E+02 0.  0.
    5000000    2    1    2    0    0  0.96124216026E+02 -0.34877904606E+03 -0.10808962558E+04  0.12881041384E+04  0.59999072291E+03 0.  0.
         23    2    4    4    0    0  0.26485712337E+03 -0.15223319503E+03 -0.91308558072E+03  0.96652766116E+03  0.84416826484E+02 0.  0.
         23    2    4    4    0    0 -0.16873290735E+03 -0.19654585103E+03 -0.16781067511E+03  0.32157647723E+03  0.90277031670E+02 0.  0.
          5    1    3    3  502    0 -0.50593721954E+02  0.58036864331E+02 -0.14835827908E+03  0.16721325095E+03  0.47000000000E+01 0. -1.
         -5    1    3    3    0  502 -0.45530494072E+02  0.29074218173E+03 -0.68811116091E+03  0.74841372375E+03  0.47000000000E+01 0.  1.
         13    1    5    5    0    0  0.72604347606E+02 -0.70146800670E+02 -0.39880199799E+03  0.41138181600E+03  0.00000000000E+00 0. -1.
        -13    1    5    5    0    0  0.19225277577E+03 -0.82086394359E+02 -0.51428358273E+03  0.55514584516E+03  0.00000000000E+00 0.  1.
          2    1    6    6  503    0 -0.13722127051E+03 -0.14631621113E+03 -0.80742344205E+02  0.21623468008E+03  0.00000000000E+00 0. -1.
         -2    1    6    6    0  503 -0.31511636836E+02 -0.50229639902E+02 -0.87068330908E+02  0.10534179716E+03  0.00000000000E+00 0.  1.
<mgrwt>
<rscale>  0 0.47067467E+03</rscale>
<asrwt>0</asrwt>
<pdfrwt beam="1">  1        1 0.22028110E-01 0.47067467E+03</pdfrwt>
<pdfrwt beam="2">  1       -1 0.31700743E+00 0.47067467E+03</pdfrwt>
<totfact> 0.64766479E+00</totfact>
</mgrwt>
</event>
<event>
12    1  0.3147868E-008  0.1066791E+04  0.7818608E-02  0.9238178E-01
         -1   -1    0    0    0  501 -0.00000000000E+00  0.00000000000E+00  0.10726705305E+04  0.10726705305E+04  0.00000000000E+00 0.  1.
          1   -1    0    0  501    0  0.00000000000E+00 -0.00000000000E+00 -0.11140374684E+04  0.11140374684E+04  0.00000000000E+00 0. -1.
         23    2    1    2    0    0  0.38649095909E+03  0.91629477148E+03 -0.18720946063E+03  0.10161334132E+04  0.92240780844E+02 0.  0.
    5000000    2    1    2    0    0 -0.38649095909E+03 -0.91629477148E+03  0.14584252271E+03  0.11705745856E+04  0.60000287443E+03 0.  0.
         23    2    4    4    0    0 -0.50616075883E+03 -0.84758654805E+03  0.85714130007E+02  0.99486072606E+03  0.88313543431E+02 0.  0.
         23    2    4    4    0    0  0.11966979974E+03 -0.68708223432E+02  0.60128392706E+02  0.17571385955E+03  0.90654596633E+02 0.  0.
          5    1    3    3  502    0  0.21741779005E+03  0.42505860259E+03 -0.59710675473E+02  0.48117851763E+03  0.47000000000E+01 0. -1.
         -5    1    3    3    0  502  0.16907316904E+03  0.49123616890E+03 -0.12749878516E+03  0.53495489561E+03  0.47000000000E+01 0.  1.
         13    1    5    5    0    0 -0.17402643917E+03 -0.35182946436E+03  0.38115935752E+01  0.39253496884E+03  0.00000000000E+00 0. -1.
        -13    1    5    5    0    0 -0.33213431966E+03 -0.49575708370E+03  0.81902536431E+02  0.60232575722E+03  0.00000000000E+00 0.  1.
          1    1    6    6  503    0  0.69257701605E+02 -0.67792771462E+02 -0.42668487608E+00  0.96915794142E+02  0.00000000000E+00 0. -1.
         -1    1    6    6    0  503  0.50412098134E+02 -0.91545196920E+00  0.60555077582E+02  0.78798065405E+02  0.00000000000E+00 0.  1.
<mgrwt>
<rscale>  0 0.10667907E+04</rscale>
<asrwt>0</asrwt>
<pdfrwt beam="1">  1        1 0.17139038E+00 0.10667907E+04</pdfrwt>
<pdfrwt beam="2">  1       -1 0.16502624E+00 0.10667907E+04</pdfrwt>
<totfact> 0.32989994E+00</totfact>
</mgrwt>
</event>
<event>
12    1  0.3147868E-008  0.8292029E+03  0.7818608E-02  0.9518683E-01
         -2   -1    0    0    0  501 -0.00000000000E+00  0.00000000000E+00  0.81131996351E+03  0.81131996351E+03  0.00000000000E+00 0.  1.
          2   -1    0    0  501    0  0.00000000000E+00 -0.00000000000E+00 -0.13760401241E+04  0.13760401241E+04  0.00000000000E+00 0. -1.
         23    2    1    2    0    0 -0.65177608071E+03 -0.35342494650E+03  0.38523488627E+03  0.84132027174E+03  0.98451154566E+02 0.  0.
    5000000    2    1    2    0    0  0.65177608071E+03  0.35342494650E+03 -0.94995504684E+03  0.13460398159E+04  0.59973939560E+03 0.  0.
         23    2    4    4    0    0  0.64950989141E+03  0.43908941902E+03 -0.65674777578E+03  0.10269746653E+04  0.93256127200E+02 0.  0.
         23    2    4    4    0    0  0.22661892987E+01 -0.85664472521E+02 -0.29320727106E+03  0.31906515054E+03  0.92133213436E+02 0.  0.
          5    1    3    3  502    0 -0.60858762386E+03 -0.30328927677E+03  0.36608747183E+03  0.77227288464E+03  0.47000000000E+01 0. -1.
         -5    1    3    3    0  502 -0.43188456854E+02 -0.50135669737E+02  0.19147414438E+02  0.69047387099E+02  0.47000000000E+01 0.  1.
         11    1    5    5    0    0  0.15915269989E+03  0.15647037996E+03 -0.17166939683E+03  0.28157227046E+03  0.00000000000E+00 0. -1.
        -11    1    5    5    0    0  0.49035719152E+03  0.28261903907E+03 -0.48507837896E+03  0.74540239485E+03  0.00000000000E+00 0.  1.
          3    1    6    6  503    0 -0.37121289205E+02 -0.11361075221E+02 -0.12688103841E+03  0.13268708321E+03  0.00000000000E+00 0. -1.
         -3    1    6    6    0  503  0.39387478504E+02 -0.74303397300E+02 -0.16632623265E+03  0.18637806733E+03  0.00000000000E+00 0.  1.
<mgrwt>
<rscale>  0 0.82920285E+03</rscale>
<asrwt>0</asrwt>
<pdfrwt beam="1">  1        2 0.21169848E+00 0.82920285E+03</pdfrwt>
<pdfrwt beam="2">  1       -2 0.12481846E+00 0.82920285E+03</pdfrwt>
<totfact> 0.72766931E+00</totfact>
</mgrwt>
</event>
<event>
12    1  0.3147868E-008  0.1398589E+04  0.7818608E-02  0.8954840E-01
         -2   -1    0    0    0  501 -0.00000000000E+00  0.00000000000E+00  0.17132688462E+04  0.17132688462E+04  0.00000000000E+00 0. -1.
          2   -1    0    0  501    0  0.00000000000E+00 -0.00000000000E+00 -0.11712542322E+04  0.11712542322E+04  0.00000000000E+00 0.  1.
         23    2    1    2    0    0  0.12113602050E+04 -0.57718353051E+03  0.94952967598E+02  0.13481871887E+04  0.89767787149E+02 0.  0.
    5000000    2    1    2    0    0 -0.12113602050E+04  0.57718353051E+03  0.44706164638E+03  0.15363358896E+04  0.59994122693E+03 0.  0.
         23    2    4    4    0    0 -0.75834889053E+03  0.59992417882E+02  0.14308944300E+03  0.77919550781E+03  0.89324804665E+02 0.  0.
         23    2    4    4    0    0 -0.45301131450E+03  0.51719111263E+03  0.30397220338E+03  0.75714038178E+03  0.90313671433E+02 0.  0.
          5    1    3    3  502    0  0.75701259143E+03 -0.32629719559E+03  0.27771363511E+02  0.82482195779E+03  0.47000000000E+01 0. -1.
         -5    1    3    3    0  502  0.45434761360E+03 -0.25088633493E+03  0.67181604087E+02  0.52336523095E+03  0.47000000000E+01 0.  1.
         11    1    5    5    0    0 -0.45550604428E+03  0.42111929735E+02  0.12991768608E+03  0.47553945805E+03  0.00000000000E+00 0.  1.
        -11    1    5    5    0    0 -0.30284284625E+03  0.17880488147E+02  0.13171756921E+02  0.30365604977E+03  0.00000000000E+00 0. -1.
          4    1    6    6  503    0 -0.22280283878E+03  0.31957616684E+03  0.18472328719E+03  0.43115278523E+03  0.00000000000E+00 0. -1.
         -4    1    6    6    0  503 -0.23020847572E+03  0.19761494579E+03  0.11924891619E+03  0.32598759655E+03  0.00000000000E+00 0.  1.
<mgrwt>
<rscale>  0 0.13985894E+04</rscale>
<asrwt>0</asrwt>
<pdfrwt beam="1">  1        2 0.18019296E+00 0.13985894E+04</pdfrwt>
<pdfrwt beam="2">  1       -2 0.26357982E+00 0.13985894E+04</pdfrwt>
<totfact> 0.99704564E-01</totfact>
</mgrwt>
</event>
<event>
12    1  0.4144559E-008  0.1128181E+04  0.7818608E-02  0.9178152E-01
         -2   -1    0    0    0  501 -0.00000000000E+00  0.00000000000E+00  0.75800904717E+03  0.75800904717E+03  0.00000000000E+00 0.  1.
          2   -1    0    0  501    0  0.00000000000E+00 -0.00000000000E+00 -0.18462601487E+04  0.18462601487E+04  0.00000000000E+00 0. -1.
         23    2    1    2    0    0  0.56475150858E+03 -0.94714477008E+03 -0.43435813197E+03  0.11888475472E+04  0.93080726605E+02 0.  0.
    5000000    2    1    2    0    0 -0.56475150858E+03  0.94714477008E+03 -0.65389296952E+03  0.14154216487E+04  0.59984576850E+03 0.  0.
         23    2    4    4    0    0 -0.55519784101E+03  0.85495893192E+03 -0.73696602828E+03  0.12610601529E+04  0.89187243184E+02 0.  0.
         23    2    4    4    0    0 -0.95536675768E+01  0.92185838159E+02  0.83073058751E+02  0.15436149581E+03  0.91306281157E+02 0.  0.
          5    1    3    3  502    0  0.33072243919E+03 -0.48123395462E+03 -0.25832420871E+03  0.63852716283E+03  0.47000000000E+01 0. -1.
         -5    1    3    3    0  502  0.23402906939E+03 -0.46591081546E+03 -0.17603392326E+03  0.55032038434E+03  0.47000000000E+01 0.  1.
         11    1    5    5    0    0 -0.19875924211E+03  0.35798522871E+03 -0.25477899861E+03  0.48225615438E+03  0.00000000000E+00 0. -1.
        -11    1    5    5    0    0 -0.35643859889E+03  0.49697370321E+03 -0.48218702966E+03  0.77880399847E+03  0.00000000000E+00 0.  1.
          1    1    6    6  503    0 -0.42085367842E+02  0.87513498392E+02  0.65010003980E+02  0.11685927950E+03  0.00000000000E+00 0. -1.
         -1    1    6    6    0  503  0.32531700265E+02  0.46723397668E+01  0.18063054771E+02  0.37502216317E+02  0.00000000000E+00 0.  1.
<mgrwt>
<rscale>  0 0.11281805E+04</rscale>
<asrwt>0</asrwt>
<pdfrwt beam="1">  1        2 0.28404002E+00 0.11281805E+04</pdfrwt>
<pdfrwt beam="2">  1       -2 0.11661678E+00 0.11281805E+04</pdfrwt>
<totfact> 0.45566693E+00</totfact>
</mgrwt>
</event>
<event>
12    1  0.3147868E-008  0.1016839E+04  0.7818608E-02  0.9290266E-01
          2   -1    0    0  501    0  0.00000000000E+00  0.00000000000E+00  0.14101947144E+04  0.14101947144E+04  0.00000000000E+00 0. -1.
         -2   -1    0    0    0  501 -0.00000000000E+00 -0.00000000000E+00 -0.84745219126E+03  0.84745219126E+03  0.00000000000E+00 0.  1.
         23    2    1    2    0    0  0.98702764105E+03 -0.16984466820E+03  0.38450267854E+03  0.10765562944E+04  0.89779561885E+02 0.  0.
    5000000    2    1    2    0    0 -0.98702764105E+03  0.16984466820E+03  0.17823984462E+03  0.11810906113E+04  0.60011233473E+03 0.  0.
         23    2    4    4    0    0 -0.54117562269E+03  0.18460638973E+03 -0.17307410047E+03  0.60491569580E+03  0.94961997910E+02 0.  0.
         23    2    4    4    0    0 -0.44585201836E+03 -0.14761721537E+02  0.35131394509E+03  0.57617491547E+03  0.97745150774E+02 0.  0.
          5    1    3    3  502    0  0.35958858727E+03 -0.10531306778E+03  0.13754826877E+03  0.39916965138E+03  0.47000000000E+01 0. -1.
         -5    1    3    3    0  502  0.62743905378E+03 -0.64531600412E+02  0.24695440976E+03  0.67738664303E+03  0.47000000000E+01 0.  1.
         11    1    5    5    0    0 -0.31302569389E+03  0.15180508053E+03 -0.12337874556E+03  0.36912353266E+03  0.00000000000E+00 0. -1.
        -11    1    5    5    0    0 -0.22814992879E+03  0.32801309201E+02 -0.49695354913E+02  0.23579216313E+03  0.00000000000E+00 0.  1.
          2    1    6    6  503    0 -0.13260002891E+03  0.21951084791E+02  0.15282328067E+03  0.20351799160E+03  0.00000000000E+00 0. -1.
         -2    1    6    6    0  503 -0.31325198945E+03 -0.36712806327E+02  0.19849066442E+03  0.37265692387E+03  0.00000000000E+00 0.  1.
<mgrwt>
<rscale>  0 0.10168394E+04</rscale>
<asrwt>0</asrwt>
<pdfrwt beam="1">  1        2 0.21695303E+00 0.10168394E+04</pdfrwt>
<pdfrwt beam="2">  1       -2 0.13037726E+00 0.10168394E+04</pdfrwt>
<totfact> 0.61007291E+00</totfact>
</mgrwt>
</event>
<event>
12    1  0.3147868E-008  0.7167013E+03  0.7818608E-02  0.9689089E-01
          2   -1    0    0  501    0  0.00000000000E+00  0.00000000000E+00  0.10620024960E+04  0.10620024960E+04  0.00000000000E+00 0. -1.
         -2   -1    0    0    0  501 -0.00000000000E+00 -0.00000000000E+00 -0.77481092510E+03  0.77481092510E+03  0.00000000000E+00 0.  1.
         23    2    1    2    0    0 -0.46583049914E+03 -0.47068520586E+03 -0.33502872128E+03  0.74798300918E+03  0.93229399851E+02 0.  0.
    5000000    2    1    2    0    0  0.46583049914E+03  0.47068520586E+03  0.62222029219E+03  0.10888304119E+04  0.59987578461E+03 0.  0.
         23    2    4    4    0    0  0.49786372719E+03  0.47425668815E+03  0.68475874522E+03  0.97490866462E+03  0.93619806076E+02 0.  0.
         23    2    4    4    0    0 -0.32033228049E+02 -0.35714822938E+01 -0.62538453028E+02  0.11392174730E+03  0.89600352763E+02 0.  0.
          5    1    3    3  502    0 -0.26284225050E+03 -0.31297694209E+03 -0.23937357415E+03  0.47366909644E+03  0.47000000000E+01 0. -1.
         -5    1    3    3    0  502 -0.20298824864E+03 -0.15770826377E+03 -0.95655147134E+02  0.27431391274E+03  0.47000000000E+01 0.  1.
         13    1    5    5    0    0  0.42884768032E+03  0.36251778474E+03  0.57547431267E+03  0.80405233767E+03  0.00000000000E+00 0. -1.
        -13    1    5    5    0    0  0.69016046873E+02  0.11173890342E+03  0.10928443254E+03  0.17085632695E+03  0.00000000000E+00 0.  1.
          3    1    6    6  503    0 -0.50928320533E+02 -0.14392284864E+02 -0.59105997374E+01  0.53251919075E+02  0.00000000000E+00 0.  1.
         -3    1    6    6    0  503  0.18895092484E+02  0.10820802570E+02 -0.56627853290E+02  0.60669828222E+02  0.00000000000E+00 0. -1.
<mgrwt>
<rscale>  0 0.71670128E+03</rscale>
<asrwt>0</asrwt>
<pdfrwt beam="1">  1        2 0.16338500E+00 0.71670128E+03</pdfrwt>
<pdfrwt beam="2">  1       -2 0.11920168E+00 0.71670128E+03</pdfrwt>
<totfact> 0.12690554E+01</totfact>
</mgrwt>
</event>
<event>
12    1  0.3147868E-008  0.2628769E+04  0.7818608E-02  0.8358494E-01
          2   -1    0    0  501    0  0.00000000000E+00  0.00000000000E+00  0.39945713470E+04  0.39945713470E+04  0.00000000000E+00 0. -1.
         -2   -1    0    0    0  501 -0.00000000000E+00 -0.00000000000E+00 -0.21958583556E+04  0.21958583556E+04  0.00000000000E+00 0.  1.
         23    2    1    2    0    0 -0.26047017513E+04 -0.17686001956E+03  0.22813807466E+04  0.34682579264E+04  0.91456295007E+02 0.  0.
    5000000    2    1    2    0    0  0.26047017513E+04  0.17686001956E+03 -0.48266775509E+03  0.27221717762E+04  0.60124898135E+03 0.  0.
         23    2    4    4    0    0  0.22986312466E+04  0.27447844648E+03 -0.28336320455E+03  0.23340678550E+04  0.92379762964E+02 0.  0.
         23    2    4    4    0    0  0.30607050466E+03 -0.97618426916E+02 -0.19930455054E+03  0.38810392116E+03  0.87714529348E+02 0.  0.
          5    1    3    3  502    0 -0.11000656115E+04 -0.85691129470E+02  0.90653196697E+03  0.14280439827E+04  0.47000000000E+01 0. -1.
         -5    1    3    3    0  502 -0.15046361398E+04 -0.91168890094E+02  0.13748487796E+04  0.20402139438E+04  0.47000000000E+01 0.  1.
         11    1    5    5    0    0  0.89987105360E+03  0.89216957458E+02 -0.15229764062E+03  0.91701807504E+03  0.00000000000E+00 0. -1.
        -11    1    5    5    0    0  0.13987601930E+04  0.18526148902E+03 -0.13106556393E+03  0.14170497800E+04  0.00000000000E+00 0.  1.
          1    1    6    6  503    0  0.95029747694E+02 -0.71278570053E+02 -0.89636209792E+02  0.14881511214E+03  0.00000000000E+00 0. -1.
         -1    1    6    6    0  503  0.21104075697E+03 -0.26339856863E+02 -0.10966834075E+03  0.23928880902E+03  0.00000000000E+00 0.  1.
<mgrwt>
<rscale>  0 0.26287693E+04</rscale>
<asrwt>0</asrwt>
<pdfrwt beam="1">  1        2 0.61454944E+00 0.26287693E+04</pdfrwt>
<pdfrwt beam="2">  1       -2 0.33782436E+00 0.26287693E+04</pdfrwt>
<totfact> 0.52858783E-03</totfact>
</mgrwt>
</event>
<event>
12    1  0.3147868E-008  0.1469472E+04  0.7818608E-02  0.8905011E-01
          2   -1    0    0  501    0  0.00000000000E+00  0.00000000000E+00  0.18446824746E+04  0.18446824746E+04  0.00000000000E+00 0. -1.
         -2   -1    0    0    0  501 -0.00000000000E+00 -0.00000000000E+00 -0.13060569599E+04  0.13060569599E+04  0.00000000000E+00 0.  1.
         23    2    1    2    0    0  0.44773915894E+03  0.13979938837E+04 -0.14751629257E+02  0.14710844045E+04  0.94944517488E+02 0.  0.
    5000000    2    1    2    0    0 -0.44773915894E+03 -0.13979938837E+04  0.55337714391E+03  0.16796550300E+04  0.60013123825E+03 0.  0.
         23    2    4    4    0    0 -0.12355506979E+03 -0.28211041005E+03 -0.10896227553E+03  0.33908973821E+03  0.90867674913E+02 0.  0.
         23    2    4    4    0    0 -0.32418408915E+03 -0.11158834736E+04  0.66233941945E+03  0.13405652918E+04  0.90169532470E+02 0.  0.
          5    1    3    3  502    0  0.10644695386E+03  0.27054980698E+03  0.29554091090E+02  0.29227330762E+03  0.47000000000E+01 0. -1.
         -5    1    3    3    0  502  0.34129220508E+03  0.11274440767E+04 -0.44305720348E+02  0.11788110969E+04  0.47000000000E+01 0.  1.
         11    1    5    5    0    0 -0.65942053897E+02 -0.13815211831E+03 -0.10184787201E+03  0.18386775492E+03  0.00000000000E+00 0. -1.
        -11    1    5    5    0    0 -0.57613015893E+02 -0.14395829174E+03 -0.71144035221E+01  0.15522198330E+03  0.00000000000E+00 0.  1.
          4    1    6    6  503    0 -0.90569566996E+02 -0.32518525167E+03  0.24014176241E+03  0.41426605029E+03  0.00000000000E+00 0. -1.
         -4    1    6    6    0  503 -0.23361452216E+03 -0.79069822198E+03  0.42219765704E+03  0.92629924151E+03  0.00000000000E+00 0.  1.
<mgrwt>
<rscale>  0 0.14694724E+04</rscale>
<asrwt>0</asrwt>
<pdfrwt beam="1">  1        2 0.28379731E+00 0.14694724E+04</pdfrwt>
<pdfrwt beam="2">  1       -2 0.20093184E+00 0.14694724E+04</pdfrwt>
<totfact> 0.10074847E+00</totfact>
</mgrwt>
</event>
<event>
12    1  0.3147868E-008  0.6326935E+03  0.7818608E-02  0.9839807E-01
          1   -1    0    0  501    0  0.00000000000E+00  0.00000000000E+00  0.11791997394E+04  0.11791997394E+04  0.00000000000E+00 0. -1.
         -1   -1    0    0    0  501 -0.00000000000E+00 -0.00000000000E+00 -0.39577356068E+03  0.39577356068E+03  0.00000000000E+00 0.  1.
         23    2    1    2    0    0 -0.18605245447E+03 -0.48657971134E+03  0.12632524526E+03  0.54388691525E+03  0.92084622445E+02 0.  0.
    5000000    2    1    2    0    0  0.18605245447E+03  0.48657971134E+03  0.65710093344E+03  0.10310863848E+04  0.59998513722E+03 0.  0.
         23    2    4    4    0    0 -0.13566031642E+03  0.35916380232E+03  0.50706647183E+03  0.64277257374E+03  0.92939853428E+02 0.  0.
         23    2    4    4    0    0  0.32171277088E+03  0.12741590903E+03  0.15003446161E+03  0.38831381106E+03  0.92430272997E+02 0.  0.
          5    1    3    3  502    0 -0.12644965096E+03 -0.31495268763E+03  0.37159229442E+02  0.34144927589E+03  0.47000000000E+01 0. -1.
         -5    1    3    3    0  502 -0.59602803507E+02 -0.17162702371E+03  0.89166015816E+02  0.20243763936E+03  0.47000000000E+01 0.  1.
         11    1    5    5    0    0 -0.51539218816E+02  0.24407054985E+03  0.28350769991E+03  0.37762857451E+03  0.00000000000E+00 0. -1.
        -11    1    5    5    0    0 -0.84121097601E+02  0.11509325247E+03  0.22355877192E+03  0.26514399923E+03  0.00000000000E+00 0.  1.
          2    1    6    6  503    0  0.16166168477E+03  0.28765976681E+02  0.10526685383E+03  0.19504638487E+03  0.00000000000E+00 0. -1.
         -2    1    6    6    0  503  0.16005108612E+03  0.98649932345E+02  0.44767607778E+02  0.19326742619E+03  0.00000000000E+00 0.  1.
<mgrwt>
<rscale>  0 0.63269353E+03</rscale>
<asrwt>0</asrwt>
<pdfrwt beam="1">  1        1 0.18141534E+00 0.63269353E+03</pdfrwt>
<pdfrwt beam="2">  1       -1 0.60888241E-01 0.63269353E+03</pdfrwt>
<totfact> 0.31595918E+01</totfact>
</mgrwt>
</event>
<event>
12    1  0.3147868E-008  0.2154087E+04  0.7818608E-02  0.8537785E-01
          1   -1    0    0  501    0  0.00000000000E+00  0.00000000000E+00  0.23469211312E+04  0.23469211312E+04  0.00000000000E+00 0. -1.
         -1   -1    0    0    0  501 -0.00000000000E+00 -0.00000000000E+00 -0.21896536947E+04  0.21896536947E+04  0.00000000000E+00 0.  1.
         23    2    1    2    0    0 -0.11043605487E+04  0.18204794951E+04 -0.57489647182E+03  0.22063766393E+04  0.61920171069E+02 0.  0.
    5000000    2    1    2    0    0  0.11043605487E+04 -0.18204794951E+04  0.73216390841E+03  0.23301981866E+04  0.60000148868E+03 0.  0.
         23    2    4    4    0    0  0.20403718906E+02 -0.33983896928E+03 -0.15601468808E+00  0.35235518542E+03  0.90814732090E+02 0.  0.
         23    2    4    4    0    0  0.10839568298E+04 -0.14806405258E+04  0.73231992310E+03  0.19778430012E+04  0.91168481198E+02 0.  0.
          5    1    3    3  502    0 -0.77753096636E+03  0.12375684187E+04 -0.41178025005E+03  0.15184581189E+04  0.47000000000E+01 0. -1.
         -5    1    3    3    0  502 -0.32682958236E+03  0.58291107637E+03 -0.16311622178E+03  0.68791852037E+03  0.47000000000E+01 0.  1.
         11    1    5    5    0    0  0.17400196268E+02 -0.12655862065E+03 -0.43002921627E+02  0.13479281346E+03  0.00000000000E+00 0. -1.
        -11    1    5    5    0    0  0.30035226387E+01 -0.21328034863E+03  0.42846906939E+02  0.21756237196E+03  0.00000000000E+00 0.  1.
          2    1    6    6  503    0  0.42455029758E+03 -0.50599574624E+03  0.26049289254E+03  0.71002196970E+03  0.00000000000E+00 0. -1.
         -2    1    6    6    0  503  0.65940653223E+03 -0.97464477956E+03  0.47182703056E+03  0.12678210315E+04  0.00000000000E+00 0.  1.
<mgrwt>
<rscale>  0 0.21540868E+04</rscale>
<asrwt>0</asrwt>
<pdfrwt beam="1">  1        1 0.36106479E+00 0.21540868E+04</pdfrwt>
<pdfrwt beam="2">  1       -1 0.33686980E+00 0.21540868E+04</pdfrwt>
<totfact> 0.28631475E-02</totfact>
</mgrwt>
</event>
<event>
12    1  0.3147868E-008  0.1797007E+04  0.7818608E-02  0.8707892E-01
         -1   -1    0    0    0  501 -0.00000000000E+00  0.00000000000E+00  0.18095198630E+04  0.18095198630E+04  0.00000000000E+00 0.  1.
          1   -1    0    0  501    0  0.00000000000E+00 -0.00000000000E+00 -0.29919860647E+04  0.29919860647E+04  0.00000000000E+00 0. -1.
         23    2    1    2    0    0  0.17355816356E+04  0.24510797572E+03 -0.20976458264E+04  0.27351203063E+04  0.91888753834E+02 0.  0.
    5000000    2    1    2    0    0 -0.17355816356E+04 -0.24510797572E+03  0.91517962473E+03  0.20663856213E+04  0.60006187752E+03 0.  0.
         23    2    4    4    0    0 -0.16308216653E+04 -0.83059401551E+02  0.86591159711E+03  0.18505631824E+04  0.91120963240E+02 0.  0.
         23    2    4    4    0    0 -0.10475997032E+03 -0.16204857417E+03  0.49268027621E+02  0.21582243890E+03  0.83172079554E+02 0.  0.
          5    1    3    3  502    0  0.75017225954E+03  0.13474685527E+03 -0.96672124852E+03  0.12310512566E+04  0.47000000000E+01 0. -1.
         -5    1    3    3    0  502  0.98540937610E+03  0.11036112045E+03 -0.11309245779E+04  0.15040690497E+04  0.47000000000E+01 0.  1.
         13    1    5    5    0    0 -0.59722761073E+03 -0.96066990978E+01  0.27316936119E+03  0.65680636993E+03  0.00000000000E+00 0. -1.
        -13    1    5    5    0    0 -0.10335940546E+04 -0.73452702453E+02  0.59274223592E+03  0.11937568125E+04  0.00000000000E+00 0.  1.
          1    1    6    6  503    0 -0.89862302919E+02 -0.71135657477E+02  0.80382829184E+01  0.11489181539E+03  0.00000000000E+00 0. -1.
         -1    1    6    6    0  503 -0.14897667401E+02 -0.90912916690E+02  0.41229744702E+02  0.10093062352E+03  0.00000000000E+00 0.  1.
<mgrwt>
<rscale>  0 0.17970075E+04</rscale>
<asrwt>0</asrwt>
<pdfrwt beam="1">  1        1 0.46030554E+00 0.17970075E+04</pdfrwt>
<pdfrwt beam="2">  1       -1 0.27838768E+00 0.17970075E+04</pdfrwt>
<totfact> 0.25083118E-02</totfact>
</mgrwt>
</event>
<event>
12    1  0.3147868E-008  0.8438707E+03  0.7818608E-02  0.9498601E-01
          1   -1    0    0  501    0  0.00000000000E+00  0.00000000000E+00  0.61019011797E+03  0.61019011797E+03  0.00000000000E+00 0. -1.
         -1   -1    0    0    0  501 -0.00000000000E+00 -0.00000000000E+00 -0.13370741656E+04  0.13370741656E+04  0.00000000000E+00 0.  1.
         23    2    1    2    0    0 -0.52149882059E+03  0.53123405807E+03 -0.59179739360E+01  0.74979133795E+03  0.89338590331E+02 0.  0.
    5000000    2    1    2    0    0  0.52149882059E+03 -0.53123405807E+03 -0.72096607372E+03  0.11974729457E+04  0.59998227623E+03 0.  0.
         23    2    4    4    0    0  0.59481933884E+03 -0.56267518773E+03 -0.55841216909E+03  0.99521187328E+03  0.90604135584E+02 0.  0.
         23    2    4    4    0    0 -0.73320518253E+02  0.31441129660E+02 -0.16255390463E+03  0.20226107237E+03  0.90118402426E+02 0.  0.
          5    1    3    3  502    0 -0.23887238171E+03  0.18570885925E+03  0.14023460318E+02  0.30292993017E+03  0.47000000000E+01 0.  1.
         -5    1    3    3    0  502 -0.28262643887E+03  0.34552519881E+03 -0.19941434254E+02  0.44686140778E+03  0.47000000000E+01 0. -1.
         13    1    5    5    0    0  0.37720952053E+03 -0.30204276394E+03 -0.35217520283E+03  0.59795002058E+03  0.00000000000E+00 0.  1.
        -13    1    5    5    0    0  0.21760981831E+03 -0.26063242379E+03 -0.20623696626E+03  0.39726185269E+03  0.00000000000E+00 0. -1.
          2    1    6    6  503    0 -0.29024545921E+02 -0.28990477211E+02 -0.85236044784E+02  0.94594161370E+02  0.00000000000E+00 0. -1.
         -2    1    6    6    0  503 -0.44295972332E+02  0.60431606870E+02 -0.77317859844E+02  0.10766691100E+03  0.00000000000E+00 0.  1.
<mgrwt>
<rscale>  0 0.84387068E+03</rscale>
<asrwt>0</asrwt>
<pdfrwt beam="1">  1        1 0.93875404E-01 0.84387068E+03</pdfrwt>
<pdfrwt beam="2">  1       -1 0.20570372E+00 0.84387068E+03</pdfrwt>
<totfact> 0.47036404E+00</totfact>
</mgrwt>
</event>
<event>
12    1  0.3147868E-008  0.1665430E+04  0.7818608E-02  0.8781330E-01
         -2   -1    0    0    0  501 -0.00000000000E+00  0.00000000000E+00  0.22214645283E+04  0.22214645283E+04  0.00000000000E+00 0.  1.
          2   -1    0    0  501    0  0.00000000000E+00 -0.00000000000E+00 -0.13464644686E+04  0.13464644686E+04  0.00000000000E+00 0. -1.
         23    2    1    2    0    0  0.10198816045E+04  0.13137036863E+04  0.20921047662E+03  0.16786517700E+04  0.90149203082E+02 0.  0.
    5000000    2    1    2    0    0 -0.10198816045E+04 -0.13137036863E+04  0.66578958308E+03  0.18892772269E+04  0.60009733262E+03 0.  0.
         23    2    4    4    0    0 -0.94775778489E+03 -0.12301515449E+04  0.74667148061E+03  0.17255863593E+04  0.92802699662E+02 0.  0.
         23    2    4    4    0    0 -0.72123819582E+02 -0.83552141377E+02 -0.80881897534E+02  0.16369086763E+03  0.89833251727E+02 0.  0.
          5    1    3    3  502    0  0.38499736769E+03  0.55361784890E+03  0.11112895421E+03  0.68343794905E+03  0.47000000000E+01 0. -1.
         -5    1    3    3    0  502  0.63488423678E+03  0.76008583740E+03  0.98081522405E+02  0.99521382093E+03  0.47000000000E+01 0.  1.
         13    1    5    5    0    0 -0.63759355059E+03 -0.78061296007E+03  0.52151463673E+03  0.11348390395E+04  0.00000000000E+00 0. -1.
        -13    1    5    5    0    0 -0.31016423429E+03 -0.44953858485E+03  0.22515684389E+03  0.59074731981E+03  0.00000000000E+00 0.  1.
          4    1    6    6  503    0 -0.47982166859E+00 -0.78067958405E+01 -0.55945914754E+02  0.56490013877E+02  0.00000000000E+00 0. -1.
         -4    1    6    6    0  503 -0.71643997914E+02 -0.75745345537E+02 -0.24935982780E+02  0.10720085375E+03  0.00000000000E+00 0.  1.
<mgrwt>
<rscale>  0 0.16654297E+04</rscale>
<asrwt>0</asrwt>
<pdfrwt beam="1">  1        2 0.20714838E+00 0.16654297E+04</pdfrwt>
<pdfrwt beam="2">  1       -2 0.34176378E+00 0.16654297E+04</pdfrwt>
<totfact> 0.25255498E-01</totfact>
</mgrwt>
</event>
<event>
12    1  0.3147868E-008  0.4892905E+03  0.7818608E-02  0.1016613E+00
         -2   -1    0    0    0  501 -0.00000000000E+00  0.00000000000E+00  0.73397749019E+02  0.73397749019E+02  0.00000000000E+00 0.  1.
          2   -1    0    0  501    0  0.00000000000E+00 -0.00000000000E+00 -0.35869162457E+04  0.35869162457E+04  0.00000000000E+00 0. -1.
         23    2    1    2    0    0 -0.30803773955E+03  0.76102056018E+02 -0.14949009696E+04  0.15309006329E+04  0.90824375518E+02 0.  0.
    5000000    2    1    2    0    0  0.30803773955E+03 -0.76102056018E+02 -0.20186175271E+04  0.21294133618E+04  0.59908744992E+03 0.  0.
         23    2    4    4    0    0  0.41697833526E+03  0.10128984392E+03 -0.15033973318E+04  0.15662939037E+04  0.94564745756E+02 0.  0.
         23    2    4    4    0    0 -0.10894059571E+03 -0.17739189994E+03 -0.51522019536E+03  0.56311945807E+03  0.91190650782E+02 0.  0.
          5    1    3    3  502    0 -0.73957846008E+02  0.59010075042E+02 -0.39050281354E+03  0.40182893043E+03  0.47000000000E+01 0. -1.
         -5    1    3    3    0  502 -0.23407989354E+03  0.17091980976E+02 -0.11043981560E+04  0.11290717025E+04  0.47000000000E+01 0.  1.
         13    1    5    5    0    0  0.96470844569E+02  0.59635942134E+02 -0.31776339205E+03  0.33739686242E+03  0.00000000000E+00 0.  1.
        -13    1    5    5    0    0  0.32050749069E+03  0.41653901786E+02 -0.11856339397E+04  0.12288970413E+04  0.00000000000E+00 0. -1.
          2    1    6    6  503    0 -0.11229589962E+03 -0.17615694411E+03 -0.51803353682E+03  0.55856994486E+03  0.00000000000E+00 0. -1.
         -2    1    6    6    0  503  0.33553039128E+01 -0.12349558317E+01  0.28133414610E+01  0.45495132080E+01  0.00000000000E+00 0.  1.
<mgrwt>
<rscale>  0 0.48929053E+03</rscale>
<asrwt>0</asrwt>
<pdfrwt beam="1">  1        2 0.55183324E+00 0.48929053E+03</pdfrwt>
<pdfrwt beam="2">  1       -2 0.11291962E-01 0.48929053E+03</pdfrwt>
<totfact> 0.45132479E+01</totfact>
</mgrwt>
</event>
<event>
12    1  0.3461528E-008  0.8044010E+03  0.7818608E-02  0.9553669E-01
          1   -1    0    0  501    0  0.00000000000E+00  0.00000000000E+00  0.94601560051E+03  0.94601560051E+03  0.00000000000E+00 0. -1.
         -1   -1    0    0    0  501 -0.00000000000E+00 -0.00000000000E+00 -0.74928591666E+03  0.74928591666E+03  0.00000000000E+00 0.  1.
         23    2    1    2    0    0 -0.37573017249E+03 -0.59107363037E+03  0.29992368587E+03  0.76760580743E+03  0.93398389761E+02 0.  0.
    5000000    2    1    2    0    0  0.37573017249E+03  0.59107363037E+03 -0.10319400202E+03  0.92769570975E+03  0.59952408525E+03 0.  0.
         23    2    4    4    0    0  0.23382686121E+02  0.53347370227E+03  0.11435344064E+02  0.54167761182E+03  0.90238168347E+02 0.  0.
         23    2    4    4    0    0  0.35234748637E+03  0.57599928096E+02 -0.11462934609E+03  0.38601809793E+03  0.91671053637E+02 0.  0.
          5    1    3    3  502    0 -0.13970820548E+03 -0.30191696596E+03  0.15709396015E+03  0.36793048165E+03  0.47000000000E+01 0. -1.
         -5    1    3    3    0  502 -0.23602196701E+03 -0.28915666441E+03  0.14282972573E+03  0.39967532578E+03  0.47000000000E+01 0.  1.
         13    1    5    5    0    0  0.21502277417E+02  0.26915459529E+03  0.49849199855E+02  0.27457510234E+03  0.00000000000E+00 0.  1.
        -13    1    5    5    0    0  0.18804087043E+01  0.26431910698E+03 -0.38413855790E+02  0.26710250948E+03  0.00000000000E+00 0. -1.
          3    1    6    6  503    0  0.28286950835E+03  0.82522378053E+02 -0.87508888307E+02  0.30738072023E+03  0.00000000000E+00 0. -1.
         -3    1    6    6    0  503  0.69477978020E+02 -0.24922449956E+02 -0.27120457781E+02  0.78637377701E+02  0.00000000000E+00 0.  1.
<mgrwt>
<rscale>  0 0.80440099E+03</rscale>
<asrwt>0</asrwt>
<pdfrwt beam="1">  1        1 0.14554086E+00 0.80440099E+03</pdfrwt>
<pdfrwt beam="2">  1       -1 0.11527476E+00 0.80440099E+03</pdfrwt>
<totfact> 0.11670861E+01</totfact>
</mgrwt>
</event>
<event>
12    1  0.3147868E-008  0.6380380E+03  0.7818608E-02  0.9829488E-01
          2   -1    0    0  501    0  0.00000000000E+00  0.00000000000E+00  0.44448046168E+03  0.44448046168E+03  0.00000000000E+00 0. -1.
         -2   -1    0    0    0  501 -0.00000000000E+00 -0.00000000000E+00 -0.10471482814E+04  0.10471482814E+04  0.00000000000E+00 0.  1.
         23    2    1    2    0    0 -0.52074338130E+03  0.16386149605E+03 -0.24124633822E+03  0.60349406226E+03  0.89336601794E+02 0.  0.
    5000000    2    1    2    0    0  0.52074338130E+03 -0.16386149605E+03 -0.36142148154E+03  0.88813468086E+03  0.60011121051E+03 0.  0.
         23    2    4    4    0    0  0.50184713978E+03  0.47943188242E+02 -0.40330833919E+03  0.65210918171E+03  0.91867662454E+02 0.  0.
         23    2    4    4    0    0  0.18896241520E+02 -0.21180468430E+03  0.41886857652E+02  0.23602549916E+03  0.93462480034E+02 0.  0.
          5    1    3    3  502    0 -0.34392518819E+03  0.95946255785E+02 -0.20108320971E+03  0.40981308702E+03  0.47000000000E+01 0. -1.
         -5    1    3    3    0  502 -0.17681819311E+03  0.67915240268E+02 -0.40163128512E+02  0.19368097523E+03  0.47000000000E+01 0.  1.
         11    1    5    5    0    0  0.23161635712E+03  0.29445079244E+02 -0.24473193905E+03  0.33824084846E+03  0.00000000000E+00 0.  1.
        -11    1    5    5    0    0  0.27023078266E+03  0.18498108999E+02 -0.15857640014E+03  0.31386833324E+03  0.00000000000E+00 0. -1.
          4    1    6    6  503    0 -0.24406306177E+02 -0.32101489352E+02 -0.14366542749E+02  0.42808538288E+02  0.00000000000E+00 0.  1.
         -4    1    6    6    0  503  0.43302547696E+02 -0.17970319494E+03  0.56253400401E+02  0.19321696087E+03  0.00000000000E+00 0. -1.
<mgrwt>
<rscale>  0 0.63803798E+03</rscale>
<asrwt>0</asrwt>
<pdfrwt beam="1">  1        2 0.68381610E-01 0.63803798E+03</pdfrwt>
<pdfrwt beam="2">  1       -2 0.16109973E+00 0.63803798E+03</pdfrwt>
<totfact> 0.17875625E+01</totfact>
</mgrwt>
</event>
<event>
12    1  0.3147868E-008  0.7634205E+03  0.7818608E-02  0.9614528E-01
          2   -1    0    0  501    0  0.00000000000E+00  0.00000000000E+00  0.29980119615E+04  0.29980119615E+04  0.00000000000E+00 0. -1.
         -2   -1    0    0    0  501 -0.00000000000E+00 -0.00000000000E+00 -0.21390866689E+03  0.21390866689E+03  0.00000000000E+00 0.  1.
         23    2    1    2    0    0 -0.61106408976E+03  0.25927442962E+03  0.15396963064E+04  0.16791934900E+04  0.91670656775E+02 0.  0.
    5000000    2    1    2    0    0  0.61106408976E+03 -0.25927442962E+03  0.12444069882E+04  0.15327271384E+04  0.60006764348E+03 0.  0.
         23    2    4    4    0    0 -0.75988585749E+02 -0.10751360326E+03  0.98623917934E+02  0.18505458724E+03  0.84764869004E+02 0.  0.
         23    2    4    4    0    0  0.68705267551E+03 -0.15176082636E+03  0.11457830703E+04  0.13476725511E+04  0.91267374338E+02 0.  0.
          5    1    3    3  502    0 -0.53785976923E+03  0.19388856465E+03  0.13052432485E+04  0.14249799769E+04  0.47000000000E+01 0. -1.
         -5    1    3    3    0  502 -0.73204320529E+02  0.65385864975E+02  0.23445305790E+03  0.25421351310E+03  0.47000000000E+01 0.  1.
         13    1    5    5    0    0 -0.66518184885E+02 -0.36889171121E+02  0.82076526852E+02  0.11190190403E+03  0.00000000000E+00 0. -1.
        -13    1    5    5    0    0 -0.94704008646E+01 -0.70624432142E+02  0.16547391082E+02  0.73152683201E+02  0.00000000000E+00 0.  1.
          2    1    6    6  503    0  0.29183476012E+03 -0.11080702146E+03  0.50031339930E+03  0.58971113330E+03  0.00000000000E+00 0. -1.
         -2    1    6    6    0  503  0.39521791539E+03 -0.40953804894E+02  0.64546967096E+03  0.75796141783E+03  0.00000000000E+00 0.  1.
<mgrwt>
<rscale>  0 0.76342053E+03</rscale>
<asrwt>0</asrwt>
<pdfrwt beam="1">  1        2 0.46123258E+00 0.76342053E+03</pdfrwt>
<pdfrwt beam="2">  1       -2 0.32909028E-01 0.76342053E+03</pdfrwt>
<totfact> 0.15915838E+01</totfact>
</mgrwt>
</event>
<event>
12    1  0.3899840E-008  0.1088419E+04  0.7818608E-02  0.9216553E-01
          1   -1    0    0  501    0  0.00000000000E+00  0.00000000000E+00  0.18285607558E+04  0.18285607558E+04  0.00000000000E+00 0. -1.
         -1   -1    0    0    0  501 -0.00000000000E+00 -0.00000000000E+00 -0.11008166655E+04  0.11008166655E+04  0.00000000000E+00 0.  1.
         23    2    1    2    0    0 -0.51391745620E+03  0.87525734152E+03 -0.57739153438E+03  0.11705087291E+04  0.80765928062E+02 0.  0.
    5000000    2    1    2    0    0  0.51391745620E+03 -0.87525734152E+03  0.13051356247E+04  0.17588686923E+04  0.60004459192E+03 0.  0.
         23    2    4    4    0    0  0.40666319512E+03 -0.93558373311E+03  0.11573570654E+04  0.15455725890E+04  0.92883664634E+02 0.  0.
         23    2    4    4    0    0  0.10725426108E+03  0.60326391590E+02  0.14777855926E+03  0.21329610327E+03  0.92271203811E+02 0.  0.
          5    1    3    3  502    0 -0.25094572119E+03  0.49308665110E+03 -0.28857467228E+03  0.62402374310E+03  0.47000000000E+01 0. -1.
         -5    1    3    3    0  502 -0.26297173501E+03  0.38217069042E+03 -0.28881686210E+03  0.54648498595E+03  0.47000000000E+01 0.  1.
         13    1    5    5    0    0  0.19824322483E+03 -0.53517290199E+03  0.59512892578E+03  0.82455372749E+03  0.00000000000E+00 0. -1.
        -13    1    5    5    0    0  0.20841997029E+03 -0.40041083113E+03  0.56222813966E+03  0.72101886156E+03  0.00000000000E+00 0.  1.
          1    1    6    6  503    0 -0.66254841415E+01  0.12173688331E+02 -0.67294945086E+01  0.15407200396E+02  0.00000000000E+00 0. -1.
         -1    1    6    6    0  503  0.11387974522E+03  0.48152703259E+02  0.15450805377E+03  0.19788890288E+03  0.00000000000E+00 0.  1.
<mgrwt>
<rscale>  0 0.10884192E+04</rscale>
<asrwt>0</asrwt>
<pdfrwt beam="1">  1        1 0.28131704E+00 0.10884192E+04</pdfrwt>
<pdfrwt beam="2">  1       -1 0.16935641E+00 0.10884192E+04</pdfrwt>
<totfact> 0.96539795E-01</totfact>
</mgrwt>
</event>
<event>
12    1  0.3147868E-008  0.3402285E+03  0.7818608E-02  0.1066699E+00
          2   -1    0    0  501    0  0.00000000000E+00  0.00000000000E+00  0.21006175634E+03  0.21006175634E+03  0.00000000000E+00 0. -1.
         -2   -1    0    0    0  501 -0.00000000000E+00 -0.00000000000E+00 -0.15898759464E+04  0.15898759464E+04  0.00000000000E+00 0.  1.
         23    2    1    2    0    0 -0.25778732735E+03  0.13731590814E+03 -0.47123859153E+02  0.30938292247E+03  0.90482980962E+02 0.  0.
    5000000    2    1    2    0    0  0.25778732735E+03 -0.13731590814E+03 -0.13326903309E+04  0.14905547803E+04  0.60031664157E+03 0.  0.
         23    2    4    4    0    0  0.23030815791E+03  0.35171367163E+01 -0.12918710686E+04  0.13153308299E+04  0.90056183608E+02 0.  0.
         23    2    4    4    0    0  0.27479169435E+02 -0.14083304486E+03 -0.40819262252E+02  0.17522395038E+03  0.91913923527E+02 0.  0.
          5    1    3    3  502    0 -0.13070883749E+03  0.72840548232E+02  0.21337453371E+02  0.15122143559E+03  0.47000000000E+01 0. -1.
         -5    1    3    3    0  502 -0.12707848985E+03  0.64475359912E+02 -0.68461312523E+02  0.15816148688E+03  0.47000000000E+01 0.  1.
         11    1    5    5    0    0  0.22357832819E+03  0.19787451406E+02 -0.11007733930E+04  0.11234237290E+04  0.00000000000E+00 0. -1.
        -11    1    5    5    0    0  0.67298297221E+01 -0.16270314690E+02 -0.19109767558E+03  0.19190710086E+03  0.00000000000E+00 0.  1.
          3    1    6    6  503    0  0.27966570586E+02 -0.71459719530E+02  0.23874222134E+02  0.80365409649E+02  0.00000000000E+00 0. -1.
         -3    1    6    6    0  503 -0.48740115123E+00 -0.69373325331E+02 -0.64693484386E+02  0.94858540730E+02  0.00000000000E+00 0.  1.
<mgrwt>
<rscale>  0 0.34022850E+03</rscale>
<asrwt>0</asrwt>
<pdfrwt beam="1">  1        2 0.32317194E-01 0.34022850E+03</pdfrwt>
<pdfrwt beam="2">  1       -2 0.24459629E+00 0.34022850E+03</pdfrwt>
<totfact> 0.12334532E+01</totfact>
</mgrwt>
</event>
<event>
12    1  0.3147868E-008  0.5911189E+03  0.7818608E-02  0.9924005E-01
          1   -1    0    0  501    0  0.00000000000E+00  0.00000000000E+00  0.38713861966E+03  0.38713861966E+03  0.00000000000E+00 0. -1.
         -1   -1    0    0    0  501 -0.00000000000E+00 -0.00000000000E+00 -0.11196387747E+04  0.11196387747E+04  0.00000000000E+00 0.  1.
         23    2    1    2    0    0  0.16303353864E+03 -0.48170491374E+03 -0.39839867460E+03  0.65231032318E+03  0.90375301723E+02 0.  0.
    5000000    2    1    2    0    0 -0.16303353864E+03  0.48170491374E+03 -0.33410148047E+03  0.85446707122E+03  0.59989217190E+03 0.  0.
         23    2    4    4    0    0 -0.19769201515E+03  0.53105309687E+03 -0.82159286791E+02  0.57979526451E+03  0.91174973531E+02 0.  0.
         23    2    4    4    0    0  0.34658476516E+02 -0.49348183129E+02 -0.25194219368E+03  0.27467180671E+03  0.91286796801E+02 0.  0.
          5    1    3    3  502    0  0.17354402252E+02 -0.91543532751E+02 -0.11709241749E+03  0.14971345263E+03  0.47000000000E+01 0. -1.
         -5    1    3    3    0  502  0.14567913638E+03 -0.39016138099E+03 -0.28130625711E+03  0.50259687055E+03  0.47000000000E+01 0.  1.
         11    1    5    5    0    0 -0.14891040344E+02  0.12754910500E+03  0.41613780779E+01  0.12848281728E+03  0.00000000000E+00 0.  1.
        -11    1    5    5    0    0 -0.18280097481E+03  0.40350399187E+03 -0.86320664869E+02  0.45131244723E+03  0.00000000000E+00 0. -1.
          4    1    6    6  503    0 -0.67013566982E+01 -0.58341693528E+02 -0.91369117484E+02  0.10861388960E+03  0.00000000000E+00 0. -1.
         -4    1    6    6    0  503  0.41359833215E+02  0.89935103994E+01 -0.16057307620E+03  0.16605791710E+03  0.00000000000E+00 0.  1.
<mgrwt>
<rscale>  0 0.59111887E+03</rscale>
<asrwt>0</asrwt>
<pdfrwt beam="1">  1        1 0.59559788E-01 0.59111887E+03</pdfrwt>
<pdfrwt beam="2">  1       -1 0.17225212E+00 0.59111887E+03</pdfrwt>
<totfact> 0.15561589E+01</totfact>
</mgrwt>
</event>
<event>
12    1  0.3147868E-008  0.9431938E+03  0.7818608E-02  0.9373142E-01
          1   -1    0    0  501    0  0.00000000000E+00  0.00000000000E+00  0.17019081967E+04  0.17019081967E+04  0.00000000000E+00 0. -1.
         -1   -1    0    0    0  501 -0.00000000000E+00 -0.00000000000E+00 -0.18114721201E+04  0.18114721201E+04  0.00000000000E+00 0.  1.
         23    2    1    2    0    0 -0.64329897138E+03  0.56171702805E+03  0.14212938292E+04  0.16605735613E+04  0.89826597129E+02 0.  0.
    5000000    2    1    2    0    0  0.64329897138E+03 -0.56171702805E+03 -0.15308577525E+04  0.18528067555E+04  0.60000652365E+03 0.  0.
         23    2    4    4    0    0  0.12855357935E+03 -0.48595824889E+03 -0.82915502388E+03  0.97416241432E+03  0.93877118665E+02 0.  0.
         23    2    4    4    0    0  0.51474539203E+03 -0.75758779156E+02 -0.70170272865E+03  0.87864434114E+03  0.94482525331E+02 0.  0.
          5    1    3    3  502    0 -0.32872086448E+03  0.22791234803E+03  0.66509186716E+03  0.77612545822E+03  0.47000000000E+01 0. -1.
         -5    1    3    3    0  502 -0.31457810690E+03  0.33380468002E+03  0.75620196202E+03  0.88444810312E+03  0.47000000000E+01 0.  1.
         11    1    5    5    0    0  0.11741247594E+03 -0.38105468515E+03 -0.58255508643E+03  0.70594531751E+03  0.00000000000E+00 0.  1.
        -11    1    5    5    0    0  0.11141103405E+02 -0.10490356374E+03 -0.24659993745E+03  0.26821709681E+03  0.00000000000E+00 0. -1.
          2    1    6    6  503    0  0.18136535136E+03  0.82099020607E+00 -0.18581768390E+03  0.25965799881E+03  0.00000000000E+00 0. -1.
         -2    1    6    6    0  503  0.33338004067E+03 -0.76579769362E+02 -0.51588504475E+03  0.61898634233E+03  0.00000000000E+00 0.  1.
<mgrwt>
<rscale>  0 0.94319375E+03</rscale>
<asrwt>0</asrwt>
<pdfrwt beam="1">  1        1 0.26183203E+00 0.94319375E+03</pdfrwt>
<pdfrwt beam="2">  1       -1 0.27868802E+00 0.94319375E+03</pdfrwt>
<totfact> 0.22158326E-01</totfact>
</mgrwt>
</event>
<event>
12    1  0.3147868E-008  0.1055616E+04  0.7818608E-02  0.9249565E-01
         -1   -1    0    0    0  501 -0.00000000000E+00  0.00000000000E+00  0.17477790727E+04  0.17477790727E+04  0.00000000000E+00 0.  1.
          1   -1    0    0  501    0  0.00000000000E+00 -0.00000000000E+00 -0.10989818022E+04  0.10989818022E+04  0.00000000000E+00 0. -1.
         23    2    1    2    0    0 -0.97948614743E+03 -0.71942502997E+02  0.12143524947E+04  0.15644484485E+04  0.90984228640E+02 0.  0.
    5000000    2    1    2    0    0  0.97948614743E+03  0.71942502997E+02 -0.56555522418E+03  0.12823124265E+04  0.59991967023E+03 0.  0.
         23    2    4    4    0    0  0.89084926737E+03 -0.13327405647E+03 -0.49051299190E+03  0.10295058676E+04  0.88909756605E+02 0.  0.
         23    2    4    4    0    0  0.88636880065E+02  0.20521655947E+03 -0.75042232281E+02  0.25280655891E+03  0.91156386577E+02 0.  0.
          5    1    3    3  502    0 -0.69687504047E+03 -0.69997544179E+02  0.80577641476E+03  0.10676292422E+04  0.47000000000E+01 0. -1.
         -5    1    3    3    0  502 -0.28261110696E+03 -0.19449588183E+01  0.40857607990E+03  0.49681920626E+03  0.47000000000E+01 0.  1.
         11    1    5    5    0    0  0.28455406692E+03 -0.72186787241E+01 -0.12974479784E+03  0.31282077759E+03  0.00000000000E+00 0.  1.
        -11    1    5    5    0    0  0.60629520044E+03 -0.12605537775E+03 -0.36076819405E+03  0.71668508997E+03  0.00000000000E+00 0. -1.
          4    1    6    6  503    0  0.18870069466E+02  0.64571874934E+02 -0.67995853498E+02  0.95650628054E+02  0.00000000000E+00 0. -1.
         -4    1    6    6    0  503  0.69766810599E+02  0.14064468453E+03 -0.70463787829E+01  0.15715593085E+03  0.00000000000E+00 0.  1.
<mgrwt>
<rscale>  0 0.10556156E+04</rscale>
<asrwt>0</asrwt>
<pdfrwt beam="1">  1        1 0.16907412E+00 0.10556156E+04</pdfrwt>
<pdfrwt beam="2">  1       -1 0.26888909E+00 0.10556156E+04</pdfrwt>
<totfact> 0.66867233E-01</totfact>
</mgrwt>
</event>
<event>
12    1  0.3147868E-008  0.8891071E+03  0.7818608E-02  0.9439301E-01
          2   -1    0    0  501    0  0.00000000000E+00  0.00000000000E+00  0.61553754016E+03  0.61553754016E+03  0.00000000000E+00 0. -1.
         -2   -1    0    0    0  501 -0.00000000000E+00 -0.00000000000E+00 -0.13956786138E+04  0.13956786138E+04  0.00000000000E+00 0.  1.
         23    2    1    2    0    0 -0.78598567286E+03 -0.10725355572E+03 -0.60315896371E+03  0.10009351410E+04  0.93774292423E+02 0.  0.
    5000000    2    1    2    0    0  0.78598567286E+03  0.10725355572E+03 -0.17698210995E+03  0.10102810129E+04  0.60005687623E+03 0.  0.
         23    2    4    4    0    0  0.58708771439E+03  0.33155980127E+03 -0.94787984446E+02  0.68633046047E+03  0.86376228035E+02 0.  0.
         23    2    4    4    0    0  0.19889795847E+03 -0.22430624555E+03 -0.82194125506E+02  0.32395055247E+03  0.91183312616E+02 0.  0.
          5    1    3    3  502    0 -0.68076624089E+03 -0.99716756944E+02 -0.48122399467E+03  0.83963368763E+03  0.47000000000E+01 0. -1.
         -5    1    3    3    0  502 -0.10521943196E+03 -0.75367987750E+01 -0.12193496904E+03  0.16130145341E+03  0.47000000000E+01 0.  1.
         11    1    5    5    0    0  0.23587248505E+03  0.18218094120E+03 -0.45880230291E+02  0.30154721035E+03  0.00000000000E+00 0.  1.
        -11    1    5    5    0    0  0.35121522934E+03  0.14937886008E+03 -0.48907754154E+02  0.38478325012E+03  0.00000000000E+00 0. -1.
          4    1    6    6  503    0  0.12414125525E+03 -0.17774196873E+03 -0.23411120746E+02  0.21806269575E+03  0.00000000000E+00 0.  1.
         -4    1    6    6    0  503  0.74756703220E+02 -0.46564276828E+02 -0.58783004760E+02  0.10588785672E+03  0.00000000000E+00 0. -1.
<mgrwt>
<rscale>  0 0.88910709E+03</rscale>
<asrwt>0</asrwt>
<pdfrwt beam="1">  1        2 0.94698083E-01 0.88910709E+03</pdfrwt>
<pdfrwt beam="2">  1       -2 0.21471979E+00 0.88910709E+03</pdfrwt>
<totfact> 0.51668498E+00</totfact>
</mgrwt>
</event>
<event>
12    1  0.3147868E-008  0.1221803E+04  0.7818608E-02  0.9093984E-01
         -2   -1    0    0    0  501 -0.00000000000E+00  0.00000000000E+00  0.61314973734E+03  0.61314973734E+03  0.00000000000E+00 0.  1.
          2   -1    0    0  501    0  0.00000000000E+00 -0.00000000000E+00 -0.30067737632E+04  0.30067737632E+04  0.00000000000E+00 0. -1.
         23    2    1    2    0    0 -0.15310713548E+03  0.11646636115E+04 -0.42917030597E+03  0.12537198328E+04  0.87995140075E+02 0.  0.
    5000000    2    1    2    0    0  0.15310713548E+03 -0.11646636115E+04 -0.19644537199E+04  0.23662036678E+04  0.59996521305E+03 0.  0.
         23    2    4    4    0    0 -0.13633711135E+03 -0.66813062918E+03 -0.13782720970E+04  0.15402699174E+04  0.88380424790E+02 0.  0.
         23    2    4    4    0    0  0.28944424683E+03 -0.49653298232E+03 -0.58618162289E+03  0.82593375037E+03  0.90745195080E+02 0.  0.
          5    1    3    3  502    0 -0.16114944589E+03  0.10293319298E+04 -0.39058657841E+03  0.11126874362E+04  0.47000000000E+01 0. -1.
         -5    1    3    3    0  502  0.80423104110E+01  0.13533168174E+03 -0.38583727559E+02  0.14103239653E+03  0.47000000000E+01 0.  1.
         11    1    5    5    0    0 -0.46051074388E+02 -0.43755913393E+03 -0.88563274404E+03  0.98890042697E+03  0.00000000000E+00 0.  1.
        -11    1    5    5    0    0 -0.90286036959E+02 -0.23057149524E+03 -0.49263935297E+03  0.55136949044E+03  0.00000000000E+00 0. -1.
          3    1    6    6  503    0  0.22824277203E+03 -0.43744071899E+03 -0.46592586284E+03  0.67862806844E+03  0.00000000000E+00 0. -1.
         -3    1    6    6    0  503  0.61201474791E+02 -0.59092263333E+02 -0.12025576005E+03  0.14730568192E+03  0.00000000000E+00 0.  1.
<mgrwt>
<rscale>  0 0.12218029E+04</rscale>
<asrwt>0</asrwt>
<pdfrwt beam="1">  1        2 0.46258057E+00 0.12218029E+04</pdfrwt>
<pdfrwt beam="2">  1       -2 0.94330731E-01 0.12218029E+04</pdfrwt>
<totfact> 0.16152481E+00</totfact>
</mgrwt>
</event>
<event>
12    1  0.3147868E-008  0.1137801E+04  0.7818608E-02  0.9169112E-01
         -1   -1    0    0    0  501 -0.00000000000E+00  0.00000000000E+00  0.12067900871E+04  0.12067900871E+04  0.00000000000E+00 0.  1.
          1   -1    0    0  501    0  0.00000000000E+00 -0.00000000000E+00 -0.14281054756E+04  0.14281054756E+04  0.00000000000E+00 0. -1.
         23    2    1    2    0    0  0.54551972655E+03 -0.98077476846E+03 -0.63994929920E+03  0.12950625171E+04  0.90226931919E+02 0.  0.
    5000000    2    1    2    0    0 -0.54551972655E+03  0.98077476846E+03  0.41863391073E+03  0.13398330455E+04  0.60032268006E+03 0.  0.
         23    2    4    4    0    0 -0.21893652073E+03  0.19260359159E+03 -0.11817758378E+03  0.32753630005E+03  0.91020563283E+02 0.  0.
         23    2    4    4    0    0 -0.32658320582E+03  0.78817117688E+03  0.53681149452E+03  0.10122967455E+04  0.93315196553E+02 0.  0.
          5    1    3    3  502    0  0.28290254059E+03 -0.44164883118E+03 -0.26329139312E+03  0.58688328078E+03  0.47000000000E+01 0. -1.
         -5    1    3    3    0  502  0.26261718595E+03 -0.53912593728E+03 -0.37665790608E+03  0.70817923637E+03  0.47000000000E+01 0.  1.
         13    1    5    5    0    0 -0.19780809720E+03  0.15501324064E+03 -0.65974251062E+02  0.25982638414E+03  0.00000000000E+00 0.  1.
        -13    1    5    5    0    0 -0.21128423524E+02  0.37590350943E+02 -0.52203332721E+02  0.67709915905E+02  0.00000000000E+00 0. -1.
          1    1    6    6  503    0  0.48433291184E+01  0.88784305267E+01  0.95723915174E+00  0.10158773172E+02  0.00000000000E+00 0. -1.
         -1    1    6    6    0  503 -0.33142653494E+03  0.77929274635E+03  0.53585425537E+03  0.10021379723E+04  0.00000000000E+00 0.  1.
<mgrwt>
<rscale>  0 0.11378009E+04</rscale>
<asrwt>0</asrwt>
<pdfrwt beam="1">  1        1 0.21970853E+00 0.11378009E+04</pdfrwt>
<pdfrwt beam="2">  1       -1 0.18566001E+00 0.11378009E+04</pdfrwt>
<totfact> 0.13746133E+00</totfact>
</mgrwt>
</event>
<event>
12    1  0.3147868E-008  0.1092750E+04  0.7818608E-02  0.9212287E-01
         -2   -1    0    0    0  501 -0.00000000000E+00  0.00000000000E+00  0.46439749720E+03  0.46439749720E+03  0.00000000000E+00 0.  1.
          2   -1    0    0  501    0  0.00000000000E+00 -0.00000000000E+00 -0.29053319170E+04  0.29053319170E+04  0.00000000000E+00 0. -1.
         23    2    1    2    0    0 -0.85166965224E+03  0.66147030244E+03 -0.10126501114E+04  0.14821772127E+04  0.92221929131E+02 0.  0.
    5000000    2    1    2    0    0  0.85166965224E+03 -0.66147030244E+03 -0.14282843084E+04  0.18875522015E+04  0.59997757470E+03 0.  0.
         23    2    4    4    0    0  0.74848713624E+03 -0.64066808362E+03 -0.14382938440E+04  0.17456280609E+04  0.88541284280E+02 0.  0.
         23    2    4    4    0    0  0.10318251600E+03 -0.20802218818E+02  0.10009535589E+02  0.14192414054E+03  0.94672630407E+02 0.  0.
          5    1    3    3  502    0 -0.47526696251E+03  0.42217238486E+03 -0.61806023251E+03  0.88663901854E+03  0.47000000000E+01 0. -1.
         -5    1    3    3    0  502 -0.37640268973E+03  0.23929791758E+03 -0.39458987890E+03  0.59553819418E+03  0.47000000000E+01 0.  1.
         11    1    5    5    0    0  0.50361787367E+03 -0.46484227136E+03 -0.94160296377E+03  0.11646138593E+04  0.00000000000E+00 0. -1.
        -11    1    5    5    0    0  0.24486926256E+03 -0.17582581226E+03 -0.49669088020E+03  0.58101420161E+03  0.00000000000E+00 0.  1.
          2    1    6    6  503    0 -0.42049217189E+01  0.49472740734E+01 -0.25194110383E+02  0.26017303576E+02  0.00000000000E+00 0. -1.
         -2    1    6    6    0  503  0.10738743772E+03 -0.25749492892E+02  0.35203645971E+02  0.11590683696E+03  0.00000000000E+00 0.  1.
<mgrwt>
<rscale>  0 0.10927502E+04</rscale>
<asrwt>0</asrwt>
<pdfrwt beam="1">  1        2 0.44697415E+00 0.10927502E+04</pdfrwt>
<pdfrwt beam="2">  1       -2 0.71445768E-01 0.10927502E+04</pdfrwt>
<totfact> 0.35677934E+00</totfact>
</mgrwt>
</event>
<event>
12    1  0.3147868E-008  0.1018200E+04  0.7818608E-02  0.9288805E-01
         -2   -1    0    0    0  501 -0.00000000000E+00  0.00000000000E+00  0.74104029031E+03  0.74104029031E+03  0.00000000000E+00 0.  1.
          2   -1    0    0  501    0  0.00000000000E+00 -0.00000000000E+00 -0.16607655794E+04  0.16607655794E+04  0.00000000000E+00 0. -1.
         23    2    1    2    0    0 -0.10031983458E+04 -0.54510215574E+02 -0.20211921716E+03  0.10288922472E+04  0.91590358505E+02 0.  0.
    5000000    2    1    2    0    0  0.10031983458E+04  0.54510215574E+02 -0.71760607191E+03  0.13729136224E+04  0.60046236814E+03 0.  0.
         23    2    4    4    0    0  0.82799758547E+03  0.11262886200E+03 -0.27391036437E+03  0.88398377012E+03  0.90195099779E+02 0.  0.
         23    2    4    4    0    0  0.17520076037E+03 -0.58118646426E+02 -0.44369570754E+03  0.48892985233E+03  0.90074614142E+02 0.  0.
          5    1    3    3  502    0 -0.20991798319E+03 -0.22914126766E+02 -0.69488399867E+01  0.21133147718E+03  0.47000000000E+01 0.  1.
         -5    1    3    3    0  502 -0.79328036266E+03 -0.31596088808E+02 -0.19517037718E+03  0.81756077005E+03  0.47000000000E+01 0.  1.
         11    1    5    5    0    0  0.51766636728E+03  0.93909804383E+02 -0.13312124027E+03  0.54269584832E+03  0.00000000000E+00 0.  1.
        -11    1    5    5    0    0  0.31033121819E+03  0.18719057617E+02 -0.14078912410E+03  0.34128792180E+03  0.00000000000E+00 0. -1.
          2    1    6    6  503    0  0.13970190739E+03 -0.18285144618E+02 -0.23941275466E+03  0.27779387419E+03  0.00000000000E+00 0. -1.
         -2    1    6    6    0  503  0.35498852984E+02 -0.39833501808E+02 -0.20428295288E+03  0.21113597814E+03  0.00000000000E+00 0.  1.
<mgrwt>
<rscale>  0 0.10182004E+04</rscale>
<asrwt>0</asrwt>
<pdfrwt beam="1">  1        2 0.25550239E+00 0.10182004E+04</pdfrwt>
<pdfrwt beam="2">  1       -2 0.11400620E+00 0.10182004E+04</pdfrwt>
<totfact> 0.61722037E+00</totfact>
</mgrwt>
</event>
<event>
12    1  0.3147868E-008  0.6273841E+03  0.7818608E-02  0.9850167E-01
         -1   -1    0    0    0  501 -0.00000000000E+00  0.00000000000E+00  0.32088036961E+03  0.32088036961E+03  0.00000000000E+00 0.  1.
          1   -1    0    0  501    0  0.00000000000E+00 -0.00000000000E+00 -0.13158807407E+04  0.13158807407E+04  0.00000000000E+00 0. -1.
         23    2    1    2    0    0 -0.21941535614E+03 -0.45624283846E+03 -0.41225823432E+03  0.65903295119E+03  0.89816217028E+02 0.  0.
    5000000    2    1    2    0    0  0.21941535614E+03  0.45624283846E+03 -0.58274213674E+03  0.97772815909E+03  0.60005277183E+03 0.  0.
         23    2    4    4    0    0 -0.16054648515E+03  0.44096307632E+02 -0.26760711154E+03  0.32842141218E+03  0.92343920151E+02 0.  0.
         23    2    4    4    0    0  0.37996184129E+03  0.41214653083E+03 -0.31513502520E+03  0.64930674691E+03  0.89740758643E+02 0.  0.
          5    1    3    3  502    0 -0.50193809764E+02 -0.18684199424E+03 -0.12510589387E+03  0.23044071696E+03  0.47000000000E+01 0. -1.
         -5    1    3    3    0  502 -0.16922154637E+03 -0.26940084422E+03 -0.28715234045E+03  0.42859223424E+03  0.47000000000E+01 0.  1.
         13    1    5    5    0    0 -0.16418467186E+03  0.36829055917E+02 -0.27149703212E+03  0.31941137156E+03  0.00000000000E+00 0.  1.
        -13    1    5    5    0    0  0.36381867033E+01  0.72672517154E+01  0.38899205729E+01  0.90100406240E+01  0.00000000000E+00 0. -1.
          2    1    6    6  503    0  0.64276531812E+02  0.29796035308E+02 -0.26886537111E+02  0.75777055496E+02  0.00000000000E+00 0. -1.
         -2    1    6    6    0  503  0.31568530948E+03  0.38235049552E+03 -0.28824848809E+03  0.57352969141E+03  0.00000000000E+00 0.  1.
<mgrwt>
<rscale>  0 0.62738413E+03</rscale>
<asrwt>0</asrwt>
<pdfrwt beam="1">  1        1 0.20244319E+00 0.62738413E+03</pdfrwt>
<pdfrwt beam="2">  1       -1 0.49366210E-01 0.62738413E+03</pdfrwt>
<totfact> 0.37843908E+01</totfact>
</mgrwt>
</event>
<event>
12    1  0.3147868E-008  0.3710922E+03  0.7818608E-02  0.1054276E+00
          1   -1    0    0  501    0  0.00000000000E+00  0.00000000000E+00  0.51069308793E+03  0.51069308793E+03  0.00000000000E+00 0. -1.
         -1   -1    0    0    0  501 -0.00000000000E+00 -0.00000000000E+00 -0.53266628877E+03  0.53266628877E+03  0.00000000000E+00 0.  1.
         23    2    1    2    0    0  0.21800694178E+03  0.25531010254E+03 -0.67309060998E+02  0.35425750631E+03  0.90871315394E+02 0.  0.
    5000000    2    1    2    0    0 -0.21800694178E+03 -0.25531010254E+03  0.45335860157E+02  0.68910187039E+03  0.60007980505E+03 0.  0.
         23    2    4    4    0    0 -0.85523726453E+02 -0.95274129514E+01 -0.24528459701E+03  0.27573374312E+03  0.91975454239E+02 0.  0.
         23    2    4    4    0    0 -0.13248321532E+03 -0.24578268959E+03  0.29062045716E+03  0.41336812727E+03  0.91934899120E+02 0.  0.
          5    1    3    3  502    0  0.18786651749E+03  0.23658977473E+03 -0.31752981705E+02  0.30380732668E+03  0.47000000000E+01 0. -1.
         -5    1    3    3    0  502  0.30140424282E+02  0.18720327816E+02 -0.35556079293E+02  0.50450179624E+02  0.47000000000E+01 0.  1.
         11    1    5    5    0    0 -0.97821142518E+02  0.99578658555E+01 -0.16372286521E+03  0.19097987226E+03  0.00000000000E+00 0. -1.
        -11    1    5    5    0    0  0.12297416066E+02 -0.19485278807E+02 -0.81561731798E+02  0.84753870861E+02  0.00000000000E+00 0.  1.
          3    1    6    6  503    0 -0.21147982779E+02 -0.83107114038E+02  0.40315553199E+02  0.94759555767E+02  0.00000000000E+00 0. -1.
         -3    1    6    6    0  503 -0.11133523254E+03 -0.16267557555E+03  0.25030490396E+03  0.31860857150E+03  0.00000000000E+00 0.  1.
<mgrwt>
<rscale>  0 0.37109223E+03</rscale>
<asrwt>0</asrwt>
<pdfrwt beam="1">  1        1 0.78568168E-01 0.37109223E+03</pdfrwt>
<pdfrwt beam="2">  1       -1 0.81948659E-01 0.37109223E+03</pdfrwt>
<totfact> 0.67763649E+01</totfact>
</mgrwt>
</event>
<event>
12    1  0.3147868E-008  0.1283489E+04  0.7818608E-02  0.9042762E-01
         -2   -1    0    0    0  501 -0.00000000000E+00  0.00000000000E+00  0.21157953576E+04  0.21157953576E+04  0.00000000000E+00 0. -1.
          2   -1    0    0  501    0  0.00000000000E+00 -0.00000000000E+00 -0.99916280839E+03  0.99916280839E+03  0.00000000000E+00 0.  1.
         23    2    1    2    0    0  0.45024159776E+03 -0.11945807498E+04 -0.55534233524E+02  0.12809456375E+04  0.89426008900E+02 0.  0.
    5000000    2    1    2    0    0 -0.45024159776E+03  0.11945807498E+04  0.11721667828E+04  0.18340125285E+04  0.59990526253E+03 0.  0.
         23    2    4    4    0    0 -0.11151218614E+03  0.41354272219E+03  0.77502360454E+03  0.89011302590E+03  0.90482377031E+02 0.  0.
         23    2    4    4    0    0 -0.33872941162E+03  0.78103802759E+03  0.39714317824E+03  0.94389950261E+03  0.92008435343E+02 0.  0.
          5    1    3    3  502    0  0.41780154827E+03 -0.11014038901E+04 -0.74575806509E+02  0.11803526184E+04  0.47000000000E+01 0. -1.
         -5    1    3    3    0  502  0.32440049483E+02 -0.93176859730E+02  0.19041572986E+02  0.10059301915E+03  0.47000000000E+01 0.  1.
         11    1    5    5    0    0 -0.12605235029E+03  0.36045288163E+03  0.65764453762E+03  0.76046815368E+03  0.00000000000E+00 0.  1.
        -11    1    5    5    0    0  0.14540164155E+02  0.53089840559E+02  0.11737906691E+03  0.12964487222E+03  0.00000000000E+00 0. -1.
          1    1    6    6  503    0 -0.56781358810E+02  0.83862527803E+02  0.22626380031E+02  0.10377378933E+03  0.00000000000E+00 0. -1.
         -1    1    6    6    0  503 -0.28194805281E+03  0.69717549979E+03  0.37451679820E+03  0.84012571329E+03  0.00000000000E+00 0.  1.
<mgrwt>
<rscale>  0 0.12834891E+04</rscale>
<asrwt>0</asrwt>
<pdfrwt beam="1">  1        2 0.15371736E+00 0.12834891E+04</pdfrwt>
<pdfrwt beam="2">  1       -2 0.32550698E+00 0.12834891E+04</pdfrwt>
<totfact> 0.54193467E-01</totfact>
</mgrwt>
</event>
<event>
12    1  0.3147868E-008  0.7639121E+03  0.7818608E-02  0.9613774E-01
         -2   -1    0    0    0  501 -0.00000000000E+00  0.00000000000E+00  0.59897893852E+03  0.59897893852E+03  0.00000000000E+00 0.  1.
          2   -1    0    0  501    0  0.00000000000E+00 -0.00000000000E+00 -0.11852132663E+04  0.11852132663E+04  0.00000000000E+00 0. -1.
         23    2    1    2    0    0  0.66185541388E+02  0.67823315217E+03 -0.53937178262E+03  0.87381828382E+03  0.90861095490E+02 0.  0.
    5000000    2    1    2    0    0 -0.66185541388E+02 -0.67823315217E+03 -0.46862545176E+02  0.91037392102E+03  0.60183373397E+03 0.  0.
         23    2    4    4    0    0 -0.21029680488E+03 -0.66226891468E+03 -0.14331807905E+03  0.71475226628E+03  0.86636417698E+02 0.  0.
         23    2    4    4    0    0  0.14411126349E+03 -0.15964237486E+02  0.96455533874E+02  0.19562165474E+03  0.89113683832E+02 0.  0.
          5    1    3    3  502    0  0.33598820162E+02  0.52824832948E+03 -0.37389094739E+03  0.64806767305E+03  0.47000000000E+01 0. -1.
         -5    1    3    3    0  502  0.32586721225E+02  0.14998482269E+03 -0.16548083522E+03  0.22575061077E+03  0.47000000000E+01 0.  1.
         13    1    5    5    0    0 -0.63321129507E+02 -0.33832879091E+03 -0.59856433947E+02  0.34936904397E+03  0.00000000000E+00 0. -1.
        -13    1    5    5    0    0 -0.14697567537E+03 -0.32394012377E+03 -0.83461645104E+02  0.36538322231E+03  0.00000000000E+00 0.  1.
          2    1    6    6  503    0  0.46337820366E+02 -0.42493909041E+01 -0.13074120142E+02  0.48334082559E+02  0.00000000000E+00 0. -1.
         -2    1    6    6    0  503  0.97773443124E+02 -0.11714846582E+02  0.10952965402E+03  0.14728757218E+03  0.00000000000E+00 0.  1.
<mgrwt>
<rscale>  0 0.76391211E+03</rscale>
<asrwt>0</asrwt>
<pdfrwt beam="1">  1        2 0.18234050E+00 0.76391211E+03</pdfrwt>
<pdfrwt beam="2">  1       -2 0.92150606E-01 0.76391211E+03</pdfrwt>
<totfact> 0.19678162E+01</totfact>
</mgrwt>
</event>
<event>
12    1  0.3147868E-008  0.6372135E+03  0.7818608E-02  0.9831072E-01
          1   -1    0    0  501    0  0.00000000000E+00  0.00000000000E+00  0.58105636528E+03  0.58105636528E+03  0.00000000000E+00 0.  1.
         -1   -1    0    0    0  501 -0.00000000000E+00 -0.00000000000E+00 -0.85704883163E+03  0.85704883163E+03  0.00000000000E+00 0. -1.
         23    2    1    2    0    0  0.53079673849E+03  0.62495402801E+02  0.99785086831E+02  0.55106789007E+03  0.89821506006E+02 0.  0.
    5000000    2    1    2    0    0 -0.53079673849E+03 -0.62495402801E+02 -0.37577755318E+03  0.88703730685E+03  0.59997963407E+03 0.  0.
         23    2    4    4    0    0 -0.88541022731E+01  0.14623187796E+03 -0.24945353163E+03  0.30354921323E+03  0.91939671280E+02 0.  0.
         23    2    4    4    0    0 -0.52194263622E+03 -0.20872728076E+03 -0.12632402155E+03  0.58348809361E+03  0.92246429370E+02 0.  0.
          5    1    3    3  502    0  0.16750031819E+03 -0.21786922320E+02  0.32429001478E+02  0.17206032871E+03  0.47000000000E+01 0. -1.
         -5    1    3    3    0  502  0.36329642030E+03  0.84282325121E+02  0.67356085353E+02  0.37900756136E+03  0.47000000000E+01 0.  1.
         13    1    5    5    0    0  0.31561374477E+02  0.72783550286E+02 -0.17199596572E+03  0.18941007834E+03  0.00000000000E+00 0.  1.
        -13    1    5    5    0    0 -0.40415476750E+02  0.73448327674E+02 -0.77457565904E+02  0.11413913490E+03  0.00000000000E+00 0. -1.
          2    1    6    6  503    0 -0.27119756831E+03 -0.15673584664E+03 -0.59481143479E+02  0.31882950476E+03  0.00000000000E+00 0. -1.
         -2    1    6    6    0  503 -0.25074506791E+03 -0.51991434122E+02 -0.66842878071E+02  0.26465858885E+03  0.00000000000E+00 0.  1.
<mgrwt>
<rscale>  0 0.63721353E+03</rscale>
<asrwt>0</asrwt>
<pdfrwt beam="1">  1        1 0.89393287E-01 0.63721353E+03</pdfrwt>
<pdfrwt beam="2">  1       -1 0.13185367E+00 0.63721353E+03</pdfrwt>
<totfact> 0.18270159E+01</totfact>
</mgrwt>
</event>
<event>
12    1  0.3147868E-008  0.9992687E+03  0.7818608E-02  0.9309347E-01
         -2   -1    0    0    0  501 -0.00000000000E+00  0.00000000000E+00  0.14148819044E+04  0.14148819044E+04  0.00000000000E+00 0.  1.
          2   -1    0    0  501    0  0.00000000000E+00 -0.00000000000E+00 -0.14087203844E+04  0.14087203844E+04  0.00000000000E+00 0. -1.
         23    2    1    2    0    0  0.35135072468E+03 -0.85842878595E+03 -0.97314386627E+03  0.13473371961E+04  0.89225687588E+02 0.  0.
    5000000    2    1    2    0    0 -0.35135072468E+03  0.85842878595E+03  0.97930538634E+03  0.14762650927E+04  0.59997689280E+03 0.  0.
         23    2    4    4    0    0 -0.47751068813E+03  0.52424567594E+03  0.50562471616E+03  0.87561803288E+03  0.90557163660E+02 0.  0.
         23    2    4    4    0    0  0.12615996345E+03  0.33418311000E+03  0.47368067018E+03  0.60064705981E+03  0.93855344865E+02 0.  0.
          5    1    3    3  502    0  0.34030469252E+02 -0.94197177155E+02 -0.14776107480E+03  0.17856821175E+03  0.47000000000E+01 0. -1.
         -5    1    3    3    0  502  0.31732025543E+03 -0.76423160879E+03 -0.82538279148E+03  0.11687689844E+04  0.47000000000E+01 0.  1.
         11    1    5    5    0    0 -0.28829335620E+03  0.37202109527E+03  0.30746543821E+03  0.56218124323E+03  0.00000000000E+00 0. -1.
        -11    1    5    5    0    0 -0.18921733194E+03  0.15222458068E+03  0.19815927795E+03  0.31343678965E+03  0.00000000000E+00 0.  1.
          3    1    6    6  503    0  0.85446303275E+02  0.21733521014E+03  0.23226250181E+03  0.32936535042E+03  0.00000000000E+00 0. -1.
         -3    1    6    6    0  503  0.40713660178E+02  0.11684789986E+03  0.24141816837E+03  0.27128170938E+03  0.00000000000E+00 0.  1.
<mgrwt>
<rscale>  0 0.99926873E+03</rscale>
<asrwt>0</asrwt>
<pdfrwt beam="1">  1        2 0.21672621E+00 0.99926873E+03</pdfrwt>
<pdfrwt beam="2">  1       -2 0.21767414E+00 0.99926873E+03</pdfrwt>
<totfact> 0.14546142E+00</totfact>
</mgrwt>
</event>
<event>
12    1  0.3147868E-008  0.4217194E+03  0.7818608E-02  0.1036508E+00
         -2   -1    0    0    0  501 -0.00000000000E+00  0.00000000000E+00  0.42602725025E+03  0.42602725025E+03  0.00000000000E+00 0.  1.
          2   -1    0    0  501    0  0.00000000000E+00 -0.00000000000E+00 -0.83714406849E+03  0.83714406849E+03  0.00000000000E+00 0. -1.
         23    2    1    2    0    0  0.31209646228E+02  0.40157253711E+03 -0.34423505710E+03  0.53746785206E+03  0.90218473018E+02 0.  0.
    5000000    2    1    2    0    0 -0.31209646228E+02 -0.40157253711E+03 -0.66881761135E+02  0.72570346668E+03  0.59994817026E+03 0.  0.
         23    2    4    4    0    0 -0.22902257651E+02 -0.11350444838E+03  0.24761777415E+03  0.28934062405E+03  0.94845460850E+02 0.  0.
         23    2    4    4    0    0 -0.83073885764E+01 -0.28806808873E+03 -0.31449953528E+03  0.43636284264E+03  0.91925710716E+02 0.  0.
          5    1    3    3  502    0 -0.26030575916E+02  0.22777617827E+03 -0.17939533613E+03  0.29114318624E+03  0.47000000000E+01 0. -1.
         -5    1    3    3    0  502  0.57240222144E+02  0.17379635885E+03 -0.16483972097E+03  0.24632466582E+03  0.47000000000E+01 0.  1.
         11    1    5    5    0    0  0.25142331124E+02 -0.71804528832E+02  0.81664483580E+02  0.11161144679E+03  0.00000000000E+00 0.  1.
        -11    1    5    5    0    0 -0.48044588775E+02 -0.41699919549E+02  0.16595329057E+03  0.17772917726E+03  0.00000000000E+00 0. -1.
          2    1    6    6  503    0 -0.23702955594E+02 -0.23340849143E+03 -0.19892655870E+03  0.30759247346E+03  0.00000000000E+00 0.  1.
         -2    1    6    6    0  503  0.15395567018E+02 -0.54659597305E+02 -0.11557297658E+03  0.12877036917E+03  0.00000000000E+00 0. -1.
<mgrwt>
<rscale>  0 0.42171944E+03</rscale>
<asrwt>0</asrwt>
<pdfrwt beam="1">  1        2 0.12879139E+00 0.42171944E+03</pdfrwt>
<pdfrwt beam="2">  1       -2 0.65542655E-01 0.42171944E+03</pdfrwt>
<totfact> 0.72691482E+01</totfact>
</mgrwt>
</event>
<event>
12    1  0.3147868E-008  0.5948615E+03  0.7818608E-02  0.9916125E-01
          2   -1    0    0  501    0  0.00000000000E+00  0.00000000000E+00  0.48943268165E+03  0.48943268165E+03  0.00000000000E+00 0. -1.
         -2   -1    0    0    0  501 -0.00000000000E+00 -0.00000000000E+00 -0.10854557748E+04  0.10854557748E+04  0.00000000000E+00 0.  1.
         23    2    1    2    0    0  0.29414933136E+03 -0.35272742650E+03 -0.66956146743E+03  0.81574082993E+03  0.78613461953E+02 0.  0.
    5000000    2    1    2    0    0 -0.29414933136E+03  0.35272742650E+03  0.73538374325E+02  0.75914762648E+03  0.59996396538E+03 0.  0.
         23    2    4    4    0    0 -0.12213667380E+03  0.47755837314E+03  0.13417984053E+03  0.51890598759E+03  0.90993557510E+02 0.  0.
         23    2    4    4    0    0 -0.17201265756E+03 -0.12483094664E+03 -0.60641466210E+02  0.24024163889E+03  0.94167606068E+02 0.  0.
          5    1    3    3  502    0  0.19222819164E+03 -0.20785777109E+03 -0.47145007181E+03  0.54994889842E+03  0.47000000000E+01 0. -1.
         -5    1    3    3    0  502  0.10192113973E+03 -0.14486965541E+03 -0.19811139563E+03  0.26579193152E+03  0.47000000000E+01 0.  1.
         13    1    5    5    0    0 -0.74850696352E+01  0.21038231355E+03  0.55194289098E+02  0.21763077372E+03  0.00000000000E+00 0.  1.
        -13    1    5    5    0    0 -0.11465160416E+03  0.26717605959E+03  0.78985551436E+02  0.30127521387E+03  0.00000000000E+00 0. -1.
          3    1    6    6  503    0 -0.30825332106E+02  0.10483394864E+02 -0.25933803535E+02  0.41625290787E+02  0.00000000000E+00 0. -1.
         -3    1    6    6    0  503 -0.14118732546E+03 -0.13531434150E+03 -0.34707662675E+02  0.19861634811E+03  0.00000000000E+00 0.  1.
<mgrwt>
<rscale>  0 0.59486146E+03</rscale>
<asrwt>0</asrwt>
<pdfrwt beam="1">  1        2 0.75297336E-01 0.59486146E+03</pdfrwt>
<pdfrwt beam="2">  1       -2 0.16699320E+00 0.59486146E+03</pdfrwt>
<totfact> 0.14590096E+01</totfact>
</mgrwt>
</event>
<event>
12    1  0.3147868E-008  0.6887816E+03  0.7818608E-02  0.9736612E-01
          2   -1    0    0  501    0  0.00000000000E+00  0.00000000000E+00  0.20668321316E+04  0.20668321316E+04  0.00000000000E+00 0. -1.
         -2   -1    0    0    0  501 -0.00000000000E+00 -0.00000000000E+00 -0.26404265969E+03  0.26404265969E+03  0.00000000000E+00 0.  1.
         23    2    1    2    0    0  0.27831795271E+03 -0.53049741828E+03  0.95913124737E+03  0.11347411780E+04  0.93895675226E+02 0.  0.
    5000000    2    1    2    0    0 -0.27831795271E+03  0.53049741828E+03  0.84365822452E+03  0.11961336133E+04  0.60007335164E+03 0.  0.
         23    2    4    4    0    0 -0.22634265819E+03  0.67158976427E+01  0.66071889392E+02  0.25261701997E+03  0.90408860268E+02 0.  0.
         23    2    4    4    0    0 -0.51975294520E+02  0.52378152063E+03  0.77758633513E+03  0.94351659328E+03  0.92382577464E+02 0.  0.
          5    1    3    3  502    0  0.24280045226E+02 -0.88270869544E+02  0.20228482060E+03  0.22208670750E+03  0.47000000000E+01 0. -1.
         -5    1    3    3    0  502  0.25403790748E+03 -0.44222654873E+03  0.75684642678E+03  0.91265447052E+03  0.47000000000E+01 0.  1.
         13    1    5    5    0    0 -0.87224022038E+02 -0.39540899679E+02  0.39632337965E+02  0.10364475375E+03  0.00000000000E+00 0.  1.
        -13    1    5    5    0    0 -0.13911863615E+03  0.46256797322E+02  0.26439551427E+02  0.14897226622E+03  0.00000000000E+00 0. -1.
          2    1    6    6  503    0  0.24677429311E+02  0.12309762202E+03  0.16041137005E+03  0.20370028892E+03  0.00000000000E+00 0.  1.
         -2    1    6    6    0  503 -0.76652723831E+02  0.40068389862E+03  0.61717496509E+03  0.73981630437E+03  0.00000000000E+00 0. -1.
<mgrwt>
<rscale>  0 0.68878159E+03</rscale>
<asrwt>0</asrwt>
<pdfrwt beam="1">  1        2 0.31797416E+00 0.68878159E+03</pdfrwt>
<pdfrwt beam="2">  1       -2 0.40621949E-01 0.68878159E+03</pdfrwt>
<totfact> 0.36642795E+01</totfact>
</mgrwt>
</event>
<event>
12    1  0.3147868E-008  0.7018207E+03  0.7818608E-02  0.9714124E-01
          1   -1    0    0  501    0  0.00000000000E+00  0.00000000000E+00  0.10556782251E+04  0.10556782251E+04  0.00000000000E+00 0. -1.
         -1   -1    0    0    0  501 -0.00000000000E+00 -0.00000000000E+00 -0.51066391660E+03  0.51066391660E+03  0.00000000000E+00 0.  1.
         23    2    1    2    0    0  0.49786683287E+03 -0.34451517150E+03  0.28007347589E+03  0.67318100664E+03  0.90384894439E+02 0.  0.
    5000000    2    1    2    0    0 -0.49786683287E+03  0.34451517150E+03  0.26494083262E+03  0.89316113508E+03  0.60081701188E+03 0.  0.
         23    2    4    4    0    0  0.22545029348E+02  0.25360755355E+03  0.22998449701E+03  0.35580285891E+03  0.94221738384E+02 0.  0.
         23    2    4    4    0    0 -0.52041186222E+03  0.90907617952E+02  0.34956335619E+02  0.53735827617E+03  0.91865500739E+02 0.  0.
          5    1    3    3  502    0  0.43306831097E+03 -0.31250447357E+03  0.27465054218E+03  0.60055159502E+03  0.47000000000E+01 0. -1.
         -5    1    3    3    0  502  0.64798521899E+02 -0.32010697930E+02  0.54229337173E+01  0.72629411621E+02  0.47000000000E+01 0.  1.
         13    1    5    5    0    0  0.41428262338E+02  0.22646807748E+03  0.16616516341E+03  0.28392772420E+03  0.00000000000E+00 0.  1.
        -13    1    5    5    0    0 -0.18883232990E+02  0.27139476061E+02  0.63819333596E+02  0.71875134711E+02  0.00000000000E+00 0. -1.
          2    1    6    6  503    0 -0.26058470002E+03  0.65067615733E+01  0.42258282775E+02  0.26406909378E+03  0.00000000000E+00 0. -1.
         -2    1    6    6    0  503 -0.25982716220E+03  0.84400856379E+02 -0.73019471551E+01  0.27328918238E+03  0.00000000000E+00 0.  1.
<mgrwt>
<rscale>  0 0.70182075E+03</rscale>
<asrwt>0</asrwt>
<pdfrwt beam="1">  1        1 0.16241203E+00 0.70182075E+03</pdfrwt>
<pdfrwt beam="2">  1       -1 0.78563680E-01 0.70182075E+03</pdfrwt>
<totfact> 0.22991655E+01</totfact>
</mgrwt>
</event>
<event>
12    1  0.3147868E-008  0.6592890E+03  0.7818608E-02  0.9789503E-01
          2   -1    0    0  501    0  0.00000000000E+00  0.00000000000E+00  0.15689874912E+04  0.15689874912E+04  0.00000000000E+00 0. -1.
         -2   -1    0    0    0  501 -0.00000000000E+00 -0.00000000000E+00 -0.37017439171E+03  0.37017439171E+03  0.00000000000E+00 0.  1.
         23    2    1    2    0    0 -0.25660168519E+03  0.48885325725E+03  0.93060776714E+02  0.56522996091E+03  0.77476890631E+02 0.  0.
    5000000    2    1    2    0    0  0.25660168519E+03 -0.48885325725E+03  0.11057523227E+04  0.13739319219E+04  0.60014897729E+03 0.  0.
         23    2    4    4    0    0  0.41789780097E+03 -0.36637068426E+03  0.60219456790E+03  0.82369184527E+03  0.83450032961E+02 0.  0.
         23    2    4    4    0    0 -0.16129611578E+03 -0.12248257299E+03  0.50355775483E+03  0.55024007668E+03  0.90417431294E+02 0.  0.
          5    1    3    3  502    0 -0.12010967292E+03  0.20287027402E+03  0.32466710023E+01  0.23582898991E+03  0.47000000000E+01 0. -1.
         -5    1    3    3    0  502 -0.13649201227E+03  0.28598298323E+03  0.89814105712E+02  0.32940097100E+03  0.47000000000E+01 0.  1.
         11    1    5    5    0    0  0.87961034270E+02 -0.80502692632E+02  0.82628603205E+02  0.14507002839E+03  0.00000000000E+00 0. -1.
        -11    1    5    5    0    0  0.32993676670E+03 -0.28586799163E+03  0.51956596470E+03  0.67862181687E+03  0.00000000000E+00 0.  1.
          1    1    6    6  503    0 -0.69833706139E+02 -0.19878898014E+02  0.97611665051E+02  0.12165506259E+03  0.00000000000E+00 0. -1.
         -1    1    6    6    0  503 -0.91462409644E+02 -0.10260367498E+03  0.40594608978E+03  0.42858501409E+03  0.00000000000E+00 0.  1.
<mgrwt>
<rscale>  0 0.65928903E+03</rscale>
<asrwt>0</asrwt>
<pdfrwt beam="1">  1        2 0.24138269E+00 0.65928903E+03</pdfrwt>
<pdfrwt beam="2">  1       -2 0.56949907E-01 0.65928903E+03</pdfrwt>
<totfact> 0.34744432E+01</totfact>
</mgrwt>
</event>
<event>
12    1  0.3147868E-008  0.2033079E+04  0.7818608E-02  0.8591309E-01
          2   -1    0    0  501    0  0.00000000000E+00  0.00000000000E+00  0.48959036953E+04  0.48959036953E+04  0.00000000000E+00 0.  1.
         -2   -1    0    0    0  501 -0.00000000000E+00 -0.00000000000E+00 -0.88815873443E+03  0.88815873443E+03  0.00000000000E+00 0. -1.
         23    2    1    2    0    0 -0.18947684078E+04  0.61484519713E+03  0.25799620134E+04  0.32608140162E+04  0.92315338225E+02 0.  0.
    5000000    2    1    2    0    0  0.18947684078E+04 -0.61484519713E+03  0.14277829474E+04  0.25232484135E+04  0.60003039577E+03 0.  0.
         23    2    4    4    0    0  0.53939492534E+03 -0.45623598288E+03  0.46871688170E+03  0.85279240268E+03  0.91984831969E+02 0.  0.
         23    2    4    4    0    0  0.13553734825E+04 -0.15860921426E+03  0.95906606572E+03  0.16704560109E+04  0.91768218986E+02 0.  0.
          5    1    3    3  502    0 -0.97065071823E+03  0.28414555876E+03  0.12515263307E+04  0.16091121036E+04  0.47000000000E+01 0. -1.
         -5    1    3    3    0  502 -0.92411768958E+03  0.33069963837E+03  0.13284356827E+04  0.16517019126E+04  0.47000000000E+01 0.  1.
         11    1    5    5    0    0  0.45677102563E+03 -0.39465927461E+03  0.43612583493E+03  0.74471568856E+03  0.00000000000E+00 0. -1.
        -11    1    5    5    0    0  0.82623899715E+02 -0.61576708272E+02  0.32591046771E+02  0.10807671412E+03  0.00000000000E+00 0.  1.
          4    1    6    6  503    0  0.56235213285E+03 -0.29889336983E+02  0.42920452743E+03  0.70806060486E+03  0.00000000000E+00 0. -1.
         -4    1    6    6    0  503  0.79302134962E+03 -0.12871987727E+03  0.52986153829E+03  0.96239540601E+03  0.00000000000E+00 0.  1.
<mgrwt>
<rscale>  0 0.20330793E+04</rscale>
<asrwt>0</asrwt>
<pdfrwt beam="1">  1        2 0.75321594E+00 0.20330793E+04</pdfrwt>
<pdfrwt beam="2">  1       -2 0.13663981E+00 0.20330793E+04</pdfrwt>
<totfact> 0.16089298E-02</totfact>
</mgrwt>
</event>
<event>
12    1  0.4050113E-008  0.8694059E+03  0.7818608E-02  0.9464655E-01
         -1   -1    0    0    0  501 -0.00000000000E+00  0.00000000000E+00  0.34694682238E+03  0.34694682238E+03  0.00000000000E+00 0.  1.
          1   -1    0    0  501    0  0.00000000000E+00 -0.00000000000E+00 -0.26379873015E+04  0.26379873015E+04  0.00000000000E+00 0. -1.
         23    2    1    2    0    0 -0.52584097902E+03  0.68177366690E+03 -0.10277369313E+04  0.13425207969E+04  0.69244654331E+02 0.  0.
    5000000    2    1    2    0    0  0.52584097902E+03 -0.68177366690E+03 -0.12633035479E+04  0.16424133270E+04  0.60021797247E+03 0.  0.
         23    2    4    4    0    0  0.17728043376E+03 -0.36450284983E+03 -0.17025466610E+03  0.44918315306E+03  0.92131286400E+02 0.  0.
         23    2    4    4    0    0  0.34856054527E+03 -0.31727081707E+03 -0.10930488818E+04  0.11932301739E+04  0.82988944645E+02 0.  0.
          5    1    3    3  502    0 -0.23890010617E+03  0.34070595902E+03 -0.45185817892E+03  0.61428960198E+03  0.47000000000E+01 0. -1.
         -5    1    3    3    0  502 -0.28694087286E+03  0.34106770787E+03 -0.57587875233E+03  0.72823119492E+03  0.47000000000E+01 0.  1.
         13    1    5    5    0    0  0.16053512166E+03 -0.32556554846E+03 -0.18076724506E+03  0.40551356144E+03  0.00000000000E+00 0. -1.
        -13    1    5    5    0    0  0.16745312093E+02 -0.38937301375E+02  0.10512578956E+02  0.43669591614E+02  0.00000000000E+00 0.  1.
          1    1    6    6  503    0  0.20202339064E+03 -0.17434672772E+03 -0.51540203476E+03  0.58038736139E+03  0.00000000000E+00 0. -1.
         -1    1    6    6    0  503  0.14653715463E+03 -0.14292408934E+03 -0.57764684702E+03  0.61284281253E+03  0.00000000000E+00 0.  1.
<mgrwt>
<rscale>  0 0.86940590E+03</rscale>
<asrwt>0</asrwt>
<pdfrwt beam="1">  1        1 0.40584419E+00 0.86940590E+03</pdfrwt>
<pdfrwt beam="2">  1       -1 0.53376436E-01 0.86940590E+03</pdfrwt>
<totfact> 0.39994459E+00</totfact>
</mgrwt>
</event>
<event>
12    1  0.3147868E-008  0.1115694E+04  0.7818608E-02  0.9190029E-01
         -2   -1    0    0    0  501 -0.00000000000E+00  0.00000000000E+00  0.55392168933E+03  0.55392168933E+03  0.00000000000E+00 0.  1.
          2   -1    0    0  501    0  0.00000000000E+00 -0.00000000000E+00 -0.24648800752E+04  0.24648800752E+04  0.00000000000E+00 0. -1.
         23    2    1    2    0    0 -0.98165078958E+03  0.47246023040E+03 -0.88617697325E+03  0.14072086210E+04  0.89830580232E+02 0.  0.
    5000000    2    1    2    0    0  0.98165078958E+03 -0.47246023040E+03 -0.10247814126E+04  0.16115931435E+04  0.60016545600E+03 0.  0.
         23    2    4    4    0    0  0.43249253389E+03 -0.33831124000E+02 -0.11414432031E+03  0.45775148095E+03  0.91176508074E+02 0.  0.
         23    2    4    4    0    0  0.54915825569E+03 -0.43862910640E+03 -0.91063709229E+03  0.11538416626E+04  0.90113182341E+02 0.  0.
          5    1    3    3  502    0 -0.82059320673E+03  0.37891098318E+03 -0.69419142286E+03  0.11396800278E+04  0.47000000000E+01 0. -1.
         -5    1    3    3    0  502 -0.16105758285E+03  0.93549247218E+02 -0.19198555039E+03  0.26752859325E+03  0.47000000000E+01 0.  1.
         13    1    5    5    0    0  0.72291184381E+02 -0.74982354870E+01  0.14968015618E+02  0.74204315011E+02  0.00000000000E+00 0.  1.
        -13    1    5    5    0    0  0.36020134951E+03 -0.26332888513E+02 -0.12911233593E+03  0.38354716593E+03  0.00000000000E+00 0. -1.
          1    1    6    6  503    0  0.99511011835E+02 -0.42831875834E+02 -0.11618772089E+03  0.15886030828E+03  0.00000000000E+00 0. -1.
         -1    1    6    6    0  503  0.44964724386E+03 -0.39579723057E+03 -0.79444937141E+03  0.99498135428E+03  0.00000000000E+00 0.  1.
<mgrwt>
<rscale>  0 0.11156939E+04</rscale>
<asrwt>0</asrwt>
<pdfrwt beam="1">  1        2 0.37921233E+00 0.11156939E+04</pdfrwt>
<pdfrwt beam="2">  1       -2 0.85218719E-01 0.11156939E+04</pdfrwt>
<totfact> 0.43463015E+00</totfact>
</mgrwt>
</event>
<event>
12    1  0.3147868E-008  0.5402691E+03  0.7818608E-02  0.1003772E+00
          2   -1    0    0  501    0  0.00000000000E+00  0.00000000000E+00  0.30162658153E+04  0.30162658153E+04  0.00000000000E+00 0. -1.
         -2   -1    0    0    0  501 -0.00000000000E+00 -0.00000000000E+00 -0.14719894909E+03  0.14719894909E+03  0.00000000000E+00 0.  1.
         23    2    1    2    0    0  0.34679414606E+03 -0.22002795539E+03  0.36912095597E+03  0.56004864799E+03  0.93411600347E+02 0.  0.
    5000000    2    1    2    0    0 -0.34679414606E+03  0.22002795539E+03  0.24999459103E+04  0.26034161165E+04  0.59947263502E+03 0.  0.
         23    2    4    4    0    0 -0.40611202316E+03  0.33311801093E+03  0.22205009077E+04  0.22840382962E+04  0.10154837788E+03 0.  0.
         23    2    4    4    0    0  0.59317877096E+02 -0.11309005554E+03  0.27944500261E+03  0.31937782023E+03  0.87204996217E+02 0.  0.
          5    1    3    3  502    0  0.98525004779E+02 -0.11452756359E+03  0.12336008391E+03  0.19509879469E+03  0.47000000000E+01 0. -1.
         -5    1    3    3    0  502  0.24826914128E+03 -0.10550039180E+03  0.24576087206E+03  0.36494985329E+03  0.47000000000E+01 0.  1.
         11    1    5    5    0    0 -0.10203398172E+03  0.13342322887E+03  0.58972789255E+03  0.61318160334E+03  0.00000000000E+00 0.  1.
        -11    1    5    5    0    0 -0.30407804143E+03  0.19969478206E+03  0.16307730151E+04  0.16708566929E+04  0.00000000000E+00 0. -1.
          3    1    6    6  503    0  0.15487732494E+02 -0.35374469359E+02  0.18681940036E+03  0.19076873772E+03  0.00000000000E+00 0. -1.
         -3    1    6    6    0  503  0.43830144602E+02 -0.77715586184E+02  0.92625602246E+02  0.12860908251E+03  0.00000000000E+00 0.  1.
<mgrwt>
<rscale>  0 0.54026910E+03</rscale>
<asrwt>0</asrwt>
<pdfrwt beam="1">  1        2 0.46404085E+00 0.54026910E+03</pdfrwt>
<pdfrwt beam="2">  1       -2 0.22645995E-01 0.54026910E+03</pdfrwt>
<totfact> 0.32020039E+01</totfact>
</mgrwt>
</event>
<event>
12    1  0.3147868E-008  0.5198614E+03  0.7818608E-02  0.1008721E+00
          1   -1    0    0  501    0  0.00000000000E+00  0.00000000000E+00  0.19742837037E+04  0.19742837037E+04  0.00000000000E+00 0. -1.
         -1   -1    0    0    0  501 -0.00000000000E+00 -0.00000000000E+00 -0.17470607155E+03  0.17470607155E+03  0.00000000000E+00 0.  1.
         23    2    1    2    0    0  0.28077602505E+03 -0.31499599576E+03  0.54212266331E+03  0.69324378266E+03  0.92910206881E+02 0.  0.
    5000000    2    1    2    0    0 -0.28077602505E+03  0.31499599576E+03  0.12574549688E+04  0.14557459926E+04  0.59995478386E+03 0.  0.
         23    2    4    4    0    0 -0.31371276277E+02  0.34846630100E+03  0.32745362472E+03  0.48824382559E+03  0.93505277775E+02 0.  0.
         23    2    4    4    0    0 -0.24940474877E+03 -0.33470305241E+02  0.93000134412E+03  0.96750216700E+03  0.88515270096E+02 0.  0.
          5    1    3    3  502    0  0.24831644893E+03 -0.22093654884E+03  0.42166334274E+03  0.53693210188E+03  0.47000000000E+01 0. -1.
         -5    1    3    3    0  502  0.32459576124E+02 -0.94059446923E+02  0.12045932057E+03  0.15631168078E+03  0.47000000000E+01 0.  1.
         13    1    5    5    0    0 -0.35079990958E+02  0.15414668242E+03  0.20364414054E+03  0.25780368780E+03  0.00000000000E+00 0. -1.
        -13    1    5    5    0    0  0.37087146815E+01  0.19431961858E+03  0.12380948418E+03  0.23044013779E+03  0.00000000000E+00 0.  1.
          2    1    6    6  503    0 -0.19102166950E+03 -0.69916687384E+01  0.55337502659E+03  0.58545886422E+03  0.00000000000E+00 0. -1.
         -2    1    6    6    0  503 -0.58383079278E+02 -0.26478636503E+02  0.37662631753E+03  0.38204330277E+03  0.00000000000E+00 0.  1.
<mgrwt>
<rscale>  0 0.51986139E+03</rscale>
<asrwt>0</asrwt>
<pdfrwt beam="1">  1        1 0.30373594E+00 0.51986139E+03</pdfrwt>
<pdfrwt beam="2">  1       -1 0.26877859E-01 0.51986139E+03</pdfrwt>
<totfact> 0.41053999E+01</totfact>
</mgrwt>
</event>
<event>
12    1  0.3147868E-008  0.6637599E+03  0.7818608E-02  0.9781297E-01
         -2   -1    0    0    0  501 -0.00000000000E+00  0.00000000000E+00  0.38946591782E+03  0.38946591782E+03  0.00000000000E+00 0.  1.
          2   -1    0    0  501    0  0.00000000000E+00 -0.00000000000E+00 -0.18867940550E+04  0.18867940550E+04  0.00000000000E+00 0. -1.
         23    2    1    2    0    0 -0.31682844602E+03 -0.53906423426E+03 -0.12064356562E+04  0.13621046113E+04  0.94188464236E+02 0.  0.
    5000000    2    1    2    0    0  0.31682844602E+03  0.53906423426E+03 -0.29089248103E+03  0.91415536153E+03  0.60007589238E+03 0.  0.
         23    2    4    4    0    0  0.34652127174E+03  0.38479609685E+03 -0.43503318854E+03  0.68229963757E+03  0.90188094383E+02 0.  0.
         23    2    4    4    0    0 -0.29692825717E+02  0.15426813741E+03  0.14414070751E+03  0.23185572396E+03  0.91105494087E+02 0.  0.
          5    1    3    3  502    0 -0.12373852813E+03 -0.26618178633E+03 -0.48426823306E+03  0.56630537546E+03  0.47000000000E+01 0. -1.
         -5    1    3    3    0  502 -0.19308991789E+03 -0.27288244793E+03 -0.72216742310E+03  0.79579923585E+03  0.47000000000E+01 0.  1.
         13    1    5    5    0    0  0.23960939289E+03  0.31838919859E+03 -0.35046214222E+03  0.53066755701E+03  0.00000000000E+00 0.  1.
        -13    1    5    5    0    0  0.10691187885E+03  0.66406898267E+02 -0.84571046326E+02  0.15163208056E+03  0.00000000000E+00 0. -1.
          3    1    6    6  503    0  0.18161960382E+02  0.10517311834E+03  0.11632240063E+03  0.15786748403E+03  0.00000000000E+00 0. -1.
         -3    1    6    6    0  503 -0.47854786099E+02  0.49095019068E+02  0.27818306879E+02  0.73988239926E+02  0.00000000000E+00 0.  1.
<mgrwt>
<rscale>  0 0.66375985E+03</rscale>
<asrwt>0</asrwt>
<pdfrwt beam="1">  1        2 0.29027602E+00 0.66375985E+03</pdfrwt>
<pdfrwt beam="2">  1       -2 0.59917832E-01 0.66375985E+03</pdfrwt>
<totfact> 0.20948159E+01</totfact>
</mgrwt>
</event>
<event>
12    1  0.3147868E-008  0.1170222E+04  0.7818608E-02  0.9139328E-01
          2   -1    0    0  501    0  0.00000000000E+00  0.00000000000E+00  0.39859430868E+04  0.39859430868E+04  0.00000000000E+00 0. -1.
         -2   -1    0    0    0  501 -0.00000000000E+00 -0.00000000000E+00 -0.71461948347E+03  0.71461948347E+03  0.00000000000E+00 0.  1.
         23    2    1    2    0    0 -0.24085938628E+02  0.11023997642E+04 -0.92243395664E+02  0.11103716018E+04  0.92470954432E+02 0.  0.
    5000000    2    1    2    0    0  0.24085938628E+02 -0.11023997642E+04  0.33635669989E+04  0.35901909684E+04  0.60001905046E+03 0.  0.
         23    2    4    4    0    0  0.26193183632E+03 -0.82613459584E+03  0.25307963791E+04  0.26766434156E+04  0.91558748360E+02 0.  0.
         23    2    4    4    0    0 -0.23784589769E+03 -0.27626516837E+03  0.83277061988E+03  0.91354755289E+03  0.90383138656E+02 0.  0.
          5    1    3    3  502    0 -0.46712964059E+02  0.51533461568E+03 -0.72473332137E+02  0.52251922549E+03  0.47000000000E+01 0. -1.
         -5    1    3    3    0  502  0.22627025431E+02  0.58706514853E+03 -0.19770063526E+02  0.58785237629E+03  0.47000000000E+01 0.  1.
         11    1    5    5    0    0  0.74765118428E+02 -0.36491245537E+03  0.11544644972E+04  0.12130701539E+04  0.00000000000E+00 0.  1.
        -11    1    5    5    0    0  0.18716671789E+03 -0.46122214047E+03  0.13763318819E+04  0.14635732617E+04  0.00000000000E+00 0. -1.
          3    1    6    6  503    0 -0.18857974919E+03 -0.20467495952E+03  0.53099499970E+03  0.59950800709E+03  0.00000000000E+00 0. -1.
         -3    1    6    6    0  503 -0.49266148504E+02 -0.71590208851E+02  0.30177562018E+03  0.31403954580E+03  0.00000000000E+00 0.  1.
<mgrwt>
<rscale>  0 0.11702218E+04</rscale>
<asrwt>0</asrwt>
<pdfrwt beam="1">  1        2 0.61322200E+00 0.11702218E+04</pdfrwt>
<pdfrwt beam="2">  1       -2 0.10994146E+00 0.11702218E+04</pdfrwt>
<totfact> 0.23495650E-01</totfact>
</mgrwt>
</event>
<event>
12    1  0.3147868E-008  0.5157158E+03  0.7818608E-02  0.1009756E+00
         -2   -1    0    0    0  501 -0.00000000000E+00  0.00000000000E+00  0.74648510827E+02  0.74648510827E+02  0.00000000000E+00 0.  1.
          2   -1    0    0  501    0  0.00000000000E+00 -0.00000000000E+00 -0.38365977138E+04  0.38365977138E+04  0.00000000000E+00 0. -1.
         23    2    1    2    0    0  0.28300526236E+03  0.20412297198E+03 -0.98630350495E+03  0.10501598031E+04  0.91010119729E+02 0.  0.
    5000000    2    1    2    0    0 -0.28300526236E+03 -0.20412297198E+03 -0.27756456980E+04  0.28610864216E+04  0.59987357372E+03 0.  0.
         23    2    4    4    0    0 -0.24336993181E+03  0.15872229120E+03 -0.15227555905E+04  0.15529372657E+04  0.91694456568E+02 0.  0.
         23    2    4    4    0    0 -0.39635330551E+02 -0.36284526318E+03 -0.12528901075E+04  0.13081491559E+04  0.91065624734E+02 0.  0.
          5    1    3    3  502    0  0.97580267951E+02  0.30338837380E+02 -0.35979120001E+03  0.37405100101E+03  0.47000000000E+01 0. -1.
         -5    1    3    3    0  502  0.18542499441E+03  0.17378413460E+03 -0.62651230494E+03  0.67610880207E+03  0.47000000000E+01 0.  1.
         13    1    5    5    0    0 -0.18599569275E+03  0.71332840213E+02 -0.93948361935E+03  0.96037088817E+03  0.00000000000E+00 0.  1.
        -13    1    5    5    0    0 -0.57374239066E+02  0.87389450984E+02 -0.58327197113E+03  0.59256637751E+03  0.00000000000E+00 0. -1.
          1    1    6    6  503    0 -0.12260578619E+01 -0.27885617883E+03 -0.10250122058E+04  0.10622675246E+04  0.00000000000E+00 0. -1.
         -1    1    6    6    0  503 -0.38409272689E+02 -0.83989084349E+02 -0.22787790172E+03  0.24588163130E+03  0.00000000000E+00 0.  1.
<mgrwt>
<rscale>  0 0.51571579E+03</rscale>
<asrwt>0</asrwt>
<pdfrwt beam="1">  1        2 0.59024591E+00 0.51571579E+03</pdfrwt>
<pdfrwt beam="2">  1       -2 0.11484384E-01 0.51571579E+03</pdfrwt>
<totfact> 0.28920174E+01</totfact>
</mgrwt>
</event>
<event>
12    1  0.3147868E-008  0.8931018E+03  0.7818608E-02  0.9434246E-01
          2   -1    0    0  501    0  0.00000000000E+00  0.00000000000E+00  0.14457345105E+04  0.14457345105E+04  0.00000000000E+00 0. -1.
         -2   -1    0    0    0  501 -0.00000000000E+00 -0.00000000000E+00 -0.77042872318E+03  0.77042872318E+03  0.00000000000E+00 0.  1.
         23    2    1    2    0    0 -0.24448473065E+03  0.82696615006E+03 -0.15012553053E+03  0.88017937254E+03  0.92370212035E+02 0.  0.
    5000000    2    1    2    0    0  0.24448473065E+03 -0.82696615006E+03  0.82543131783E+03  0.13359838611E+04  0.59989184015E+03 0.  0.
         23    2    4    4    0    0 -0.34295507685E+02 -0.45529954646E+03  0.11166277177E+03  0.47928956673E+03  0.93680602701E+02 0.  0.
         23    2    4    4    0    0  0.27878023833E+03 -0.37166660359E+03  0.71376854606E+03  0.85669429439E+03  0.92763630788E+02 0.  0.
          5    1    3    3  502    0 -0.13887619526E+03  0.56948338350E+03 -0.68873599788E+02  0.59022333437E+03  0.47000000000E+01 0. -1.
         -5    1    3    3    0  502 -0.10560853539E+03  0.25748276656E+03 -0.81251930743E+02  0.28995603817E+03  0.47000000000E+01 0.  1.
         11    1    5    5    0    0  0.21418198036E+01 -0.66547442757E+02  0.51610661351E+02  0.84242565813E+02  0.00000000000E+00 0. -1.
        -11    1    5    5    0    0 -0.36437327489E+02 -0.38875210371E+03  0.60052110423E+02  0.39504700092E+03  0.00000000000E+00 0.  1.
          4    1    6    6  503    0  0.21230321762E+03 -0.27899651886E+03  0.45909551526E+03  0.57765076464E+03  0.00000000000E+00 0. -1.
         -4    1    6    6    0  503  0.66477020711E+02 -0.92670084732E+02  0.25467303079E+03  0.27904352976E+03  0.00000000000E+00 0.  1.
<mgrwt>
<rscale>  0 0.89310184E+03</rscale>
<asrwt>0</asrwt>
<pdfrwt beam="1">  1        2 0.22242069E+00 0.89310184E+03</pdfrwt>
<pdfrwt beam="2">  1       -2 0.11852750E+00 0.89310184E+03</pdfrwt>
<totfact> 0.75017153E+00</totfact>
</mgrwt>
</event>
<event>
12    1  0.3147868E-008  0.1547021E+04  0.7818608E-02  0.8853773E-01
          1   -1    0    0  501    0  0.00000000000E+00  0.00000000000E+00  0.11699009563E+04  0.11699009563E+04  0.00000000000E+00 0. -1.
         -1   -1    0    0    0  501 -0.00000000000E+00 -0.00000000000E+00 -0.20741453292E+04  0.20741453292E+04  0.00000000000E+00 0.  1.
         23    2    1    2    0    0 -0.13122995666E+04 -0.71481818616E+03 -0.55213304575E+03  0.15956917069E+04  0.91027093245E+02 0.  0.
    5000000    2    1    2    0    0  0.13122995666E+04  0.71481818616E+03 -0.35211132713E+03  0.16483545786E+04  0.59999603208E+03 0.  0.
         23    2    4    4    0    0  0.10088839973E+04  0.24709527023E+03 -0.27471453470E+03  0.10780631421E+04  0.88594978092E+02 0.  0.
         23    2    4    4    0    0  0.30341556924E+03  0.46772291593E+03 -0.77396792427E+02  0.57029143653E+03  0.91740532818E+02 0.  0.
          5    1    3    3  502    0 -0.52499754515E+03 -0.32635317392E+03 -0.19941901207E+03  0.64955280687E+03  0.47000000000E+01 0. -1.
         -5    1    3    3    0  502 -0.78730202141E+03 -0.38846501224E+03 -0.35271403368E+03  0.94613890006E+03  0.47000000000E+01 0.  1.
         13    1    5    5    0    0  0.15064457809E+03  0.20351747483E+02 -0.68526189989E+02  0.16674477877E+03  0.00000000000E+00 0.  1.
        -13    1    5    5    0    0  0.85823941923E+03  0.22674352275E+03 -0.20618834471E+03  0.91131836332E+03  0.00000000000E+00 0. -1.
          1    1    6    6  503    0  0.13179282146E+03  0.22889591364E+03  0.73488573532E+01  0.26422848593E+03  0.00000000000E+00 0. -1.
         -1    1    6    6    0  503  0.17162274778E+03  0.23882700228E+03 -0.84745649780E+02  0.30606295060E+03  0.00000000000E+00 0.  1.
<mgrwt>
<rscale>  0 0.15470210E+04</rscale>
<asrwt>0</asrwt>
<pdfrwt beam="1">  1        1 0.17998477E+00 0.15470210E+04</pdfrwt>
<pdfrwt beam="2">  1       -1 0.31909928E+00 0.15470210E+04</pdfrwt>
<totfact> 0.26345920E-01</totfact>
</mgrwt>
</event>
<event>
12    1  0.3147868E-008  0.6699513E+03  0.7818608E-02  0.9770046E-01
          2   -1    0    0  501    0  0.00000000000E+00  0.00000000000E+00  0.97065043244E+03  0.97065043244E+03  0.00000000000E+00 0.  1.
         -2   -1    0    0    0  501 -0.00000000000E+00 -0.00000000000E+00 -0.60074000569E+03  0.60074000569E+03  0.00000000000E+00 0. -1.
         23    2    1    2    0    0  0.30882217960E+03  0.48280083257E+03 -0.14125550943E+03  0.59681312210E+03  0.88119244310E+02 0.  0.
    5000000    2    1    2    0    0 -0.30882217960E+03 -0.48280083257E+03  0.51116593618E+03  0.97457731604E+03  0.60003545569E+03 0.  0.
         23    2    4    4    0    0 -0.27598538789E+03 -0.77237618400E+01  0.36876321435E+03  0.46968877165E+03  0.91616827779E+02 0.  0.
         23    2    4    4    0    0 -0.32836791715E+02 -0.47507707073E+03  0.14240272183E+03  0.50488854439E+03  0.88642140348E+02 0.  0.
          5    1    3    3  502    0  0.29927004186E+03  0.43371211833E+03 -0.11216945289E+03  0.53876974275E+03  0.47000000000E+01 0. -1.
         -5    1    3    3    0  502  0.95521377476E+01  0.49088714245E+02 -0.29086056538E+02  0.58043379353E+02  0.47000000000E+01 0.  1.
         11    1    5    5    0    0 -0.14906094093E+03 -0.24506716094E+02  0.13237059626E+03  0.20085247820E+03  0.00000000000E+00 0. -1.
        -11    1    5    5    0    0 -0.12692444696E+03  0.16782954254E+02  0.23639261808E+03  0.26883629344E+03  0.00000000000E+00 0.  1.
          2    1    6    6  503    0 -0.59472955514E+02 -0.25033150872E+03  0.61525471238E+02  0.26455298204E+03  0.00000000000E+00 0. -1.
         -2    1    6    6    0  503  0.26636163800E+02 -0.22474556202E+03  0.80877250592E+02  0.24033556235E+03  0.00000000000E+00 0.  1.
<mgrwt>
<rscale>  0 0.66995131E+03</rscale>
<asrwt>0</asrwt>
<pdfrwt beam="1">  1        2 0.14933084E+00 0.66995131E+03</pdfrwt>
<pdfrwt beam="2">  1       -2 0.92421539E-01 0.66995131E+03</pdfrwt>
<totfact> 0.26789994E+01</totfact>
</mgrwt>
</event>
<event>
12    1  0.3147868E-008  0.8726419E+03  0.7818608E-02  0.9460442E-01
          2   -1    0    0  501    0  0.00000000000E+00  0.00000000000E+00  0.13736662494E+04  0.13736662494E+04  0.00000000000E+00 0. -1.
         -2   -1    0    0    0  501 -0.00000000000E+00 -0.00000000000E+00 -0.63485034318E+03  0.63485034318E+03  0.00000000000E+00 0.  1.
         23    2    1    2    0    0  0.81542907503E+03  0.25622148740E+01  0.14204486013E+03  0.83332935167E+03  0.96591535381E+02 0.  0.
    5000000    2    1    2    0    0 -0.81542907503E+03 -0.25622148740E+01  0.59677104610E+03  0.11751872409E+04  0.59999852368E+03 0.  0.
         23    2    4    4    0    0 -0.53899379267E+03  0.20058055335E+03  0.57681477903E+03  0.81961247728E+03  0.91117817612E+02 0.  0.
         23    2    4    4    0    0 -0.27643528236E+03 -0.20314276823E+03  0.19956267070E+02  0.35557476364E+03  0.91387692429E+02 0.  0.
          5    1    3    3  502    0  0.58089394589E+03  0.28379341821E+02  0.13579352341E+03  0.59724796728E+03  0.47000000000E+01 0. -1.
         -5    1    3    3    0  502  0.23453512914E+03 -0.25817126947E+02  0.62513367179E+01  0.23608138439E+03  0.47000000000E+01 0.  1.
         13    1    5    5    0    0 -0.16472712874E+02  0.26940027005E+02  0.34535461933E+02  0.46795442678E+02  0.00000000000E+00 0. -1.
        -13    1    5    5    0    0 -0.52252107980E+03  0.17364052635E+03  0.54227931709E+03  0.77281703460E+03  0.00000000000E+00 0.  1.
          4    1    6    6  503    0 -0.62147193230E+02 -0.68100213734E+02 -0.30888682268E+02  0.97231802561E+02  0.00000000000E+00 0. -1.
         -4    1    6    6    0  503 -0.21428808913E+03 -0.13504255449E+03  0.50844949338E+02  0.25834296108E+03  0.00000000000E+00 0.  1.
<mgrwt>
<rscale>  0 0.87264189E+03</rscale>
<asrwt>0</asrwt>
<pdfrwt beam="1">  1        2 0.21133327E+00 0.87264189E+03</pdfrwt>
<pdfrwt beam="2">  1       -2 0.97669284E-01 0.87264189E+03</pdfrwt>
<totfact> 0.13186023E+01</totfact>
</mgrwt>
</event>
<event>
12    1  0.3147868E-008  0.9530324E+03  0.7818608E-02  0.9361613E-01
          1   -1    0    0  501    0  0.00000000000E+00  0.00000000000E+00  0.78631878389E+03  0.78631878389E+03  0.00000000000E+00 0. -1.
         -1   -1    0    0    0  501 -0.00000000000E+00 -0.00000000000E+00 -0.12750515560E+04  0.12750515560E+04  0.00000000000E+00 0.  1.
         23    2    1    2    0    0 -0.89615377381E+03  0.10000091383E+03 -0.10486114149E+03  0.91226343649E+03  0.90205041332E+02 0.  0.
    5000000    2    1    2    0    0  0.89615377381E+03 -0.10000091383E+03 -0.38387163062E+03  0.11491069034E+04  0.59999789795E+03 0.  0.
         23    2    4    4    0    0  0.59939547916E+03 -0.27322736745E+03 -0.42854559752E+03  0.79103017152E+03  0.90273298058E+02 0.  0.
         23    2    4    4    0    0  0.29675829465E+03  0.17322645362E+03  0.44673966904E+02  0.35807673187E+03  0.90278972670E+02 0.  0.
          5    1    3    3  502    0 -0.51229533660E+03  0.57774055658E+02 -0.10456276632E+03  0.52606065764E+03  0.47000000000E+01 0. -1.
         -5    1    3    3    0  502 -0.38385843721E+03  0.42226858168E+02 -0.29837516472E+00  0.38620277885E+03  0.47000000000E+01 0.  1.
         13    1    5    5    0    0  0.19299464191E+03 -0.10342250448E+03 -0.19126632318E+03  0.29073347352E+03  0.00000000000E+00 0.  1.
        -13    1    5    5    0    0  0.40640083724E+03 -0.16980486297E+03 -0.23727927434E+03  0.50029669800E+03  0.00000000000E+00 0. -1.
          1    1    6    6  503    0  0.27192331148E+02  0.26541614449E+02 -0.22165975640E+02  0.43991029164E+02  0.00000000000E+00 0. -1.
         -1    1    6    6    0  503  0.26956596351E+03  0.14668483917E+03  0.66839942545E+02  0.31408570271E+03  0.00000000000E+00 0.  1.
<mgrwt>
<rscale>  0 0.95303240E+03</rscale>
<asrwt>0</asrwt>
<pdfrwt beam="1">  1        1 0.12097212E+00 0.95303240E+03</pdfrwt>
<pdfrwt beam="2">  1       -1 0.19616178E+00 0.95303240E+03</pdfrwt>
<totfact> 0.36713811E+00</totfact>
</mgrwt>
</event>
<event>
12    1  0.3147868E-008  0.8119649E+03  0.7818608E-02  0.9542858E-01
         -1   -1    0    0    0  501 -0.00000000000E+00  0.00000000000E+00  0.20024734562E+03  0.20024734562E+03  0.00000000000E+00 0.  1.
          1   -1    0    0  501    0  0.00000000000E+00 -0.00000000000E+00 -0.33347862165E+04  0.33347862165E+04  0.00000000000E+00 0. -1.
         23    2    1    2    0    0 -0.83742467857E+02  0.69799838374E+03 -0.12902217264E+04  0.14720941287E+04  0.90412806691E+02 0.  0.
    5000000    2    1    2    0    0  0.83742467857E+02 -0.69799838374E+03 -0.18443171444E+04  0.20629394335E+04  0.59999902689E+03 0.  0.
         23    2    4    4    0    0  0.32757193094E+03 -0.44391400844E+03 -0.10619127208E+04  0.12001059555E+04  0.90734012550E+02 0.  0.
         23    2    4    4    0    0 -0.24382946308E+03 -0.25408437530E+03 -0.78240442365E+03  0.86283347797E+03  0.91177034996E+02 0.  0.
          5    1    3    3  502    0 -0.46125251737E+01  0.38888607500E+03 -0.74200873483E+03  0.83776649926E+03  0.47000000000E+01 0. -1.
         -5    1    3    3    0  502 -0.79129942684E+02  0.30911230874E+03 -0.54821299161E+03  0.63432762939E+03  0.47000000000E+01 0.  1.
         11    1    5    5    0    0  0.11386745674E+03 -0.10379698421E+03 -0.23847627317E+03  0.28391996144E+03  0.00000000000E+00 0.  1.
        -11    1    5    5    0    0  0.21370447420E+03 -0.34011702423E+03 -0.82343644760E+03  0.91618599406E+03  0.00000000000E+00 0. -1.
          1    1    6    6  503    0 -0.16066195343E+03 -0.21452508723E+03 -0.63185960551E+03  0.68635256058E+03  0.00000000000E+00 0. -1.
         -1    1    6    6    0  503 -0.83167509650E+02 -0.39559288064E+02 -0.15054481814E+03  0.17648091739E+03  0.00000000000E+00 0.  1.
<mgrwt>
<rscale>  0 0.81196488E+03</rscale>
<asrwt>0</asrwt>
<pdfrwt beam="1">  1        1 0.51304399E+00 0.81196488E+03</pdfrwt>
<pdfrwt beam="2">  1       -1 0.30807287E-01 0.81196488E+03</pdfrwt>
<totfact> 0.34834569E+00</totfact>
</mgrwt>
</event>
<event>
12    1  0.3147868E-008  0.2166696E+04  0.7818608E-02  0.8532419E-01
         -1   -1    0    0    0  501 -0.00000000000E+00  0.00000000000E+00  0.20595069964E+04  0.20595069964E+04  0.00000000000E+00 0.  1.
          1   -1    0    0  501    0  0.00000000000E+00 -0.00000000000E+00 -0.23192362757E+04  0.23192362757E+04  0.00000000000E+00 0. -1.
         23    2    1    2    0    0 -0.50130702006E+03  0.20816935113E+04 -0.22266190125E+03  0.21547313127E+04  0.92369389525E+02 0.  0.
    5000000    2    1    2    0    0  0.50130702006E+03 -0.20816935113E+04 -0.37067378042E+02  0.22240119595E+04  0.60008216276E+03 0.  0.
         23    2    4    4    0    0  0.55373009182E+03 -0.19112729759E+04  0.75485300920E+02  0.19933880270E+04  0.91194258990E+02 0.  0.
         23    2    4    4    0    0 -0.52423071759E+02 -0.17042053545E+03 -0.11255267896E+03  0.23062393245E+03  0.93423526592E+02 0.  0.
          5    1    3    3  502    0 -0.41167534941E+03  0.18214549746E+04 -0.20975533486E+03  0.18791472024E+04  0.47000000000E+01 0. -1.
         -5    1    3    3    0  502 -0.89631670646E+02  0.26023853673E+03 -0.12906566397E+02  0.27558411028E+03  0.47000000000E+01 0.  1.
         11    1    5    5    0    0  0.27278973858E+03 -0.87110209721E+03  0.75647686275E+02  0.91594523727E+03  0.00000000000E+00 0.  1.
        -11    1    5    5    0    0  0.28094035323E+03 -0.10401708786E+04 -0.16238535497E+00  0.10774427898E+04  0.00000000000E+00 0. -1.
          1    1    6    6  503    0 -0.21413233941E+02 -0.16798233824E+03 -0.87080118487E+02  0.19041937817E+03  0.00000000000E+00 0. -1.
         -1    1    6    6    0  503 -0.31009837818E+02 -0.24381972073E+01 -0.25472560475E+02  0.40204554273E+02  0.00000000000E+00 0.  1.
<mgrwt>
<rscale>  0 0.21666957E+04</rscale>
<asrwt>0</asrwt>
<pdfrwt beam="1">  1        1 0.35680558E+00 0.21666957E+04</pdfrwt>
<pdfrwt beam="2">  1       -1 0.31684723E+00 0.21666957E+04</pdfrwt>
<totfact> 0.40481515E-02</totfact>
</mgrwt>
</event>
<event>
12    1  0.3147868E-008  0.5316389E+03  0.7818608E-02  0.1005835E+00
          2   -1    0    0  501    0  0.00000000000E+00  0.00000000000E+00  0.25125726821E+04  0.25125726821E+04  0.00000000000E+00 0. -1.
         -2   -1    0    0    0  501 -0.00000000000E+00 -0.00000000000E+00 -0.14439631619E+03  0.14439631619E+03  0.00000000000E+00 0.  1.
         23    2    1    2    0    0  0.14993669589E+03 -0.34901147874E+03  0.37952919025E+03  0.54529372068E+03  0.94935823004E+02 0.  0.
    5000000    2    1    2    0    0 -0.14993669589E+03  0.34901147874E+03  0.19886471757E+04  0.21116752776E+04  0.60013737074E+03 0.  0.
         23    2    4    4    0    0 -0.31294182361E+03  0.39773607015E+03  0.14610138477E+04  0.15487624211E+04  0.89314093635E+02 0.  0.
         23    2    4    4    0    0  0.16300512772E+03 -0.48724591412E+02  0.52763332796E+03  0.56291285653E+03  0.97617610094E+02 0.  0.
          5    1    3    3  502    0  0.63729372846E+02 -0.20407209240E+03  0.26884587058E+03  0.34352153351E+03  0.47000000000E+01 0.  1.
         -5    1    3    3    0  502  0.86207323046E+02 -0.14493938634E+03  0.11068331968E+03  0.20177218717E+03  0.47000000000E+01 0. -1.
         13    1    5    5    0    0 -0.74446766078E+02  0.10057593764E+03  0.48841539447E+03  0.50418988265E+03  0.00000000000E+00 0.  1.
        -13    1    5    5    0    0 -0.23849505754E+03  0.29716013251E+03  0.97259845324E+03  0.10445725384E+04  0.00000000000E+00 0. -1.
          4    1    6    6  503    0  0.41960234992E+02  0.47687228970E+01  0.26995317071E+03  0.27323637462E+03  0.00000000000E+00 0.  1.
         -4    1    6    6    0  503  0.12104489273E+03 -0.53493314309E+02  0.25768015725E+03  0.28967648191E+03  0.00000000000E+00 0. -1.
<mgrwt>
<rscale>  0 0.53163893E+03</rscale>
<asrwt>0</asrwt>
<pdfrwt beam="1">  1        2 0.38654961E+00 0.53163893E+03</pdfrwt>
<pdfrwt beam="2">  1       -2 0.22214820E-01 0.53163893E+03</pdfrwt>
<totfact> 0.65233171E+01</totfact>
</mgrwt>
</event>
<event>
12    1  0.3147868E-008  0.5343662E+03  0.7818608E-02  0.1005179E+00
          2   -1    0    0  501    0  0.00000000000E+00  0.00000000000E+00  0.25581259464E+04  0.25581259464E+04  0.00000000000E+00 0. -1.
         -2   -1    0    0    0  501 -0.00000000000E+00 -0.00000000000E+00 -0.13547717967E+03  0.13547717967E+03  0.00000000000E+00 0.  1.
         23    2    1    2    0    0  0.10259816254E+03  0.35042652164E+03  0.38451747086E+03  0.53781867755E+03  0.89833816068E+02 0.  0.
    5000000    2    1    2    0    0 -0.10259816254E+03 -0.35042652164E+03  0.20381312958E+04  0.21557844485E+04  0.60008522661E+03 0.  0.
         23    2    4    4    0    0 -0.36100472988E+01  0.15266027124E+03  0.60007216472E+03  0.62599188048E+03  0.91983915495E+02 0.  0.
         23    2    4    4    0    0 -0.98988115244E+02 -0.50308679287E+03  0.14380591311E+04  0.15297925680E+04  0.96727805477E+02 0.  0.
          5    1    3    3  502    0  0.99057106209E+02  0.23361945868E+03  0.21943894354E+03  0.33550842270E+03  0.47000000000E+01 0. -1.
         -5    1    3    3    0  502  0.35410563337E+01  0.11680706296E+03  0.16507852731E+03  0.20231025485E+03  0.47000000000E+01 0.  1.
         11    1    5    5    0    0  0.39083574458E+02  0.10988423547E+03  0.35951934850E+03  0.37796326931E+03  0.00000000000E+00 0.  1.
        -11    1    5    5    0    0 -0.42693621757E+02  0.42776035768E+02  0.24055281621E+03  0.24802861117E+03  0.00000000000E+00 0. -1.
          2    1    6    6  503    0 -0.68851747538E+02 -0.13448524535E+03  0.45793982525E+03  0.48221958474E+03  0.00000000000E+00 0. -1.
         -2    1    6    6    0  503 -0.30136367706E+02 -0.36860154753E+03  0.98011930588E+03  0.10475729833E+04  0.00000000000E+00 0.  1.
<mgrwt>
<rscale>  0 0.53436620E+03</rscale>
<asrwt>0</asrwt>
<pdfrwt beam="1">  1        2 0.39355780E+00 0.53436620E+03</pdfrwt>
<pdfrwt beam="2">  1       -2 0.20842645E-01 0.53436620E+03</pdfrwt>
<totfact> 0.68743728E+01</totfact>
</mgrwt>
</event>
<event>
12    1  0.3147868E-008  0.9408974E+03  0.7818608E-02  0.9375854E-01
         -1   -1    0    0    0  501 -0.00000000000E+00  0.00000000000E+00  0.99297621473E+03  0.99297621473E+03  0.00000000000E+00 0.  1.
          1   -1    0    0  501    0  0.00000000000E+00 -0.00000000000E+00 -0.12939667470E+04  0.12939667470E+04  0.00000000000E+00 0. -1.
         23    2    1    2    0    0 -0.85260202791E+03 -0.12334691903E+03 -0.74953151621E+03  0.11452980681E+04  0.88122021279E+02 0.  0.
    5000000    2    1    2    0    0  0.85260202791E+03  0.12334691903E+03  0.44854098399E+03  0.11416448936E+04  0.60001613998E+03 0.  0.
         23    2    4    4    0    0 -0.45884615982E+02  0.10089300409E+03  0.33941807950E+02  0.14764099968E+03  0.91438625325E+02 0.  0.
         23    2    4    4    0    0  0.89848664389E+03  0.22453914941E+02  0.41459917604E+03  0.99400389388E+03  0.91481346284E+02 0.  0.
          5    1    3    3  502    0 -0.21781344939E+03 -0.67764890495E+02 -0.17939333808E+03  0.29023927864E+03  0.47000000000E+01 0. -1.
         -5    1    3    3    0  502 -0.63478857852E+03 -0.55582028537E+02 -0.57013817814E+03  0.85505878949E+03  0.47000000000E+01 0.  1.
         13    1    5    5    0    0 -0.31260042737E+02  0.40821587638E+02 -0.29317061747E+02  0.59186843121E+02  0.00000000000E+00 0. -1.
        -13    1    5    5    0    0 -0.14624573246E+02  0.60071416454E+02  0.63258869697E+02  0.88454156560E+02  0.00000000000E+00 0.  1.
          2    1    6    6  503    0  0.22706342387E+02  0.15243532333E+02  0.86289758997E+01  0.28677560699E+02  0.00000000000E+00 0.  1.
         -2    1    6    6    0  503  0.87578030150E+03  0.72103826079E+01  0.40597020014E+03  0.96532633318E+03  0.00000000000E+00 0. -1.
<mgrwt>
<rscale>  0 0.94089740E+03</rscale>
<asrwt>0</asrwt>
<pdfrwt beam="1">  1        1 0.19907181E+00 0.94089740E+03</pdfrwt>
<pdfrwt beam="2">  1       -1 0.15276557E+00 0.94089740E+03</pdfrwt>
<totfact> 0.30696475E+00</totfact>
</mgrwt>
</event>
<event>
12    1  0.3147868E-008  0.1272866E+04  0.7818608E-02  0.9051364E-01
         -2   -1    0    0    0  501 -0.00000000000E+00  0.00000000000E+00  0.19199781492E+04  0.19199781492E+04  0.00000000000E+00 0. -1.
          2   -1    0    0  501    0  0.00000000000E+00 -0.00000000000E+00 -0.95577395209E+03  0.95577395209E+03  0.00000000000E+00 0.  1.
         23    2    1    2    0    0  0.80767166741E+03  0.89779259382E+03  0.92991609228E+03  0.15268205859E+04  0.89844861106E+02 0.  0.
    5000000    2    1    2    0    0 -0.80767166741E+03 -0.89779259382E+03  0.34288104826E+02  0.13489315154E+04  0.60006290932E+03 0.  0.
         23    2    4    4    0    0 -0.51888210390E+03 -0.16676625211E+03  0.62105244185E+02  0.55714914563E+03  0.97511478973E+02 0.  0.
         23    2    4    4    0    0 -0.28878956351E+03 -0.73102634171E+03 -0.27817139359E+02  0.79178236973E+03  0.91359747694E+02 0.  0.
          5    1    3    3  502    0  0.65946081753E+03  0.74510187947E+03  0.80611745234E+03  0.12805908080E+04  0.47000000000E+01 0. -1.
         -5    1    3    3    0  502  0.14821084988E+03  0.15269071435E+03  0.12379863994E+03  0.24622977789E+03  0.47000000000E+01 0.  1.
         11    1    5    5    0    0 -0.24495385964E+03 -0.44670687960E+02  0.64579992282E+02  0.25723226687E+03  0.00000000000E+00 0. -1.
        -11    1    5    5    0    0 -0.27392824426E+03 -0.12209556415E+03 -0.24747480962E+01  0.29991687876E+03  0.00000000000E+00 0.  1.
          4    1    6    6  503    0 -0.40339052409E+02 -0.18065436469E+03 -0.32375935144E+02  0.18791338379E+03  0.00000000000E+00 0. -1.
         -4    1    6    6    0  503 -0.24845051110E+03 -0.55037197702E+03  0.45587957849E+01  0.60386898593E+03  0.00000000000E+00 0.  1.
<mgrwt>
<rscale>  0 0.12728659E+04</rscale>
<asrwt>0</asrwt>
<pdfrwt beam="1">  1        2 0.14704215E+00 0.12728659E+04</pdfrwt>
<pdfrwt beam="2">  1       -2 0.29538125E+00 0.12728659E+04</pdfrwt>
<totfact> 0.88577002E-01</totfact>
</mgrwt>
</event>
<event>
12    1  0.3147868E-008  0.3111052E+03  0.7818608E-02  0.1079817E+00
          2   -1    0    0  501    0  0.00000000000E+00  0.00000000000E+00  0.96424328947E+03  0.96424328947E+03  0.00000000000E+00 0. -1.
         -2   -1    0    0    0  501 -0.00000000000E+00 -0.00000000000E+00 -0.26346506295E+03  0.26346506295E+03  0.00000000000E+00 0.  1.
         23    2    1    2    0    0 -0.62787168986E+02  0.27833989298E+03  0.58133875496E+02  0.30325709118E+03  0.84675800867E+02 0.  0.
    5000000    2    1    2    0    0  0.62787168986E+02 -0.27833989298E+03  0.64264435102E+03  0.92445126125E+03  0.60016918274E+03 0.  0.
         23    2    4    4    0    0  0.93454239787E+02 -0.23668138982E+03 -0.19063855726E+01  0.27121397202E+03  0.93816891288E+02 0.  0.
         23    2    4    4    0    0 -0.30667070801E+02 -0.41658503168E+02  0.64455073659E+03  0.65323728923E+03  0.92722186567E+02 0.  0.
          5    1    3    3  502    0 -0.36006056056E+02  0.12404715305E+03 -0.15439701628E+02  0.13017145094E+03  0.47000000000E+01 0. -1.
         -5    1    3    3    0  502 -0.26781112930E+02  0.15429273993E+03  0.73573577124E+02  0.17308564023E+03  0.47000000000E+01 0.  1.
         13    1    5    5    0    0  0.13301448179E+02 -0.79977533508E+02 -0.41087355476E+02  0.90892822433E+02  0.00000000000E+00 0.  1.
        -13    1    5    5    0    0  0.80152791608E+02 -0.15670385631E+03  0.39180969904E+02  0.18032114958E+03  0.00000000000E+00 0. -1.
          2    1    6    6  503    0 -0.48482618783E+02 -0.23936709580E+02  0.17849696699E+03  0.18650656186E+03  0.00000000000E+00 0. -1.
         -2    1    6    6    0  503  0.17815547983E+02 -0.17721793588E+02  0.46605376960E+03  0.46673072737E+03  0.00000000000E+00 0.  1.
<mgrwt>
<rscale>  0 0.31110517E+03</rscale>
<asrwt>0</asrwt>
<pdfrwt beam="1">  1        2 0.14834512E+00 0.31110517E+03</pdfrwt>
<pdfrwt beam="2">  1       -2 0.40533087E-01 0.31110517E+03</pdfrwt>
<totfact> 0.16127973E+02</totfact>
</mgrwt>
</event>
<event>
12    1  0.3147868E-008  0.7653114E+03  0.7818608E-02  0.9611631E-01
          1   -1    0    0  501    0  0.00000000000E+00  0.00000000000E+00  0.55756636753E+03  0.55756636753E+03  0.00000000000E+00 0. -1.
         -1   -1    0    0    0  501 -0.00000000000E+00 -0.00000000000E+00 -0.11010938690E+04  0.11010938690E+04  0.00000000000E+00 0.  1.
         23    2    1    2    0    0  0.48490359375E+03 -0.45523233252E+03 -0.22082682262E+03  0.70652487375E+03  0.89693588629E+02 0.  0.
    5000000    2    1    2    0    0 -0.48490359375E+03  0.45523233252E+03 -0.32270067885E+03  0.95213536278E+03  0.60004837233E+03 0.  0.
         23    2    4    4    0    0 -0.38775029112E+02 -0.10832000291E+03  0.28624447705E+02  0.14787612309E+03  0.88381349059E+02 0.  0.
         23    2    4    4    0    0 -0.44612856463E+03  0.56355233542E+03 -0.35132512655E+03  0.80425923970E+03  0.82350768947E+02 0.  0.
          5    1    3    3  502    0  0.29567838541E+03 -0.30919592650E+03 -0.10334634462E+03  0.44014814042E+03  0.47000000000E+01 0. -1.
         -5    1    3    3    0  502  0.18922520833E+03 -0.14603640602E+03 -0.11748047800E+03  0.26637673333E+03  0.47000000000E+01 0.  1.
         13    1    5    5    0    0  0.22799395350E+02 -0.66817526168E+02  0.18054352933E+02  0.72872175015E+02  0.00000000000E+00 0. -1.
        -13    1    5    5    0    0 -0.61574424463E+02 -0.41502476737E+02  0.10570094772E+02  0.75003948074E+02  0.00000000000E+00 0.  1.
          3    1    6    6  503    0 -0.15237072187E+03  0.20115758886E+03 -0.16730651999E+03  0.30277497266E+03  0.00000000000E+00 0. -1.
         -3    1    6    6    0  503 -0.29375784277E+03  0.36239474656E+03 -0.18401860656E+03  0.50148426704E+03  0.00000000000E+00 0.  1.
<mgrwt>
<rscale>  0 0.76531137E+03</rscale>
<asrwt>0</asrwt>
<pdfrwt beam="1">  1        1 0.85779441E-01 0.76531137E+03</pdfrwt>
<pdfrwt beam="2">  1       -1 0.16939906E+00 0.76531137E+03</pdfrwt>
<totfact> 0.97302347E+00</totfact>
</mgrwt>
</event>
<event>
12    1  0.3147868E-008  0.2445868E+04  0.7818608E-02  0.8422528E-01
          1   -1    0    0  501    0  0.00000000000E+00  0.00000000000E+00  0.41027682656E+04  0.41027682656E+04  0.00000000000E+00 0. -1.
         -1   -1    0    0    0  501 -0.00000000000E+00 -0.00000000000E+00 -0.14790745311E+04  0.14790745311E+04  0.00000000000E+00 0.  1.
         23    2    1    2    0    0  0.15590562433E+04  0.18574988313E+04  0.12173283991E+04  0.27150265747E+04  0.92317887521E+02 0.  0.
    5000000    2    1    2    0    0 -0.15590562433E+04 -0.18574988313E+04  0.14063653354E+04  0.28668162220E+04  0.59984457669E+03 0.  0.
         23    2    4    4    0    0 -0.11116506311E+04 -0.10110939488E+04  0.10740614776E+04  0.18493252556E+04  0.91201669910E+02 0.  0.
         23    2    4    4    0    0 -0.44740561222E+03 -0.84640488245E+03  0.33230385780E+03  0.10174909664E+04  0.91043977454E+02 0.  0.
          5    1    3    3  502    0  0.16404653271E+03  0.20008059502E+03  0.99254154748E+02  0.27715877513E+03  0.47000000000E+01 0. -1.
         -5    1    3    3    0  502  0.13950097106E+04  0.16574182363E+04  0.11180742443E+04  0.24378677996E+04  0.47000000000E+01 0.  1.
         11    1    5    5    0    0 -0.86534610893E+03 -0.73460160187E+03  0.81703760925E+03  0.13985756528E+04  0.00000000000E+00 0. -1.
        -11    1    5    5    0    0 -0.24630452214E+03 -0.27649234698E+03  0.25702386835E+03  0.45074960284E+03  0.00000000000E+00 0.  1.
          3    1    6    6  503    0 -0.37122624050E+03 -0.62352981812E+03  0.26478588727E+03  0.77247001354E+03  0.00000000000E+00 0. -1.
         -3    1    6    6    0  503 -0.76179371724E+02 -0.22287506433E+03  0.67517970522E+02  0.24502095282E+03  0.00000000000E+00 0.  1.
<mgrwt>
<rscale>  0 0.24458677E+04</rscale>
<asrwt>0</asrwt>
<pdfrwt beam="1">  1        1 0.63119511E+00 0.24458677E+04</pdfrwt>
<pdfrwt beam="2">  1       -1 0.22754993E+00 0.24458677E+04</pdfrwt>
<totfact> 0.64761481E-03</totfact>
</mgrwt>
</event>
<event>
12    1  0.3147868E-008  0.7394672E+03  0.7818608E-02  0.9652021E-01
         -2   -1    0    0    0  501 -0.00000000000E+00  0.00000000000E+00  0.98569937734E+03  0.98569937734E+03  0.00000000000E+00 0.  1.
          2   -1    0    0  501    0  0.00000000000E+00 -0.00000000000E+00 -0.70809152277E+03  0.70809152277E+03  0.00000000000E+00 0. -1.
         23    2    1    2    0    0 -0.24635853480E+03  0.57895937812E+03 -0.24294448194E+03  0.68045886687E+03  0.90087507531E+02 0.  0.
    5000000    2    1    2    0    0  0.24635853480E+03 -0.57895937812E+03  0.52055233650E+03  0.10133320332E+04  0.59998382093E+03 0.  0.
         23    2    4    4    0    0  0.34468158627E+03 -0.61606263696E+03  0.50621659271E+03  0.87305957382E+03  0.87402586488E+02 0.  0.
         23    2    4    4    0    0 -0.98323051462E+02  0.37103258849E+02  0.14335743798E+02  0.14027245943E+03  0.91797467598E+02 0.  0.
          5    1    3    3  502    0 -0.21948441496E+03  0.45161882278E+03 -0.16440503421E+03  0.52837872286E+03  0.47000000000E+01 0. -1.
         -5    1    3    3    0  502 -0.26874119844E+02  0.12734055534E+03 -0.78539447731E+02  0.15208014400E+03  0.47000000000E+01 0.  1.
         13    1    5    5    0    0  0.22626563428E+03 -0.34704459794E+03  0.25559867813E+03  0.48679233198E+03  0.00000000000E+00 0.  1.
        -13    1    5    5    0    0  0.11841595198E+03 -0.26901803903E+03  0.25061791458E+03  0.38626724184E+03  0.00000000000E+00 0. -1.
          1    1    6    6  503    0 -0.68556966740E+02 -0.22134043827E+02 -0.17143972534E+01  0.72061867465E+02  0.00000000000E+00 0. -1.
         -1    1    6    6    0  503 -0.29766084723E+02  0.59237302675E+02  0.16050141052E+02  0.68210591962E+02  0.00000000000E+00 0.  1.
<mgrwt>
<rscale>  0 0.73946718E+03</rscale>
<asrwt>0</asrwt>
<pdfrwt beam="1">  1        2 0.10893716E+00 0.73946718E+03</pdfrwt>
<pdfrwt beam="2">  1       -2 0.15164606E+00 0.73946718E+03</pdfrwt>
<totfact> 0.11947148E+01</totfact>
</mgrwt>
</event>
<event>
12    1  0.3147868E-008  0.8439696E+03  0.7818608E-02  0.9498467E-01
          1   -1    0    0  501    0  0.00000000000E+00  0.00000000000E+00  0.19737888072E+04  0.19737888072E+04  0.00000000000E+00 0. -1.
         -1   -1    0    0    0  501 -0.00000000000E+00 -0.00000000000E+00 -0.44453169040E+03  0.44453169040E+03  0.00000000000E+00 0.  1.
         23    2    1    2    0    0 -0.72604813213E+03  0.33957939794E+03  0.10032936712E+04  0.12873885526E+04  0.91164889758E+02 0.  0.
    5000000    2    1    2    0    0  0.72604813213E+03 -0.33957939794E+03  0.52596344564E+03  0.11309319450E+04  0.59992454555E+03 0.  0.
         23    2    4    4    0    0  0.54744071575E+03 -0.39268394183E+03  0.14238652836E+03  0.69453790616E+03  0.90647472109E+02 0.  0.
         23    2    4    4    0    0  0.17860741638E+03  0.53104543886E+02  0.38357691728E+03  0.43639403883E+03  0.92670404558E+02 0.  0.
          5    1    3    3  502    0 -0.24218377407E+03  0.83824982001E+02  0.26911829661E+03  0.37165354243E+03  0.47000000000E+01 0. -1.
         -5    1    3    3    0  502 -0.48386435806E+03  0.25575441594E+03  0.73417537455E+03  0.91573501018E+03  0.47000000000E+01 0.  1.
         11    1    5    5    0    0  0.29245615649E+03 -0.16022090485E+03  0.91215304048E+02  0.34571892270E+03  0.00000000000E+00 0.  1.
        -11    1    5    5    0    0  0.25498455926E+03 -0.23246303698E+03  0.51171224307E+02  0.34881898345E+03  0.00000000000E+00 0. -1.
          3    1    6    6  503    0  0.97750972241E+02 -0.16452327312E+02  0.15243375137E+03  0.18182953612E+03  0.00000000000E+00 0. -1.
         -3    1    6    6    0  503  0.80856444143E+02  0.69556871198E+02  0.23114316591E+03  0.25456450271E+03  0.00000000000E+00 0.  1.
<mgrwt>
<rscale>  0 0.84396960E+03</rscale>
<asrwt>0</asrwt>
<pdfrwt beam="1">  1        1 0.30365981E+00 0.84396960E+03</pdfrwt>
<pdfrwt beam="2">  1       -1 0.68389492E-01 0.84396960E+03</pdfrwt>
<totfact> 0.69360723E+00</totfact>
</mgrwt>
</event>
<event>
12    1  0.3147868E-008  0.7851318E+03  0.7818608E-02  0.9581791E-01
          2   -1    0    0  501    0  0.00000000000E+00  0.00000000000E+00  0.33717715001E+04  0.33717715001E+04  0.00000000000E+00 0.  1.
         -2   -1    0    0    0  501 -0.00000000000E+00 -0.00000000000E+00 -0.19764372381E+03  0.19764372381E+03  0.00000000000E+00 0. -1.
         23    2    1    2    0    0  0.38931350629E+02 -0.68123038421E+03  0.17451760288E+04  0.18760639388E+04  0.91575348862E+02 0.  0.
    5000000    2    1    2    0    0 -0.38931350629E+02  0.68123038421E+03  0.14289517475E+04  0.16933512851E+04  0.59995415803E+03 0.  0.
         23    2    4    4    0    0 -0.26085027225E+03  0.58136184633E+03  0.93811319271E+03  0.11378114312E+04  0.92379812614E+02 0.  0.
         23    2    4    4    0    0  0.22191892162E+03  0.99868537884E+02  0.49083855478E+03  0.55553985390E+03  0.92088597467E+02 0.  0.
          5    1    3    3  502    0  0.29159801904E+02 -0.25409539944E+03  0.77032037639E+03  0.81168364425E+03  0.47000000000E+01 0. -1.
         -5    1    3    3    0  502  0.97715487257E+01 -0.42713498477E+03  0.97485565241E+03  0.10643802945E+04  0.47000000000E+01 0.  1.
         11    1    5    5    0    0 -0.17127924752E+03  0.28519855186E+03  0.44380687967E+03  0.55465245068E+03  0.00000000000E+00 0. -1.
        -11    1    5    5    0    0 -0.89571024733E+02  0.29616329447E+03  0.49430631304E+03  0.58315898053E+03  0.00000000000E+00 0.  1.
          4    1    6    6  503    0  0.13774390813E+03  0.77279499498E+02  0.21857638019E+03  0.26966857297E+03  0.00000000000E+00 0. -1.
         -4    1    6    6    0  503  0.84175013493E+02  0.22589038385E+02  0.27226217458E+03  0.28587128093E+03  0.00000000000E+00 0.  1.
<mgrwt>
<rscale>  0 0.78513183E+03</rscale>
<asrwt>0</asrwt>
<pdfrwt beam="1">  1        2 0.51873403E+00 0.78513183E+03</pdfrwt>
<pdfrwt beam="2">  1       -2 0.30406729E-01 0.78513183E+03</pdfrwt>
<totfact> 0.10639874E+01</totfact>
</mgrwt>
</event>
<event>
12    1  0.3147868E-008  0.4890469E+03  0.7818608E-02  0.1016678E+00
         -1   -1    0    0    0  501 -0.00000000000E+00  0.00000000000E+00  0.27959551848E+03  0.27959551848E+03  0.00000000000E+00 0.  1.
          1   -1    0    0  501    0  0.00000000000E+00 -0.00000000000E+00 -0.13023833314E+04  0.13023833314E+04  0.00000000000E+00 0. -1.
         23    2    1    2    0    0  0.34686016255E+03  0.17066535215E+03 -0.68739756076E+03  0.79391350142E+03  0.91348817249E+02 0.  0.
    5000000    2    1    2    0    0 -0.34686016255E+03 -0.17066535215E+03 -0.33539025218E+03  0.78806534847E+03  0.59926766759E+03 0.  0.
         23    2    4    4    0    0  0.34931283709E+02 -0.17023868679E+03 -0.34191926421E+03  0.39481676815E+03  0.93648769974E+02 0.  0.
         23    2    4    4    0    0 -0.38179144626E+03 -0.42666535863E+00  0.65290120249E+01  0.39324858032E+03  0.94004933103E+02 0.  0.
          5    1    3    3  502    0  0.10222635784E+03  0.83923090896E+02 -0.17397986258E+03  0.21859642268E+03  0.47000000000E+01 0. -1.
         -5    1    3    3    0  502  0.24463380471E+03  0.86742261252E+02 -0.51341769818E+03  0.57531707875E+03  0.47000000000E+01 0.  1.
         13    1    5    5    0    0 -0.31017582692E+02 -0.35872162424E+02 -0.73070009380E+02  0.87109865939E+02  0.00000000000E+00 0.  1.
        -13    1    5    5    0    0  0.65948866400E+02 -0.13436652437E+03 -0.26884925483E+03  0.30770690222E+03  0.00000000000E+00 0. -1.
          4    1    6    6  503    0 -0.24113289217E+03  0.35857059163E+02  0.31647232791E+02  0.24582991625E+03  0.00000000000E+00 0. -1.
         -4    1    6    6    0  503 -0.14065855408E+03 -0.36283724522E+02 -0.25118220767E+02  0.14741866407E+03  0.00000000000E+00 0.  1.
<mgrwt>
<rscale>  0 0.48904689E+03</rscale>
<asrwt>0</asrwt>
<pdfrwt beam="1">  1        1 0.20036667E+00 0.48904689E+03</pdfrwt>
<pdfrwt beam="2">  1       -1 0.43014694E-01 0.48904689E+03</pdfrwt>
<totfact> 0.50964676E+01</totfact>
</mgrwt>
</event>
<event>
12    1  0.3147868E-008  0.1130913E+04  0.7818608E-02  0.9175575E-01
         -1   -1    0    0    0  501 -0.00000000000E+00  0.00000000000E+00  0.12132850693E+04  0.12132850693E+04  0.00000000000E+00 0.  1.
          1   -1    0    0  501    0  0.00000000000E+00 -0.00000000000E+00 -0.11112083433E+04  0.11112083433E+04  0.00000000000E+00 0. -1.
         23    2    1    2    0    0 -0.90095393152E+03 -0.55880852427E+03  0.26138950368E+03  0.10955698439E+04  0.89240443069E+02 0.  0.
    5000000    2    1    2    0    0  0.90095393152E+03  0.55880852427E+03 -0.15931277761E+03  0.12289235687E+04  0.60073923054E+03 0.  0.
         23    2    4    4    0    0  0.22219614611E+03 -0.10005544822E+03 -0.90451282973E+02  0.27602954841E+03  0.92890564346E+02 0.  0.
         23    2    4    4    0    0  0.67875778542E+03  0.65886397249E+03 -0.68861494637E+02  0.95289402030E+03  0.91930642145E+02 0.  0.
          5    1    3    3  502    0 -0.69555735016E+03 -0.46785684807E+03  0.22510051851E+03  0.86797603140E+03  0.47000000000E+01 0. -1.
         -5    1    3    3    0  502 -0.20539658136E+03 -0.90951676200E+02  0.36288985165E+02  0.22759381248E+03  0.47000000000E+01 0.  1.
         13    1    5    5    0    0  0.49370241616E+02 -0.55794812511E+02  0.31387857897E+01  0.74567646044E+02  0.00000000000E+00 0.  1.
        -13    1    5    5    0    0  0.17282590449E+03 -0.44260635707E+02 -0.93590068762E+02  0.20146190237E+03  0.00000000000E+00 0. -1.
          3    1    6    6  503    0  0.28420869156E+03  0.27934666015E+03 -0.74508096618E+02  0.40541410108E+03  0.00000000000E+00 0. -1.
         -3    1    6    6    0  503  0.39454909386E+03  0.37951731234E+03  0.56466019808E+01  0.54747991921E+03  0.00000000000E+00 0.  1.
<mgrwt>
<rscale>  0 0.11309129E+04</rscale>
<asrwt>0</asrwt>
<pdfrwt beam="1">  1        1 0.17095513E+00 0.11309129E+04</pdfrwt>
<pdfrwt beam="2">  1       -1 0.18665924E+00 0.11309129E+04</pdfrwt>
<totfact> 0.22921429E+00</totfact>
</mgrwt>
</event>
<event>
12    1  0.3147868E-008  0.6691705E+03  0.7818608E-02  0.9771457E-01
         -1   -1    0    0    0  501 -0.00000000000E+00  0.00000000000E+00  0.50219270701E+03  0.50219270701E+03  0.00000000000E+00 0.  1.
          1   -1    0    0  501    0  0.00000000000E+00 -0.00000000000E+00 -0.19293157871E+04  0.19293157871E+04  0.00000000000E+00 0. -1.
         23    2    1    2    0    0 -0.46712595414E+03 -0.45071628579E+03  0.10388752161E+03  0.66361608066E+03  0.90784679643E+02 0.  0.
    5000000    2    1    2    0    0  0.46712595414E+03  0.45071628579E+03 -0.15310106017E+04  0.17678924134E+04  0.60008190751E+03 0.  0.
         23    2    4    4    0    0  0.42141003680E+03  0.39042632597E+03 -0.15436519499E+04  0.16495830765E+04  0.90795643085E+02 0.  0.
         23    2    4    4    0    0  0.45715917342E+02  0.60289959820E+02  0.12641348224E+02  0.11830933691E+03  0.90069257581E+02 0.  0.
          5    1    3    3  502    0 -0.27659928408E+03 -0.24778859293E+03  0.10230155931E+03  0.38521948261E+03  0.47000000000E+01 0. -1.
         -5    1    3    3    0  502 -0.19052667006E+03 -0.20292769286E+03  0.15859623007E+01  0.27839659805E+03  0.47000000000E+01 0.  1.
         11    1    5    5    0    0  0.33986321772E+03  0.34661282013E+03 -0.12224233039E+04  0.13152817902E+04  0.00000000000E+00 0. -1.
        -11    1    5    5    0    0  0.81546819076E+02  0.43813505837E+02 -0.32122864601E+03  0.33430128629E+03  0.00000000000E+00 0.  1.
          1    1    6    6  503    0 -0.22979635731E+02  0.22455205494E+02  0.22560540373E+02  0.39259112242E+02  0.00000000000E+00 0. -1.
         -1    1    6    6    0  503  0.68695553073E+02  0.37834754326E+02 -0.99191921484E+01  0.79050224666E+02  0.00000000000E+00 0.  1.
<mgrwt>
<rscale>  0 0.66917054E+03</rscale>
<asrwt>0</asrwt>
<pdfrwt beam="1">  1        1 0.29681781E+00 0.66917054E+03</pdfrwt>
<pdfrwt beam="2">  1       -1 0.77260416E-01 0.66917054E+03</pdfrwt>
<totfact> 0.59435382E+00</totfact>
</mgrwt>
</event>
<event>
12    1  0.3147868E-008  0.8783209E+03  0.7818608E-02  0.9453095E-01
         -1   -1    0    0    0  501 -0.00000000000E+00  0.00000000000E+00  0.79376780835E+03  0.79376780835E+03  0.00000000000E+00 0.  1.
          1   -1    0    0  501    0  0.00000000000E+00 -0.00000000000E+00 -0.10461505561E+04  0.10461505561E+04  0.00000000000E+00 0. -1.
         23    2    1    2    0    0  0.75697794066E+03 -0.19018148196E+03 -0.33005119338E+03  0.85251278770E+03  0.93057316815E+02 0.  0.
    5000000    2    1    2    0    0 -0.75697794066E+03  0.19018148196E+03  0.77668445602E+02  0.98740557677E+03  0.59979395368E+03 0.  0.
         23    2    4    4    0    0 -0.38247003936E+03 -0.19100414774E+03  0.87121143299E+02  0.44558022146E+03  0.90474994782E+02 0.  0.
         23    2    4    4    0    0 -0.37450790130E+03  0.38118562970E+03 -0.94526976971E+01  0.54182535531E+03  0.89032071459E+02 0.  0.
          5    1    3    3  502    0  0.19638395231E+03 -0.52312177910E+02 -0.13101865276E+03  0.24184953598E+03  0.47000000000E+01 0. -1.
         -5    1    3    3    0  502  0.56059398835E+03 -0.13786930405E+03 -0.19903254062E+03  0.61066325172E+03  0.47000000000E+01 0.  1.
         11    1    5    5    0    0 -0.12961429934E+03 -0.11408467916E+03  0.36102658760E+02  0.17640459910E+03  0.00000000000E+00 0. -1.
        -11    1    5    5    0    0 -0.25285574002E+03 -0.76919468576E+02  0.51018484540E+02  0.26917562236E+03  0.00000000000E+00 0.  1.
          3    1    6    6  503    0 -0.16823911670E+03  0.22185316580E+03  0.21979189555E+02  0.27929610154E+03  0.00000000000E+00 0. -1.
         -3    1    6    6    0  503 -0.20626878460E+03  0.15933246390E+03 -0.31431887252E+02  0.26252925378E+03  0.00000000000E+00 0.  1.
<mgrwt>
<rscale>  0 0.87832095E+03</rscale>
<asrwt>0</asrwt>
<pdfrwt beam="1">  1        1 0.16094624E+00 0.87832095E+03</pdfrwt>
<pdfrwt beam="2">  1       -1 0.12211813E+00 0.87832095E+03</pdfrwt>
<totfact> 0.83987597E+00</totfact>
</mgrwt>
</event>
<event>
12    1  0.3147868E-008  0.2783304E+03  0.7818608E-02  0.1096604E+00
          2   -1    0    0  501    0  0.00000000000E+00  0.00000000000E+00  0.22039212482E+04  0.22039212482E+04  0.00000000000E+00 0. -1.
         -2   -1    0    0    0  501 -0.00000000000E+00 -0.00000000000E+00 -0.75348437266E+02  0.75348437266E+02  0.00000000000E+00 0.  1.
         23    2    1    2    0    0  0.72113900058E+01  0.15268214466E+03  0.70234235362E+03  0.72446009943E+03  0.90519680319E+02 0.  0.
    5000000    2    1    2    0    0 -0.72113900058E+01 -0.15268214466E+03  0.14262304573E+04  0.15548095860E+04  0.59994640596E+03 0.  0.
         23    2    4    4    0    0 -0.16825538564E+03 -0.11011895806E+03  0.15533646796E+03  0.26994667591E+03  0.91135776927E+02 0.  0.
         23    2    4    4    0    0  0.16104399564E+03 -0.42563186606E+02  0.12708939893E+04  0.12848629101E+04  0.89187287602E+02 0.  0.
          5    1    3    3  502    0  0.20452574727E+02  0.53884778994E+02  0.11521560940E+03  0.12891316407E+03  0.47000000000E+01 0. -1.
         -5    1    3    3    0  502 -0.13241184721E+02  0.98797365669E+02  0.58712674423E+03  0.59554693536E+03  0.47000000000E+01 0.  1.
         13    1    5    5    0    0 -0.71030157262E+01 -0.43768456155E+02  0.47621364483E+02  0.65068617181E+02  0.00000000000E+00 0. -1.
        -13    1    5    5    0    0 -0.16115236992E+03 -0.66350501902E+02  0.10771510348E+03  0.20487805873E+03  0.00000000000E+00 0.  1.
          1    1    6    6  503    0  0.11916798288E+02 -0.28190745805E+02  0.10460003821E+03  0.10898576156E+03  0.00000000000E+00 0. -1.
         -1    1    6    6    0  503  0.14912719735E+03 -0.14372440801E+02  0.11662939511E+04  0.11758771486E+04  0.00000000000E+00 0.  1.
<mgrwt>
<rscale>  0 0.27833040E+03</rscale>
<asrwt>0</asrwt>
<pdfrwt beam="1">  1        2 0.33906476E+00 0.27833040E+03</pdfrwt>
<pdfrwt beam="2">  1       -2 0.11592069E-01 0.27833040E+03</pdfrwt>
<totfact> 0.30339287E+02</totfact>
</mgrwt>
</event>
<event>
12    1  0.3147868E-008  0.5456370E+03  0.7818608E-02  0.1002509E+00
         -1   -1    0    0    0  501 -0.00000000000E+00  0.00000000000E+00  0.13418671029E+03  0.13418671029E+03  0.00000000000E+00 0.  1.
          1   -1    0    0  501    0  0.00000000000E+00 -0.00000000000E+00 -0.30289180806E+04  0.30289180806E+04  0.00000000000E+00 0. -1.
         23    2    1    2    0    0  0.44350172625E+03  0.20942449881E+03 -0.10719410323E+04  0.11823939286E+04  0.91898986807E+02 0.  0.
    5000000    2    1    2    0    0 -0.44350172625E+03 -0.20942449881E+03 -0.18227903380E+04  0.19807108623E+04  0.60008207916E+03 0.  0.
         23    2    4    4    0    0 -0.43197379890E+03 -0.51461122771E+02 -0.16994514790E+04  0.17566425663E+04  0.91696052642E+02 0.  0.
         23    2    4    4    0    0 -0.11527927354E+02 -0.15796337604E+03 -0.12333885905E+03  0.22406829605E+03  0.99542985005E+02 0.  0.
          5    1    3    3  502    0  0.11424234361E+03  0.95187377376E+02 -0.36648633744E+03  0.39553290055E+03  0.47000000000E+01 0. -1.
         -5    1    3    3    0  502  0.32925938264E+03  0.11423712143E+03 -0.70545469484E+03  0.78686102803E+03  0.47000000000E+01 0.  1.
         11    1    5    5    0    0 -0.87013775690E+02 -0.45891158777E+01 -0.50620242758E+03  0.51364711119E+03  0.00000000000E+00 0.  1.
        -11    1    5    5    0    0 -0.34496002321E+03 -0.46872006893E+02 -0.11932490514E+04  0.12429954551E+04  0.00000000000E+00 0. -1.
          2    1    6    6  503    0 -0.18548125515E+01 -0.92112329104E+02 -0.12758835371E+03  0.15737505998E+03  0.00000000000E+00 0. -1.
         -2    1    6    6    0  503 -0.96731148022E+01 -0.65851046935E+02  0.42494946551E+01  0.66693236068E+02  0.00000000000E+00 0.  1.
<mgrwt>
<rscale>  0 0.54563695E+03</rscale>
<asrwt>0</asrwt>
<pdfrwt beam="1">  1        1 0.46598740E+00 0.54563695E+03</pdfrwt>
<pdfrwt beam="2">  1       -1 0.20644109E-01 0.54563695E+03</pdfrwt>
<totfact> 0.12189942E+01</totfact>
</mgrwt>
</event>
<event>
12    1  0.3147868E-008  0.1665540E+04  0.7818608E-02  0.8781266E-01
          1   -1    0    0  501    0  0.00000000000E+00  0.00000000000E+00  0.21092276682E+04  0.21092276682E+04  0.00000000000E+00 0. -1.
         -1   -1    0    0    0  501 -0.00000000000E+00 -0.00000000000E+00 -0.13986548626E+04  0.13986548626E+04  0.00000000000E+00 0.  1.
         23    2    1    2    0    0  0.15944892355E+04  0.33491044947E+03 -0.18574342755E+01  0.16312122535E+04  0.79303433524E+02 0.  0.
    5000000    2    1    2    0    0 -0.15944892355E+04 -0.33491044947E+03  0.71243023990E+03  0.18766702774E+04  0.59981126368E+03 0.  0.
         23    2    4    4    0    0 -0.14401054648E+04 -0.42146683802E+03  0.49541132071E+03  0.15827592104E+04  0.90312214108E+02 0.  0.
         23    2    4    4    0    0 -0.15438377066E+03  0.86556388543E+02  0.21701891919E+03  0.29391106699E+03  0.89219655761E+02 0.  0.
          5    1    3    3  502    0  0.42389990156E+03  0.60979145793E+02  0.20529141260E+02  0.42878096787E+03  0.47000000000E+01 0. -1.
         -5    1    3    3    0  502  0.11705893339E+04  0.27393130368E+03 -0.22386575535E+02  0.12024312856E+04  0.47000000000E+01 0.  1.
         11    1    5    5    0    0 -0.92912397735E+03 -0.31665368116E+03  0.32131444983E+03  0.10328523102E+04  0.00000000000E+00 0. -1.
        -11    1    5    5    0    0 -0.51098148746E+03 -0.10481315686E+03  0.17409687089E+03  0.54990690015E+03  0.00000000000E+00 0.  1.
          3    1    6    6  503    0 -0.48510528063E+02  0.77046141468E+02  0.86539893886E+02  0.12561262867E+03  0.00000000000E+00 0. -1.
         -3    1    6    6    0  503 -0.10587324259E+03  0.95102470749E+01  0.13047902530E+03  0.16829843832E+03  0.00000000000E+00 0.  1.
<mgrwt>
<rscale>  0 0.16655396E+04</rscale>
<asrwt>0</asrwt>
<pdfrwt beam="1">  1        1 0.32449656E+00 0.16655396E+04</pdfrwt>
<pdfrwt beam="2">  1       -1 0.21517767E+00 0.16655396E+04</pdfrwt>
<totfact> 0.27624641E-01</totfact>
</mgrwt>
</event>
<event>
12    1  0.3147868E-008  0.6536533E+03  0.7818608E-02  0.9799948E-01
         -1   -1    0    0    0  501 -0.00000000000E+00  0.00000000000E+00  0.20136435056E+04  0.20136435056E+04  0.00000000000E+00 0.  1.
          1   -1    0    0  501    0  0.00000000000E+00 -0.00000000000E+00 -0.28834045552E+03  0.28834045552E+03  0.00000000000E+00 0. -1.
         23    2    1    2    0    0  0.61546392015E+03 -0.12469442185E+03  0.91440546128E+03  0.11136787945E+04  0.98987746139E+02 0.  0.
    5000000    2    1    2    0    0 -0.61546392015E+03  0.12469442185E+03  0.81089758884E+03  0.11883051666E+04  0.60014142803E+03 0.  0.
         23    2    4    4    0    0 -0.43340166886E+03  0.16693587864E+03  0.85248683309E+03  0.97475777305E+03  0.87831209643E+02 0.  0.
         23    2    4    4    0    0 -0.18206225129E+03 -0.42241456786E+02 -0.41589244243E+02  0.21354739360E+03  0.94561197421E+02 0.  0.
          5    1    3    3  502    0  0.51724397109E+03 -0.82027839608E+02  0.70289352674E+03  0.87655649677E+03  0.47000000000E+01 0. -1.
         -5    1    3    3    0  502  0.98219949057E+02 -0.42666582243E+02  0.21151193454E+03  0.23712229774E+03  0.47000000000E+01 0.  1.
         13    1    5    5    0    0 -0.26735786873E+03  0.12863019646E+03  0.61070611782E+03  0.67896091181E+03  0.00000000000E+00 0. -1.
        -13    1    5    5    0    0 -0.16604380013E+03  0.38305682173E+02  0.24178071526E+03  0.29579686124E+03  0.00000000000E+00 0.  1.
          4    1    6    6  503    0 -0.61692918132E+02 -0.61823385136E+02 -0.13151858800E+02  0.88323940623E+02  0.00000000000E+00 0. -1.
         -4    1    6    6    0  503 -0.12036933316E+03  0.19581928350E+02 -0.28437385443E+02  0.12522345297E+03  0.00000000000E+00 0.  1.
<mgrwt>
<rscale>  0 0.65365329E+03</rscale>
<asrwt>0</asrwt>
<pdfrwt beam="1">  1        1 0.44360071E-01 0.65365329E+03</pdfrwt>
<pdfrwt beam="2">  1       -1 0.30979130E+00 0.65365329E+03</pdfrwt>
<totfact> 0.28113049E+00</totfact>
</mgrwt>
</event>
<event>
12    1  0.3147868E-008  0.3993558E+03  0.7818608E-02  0.1044003E+00
          1   -1    0    0  501    0  0.00000000000E+00  0.00000000000E+00  0.94871452385E+03  0.94871452385E+03  0.00000000000E+00 0. -1.
         -1   -1    0    0    0  501 -0.00000000000E+00 -0.00000000000E+00 -0.30682964195E+03  0.30682964195E+03  0.00000000000E+00 0.  1.
         23    2    1    2    0    0  0.35000323791E+03  0.94793877537E+02  0.17199560276E+03  0.41163989496E+03  0.91524696041E+02 0.  0.
    5000000    2    1    2    0    0 -0.35000323791E+03 -0.94793877537E+02  0.46988927915E+03  0.84390427083E+03  0.59990860796E+03 0.  0.
         23    2    4    4    0    0 -0.28623928916E+03 -0.75761381602E+02 -0.47849696019E+02  0.31341629890E+03  0.90925603670E+02 0.  0.
         23    2    4    4    0    0 -0.63763948754E+02 -0.19032495934E+02  0.51773897516E+03  0.53048797194E+03  0.94529174887E+02 0.  0.
          5    1    3    3  502    0  0.18237041529E+03  0.34309194322E+01  0.72882406498E+02  0.19648072363E+03  0.47000000000E+01 0. -1.
         -5    1    3    3    0  502  0.16763282263E+03  0.91362958104E+02  0.99113196261E+02  0.21515917133E+03  0.47000000000E+01 0.  1.
         13    1    5    5    0    0 -0.14362617603E+03 -0.84887195915E+02 -0.26196769340E+02  0.16888038724E+03  0.00000000000E+00 0. -1.
        -13    1    5    5    0    0 -0.14261311313E+03  0.91258143123E+01 -0.21652926679E+02  0.14453591165E+03  0.00000000000E+00 0.  1.
          2    1    6    6  503    0 -0.35769977811E+02 -0.57646273484E+02  0.29513404833E+03  0.30283112561E+03  0.00000000000E+00 0. -1.
         -2    1    6    6    0  503 -0.27993970943E+02  0.38613777549E+02  0.22260492684E+03  0.22765684632E+03  0.00000000000E+00 0.  1.
<mgrwt>
<rscale>  0 0.39935577E+03</rscale>
<asrwt>0</asrwt>
<pdfrwt beam="1">  1        1 0.14595608E+00 0.39935577E+03</pdfrwt>
<pdfrwt beam="2">  1       -1 0.47204561E-01 0.39935577E+03</pdfrwt>
<totfact> 0.79095969E+01</totfact>
</mgrwt>
</event>
<event>
12    1  0.3147868E-008  0.1258918E+04  0.7818608E-02  0.9062793E-01
          1   -1    0    0  501    0  0.00000000000E+00  0.00000000000E+00  0.35464538932E+04  0.35464538932E+04  0.00000000000E+00 0. -1.
         -1   -1    0    0    0  501 -0.00000000000E+00 -0.00000000000E+00 -0.58213971282E+03  0.58213971282E+03  0.00000000000E+00 0.  1.
         23    2    1    2    0    0  0.46798314371E+03 -0.11609115398E+04  0.60934234340E+03  0.13949766368E+04  0.89094891164E+02 0.  0.
    5000000    2    1    2    0    0 -0.46798314371E+03  0.11609115398E+04  0.23549718370E+04  0.27336169692E+04  0.60003796171E+03 0.  0.
         23    2    4    4    0    0 -0.41481792902E+03  0.10379112710E+04  0.23063954665E+04  0.25646003942E+04  0.91550058119E+02 0.  0.
         23    2    4    4    0    0 -0.53165214685E+02  0.12300026877E+03  0.48576370449E+02  0.16901657503E+03  0.90836846598E+02 0.  0.
          5    1    3    3  502    0  0.32976925967E+03 -0.82500829716E+03  0.38730092438E+03  0.96923193871E+03  0.47000000000E+01 0. -1.
         -5    1    3    3    0  502  0.13821388404E+03 -0.33590324266E+03  0.22204141902E+03  0.42574469807E+03  0.47000000000E+01 0.  1.
         13    1    5    5    0    0 -0.36079238850E+03  0.83468180885E+03  0.19286855146E+04  0.21322975130E+04  0.00000000000E+00 0. -1.
        -13    1    5    5    0    0 -0.54025540519E+02  0.20322946220E+03  0.37770995194E+03  0.43230288124E+03  0.00000000000E+00 0.  1.
          1    1    6    6  503    0 -0.54666657518E+02  0.51941772360E+02 -0.11087930807E+02  0.76218983000E+02  0.00000000000E+00 0. -1.
         -1    1    6    6    0  503  0.15014428332E+01  0.71058496413E+02  0.59664301256E+02  0.92797592034E+02  0.00000000000E+00 0.  1.
<mgrwt>
<rscale>  0 0.12589179E+04</rscale>
<asrwt>0</asrwt>
<pdfrwt beam="1">  1        1 0.54560828E+00 0.12589179E+04</pdfrwt>
<pdfrwt beam="2">  1       -1 0.89559958E-01 0.12589179E+04</pdfrwt>
<totfact> 0.27951458E-01</totfact>
</mgrwt>
</event>
<event>
12    1  0.3147868E-008  0.1185976E+04  0.7818608E-02  0.9125221E-01
         -1   -1    0    0    0  501 -0.00000000000E+00  0.00000000000E+00  0.42768229153E+03  0.42768229153E+03  0.00000000000E+00 0.  1.
          1   -1    0    0  501    0  0.00000000000E+00 -0.00000000000E+00 -0.34098483676E+04  0.34098483676E+04  0.00000000000E+00 0. -1.
         23    2    1    2    0    0  0.54926585547E+02  0.11281834716E+04 -0.13056321559E+04  0.17288354305E+04  0.91551863911E+02 0.  0.
    5000000    2    1    2    0    0 -0.54926585547E+02 -0.11281834716E+04 -0.16765339201E+04  0.21086952286E+04  0.60001225538E+03 0.  0.
         23    2    4    4    0    0  0.20256452691E+03 -0.76317964834E+03 -0.12663153506E+04  0.14952445923E+04  0.93414455555E+02 0.  0.
         23    2    4    4    0    0 -0.25749111246E+03 -0.36500382323E+03 -0.41021856957E+03  0.61345063635E+03  0.92265618967E+02 0.  0.
          5    1    3    3  502    0  0.23921115962E+02  0.35913084129E+03 -0.35355903822E+03  0.50455253885E+03  0.47000000000E+01 0. -1.
         -5    1    3    3    0  502  0.31005469585E+02  0.76905263029E+03 -0.95207311773E+03  0.12242828917E+04  0.47000000000E+01 0.  1.
         13    1    5    5    0    0  0.10917466796E+03 -0.39345251599E+03 -0.74185416734E+03  0.84680080069E+03  0.00000000000E+00 0.  1.
        -13    1    5    5    0    0  0.93389858958E+02 -0.36972713235E+03 -0.52446118323E+03  0.64844379161E+03  0.00000000000E+00 0. -1.
          3    1    6    6  503    0 -0.10815798978E+03 -0.21664755979E+03 -0.18154852488E+03  0.30264530857E+03  0.00000000000E+00 0. -1.
         -3    1    6    6    0  503 -0.14933312268E+03 -0.14835626344E+03 -0.22867004470E+03  0.31080532778E+03  0.00000000000E+00 0.  1.
<mgrwt>
<rscale>  0 0.11859758E+04</rscale>
<asrwt>0</asrwt>
<pdfrwt beam="1">  1        1 0.52459205E+00 0.11859758E+04</pdfrwt>
<pdfrwt beam="2">  1       -1 0.65797276E-01 0.11859758E+04</pdfrwt>
<totfact> 0.69364411E-01</totfact>
</mgrwt>
</event>
<event>
12    1  0.3147868E-008  0.8847027E+03  0.7818608E-02  0.9444908E-01
         -2   -1    0    0    0  501 -0.00000000000E+00  0.00000000000E+00  0.42208583705E+03  0.42208583705E+03  0.00000000000E+00 0. -1.
          2   -1    0    0  501    0  0.00000000000E+00 -0.00000000000E+00 -0.19092999598E+04  0.19092999598E+04  0.00000000000E+00 0.  1.
         23    2    1    2    0    0  0.78482242772E+03 -0.11771200891E+03 -0.70328834532E+03  0.10646239107E+04  0.94906345464E+02 0.  0.
    5000000    2    1    2    0    0 -0.78482242772E+03  0.11771200891E+03 -0.78392577745E+03  0.12667618862E+04  0.60028634139E+03 0.  0.
         23    2    4    4    0    0  0.67278881893E+02  0.70447046210E+02 -0.60910868441E+02  0.14475221619E+03  0.88055868233E+02 0.  0.
         23    2    4    4    0    0 -0.85210130962E+03  0.47264962702E+02 -0.72301490901E+03  0.11220096700E+04  0.88569308266E+02 0.  0.
          5    1    3    3  502    0  0.48465519210E+03 -0.10511863662E+03 -0.39385885941E+03  0.63331467229E+03  0.47000000000E+01 0. -1.
         -5    1    3    3    0  502  0.30016723562E+03 -0.12593372292E+02 -0.30942948590E+03  0.43130923838E+03  0.47000000000E+01 0.  1.
         13    1    5    5    0    0  0.74474349088E+02  0.41176283902E+02 -0.10131295982E+02  0.85700397819E+02  0.00000000000E+00 0. -1.
        -13    1    5    5    0    0 -0.71954671944E+01  0.29270762308E+02 -0.50779572459E+02  0.59051818375E+02  0.00000000000E+00 0.  1.
          4    1    6    6  503    0 -0.71164221204E+03  0.71645831753E+01 -0.58966446024E+03  0.92422407720E+03  0.00000000000E+00 0. -1.
         -4    1    6    6    0  503 -0.14045909758E+03  0.40100379527E+02 -0.13335044877E+03  0.19778559279E+03  0.00000000000E+00 0.  1.
<mgrwt>
<rscale>  0 0.88470271E+03</rscale>
<asrwt>0</asrwt>
<pdfrwt beam="1">  1        2 0.29373845E+00 0.88470271E+03</pdfrwt>
<pdfrwt beam="2">  1       -2 0.64936283E-01 0.88470271E+03</pdfrwt>
<totfact> 0.16660731E+01</totfact>
</mgrwt>
</event>
<event>
12    1  0.3147868E-008  0.1068079E+04  0.7818608E-02  0.9236875E-01
          1   -1    0    0  501    0  0.00000000000E+00  0.00000000000E+00  0.15133993927E+04  0.15133993927E+04  0.00000000000E+00 0. -1.
         -1   -1    0    0    0  501 -0.00000000000E+00 -0.00000000000E+00 -0.15300615924E+04  0.15300615924E+04  0.00000000000E+00 0.  1.
         23    2    1    2    0    0  0.96176652035E+03  0.21983209340E+03  0.10695118850E+04  0.14580514379E+04  0.93473710134E+02 0.  0.
    5000000    2    1    2    0    0 -0.96176652035E+03 -0.21983209340E+03 -0.10861740846E+04  0.15854095472E+04  0.60035681170E+03 0.  0.
         23    2    4    4    0    0 -0.16422300140E+03 -0.29479502215E+03 -0.32104137139E+03  0.47396631362E+03  0.87767904315E+02 0.  0.
         23    2    4    4    0    0 -0.79754351895E+03  0.74962928751E+02 -0.76513271325E+03  0.11114432336E+04  0.90459313211E+02 0.  0.
          5    1    3    3  502    0  0.47621493733E+03  0.67104951665E+02  0.55266189920E+03  0.73262610238E+03  0.47000000000E+01 0. -1.
         -5    1    3    3    0  502  0.48555158302E+03  0.15272714174E+03  0.51684998575E+03  0.72542533549E+03  0.47000000000E+01 0.  1.
         11    1    5    5    0    0 -0.38172246482E+02 -0.29903642910E+02 -0.16763476154E+02  0.51306553125E+02  0.00000000000E+00 0. -1.
        -11    1    5    5    0    0 -0.12605075492E+03 -0.26489137924E+03 -0.30427789524E+03  0.42265976050E+03  0.00000000000E+00 0.  1.
          1    1    6    6  503    0 -0.56502979423E+03  0.19795779512E+02 -0.50313587803E+03  0.75683304170E+03  0.00000000000E+00 0. -1.
         -1    1    6    6    0  503 -0.23251372472E+03  0.55167149239E+02 -0.26199683522E+03  0.35461019191E+03  0.00000000000E+00 0.  1.
<mgrwt>
<rscale>  0 0.10680792E+04</rscale>
<asrwt>0</asrwt>
<pdfrwt beam="1">  1        1 0.23283068E+00 0.10680792E+04</pdfrwt>
<pdfrwt beam="2">  1       -1 0.23539409E+00 0.10680792E+04</pdfrwt>
<totfact> 0.55620516E-01</totfact>
</mgrwt>
</event>
<event>
12    1  0.3147868E-008  0.1338297E+04  0.7818608E-02  0.8999735E-01
          2   -1    0    0  501    0  0.00000000000E+00  0.00000000000E+00  0.17405649328E+04  0.17405649328E+04  0.00000000000E+00 0. -1.
         -2   -1    0    0    0  501 -0.00000000000E+00 -0.00000000000E+00 -0.12346497080E+04  0.12346497080E+04  0.00000000000E+00 0.  1.
         23    2    1    2    0    0  0.10644014543E+04 -0.77445276398E+03 -0.25029284238E+03  0.13428748683E+04  0.89100311009E+02 0.  0.
    5000000    2    1    2    0    0 -0.10644014543E+04  0.77445276398E+03  0.75620806714E+03  0.16323397725E+04  0.59996245914E+03 0.  0.
         23    2    4    4    0    0 -0.10239081872E+04  0.74387671318E+03  0.51826985282E+03  0.13709161627E+04  0.95220504460E+02 0.  0.
         23    2    4    4    0    0 -0.40493267113E+02  0.30576050803E+02  0.23793821432E+03  0.26142360981E+03  0.95671889108E+02 0.  0.
          5    1    3    3  502    0  0.11663100376E+03 -0.65418503784E+02 -0.47456791694E+02  0.14197397210E+03  0.47000000000E+01 0. -1.
         -5    1    3    3    0  502  0.94777045055E+03 -0.70903426020E+03 -0.20283605068E+03  0.12009008962E+04  0.47000000000E+01 0.  1.
         11    1    5    5    0    0 -0.68701040606E+03  0.46579364555E+03  0.29999603975E+03  0.88257840566E+03  0.00000000000E+00 0. -1.
        -11    1    5    5    0    0 -0.33689778113E+03  0.27808306763E+03  0.21827381307E+03  0.48833775699E+03  0.00000000000E+00 0.  1.
          2    1    6    6  503    0 -0.61581219174E+01  0.51627828642E+02  0.61910311150E+02  0.80847027048E+02  0.00000000000E+00 0. -1.
         -2    1    6    6    0  503 -0.34335145196E+02 -0.21051777839E+02  0.17602790317E+03  0.18057658276E+03  0.00000000000E+00 0.  1.
<mgrwt>
<rscale>  0 0.13382966E+04</rscale>
<asrwt>0</asrwt>
<pdfrwt beam="1">  1        2 0.26777922E+00 0.13382966E+04</pdfrwt>
<pdfrwt beam="2">  1       -2 0.18994611E+00 0.13382966E+04</pdfrwt>
<totfact> 0.13807513E+00</totfact>
</mgrwt>
</event>
<event>
12    1  0.3147868E-008  0.6871202E+03  0.7818608E-02  0.9739515E-01
         -2   -1    0    0    0  501 -0.00000000000E+00  0.00000000000E+00  0.87628040097E+03  0.87628040097E+03  0.00000000000E+00 0.  1.
          2   -1    0    0  501    0  0.00000000000E+00 -0.00000000000E+00 -0.10269142144E+04  0.10269142144E+04  0.00000000000E+00 0. -1.
         23    2    1    2    0    0  0.31504778156E+03 -0.48402283188E+03  0.55889376880E+03  0.80913222643E+03  0.93805696000E+02 0.  0.
    5000000    2    1    2    0    0 -0.31504778156E+03  0.48402283188E+03 -0.70952758219E+03  0.10940623889E+04  0.60000826201E+03 0.  0.
         23    2    4    4    0    0 -0.43557782022E+03  0.19721788078E+03 -0.54133617071E+03  0.72813835913E+03  0.92291334114E+02 0.  0.
         23    2    4    4    0    0  0.12053003866E+03  0.28680495110E+03 -0.16819141149E+03  0.36592402978E+03  0.93954640523E+02 0.  0.
          5    1    3    3  502    0  0.22513769287E+03 -0.40206446377E+03  0.41018633284E+03  0.61694224319E+03  0.47000000000E+01 0. -1.
         -5    1    3    3    0  502  0.89910088683E+02 -0.81958368111E+02  0.14870743596E+03  0.19218998324E+03  0.47000000000E+01 0.  1.
         13    1    5    5    0    0 -0.19134087377E+03  0.76151702390E+02 -0.16741964032E+03  0.26540487508E+03  0.00000000000E+00 0. -1.
        -13    1    5    5    0    0 -0.24423694644E+03  0.12106617839E+03 -0.37391653039E+03  0.46273348405E+03  0.00000000000E+00 0.  1.
          2    1    6    6  503    0  0.31934217259E+02  0.12090170546E+03 -0.20344274533E+02  0.12669217072E+03  0.00000000000E+00 0. -1.
         -2    1    6    6    0  503  0.88595821402E+02  0.16590324564E+03 -0.14784713695E+03  0.23923185906E+03  0.00000000000E+00 0.  1.
<mgrwt>
<rscale>  0 0.68712017E+03</rscale>
<asrwt>0</asrwt>
<pdfrwt beam="1">  1        2 0.15798680E+00 0.68712017E+03</pdfrwt>
<pdfrwt beam="2">  1       -2 0.13481237E+00 0.68712017E+03</pdfrwt>
<totfact> 0.98341951E+00</totfact>
</mgrwt>
</event>
<event>
12    1  0.3147868E-008  0.9250976E+03  0.7818608E-02  0.9394741E-01
         -2   -1    0    0    0  501 -0.00000000000E+00  0.00000000000E+00  0.32959328756E+03  0.32959328756E+03  0.00000000000E+00 0.  1.
          2   -1    0    0  501    0  0.00000000000E+00 -0.00000000000E+00 -0.31351892530E+04  0.31351892530E+04  0.00000000000E+00 0. -1.
         23    2    1    2    0    0  0.59862949105E+03  0.62410478310E+03 -0.18452876882E+04  0.20399289154E+04  0.91429097158E+02 0.  0.
    5000000    2    1    2    0    0 -0.59862949105E+03 -0.62410478310E+03 -0.96030827718E+03  0.14248536251E+04  0.60012650161E+03 0.  0.
         23    2    4    4    0    0 -0.53161715023E+03 -0.22681607103E+03 -0.77864467058E+03  0.97403561784E+03  0.91627164662E+02 0.  0.
         23    2    4    4    0    0 -0.67012340814E+02 -0.39728871208E+03 -0.18166360660E+03  0.45081800727E+03  0.88917012729E+02 0.  0.
          5    1    3    3  502    0  0.37832168757E+03  0.39675278534E+03 -0.10643392403E+04  0.11972385645E+04  0.47000000000E+01 0. -1.
         -5    1    3    3    0  502  0.22030780347E+03  0.22735199777E+03 -0.78094844796E+03  0.84269035092E+03  0.47000000000E+01 0.  1.
         13    1    5    5    0    0 -0.34655245849E+03 -0.12049075187E+03 -0.55103968872E+03  0.66201311642E+03  0.00000000000E+00 0.  1.
        -13    1    5    5    0    0 -0.18506469175E+03 -0.10632531916E+03 -0.22760498186E+03  0.31202250142E+03  0.00000000000E+00 0. -1.
          4    1    6    6  503    0 -0.29270907702E+01 -0.13397592538E+03 -0.20636614120E+02  0.13558755948E+03  0.00000000000E+00 0.  1.
         -4    1    6    6    0  503 -0.64085250044E+02 -0.26331278669E+03 -0.16102699248E+03  0.31523044779E+03  0.00000000000E+00 0. -1.
<mgrwt>
<rscale>  0 0.92509758E+03</rscale>
<asrwt>0</asrwt>
<pdfrwt beam="1">  1        2 0.48233679E+00 0.92509758E+03</pdfrwt>
<pdfrwt beam="2">  1       -2 0.50706662E-01 0.92509758E+03</pdfrwt>
<totfact> 0.54535992E+00</totfact>
</mgrwt>
</event>
<event>
12    1  0.3147868E-008  0.5535246E+03  0.7818608E-02  0.1000681E+00
         -3   -1    0    0    0  501 -0.00000000000E+00  0.00000000000E+00  0.54162223653E+03  0.54162223653E+03  0.00000000000E+00 0.  1.
          3   -1    0    0  501    0  0.00000000000E+00 -0.00000000000E+00 -0.69550944125E+03  0.69550944125E+03  0.00000000000E+00 0. -1.
         23    2    1    2    0    0 -0.62230098007E+02 -0.44306975199E+03 -0.17434315546E+03  0.48838869944E+03  0.89132461311E+02 0.  0.
    5000000    2    1    2    0    0  0.62230098007E+02  0.44306975199E+03  0.20455950746E+02  0.74874297834E+03  0.60001184276E+03 0.  0.
         23    2    4    4    0    0 -0.24126037387E+02 -0.83865795937E+02  0.14528583000E+03  0.19260195229E+03  0.91498646007E+02 0.  0.
         23    2    4    4    0    0  0.86356135394E+02  0.52693554793E+03 -0.12482987925E+03  0.55614102604E+03  0.92692439302E+02 0.  0.
          5    1    3    3  502    0 -0.20874001779E+02 -0.22537256630E+03 -0.42018149340E+02  0.23025232348E+03  0.47000000000E+01 0. -1.
         -5    1    3    3    0  502 -0.41356096228E+02 -0.21769718569E+03 -0.13232500612E+03  0.25813637597E+03  0.47000000000E+01 0.  1.
         11    1    5    5    0    0 -0.50617881441E+01  0.15804229281E+02  0.15678186010E+01  0.16668935705E+02  0.00000000000E+00 0. -1.
        -11    1    5    5    0    0 -0.19064249243E+02 -0.99670025217E+02  0.14371801139E+03  0.17593301659E+03  0.00000000000E+00 0.  1.
          3    1    6    6  503    0  0.10434562429E+03  0.44798618366E+03 -0.93916450791E+02  0.46946770899E+03  0.00000000000E+00 0. -1.
         -3    1    6    6    0  503 -0.17989488897E+02  0.78949364273E+02 -0.30913428459E+02  0.86673317053E+02  0.00000000000E+00 0.  1.
<mgrwt>
<rscale>  0 0.55352459E+03</rscale>
<asrwt>0</asrwt>
<pdfrwt beam="1">  1        3 0.10700145E+00 0.55352459E+03</pdfrwt>
<pdfrwt beam="2">  1       -3 0.83326498E-01 0.55352459E+03</pdfrwt>
<totfact> 0.25875082E+00</totfact>
</mgrwt>
</event>
<event>
12    1  0.3147868E-008  0.1204806E+04  0.7818608E-02  0.9108660E-01
         -2   -1    0    0    0  501 -0.00000000000E+00  0.00000000000E+00  0.12946660306E+04  0.12946660306E+04  0.00000000000E+00 0.  1.
          2   -1    0    0  501    0  0.00000000000E+00 -0.00000000000E+00 -0.11626660430E+04  0.11626660430E+04  0.00000000000E+00 0. -1.
         23    2    1    2    0    0  0.54736104773E+03 -0.10126085727E+04  0.99960785655E+02  0.11589010517E+04  0.89884653989E+02 0.  0.
    5000000    2    1    2    0    0 -0.54736104773E+03  0.10126085727E+04  0.32039201876E+02  0.12984310219E+04  0.59993030441E+03 0.  0.
         23    2    4    4    0    0 -0.17015326175E+03  0.79323793644E+03  0.16535927321E+03  0.83321493679E+03  0.93407094872E+02 0.  0.
         23    2    4    4    0    0 -0.37720778598E+03  0.21937063622E+03 -0.13332007133E+03  0.46521608509E+03  0.90788625777E+02 0.  0.
          5    1    3    3  502    0  0.24465239384E+03 -0.40813218684E+03  0.80076050807E+02  0.48255666989E+03  0.47000000000E+01 0. -1.
         -5    1    3    3    0  502  0.30270865389E+03 -0.60447638582E+03  0.19884734849E+02  0.67634438183E+03  0.47000000000E+01 0.  1.
         11    1    5    5    0    0 -0.81427018410E+02  0.47219951207E+03  0.13987881206E+03  0.49916812858E+03  0.00000000000E+00 0. -1.
        -11    1    5    5    0    0 -0.88726243341E+02  0.32103842437E+03  0.25480461147E+02  0.33404680821E+03  0.00000000000E+00 0.  1.
          1    1    6    6  503    0 -0.31454280954E+03  0.13991422414E+03 -0.10955153872E+03  0.36126819509E+03  0.00000000000E+00 0. -1.
         -1    1    6    6    0  503 -0.62664976442E+02  0.79456412084E+02 -0.23768532613E+02  0.10394789000E+03  0.00000000000E+00 0.  1.
<mgrwt>
<rscale>  0 0.12048061E+04</rscale>
<asrwt>0</asrwt>
<pdfrwt beam="1">  1        2 0.17887170E+00 0.12048061E+04</pdfrwt>
<pdfrwt beam="2">  1       -2 0.19917939E+00 0.12048061E+04</pdfrwt>
<totfact> 0.26077939E+00</totfact>
</mgrwt>
</event>
<event>
12    1  0.3147868E-008  0.2215213E+04  0.7818608E-02  0.8512123E-01
          1   -1    0    0  501    0  0.00000000000E+00  0.00000000000E+00  0.23078694373E+04  0.23078694373E+04  0.00000000000E+00 0. -1.
         -1   -1    0    0    0  501 -0.00000000000E+00 -0.00000000000E+00 -0.22852798585E+04  0.22852798585E+04  0.00000000000E+00 0.  1.
         23    2    1    2    0    0  0.21486052269E+04  0.36857052505E+03  0.59332009039E+03  0.22611638207E+04  0.92111027712E+02 0.  0.
    5000000    2    1    2    0    0 -0.21486052269E+04 -0.36857052505E+03 -0.57073051166E+03  0.23319854751E+04  0.60006190223E+03 0.  0.
         23    2    4    4    0    0 -0.19098687022E+04 -0.49513006037E+03 -0.47339202488E+03  0.20310145243E+04  0.90375619555E+02 0.  0.
         23    2    4    4    0    0 -0.23873652468E+03  0.12655953532E+03 -0.97338486781E+02  0.30097095080E+03  0.89979375541E+02 0.  0.
          5    1    3    3  502    0  0.11129373764E+04  0.22276152687E+03  0.27424428010E+03  0.11676833118E+04  0.47000000000E+01 0. -1.
         -5    1    3    3    0  502  0.10356678505E+04  0.14580899818E+03  0.31907581029E+03  0.10934805089E+04  0.47000000000E+01 0.  1.
         13    1    5    5    0    0 -0.69064031626E+03 -0.19481843513E+03 -0.21413395491E+03  0.74886021376E+03  0.00000000000E+00 0. -1.
        -13    1    5    5    0    0 -0.12192283859E+04 -0.30031162523E+03 -0.25925806997E+03  0.12821543106E+04  0.00000000000E+00 0.  1.
          1    1    6    6  503    0 -0.72479660133E+02  0.99097474016E+01 -0.59684506416E+02  0.94412629095E+02  0.00000000000E+00 0. -1.
         -1    1    6    6    0  503 -0.16625686454E+03  0.11664978791E+03 -0.37653980366E+02  0.20655832171E+03  0.00000000000E+00 0.  1.
<mgrwt>
<rscale>  0 0.22152131E+04</rscale>
<asrwt>0</asrwt>
<pdfrwt beam="1">  1        1 0.35505684E+00 0.22152131E+04</pdfrwt>
<pdfrwt beam="2">  1       -1 0.35158152E+00 0.22152131E+04</pdfrwt>
<totfact> 0.24182535E-02</totfact>
</mgrwt>
</event>
<event>
12    1  0.3147868E-008  0.5910690E+03  0.7818608E-02  0.9924110E-01
          2   -1    0    0  501    0  0.00000000000E+00  0.00000000000E+00  0.26920149644E+03  0.26920149644E+03  0.00000000000E+00 0.  1.
         -2   -1    0    0    0  501 -0.00000000000E+00 -0.00000000000E+00 -0.18274191008E+04  0.18274191008E+04  0.00000000000E+00 0. -1.
         23    2    1    2    0    0  0.53794129032E+03  0.81673326945E+02 -0.39004088842E+03  0.67521734974E+03  0.87950045988E+02 0.  0.
    5000000    2    1    2    0    0 -0.53794129032E+03 -0.81673326945E+02 -0.11681767159E+04  0.14214032475E+04  0.59974910433E+03 0.  0.
         23    2    4    4    0    0 -0.28894207942E+03  0.10729674444E+03 -0.10093758706E+04  0.10594422966E+04  0.92618654200E+02 0.  0.
         23    2    4    4    0    0 -0.24899921090E+03 -0.18897007138E+03 -0.15880084531E+03  0.36196095084E+03  0.89931788341E+02 0.  0.
          5    1    3    3  502    0  0.29162357957E+03  0.48885072394E+00 -0.19963614526E+03  0.35344197774E+03  0.47000000000E+01 0. -1.
         -5    1    3    3    0  502  0.24631771075E+03  0.81184476221E+02 -0.19040474316E+03  0.32177537200E+03  0.47000000000E+01 0.  1.
         11    1    5    5    0    0 -0.21317108585E+03  0.10539104768E+03 -0.85514433749E+03  0.88759282484E+03  0.00000000000E+00 0. -1.
        -11    1    5    5    0    0 -0.75770993571E+02  0.19056967562E+01 -0.15423153312E+03  0.17184947180E+03  0.00000000000E+00 0.  1.
          4    1    6    6  503    0 -0.56430870780E+02 -0.16038117063E+02 -0.62724036198E+02  0.85883462278E+02  0.00000000000E+00 0.  1.
         -4    1    6    6    0  503 -0.19256834012E+03 -0.17293195432E+03 -0.96076809116E+02  0.27607748856E+03  0.00000000000E+00 0. -1.
<mgrwt>
<rscale>  0 0.59106902E+03</rscale>
<asrwt>0</asrwt>
<pdfrwt beam="1">  1        2 0.41415614E-01 0.59106902E+03</pdfrwt>
<pdfrwt beam="2">  1       -2 0.28114141E+00 0.59106902E+03</pdfrwt>
<totfact> 0.54301415E+00</totfact>
</mgrwt>
</event>
<event>
12    1  0.3570898E-008  0.1667622E+04  0.7818608E-02  0.8780049E-01
          1   -1    0    0  501    0  0.00000000000E+00  0.00000000000E+00  0.14287032553E+04  0.14287032553E+04  0.00000000000E+00 0. -1.
         -1   -1    0    0    0  501 -0.00000000000E+00 -0.00000000000E+00 -0.21127274196E+04  0.21127274196E+04  0.00000000000E+00 0.  1.
         23    2    1    2    0    0 -0.20057061000E+03 -0.16230091264E+04 -0.74370256420E+03  0.17984669819E+04  0.83682658141E+02 0.  0.
    5000000    2    1    2    0    0  0.20057061000E+03  0.16230091264E+04  0.59678399908E+02  0.17429636929E+04  0.59997810756E+03 0.  0.
         23    2    4    4    0    0 -0.51290094625E+02  0.12108737475E+04 -0.11714591132E+03  0.12207489913E+04  0.87515878938E+02 0.  0.
         23    2    4    4    0    0  0.25186070463E+03  0.41213537891E+03  0.17682431123E+03  0.52221470164E+03  0.90288274379E+02 0.  0.
          5    1    3    3  502    0 -0.11054747467E+03 -0.59205551329E+03 -0.29028563151E+03  0.66860923777E+03  0.47000000000E+01 0. -1.
         -5    1    3    3    0  502 -0.90023135326E+02 -0.10309536131E+04 -0.45341693270E+03  0.11298577442E+04  0.47000000000E+01 0.  1.
         13    1    5    5    0    0  0.22464268811E+02  0.45982292135E+03 -0.51197301070E+02  0.46320937599E+03  0.00000000000E+00 0. -1.
        -13    1    5    5    0    0 -0.73754363437E+02  0.75105082612E+03 -0.65948610251E+02  0.75753961529E+03  0.00000000000E+00 0.  1.
          3    1    6    6  503    0  0.16431351235E+03  0.26541987778E+03  0.67495472058E+02  0.31937795886E+03  0.00000000000E+00 0. -1.
         -3    1    6    6    0  503  0.87547192278E+02  0.14671550113E+03  0.10932883917E+03  0.20283674278E+03  0.00000000000E+00 0.  1.
<mgrwt>
<rscale>  0 0.16676216E+04</rscale>
<asrwt>0</asrwt>
<pdfrwt beam="1">  1        1 0.21980050E+00 0.16676216E+04</pdfrwt>
<pdfrwt beam="2">  1       -1 0.32503499E+00 0.16676216E+04</pdfrwt>
<totfact> 0.15457664E-01</totfact>
</mgrwt>
</event>
<event>
12    1  0.3147868E-008  0.7550109E+03  0.7818608E-02  0.9627522E-01
          2   -1    0    0  501    0  0.00000000000E+00  0.00000000000E+00  0.10979182789E+04  0.10979182789E+04  0.00000000000E+00 0.  1.
         -2   -1    0    0    0  501 -0.00000000000E+00 -0.00000000000E+00 -0.71860689659E+03  0.71860689659E+03  0.00000000000E+00 0. -1.
         23    2    1    2    0    0 -0.22668834277E+03  0.62504423278E+03 -0.25621584374E+03  0.71848508683E+03  0.92229950256E+02 0.  0.
    5000000    2    1    2    0    0  0.22668834277E+03 -0.62504423278E+03  0.63552722603E+03  0.10980400887E+04  0.59977436055E+03 0.  0.
         23    2    4    4    0    0 -0.10375082452E+03 -0.45318698052E+03  0.50664494844E+03  0.69363486560E+03  0.91090889162E+02 0.  0.
         23    2    4    4    0    0  0.33043916729E+03 -0.17185725226E+03  0.12888227759E+03  0.40440522306E+03  0.90597927807E+02 0.  0.
          5    1    3    3  502    0 -0.59969532746E+02  0.29413826474E+03 -0.12792296104E+03  0.32634343505E+03  0.47000000000E+01 0. -1.
         -5    1    3    3    0  502 -0.16671881002E+03  0.33090596805E+03 -0.12829288269E+03  0.39214165177E+03  0.47000000000E+01 0.  1.
         13    1    5    5    0    0 -0.55952688113E+02 -0.18273183627E+03  0.27187256235E+03  0.33231960137E+03  0.00000000000E+00 0.  1.
        -13    1    5    5    0    0 -0.47798136409E+02 -0.27045514425E+03  0.23477238609E+03  0.36131526423E+03  0.00000000000E+00 0. -1.
          3    1    6    6  503    0  0.20394901501E+03 -0.12105926824E+03  0.12487328871E+03  0.26803709703E+03  0.00000000000E+00 0. -1.
         -3    1    6    6    0  503  0.12649015228E+03 -0.50797984022E+02  0.40089888851E+01  0.13636812603E+03  0.00000000000E+00 0.  1.
<mgrwt>
<rscale>  0 0.75501091E+03</rscale>
<asrwt>0</asrwt>
<pdfrwt beam="1">  1        2 0.16891050E+00 0.75501091E+03</pdfrwt>
<pdfrwt beam="2">  1       -2 0.11055491E+00 0.75501091E+03</pdfrwt>
<totfact> 0.14429940E+01</totfact>
</mgrwt>
</event>
<event>
12    1  0.3147868E-008  0.3384115E+03  0.7818608E-02  0.1067475E+00
          2   -1    0    0  501    0  0.00000000000E+00  0.00000000000E+00  0.20684033349E+04  0.20684033349E+04  0.00000000000E+00 0. -1.
         -2   -1    0    0    0  501 -0.00000000000E+00 -0.00000000000E+00 -0.93825819290E+02  0.93825819290E+02  0.00000000000E+00 0.  1.
         23    2    1    2    0    0  0.20542051336E+03  0.80108934994E+02  0.45884164019E+03  0.51719848081E+03  0.91343248314E+02 0.  0.
    5000000    2    1    2    0    0 -0.20542051336E+03 -0.80108934994E+02  0.15157358754E+04  0.16450306734E+04  0.60004636781E+03 0.  0.
         23    2    4    4    0    0 -0.20513704028E+03  0.11170614505E+03  0.22119659535E+03  0.33319102933E+03  0.86769004236E+02 0.  0.
         23    2    4    4    0    0 -0.28347308567E+00 -0.19181508004E+03  0.12945392800E+04  0.13118396440E+04  0.91094449649E+02 0.  0.
          5    1    3    3  502    0  0.54552736717E+02  0.35106510775E+02  0.23264259526E+03  0.24156393628E+03  0.47000000000E+01 0. -1.
         -5    1    3    3    0  502  0.15086777664E+03  0.45002424220E+02  0.22619904493E+03  0.27563454454E+03  0.47000000000E+01 0.  1.
         11    1    5    5    0    0 -0.21346656005E+03  0.10636322125E+03  0.21699346781E+03  0.32243956359E+03  0.00000000000E+00 0.  1.
        -11    1    5    5    0    0  0.83295197784E+01  0.53429237912E+01  0.42031275425E+01  0.10751465738E+02  0.00000000000E+00 0. -1.
          2    1    6    6  503    0  0.35729358254E+02 -0.66472517898E+02  0.64005681138E+03  0.64449042233E+03  0.00000000000E+00 0. -1.
         -2    1    6    6    0  503 -0.36012831340E+02 -0.12534256214E+03  0.65448246867E+03  0.66734922170E+03  0.00000000000E+00 0.  1.
<mgrwt>
<rscale>  0 0.33841147E+03</rscale>
<asrwt>0</asrwt>
<pdfrwt beam="1">  1        2 0.31821586E+00 0.33841147E+03</pdfrwt>
<pdfrwt beam="2">  1       -2 0.14434743E-01 0.33841147E+03</pdfrwt>
<totfact> 0.24702441E+02</totfact>
</mgrwt>
</event>
<event>
12    1  0.3147868E-008  0.7626500E+03  0.7818608E-02  0.9615711E-01
         -1   -1    0    0    0  501 -0.00000000000E+00  0.00000000000E+00  0.15957401037E+03  0.15957401037E+03  0.00000000000E+00 0.  1.
          1   -1    0    0  501    0  0.00000000000E+00 -0.00000000000E+00 -0.38426388605E+04  0.38426388605E+04  0.00000000000E+00 0. -1.
         23    2    1    2    0    0 -0.29868335038E+03 -0.59193769447E+03 -0.16915811504E+04  0.18191824467E+04  0.91520534560E+02 0.  0.
    5000000    2    1    2    0    0  0.29868335038E+03  0.59193769447E+03 -0.19914836998E+04  0.21830304242E+04  0.60001044023E+03 0.  0.
         23    2    4    4    0    0 -0.11399148388E+03  0.35996758046E+03 -0.64358432489E+03  0.75155332742E+03  0.89782533548E+02 0.  0.
         23    2    4    4    0    0  0.41267483426E+03  0.23197011401E+03 -0.13478993749E+04  0.14314770967E+04  0.90461599799E+02 0.  0.
          5    1    3    3  502    0 -0.58949021494E+02 -0.20460491254E+03 -0.49852745517E+03  0.54211610465E+03  0.47000000000E+01 0. -1.
         -5    1    3    3    0  502 -0.23973432889E+03 -0.38733278193E+03 -0.11930536952E+04  0.12770663421E+04  0.47000000000E+01 0.  1.
         13    1    5    5    0    0 -0.94706679655E+02  0.34134190613E+03 -0.62664799331E+03  0.71984120441E+03  0.00000000000E+00 0.  1.
        -13    1    5    5    0    0 -0.19284804226E+02  0.18625674328E+02 -0.16936331587E+02  0.31712123010E+02  0.00000000000E+00 0. -1.
          3    1    6    6  503    0  0.13237980805E+03  0.49806754122E+02 -0.51299248843E+03  0.53213383609E+03  0.00000000000E+00 0. -1.
         -3    1    6    6    0  503  0.28029502621E+03  0.18216335989E+03 -0.83490688646E+03  0.89934326064E+03  0.00000000000E+00 0.  1.
<mgrwt>
<rscale>  0 0.76265001E+03</rscale>
<asrwt>0</asrwt>
<pdfrwt beam="1">  1        1 0.59117526E+00 0.76265001E+03</pdfrwt>
<pdfrwt beam="2">  1       -1 0.24549846E-01 0.76265001E+03</pdfrwt>
<totfact> 0.20693829E+00</totfact>
</mgrwt>
</event>
<event>
12    1  0.3147868E-008  0.4469613E+03  0.7818608E-02  0.1028632E+00
          1   -1    0    0  501    0  0.00000000000E+00  0.00000000000E+00  0.20583300192E+04  0.20583300192E+04  0.00000000000E+00 0. -1.
         -1   -1    0    0    0  501 -0.00000000000E+00 -0.00000000000E+00 -0.20016537854E+03  0.20016537854E+03  0.00000000000E+00 0.  1.
         23    2    1    2    0    0  0.15407382574E+03  0.35925997982E+03  0.19103422031E+03  0.44410222858E+03  0.89029428995E+02 0.  0.
    5000000    2    1    2    0    0 -0.15407382574E+03 -0.35925997982E+03  0.16671304204E+04  0.18143931692E+04  0.59991020743E+03 0.  0.
         23    2    4    4    0    0 -0.16756996840E+03 -0.36900024902E+03  0.16681020071E+04  0.17191474384E+04  0.93073793153E+02 0.  0.
         23    2    4    4    0    0  0.13496142654E+02  0.97402691991E+01 -0.97158667849E+00  0.95245730777E+02  0.93775191495E+02 0.  0.
          5    1    3    3  502    0  0.11354706746E+03  0.15318965655E+03  0.95958338636E+02  0.21351838365E+03  0.47000000000E+01 0. -1.
         -5    1    3    3    0  502  0.40526758278E+02  0.20607032326E+03  0.95075881671E+02  0.23058384493E+03  0.47000000000E+01 0.  1.
         13    1    5    5    0    0 -0.94182237520E+02 -0.22852446412E+03  0.11920478504E+04  0.12174037138E+04  0.00000000000E+00 0. -1.
        -13    1    5    5    0    0 -0.73387730875E+02 -0.14047578489E+03  0.47605415662E+03  0.50174372465E+03  0.00000000000E+00 0.  1.
          2    1    6    6  503    0 -0.88807736439E+01  0.44901845547E+02 -0.19352163165E+02  0.49694568045E+02  0.00000000000E+00 0. -1.
         -2    1    6    6    0  503  0.22376916297E+02 -0.35161576348E+02  0.18380576487E+02  0.45551162732E+02  0.00000000000E+00 0.  1.
<mgrwt>
<rscale>  0 0.44696134E+03</rscale>
<asrwt>0</asrwt>
<pdfrwt beam="1">  1        1 0.31666614E+00 0.44696134E+03</pdfrwt>
<pdfrwt beam="2">  1       -1 0.30794675E-01 0.44696134E+03</pdfrwt>
<totfact> 0.29015293E+01</totfact>
</mgrwt>
</event>
<event>
12    1  0.3147868E-008  0.8223672E+03  0.7818608E-02  0.9528194E-01
          1   -1    0    0  501    0  0.00000000000E+00  0.00000000000E+00  0.89776879717E+03  0.89776879717E+03  0.00000000000E+00 0. -1.
         -1   -1    0    0    0  501 -0.00000000000E+00 -0.00000000000E+00 -0.82347637825E+03  0.82347637825E+03  0.00000000000E+00 0.  1.
         23    2    1    2    0    0  0.68508407097E+03 -0.22730900917E+03  0.24307307516E+03  0.76729582398E+03  0.92998880083E+02 0.  0.
    5000000    2    1    2    0    0 -0.68508407097E+03  0.22730900917E+03 -0.16878065624E+03  0.95394935144E+03  0.60043557960E+03 0.  0.
         23    2    4    4    0    0 -0.72796990028E+03  0.55499397440E+02 -0.15812241019E+03  0.75275196019E+03  0.92803330367E+02 0.  0.
         23    2    4    4    0    0  0.42885829319E+02  0.17180961173E+03 -0.10658246045E+02  0.20119739125E+03  0.94916041829E+02 0.  0.
          5    1    3    3  502    0  0.26173746980E+03 -0.13463688493E+03  0.96740717487E+02  0.30986198589E+03  0.47000000000E+01 0. -1.
         -5    1    3    3    0  502  0.42334660117E+03 -0.92672124236E+02  0.14633235767E+03  0.45743383809E+03  0.47000000000E+01 0.  1.
         13    1    5    5    0    0 -0.41588411883E+02  0.66134842400E+01 -0.32650764343E+02  0.53286082507E+02  0.00000000000E+00 0.  1.
        -13    1    5    5    0    0 -0.68638148840E+03  0.48885913200E+02 -0.12547164585E+03  0.69946587768E+03  0.00000000000E+00 0. -1.
          2    1    6    6  503    0  0.54655325048E+02  0.99960911803E+02 -0.42681401371E+02  0.12165973232E+03  0.00000000000E+00 0.  1.
         -2    1    6    6    0  503 -0.11769495729E+02  0.71848699926E+02  0.32023155326E+02  0.79537658929E+02  0.00000000000E+00 0. -1.
<mgrwt>
<rscale>  0 0.82236724E+03</rscale>
<asrwt>0</asrwt>
<pdfrwt beam="1">  1        1 0.13811828E+00 0.82236724E+03</pdfrwt>
<pdfrwt beam="2">  1       -1 0.12668867E+00 0.82236724E+03</pdfrwt>
<totfact> 0.10108073E+01</totfact>
</mgrwt>
</event>
<event>
12    1  0.3147868E-008  0.4314256E+03  0.7818608E-02  0.1033411E+00
         -1   -1    0    0    0  501 -0.00000000000E+00  0.00000000000E+00  0.34313309150E+03  0.34313309150E+03  0.00000000000E+00 0.  1.
          1   -1    0    0  501    0  0.00000000000E+00 -0.00000000000E+00 -0.11558499557E+04  0.11558499557E+04  0.00000000000E+00 0. -1.
         23    2    1    2    0    0 -0.34308668095E+03  0.10858020085E+03 -0.69768208380E+03  0.79006224753E+03  0.89106308691E+02 0.  0.
    5000000    2    1    2    0    0  0.34308668095E+03 -0.10858020085E+03 -0.11503478041E+03  0.70892079969E+03  0.59986462545E+03 0.  0.
         23    2    4    4    0    0 -0.24081924768E+02 -0.75205861995E+02  0.18790287138E+03  0.22294918985E+03  0.90349274484E+02 0.  0.
         23    2    4    4    0    0  0.36716860572E+03 -0.33374338851E+02 -0.30293765179E+03  0.48597160984E+03  0.92035608217E+02 0.  0.
          5    1    3    3  502    0 -0.61045107408E+02  0.53046587801E+02 -0.19157353450E+03  0.20799748734E+03  0.47000000000E+01 0. -1.
         -5    1    3    3    0  502 -0.28204157354E+03  0.55533613045E+02 -0.50610854930E+03  0.58206476019E+03  0.47000000000E+01 0.  1.
         11    1    5    5    0    0  0.21220400059E+02 -0.71349576797E+02  0.12082383452E+03  0.14191358806E+03  0.00000000000E+00 0. -1.
        -11    1    5    5    0    0 -0.45302324828E+02 -0.38562851980E+01  0.67079036867E+02  0.81035601789E+02  0.00000000000E+00 0.  1.
          3    1    6    6  503    0  0.11531430924E+03 -0.41234654864E+02 -0.13951406407E+03  0.18563906041E+03  0.00000000000E+00 0. -1.
         -3    1    6    6    0  503  0.25185429649E+03  0.78603160128E+01 -0.16342358772E+03  0.30033254944E+03  0.00000000000E+00 0.  1.
<mgrwt>
<rscale>  0 0.43142560E+03</rscale>
<asrwt>0</asrwt>
<pdfrwt beam="1">  1        1 0.17782307E+00 0.43142560E+03</pdfrwt>
<pdfrwt beam="2">  1       -1 0.52789706E-01 0.43142560E+03</pdfrwt>
<totfact> 0.44678642E+01</totfact>
</mgrwt>
</event>
<event>
12    1  0.3147868E-008  0.5698557E+03  0.7818608E-02  0.9969998E-01
          1   -1    0    0  501    0  0.00000000000E+00  0.00000000000E+00  0.14774286544E+04  0.14774286544E+04  0.00000000000E+00 0. -1.
         -1   -1    0    0    0  501 -0.00000000000E+00 -0.00000000000E+00 -0.53929190783E+03  0.53929190783E+03  0.00000000000E+00 0.  1.
         23    2    1    2    0    0 -0.47701129391E+03 -0.22862550778E+03  0.10788004770E+04  0.12046255410E+04  0.86618863578E+02 0.  0.
    5000000    2    1    2    0    0  0.47701129391E+03  0.22862550778E+03 -0.14066373051E+03  0.81209502115E+03  0.59991886199E+03 0.  0.
         23    2    4    4    0    0  0.11681210258E+02  0.84112200707E+02  0.18091071895E+03  0.22111107792E+03  0.94605008152E+02 0.  0.
         23    2    4    4    0    0  0.46533008365E+03  0.14451330708E+03 -0.32157444946E+03  0.59098394323E+03  0.91846131871E+02 0.  0.
          5    1    3    3  502    0 -0.19881499619E+03 -0.61964246656E+02  0.35741375160E+03  0.41368303133E+03  0.47000000000E+01 0. -1.
         -5    1    3    3    0  502 -0.27819629771E+03 -0.16666126113E+03  0.72138672544E+03  0.79094250971E+03  0.47000000000E+01 0.  1.
         11    1    5    5    0    0  0.37260021678E+02  0.78767069772E+02  0.17317114051E+03  0.19385769111E+03  0.00000000000E+00 0.  1.
        -11    1    5    5    0    0 -0.25578811420E+02  0.53451309353E+01  0.77395784391E+01  0.27253386813E+02  0.00000000000E+00 0. -1.
          1    1    6    6  503    0  0.22162533857E+03  0.11082540849E+03 -0.13469920459E+03  0.28203534810E+03  0.00000000000E+00 0. -1.
         -1    1    6    6    0  503  0.24370474508E+03  0.33687898589E+02 -0.18687524487E+03  0.30894859512E+03  0.00000000000E+00 0.  1.
<mgrwt>
<rscale>  0 0.56985575E+03</rscale>
<asrwt>0</asrwt>
<pdfrwt beam="1">  1        1 0.22729671E+00 0.56985575E+03</pdfrwt>
<pdfrwt beam="2">  1       -1 0.82967986E-01 0.56985575E+03</pdfrwt>
<totfact> 0.10474760E+01</totfact>
</mgrwt>
</event>
<event>
12    1  0.3147868E-008  0.6677526E+03  0.7818608E-02  0.9774026E-01
          2   -1    0    0  501    0  0.00000000000E+00  0.00000000000E+00  0.17773062213E+04  0.17773062213E+04  0.00000000000E+00 0. -1.
         -2   -1    0    0    0  501 -0.00000000000E+00 -0.00000000000E+00 -0.28827630827E+03  0.28827630827E+03  0.00000000000E+00 0.  1.
         23    2    1    2    0    0 -0.31852317273E+03 -0.47830135271E+03  0.45210738591E+03  0.73690285719E+03  0.91627162852E+02 0.  0.
    5000000    2    1    2    0    0  0.31852317273E+03  0.47830135271E+03  0.10369225271E+04  0.13286796724E+04  0.59996012282E+03 0.  0.
         23    2    4    4    0    0  0.59090524395E+02  0.49420904352E+03  0.86877197820E+03  0.10058037936E+04  0.95615126238E+02 0.  0.
         23    2    4    4    0    0  0.25943264834E+03 -0.15907690815E+02  0.16815054889E+03  0.32287587874E+03  0.91738063707E+02 0.  0.
          5    1    3    3  502    0 -0.11385468492E+03 -0.19565720649E+03  0.12530043564E+03  0.25877967637E+03  0.47000000000E+01 0. -1.
         -5    1    3    3    0  502 -0.20466848781E+03 -0.28264414621E+03  0.32680695027E+03  0.47812318082E+03  0.47000000000E+01 0.  1.
         13    1    5    5    0    0  0.46437408340E+02  0.30091707508E+03  0.43745314822E+03  0.53298478014E+03  0.00000000000E+00 0. -1.
        -13    1    5    5    0    0  0.12653116055E+02  0.19329196844E+03  0.43131882998E+03  0.47281901348E+03  0.00000000000E+00 0.  1.
          1    1    6    6  503    0  0.13587185796E+03  0.77654503545E+01  0.36770119299E+02  0.14097342189E+03  0.00000000000E+00 0. -1.
         -1    1    6    6    0  503  0.12356079037E+03 -0.23673141170E+02  0.13138042959E+03  0.18190245686E+03  0.00000000000E+00 0.  1.
<mgrwt>
<rscale>  0 0.66775258E+03</rscale>
<asrwt>0</asrwt>
<pdfrwt beam="1">  1        2 0.27343172E+00 0.66775258E+03</pdfrwt>
<pdfrwt beam="2">  1       -2 0.44350202E-01 0.66775258E+03</pdfrwt>
<totfact> 0.44416914E+01</totfact>
</mgrwt>
</event>
<event>
12    1  0.3147868E-008  0.5045947E+03  0.7818608E-02  0.1012587E+00
         -1   -1    0    0    0  501 -0.00000000000E+00  0.00000000000E+00  0.10914249264E+03  0.10914249264E+03  0.00000000000E+00 0.  1.
          1   -1    0    0  501    0  0.00000000000E+00 -0.00000000000E+00 -0.39011151367E+04  0.39011151367E+04  0.00000000000E+00 0. -1.
         23    2    1    2    0    0  0.20476409513E+03  0.27379300863E+03 -0.26655262789E+04  0.26889032727E+04  0.90991868896E+02 0.  0.
    5000000    2    1    2    0    0 -0.20476409513E+03 -0.27379300863E+03 -0.11264463652E+04  0.13213543566E+04  0.60017078903E+03 0.  0.
         23    2    4    4    0    0 -0.34358419156E+03 -0.35936958657E+03 -0.82606904597E+03  0.96839417612E+03  0.90557248092E+02 0.  0.
         23    2    4    4    0    0  0.13882009643E+03  0.85576577945E+02 -0.30037731919E+03  0.35296018052E+03  0.88090778664E+02 0.  0.
          5    1    3    3  502    0  0.15234264412E+02  0.29186782746E+02 -0.53317600395E+03  0.53421221653E+03  0.47000000000E+01 0. -1.
         -5    1    3    3    0  502  0.18952983072E+03  0.24460622588E+03 -0.21323502750E+04  0.21546910562E+04  0.47000000000E+01 0.  1.
         13    1    5    5    0    0 -0.43646843959E+02 -0.16310489754E+02 -0.49361590755E+02  0.67879641318E+02  0.00000000000E+00 0. -1.
        -13    1    5    5    0    0 -0.29993734760E+03 -0.34305909682E+03 -0.77670745522E+03  0.90051453480E+03  0.00000000000E+00 0.  1.
          2    1    6    6  503    0  0.56686862040E+02  0.45991849563E+02 -0.21866476363E+03  0.23052750250E+03  0.00000000000E+00 0. -1.
         -2    1    6    6    0  503  0.82133234389E+02  0.39584728382E+02 -0.81712555557E+02  0.12243267802E+03  0.00000000000E+00 0.  1.
<mgrwt>
<rscale>  0 0.50459474E+03</rscale>
<asrwt>0</asrwt>
<pdfrwt beam="1">  1        1 0.60017156E+00 0.50459474E+03</pdfrwt>
<pdfrwt beam="2">  1       -1 0.16791153E-01 0.50459474E+03</pdfrwt>
<totfact> 0.37114361E+00</totfact>
</mgrwt>
</event>
<event>
12    1  0.3147868E-008  0.5313187E+03  0.7818608E-02  0.1005913E+00
         -1   -1    0    0    0  501 -0.00000000000E+00  0.00000000000E+00  0.37498963738E+03  0.37498963738E+03  0.00000000000E+00 0.  1.
          1   -1    0    0  501    0  0.00000000000E+00 -0.00000000000E+00 -0.11815591710E+04  0.11815591710E+04  0.00000000000E+00 0. -1.
         23    2    1    2    0    0  0.32921968944E+03 -0.16948027607E+03 -0.75914208155E+03  0.84971010087E+03  0.92743666363E+02 0.  0.
    5000000    2    1    2    0    0 -0.32921968944E+03  0.16948027607E+03 -0.47427452066E+02  0.70683870751E+03  0.60021864960E+03 0.  0.
         23    2    4    4    0    0 -0.15822787112E+03 -0.20607129930E+03  0.31532774711E+02  0.27697283492E+03  0.90654265242E+02 0.  0.
         23    2    4    4    0    0 -0.17099181832E+03  0.37555157537E+03 -0.78960226777E+02  0.42986587259E+03  0.90954732179E+02 0.  0.
          5    1    3    3  502    0  0.16407249112E+03 -0.60974357275E+02 -0.26630389477E+03  0.31871226671E+03  0.47000000000E+01 0. -1.
         -5    1    3    3    0  502  0.16514719833E+03 -0.10850591880E+03 -0.49283818678E+03  0.53099783416E+03  0.47000000000E+01 0.  1.
         13    1    5    5    0    0 -0.70032260306E+02 -0.26562201148E+02  0.31762875384E+01  0.74967705153E+02  0.00000000000E+00 0. -1.
        -13    1    5    5    0    0 -0.88195610816E+02 -0.17950909815E+03  0.28356487172E+02  0.20200512977E+03  0.00000000000E+00 0.  1.
          3    1    6    6  503    0 -0.54030570435E+02  0.74749021022E+02  0.15633498117E+02  0.93547447580E+02  0.00000000000E+00 0. -1.
         -3    1    6    6    0  503 -0.11696124788E+03  0.30080255435E+03 -0.94593724894E+02  0.33631842501E+03  0.00000000000E+00 0.  1.
<mgrwt>
<rscale>  0 0.53131868E+03</rscale>
<asrwt>0</asrwt>
<pdfrwt beam="1">  1        1 0.18177833E+00 0.53131868E+03</pdfrwt>
<pdfrwt beam="2">  1       -1 0.57690714E-01 0.53131868E+03</pdfrwt>
<totfact> 0.35499427E+01</totfact>
</mgrwt>
</event>
<event>
12    1  0.3147868E-008  0.3976212E+03  0.7818608E-02  0.1044607E+00
         -2   -1    0    0    0  501 -0.00000000000E+00  0.00000000000E+00  0.30173444492E+03  0.30173444492E+03  0.00000000000E+00 0.  1.
          2   -1    0    0  501    0  0.00000000000E+00 -0.00000000000E+00 -0.73355363834E+03  0.73355363834E+03  0.00000000000E+00 0. -1.
         23    2    1    2    0    0  0.26685050731E+03  0.22192213110E+02 -0.14395154370E+03  0.31795936355E+03  0.93136579068E+02 0.  0.
    5000000    2    1    2    0    0 -0.26685050731E+03 -0.22192213110E+02 -0.28786764972E+03  0.71732871971E+03  0.59999251727E+03 0.  0.
         23    2    4    4    0    0 -0.39141878938E+02  0.18797204484E+03  0.80564707643E+02  0.22783284853E+03  0.92474636657E+02 0.  0.
         23    2    4    4    0    0 -0.22770862837E+03 -0.21016425795E+03 -0.36843235737E+03  0.48949587118E+03  0.88563938429E+02 0.  0.
          5    1    3    3  502    0  0.31685656733E+02  0.32930273947E+02 -0.38619116512E+02  0.60015914098E+02  0.47000000000E+01 0. -1.
         -5    1    3    3    0  502  0.23516485058E+03 -0.10738060837E+02 -0.10533242719E+03  0.25794344945E+03  0.47000000000E+01 0.  1.
         11    1    5    5    0    0 -0.77442214604E+01  0.16473494950E+02  0.46839184748E+02  0.50251947522E+02  0.00000000000E+00 0. -1.
        -11    1    5    5    0    0 -0.31397657477E+02  0.17149854989E+03  0.33725522896E+02  0.17758090101E+03  0.00000000000E+00 0.  1.
          3    1    6    6  503    0 -0.21071907167E+03 -0.14968317709E+03 -0.28051098382E+03  0.38143674798E+03  0.00000000000E+00 0. -1.
         -3    1    6    6    0  503 -0.16989556701E+02 -0.60481080857E+02 -0.87921373547E+02  0.10805912319E+03  0.00000000000E+00 0.  1.
<mgrwt>
<rscale>  0 0.39762115E+03</rscale>
<asrwt>0</asrwt>
<pdfrwt beam="1">  1        2 0.11285440E+00 0.39762115E+03</pdfrwt>
<pdfrwt beam="2">  1       -2 0.46420685E-01 0.39762115E+03</pdfrwt>
<totfact> 0.17573964E+02</totfact>
</mgrwt>
</event>
<event>
12    1  0.3147868E-008  0.1145482E+04  0.7818608E-02  0.9161961E-01
          1   -1    0    0  501    0  0.00000000000E+00  0.00000000000E+00  0.17225659750E+04  0.17225659750E+04  0.00000000000E+00 0. -1.
         -1   -1    0    0    0  501 -0.00000000000E+00 -0.00000000000E+00 -0.93744322641E+03  0.93744322641E+03  0.00000000000E+00 0.  1.
         23    2    1    2    0    0 -0.10902655874E+04  0.33747224433E+03  0.75304587454E+03  0.13702709471E+04  0.89430489484E+02 0.  0.
    5000000    2    1    2    0    0  0.10902655874E+04 -0.33747224433E+03  0.32076874068E+02  0.12897382544E+04  0.59985770997E+03 0.  0.
         23    2    4    4    0    0  0.61410354481E+03 -0.25402655070E+03 -0.25726973735E+03  0.71888545467E+03  0.94635759454E+02 0.  0.
         23    2    4    4    0    0  0.47616204258E+03 -0.83445693624E+02  0.28934661142E+03  0.57085279971E+03  0.91967292076E+02 0.  0.
          5    1    3    3  502    0 -0.59595926446E+03  0.17920599110E+03  0.46305742690E+03  0.77571032142E+03  0.47000000000E+01 0. -1.
         -5    1    3    3    0  502 -0.49430632293E+03  0.15826625323E+03  0.28998844763E+03  0.59456062564E+03  0.47000000000E+01 0.  1.
         11    1    5    5    0    0  0.37467097673E+03 -0.13053437864E+03 -0.19632285706E+03  0.44267395340E+03  0.00000000000E+00 0. -1.
        -11    1    5    5    0    0  0.23943256808E+03 -0.12349217206E+03 -0.60946880290E+02  0.27621150127E+03  0.00000000000E+00 0.  1.
          2    1    6    6  503    0  0.18197254828E+03 -0.31800828386E+02  0.16365379431E+03  0.24679518918E+03  0.00000000000E+00 0. -1.
         -2    1    6    6    0  503  0.29418949430E+03 -0.51644865237E+02  0.12569281711E+03  0.32405761052E+03  0.00000000000E+00 0.  1.
<mgrwt>
<rscale>  0 0.11454825E+04</rscale>
<asrwt>0</asrwt>
<pdfrwt beam="1">  1        1 0.26501015E+00 0.11454825E+04</pdfrwt>
<pdfrwt beam="2">  1       -1 0.14422203E+00 0.11454825E+04</pdfrwt>
<totfact> 0.17620652E+00</totfact>
</mgrwt>
</event>
<event>
12    1  0.3147868E-008  0.7131429E+03  0.7818608E-02  0.9695016E-01
         -1   -1    0    0    0  501 -0.00000000000E+00  0.00000000000E+00  0.76626080145E+03  0.76626080145E+03  0.00000000000E+00 0.  1.
          1   -1    0    0  501    0  0.00000000000E+00 -0.00000000000E+00 -0.81850516276E+03  0.81850516276E+03  0.00000000000E+00 0. -1.
         23    2    1    2    0    0 -0.64275013041E+03  0.89115068281E+02 -0.20846779828E+03  0.68730775408E+03  0.88678635299E+02 0.  0.
    5000000    2    1    2    0    0  0.64275013041E+03 -0.89115068281E+02  0.15622343698E+03  0.89745821013E+03  0.59996354150E+03 0.  0.
         23    2    4    4    0    0  0.92766230370E+02  0.12141059974E+03  0.23704512819E+03  0.29615641022E+03  0.90399774819E+02 0.  0.
         23    2    4    4    0    0  0.54998390004E+03 -0.21052566803E+03 -0.80821691219E+02  0.60130179991E+03  0.90710316943E+02 0.  0.
          5    1    3    3  502    0 -0.32808585420E+03  0.82099559142E+02 -0.81695090609E+02  0.34796097938E+03  0.47000000000E+01 0. -1.
         -5    1    3    3    0  502 -0.31466427621E+03  0.70155091388E+01 -0.12677270767E+03  0.33934677470E+03  0.47000000000E+01 0.  1.
         11    1    5    5    0    0  0.89821489205E+01  0.86161076663E+02  0.11712401457E+03  0.14567925357E+03  0.00000000000E+00 0.  1.
        -11    1    5    5    0    0  0.83784081450E+02  0.35249523082E+02  0.11992111362E+03  0.15047715665E+03  0.00000000000E+00 0. -1.
          2    1    6    6  503    0  0.50382259894E+03 -0.16309624683E+03 -0.68420974331E+02  0.53396537964E+03  0.00000000000E+00 0. -1.
         -2    1    6    6    0  503  0.46161301103E+02 -0.47429421199E+02 -0.12400716887E+02  0.67336420265E+02  0.00000000000E+00 0.  1.
<mgrwt>
<rscale>  0 0.71314291E+03</rscale>
<asrwt>0</asrwt>
<pdfrwt beam="1">  1        1 0.12592387E+00 0.71314291E+03</pdfrwt>
<pdfrwt beam="2">  1       -1 0.11788628E+00 0.71314291E+03</pdfrwt>
<totfact> 0.14247177E+01</totfact>
</mgrwt>
</event>
<event>
12    1  0.3147868E-008  0.1056496E+04  0.7818608E-02  0.9248663E-01
         -1   -1    0    0    0  501 -0.00000000000E+00  0.00000000000E+00  0.78550342307E+03  0.78550342307E+03  0.00000000000E+00 0.  1.
          1   -1    0    0  501    0  0.00000000000E+00 -0.00000000000E+00 -0.30447522647E+04  0.30447522647E+04  0.00000000000E+00 0. -1.
         23    2    1    2    0    0  0.48763062290E+03  0.93274827734E+03  0.21254521950E+03  0.10774947054E+04  0.89534331532E+02 0.  0.
    5000000    2    1    2    0    0 -0.48763062290E+03 -0.93274827734E+03 -0.24717940611E+04  0.27527609824E+04  0.60010346801E+03 0.  0.
         23    2    4    4    0    0 -0.13190414759E+03 -0.33842687281E+03 -0.32183658494E+03  0.49221789169E+03  0.82269150386E+02 0.  0.
         23    2    4    4    0    0 -0.35572647531E+03 -0.59432140453E+03 -0.21499574762E+04  0.22605430907E+04  0.89323336290E+02 0.  0.
          5    1    3    3  502    0  0.33528334846E+03  0.55745676547E+03  0.11151774175E+03  0.66002368582E+03  0.47000000000E+01 0. -1.
         -5    1    3    3    0  502  0.15234727445E+03  0.37529151187E+03  0.10102747775E+03  0.41747101956E+03  0.47000000000E+01 0.  1.
         11    1    5    5    0    0 -0.12430712962E+01  0.61869635258E+00  0.39583248201E+01  0.41947999721E+01  0.00000000000E+00 0. -1.
        -11    1    5    5    0    0 -0.13066107629E+03 -0.33904556916E+03 -0.32579490976E+03  0.48802309172E+03  0.00000000000E+00 0.  1.
          1    1    6    6  503    0 -0.22112446853E+03 -0.36614524213E+03 -0.14640106091E+04  0.15252165198E+04  0.00000000000E+00 0. -1.
         -1    1    6    6    0  503 -0.13460200679E+03 -0.22817616240E+03 -0.68594686714E+03  0.73532657089E+03  0.00000000000E+00 0.  1.
<mgrwt>
<rscale>  0 0.10564960E+04</rscale>
<asrwt>0</asrwt>
<pdfrwt beam="1">  1        1 0.46842342E+00 0.10564960E+04</pdfrwt>
<pdfrwt beam="2">  1       -1 0.12084668E+00 0.10564960E+04</pdfrwt>
<totfact> 0.34345779E-01</totfact>
</mgrwt>
</event>
<event>
12    1  0.3147868E-008  0.8517937E+03  0.7818608E-02  0.9487933E-01
          2   -1    0    0  501    0  0.00000000000E+00  0.00000000000E+00  0.18602926771E+04  0.18602926771E+04  0.00000000000E+00 0. -1.
         -2   -1    0    0    0  501 -0.00000000000E+00 -0.00000000000E+00 -0.42940477412E+03  0.42940477412E+03  0.00000000000E+00 0.  1.
         23    2    1    2    0    0 -0.72256965063E+03 -0.22284856893E+03  0.34364291831E+03  0.83571659576E+03  0.92538578044E+02 0.  0.
    5000000    2    1    2    0    0  0.72256965063E+03  0.22284856893E+03  0.10872449847E+04  0.14539808554E+04  0.60015855128E+03 0.  0.
         23    2    4    4    0    0  0.37839343088E+03 -0.17771086598E+03  0.47639366974E+03  0.64030415798E+03  0.90971125816E+02 0.  0.
         23    2    4    4    0    0  0.34417621976E+03  0.40055943491E+03  0.61085131491E+03  0.81367669747E+03  0.10012645974E+03 0.  0.
          5    1    3    3  502    0 -0.11558372555E+03 -0.40521797046E+02  0.20420922436E+02  0.12426068453E+03  0.47000000000E+01 0. -1.
         -5    1    3    3    0  502 -0.60698592509E+03 -0.18232677188E+03  0.32322199588E+03  0.71145591123E+03  0.47000000000E+01 0.  1.
         11    1    5    5    0    0  0.30039788786E+03 -0.15392369663E+03  0.32619329575E+03  0.46939691265E+03  0.00000000000E+00 0. -1.
        -11    1    5    5    0    0  0.77995543013E+02 -0.23787169351E+02  0.15020037400E+03  0.17090724532E+03  0.00000000000E+00 0.  1.
          2    1    6    6  503    0  0.21267933529E+03  0.25142862297E+03  0.30486261913E+03  0.44876504839E+03  0.00000000000E+00 0. -1.
         -2    1    6    6    0  503  0.13149688447E+03  0.14913081194E+03  0.30598869578E+03  0.36491164909E+03  0.00000000000E+00 0.  1.
<mgrwt>
<rscale>  0 0.85179365E+03</rscale>
<asrwt>0</asrwt>
<pdfrwt beam="1">  1        2 0.28619887E+00 0.85179365E+03</pdfrwt>
<pdfrwt beam="2">  1       -2 0.66062274E-01 0.85179365E+03</pdfrwt>
<totfact> 0.17144327E+01</totfact>
</mgrwt>
</event>
<event>
12    1  0.3147868E-008  0.5242883E+03  0.7818608E-02  0.1007627E+00
          2   -1    0    0  501    0  0.00000000000E+00  0.00000000000E+00  0.22880938083E+04  0.22880938083E+04  0.00000000000E+00 0.  1.
         -2   -1    0    0    0  501 -0.00000000000E+00 -0.00000000000E+00 -0.17463280147E+03  0.17463280147E+03  0.00000000000E+00 0. -1.
         23    2    1    2    0    0 -0.44269855545E+03  0.96157583837E+02  0.49056238280E+03  0.67414367709E+03  0.92682004857E+02 0.  0.
    5000000    2    1    2    0    0  0.44269855545E+03 -0.96157583837E+02  0.16228986241E+04  0.17885829327E+04  0.60000055940E+03 0.  0.
         23    2    4    4    0    0  0.20252229519E+03 -0.23820836550E+03  0.33309748751E+03  0.46586967246E+03  0.91225599953E+02 0.  0.
         23    2    4    4    0    0  0.24017626025E+03  0.14205078166E+03  0.12898011365E+04  0.13227132602E+04  0.90112909383E+02 0.  0.
          5    1    3    3  502    0 -0.23491872552E+03  0.62576627912E+02  0.19727000647E+03  0.31311369726E+03  0.47000000000E+01 0. -1.
         -5    1    3    3    0  502 -0.20777982993E+03  0.33580955925E+02  0.29329237632E+03  0.36102997983E+03  0.47000000000E+01 0.  1.
         13    1    5    5    0    0  0.78623661135E+02 -0.12408150670E+03  0.97735438034E+02  0.17643728699E+03  0.00000000000E+00 0. -1.
        -13    1    5    5    0    0  0.12389863406E+03 -0.11412685880E+03  0.23536204948E+03  0.28943238547E+03  0.00000000000E+00 0.  1.
          1    1    6    6  503    0  0.15063608650E+03  0.98458301994E+02  0.10054315033E+04  0.10214097001E+04  0.00000000000E+00 0. -1.
         -1    1    6    6    0  503  0.89540173749E+02  0.43592479671E+02  0.28436963328E+03  0.30130356010E+03  0.00000000000E+00 0.  1.
<mgrwt>
<rscale>  0 0.52428829E+03</rscale>
<asrwt>0</asrwt>
<pdfrwt beam="1">  1        2 0.35201441E+00 0.52428829E+03</pdfrwt>
<pdfrwt beam="2">  1       -2 0.26866586E-01 0.52428829E+03</pdfrwt>
<totfact> 0.61937144E+01</totfact>
</mgrwt>
</event>
<event>
12    1  0.3147868E-008  0.3732825E+03  0.7818608E-02  0.1053445E+00
          2   -1    0    0  501    0  0.00000000000E+00  0.00000000000E+00  0.58055648525E+03  0.58055648525E+03  0.00000000000E+00 0.  1.
         -2   -1    0    0    0  501 -0.00000000000E+00 -0.00000000000E+00 -0.54342790758E+03  0.54342790758E+03  0.00000000000E+00 0. -1.
         23    2    1    2    0    0  0.23804940118E+03  0.11852969565E+03  0.30512346641E+03  0.41515265723E+03  0.92382860416E+02 0.  0.
    5000000    2    1    2    0    0 -0.23804940118E+03 -0.11852969565E+03 -0.26799488874E+03  0.70883173561E+03  0.59992029709E+03 0.  0.
         23    2    4    4    0    0 -0.30233884504E+03 -0.19485317299E+03  0.39113917028E+02  0.37330940606E+03  0.91942796916E+02 0.  0.
         23    2    4    4    0    0  0.64289443859E+02  0.76323477344E+02 -0.30710880577E+03  0.33552232955E+03  0.91109874648E+02 0.  0.
          5    1    3    3  502    0  0.87519440634E+02 -0.34325649739E+01  0.96647358532E+02  0.13051527459E+03  0.47000000000E+01 0. -1.
         -5    1    3    3    0  502  0.15052996054E+03  0.12196226062E+03  0.20847610788E+03  0.28463738263E+03  0.47000000000E+01 0.  1.
         11    1    5    5    0    0 -0.24288237748E+03 -0.12453284846E+03  0.58638919579E+02  0.27917521833E+03  0.00000000000E+00 0.  1.
        -11    1    5    5    0    0 -0.59456467556E+02 -0.70320324528E+02 -0.19525002552E+02  0.94134187735E+02  0.00000000000E+00 0. -1.
          4    1    6    6  503    0  0.31447859445E+02  0.32079487166E+02 -0.25746984865E+03  0.26135949251E+03  0.00000000000E+00 0. -1.
         -4    1    6    6    0  503  0.32841584414E+02  0.44243990178E+02 -0.49638957117E+02  0.74162837037E+02  0.00000000000E+00 0.  1.
<mgrwt>
<rscale>  0 0.37328246E+03</rscale>
<asrwt>0</asrwt>
<pdfrwt beam="1">  1        2 0.89316383E-01 0.37328246E+03</pdfrwt>
<pdfrwt beam="2">  1       -2 0.83604293E-01 0.37328246E+03</pdfrwt>
<totfact> 0.67558160E+01</totfact>
</mgrwt>
</event>
<event>
12    1  0.3147868E-008  0.1215804E+04  0.7818608E-02  0.9099135E-01
          1   -1    0    0  501    0  0.00000000000E+00  0.00000000000E+00  0.16191554233E+04  0.16191554233E+04  0.00000000000E+00 0. -1.
         -1   -1    0    0    0  501 -0.00000000000E+00 -0.00000000000E+00 -0.17508008321E+04  0.17508008321E+04  0.00000000000E+00 0.  1.
         23    2    1    2    0    0  0.11802451229E+04 -0.23917963161E+03 -0.11614652105E+04  0.16756816313E+04  0.93391904961E+02 0.  0.
    5000000    2    1    2    0    0 -0.11802451229E+04  0.23917963161E+03  0.10298198017E+04  0.16942746241E+04  0.59987684700E+03 0.  0.
         23    2    4    4    0    0 -0.10974616205E+04  0.19162236086E+03  0.10748815568E+04  0.15507255733E+04  0.90765109294E+02 0.  0.
         23    2    4    4    0    0 -0.82783502431E+02  0.47557270748E+02 -0.45061755105E+02  0.14354905076E+03  0.97267496752E+02 0.  0.
          5    1    3    3  502    0  0.65973712239E+03 -0.90739119351E+02 -0.66706221757E+03  0.94259256869E+03  0.47000000000E+01 0. -1.
         -5    1    3    3    0  502  0.52050800054E+03 -0.14844051226E+03 -0.49440299289E+03  0.73308906258E+03  0.47000000000E+01 0.  1.
         11    1    5    5    0    0 -0.59931472671E+03  0.11480217679E+03  0.52721214477E+03  0.80641820852E+03  0.00000000000E+00 0.  1.
        -11    1    5    5    0    0 -0.49814689379E+03  0.76820184067E+02  0.54766941200E+03  0.74430736481E+03  0.00000000000E+00 0. -1.
          3    1    6    6  503    0 -0.14451724024E+02  0.38577850847E+02 -0.60239086344E+02  0.72978424392E+02  0.00000000000E+00 0. -1.
         -3    1    6    6    0  503 -0.68331778408E+02  0.89794199015E+01  0.15177331238E+02  0.70570626366E+02  0.00000000000E+00 0.  1.
<mgrwt>
<rscale>  0 0.12158037E+04</rscale>
<asrwt>0</asrwt>
<pdfrwt beam="1">  1        1 0.24910083E+00 0.12158037E+04</pdfrwt>
<pdfrwt beam="2">  1       -1 0.26935397E+00 0.12158037E+04</pdfrwt>
<totfact> 0.27676887E-01</totfact>
</mgrwt>
</event>
<event>
12    1  0.3147868E-008  0.8541037E+03  0.7818608E-02  0.9484846E-01
         -1   -1    0    0    0  501 -0.00000000000E+00  0.00000000000E+00  0.77723342366E+03  0.77723342366E+03  0.00000000000E+00 0.  1.
          1   -1    0    0  501    0  0.00000000000E+00 -0.00000000000E+00 -0.14177036886E+04  0.14177036886E+04  0.00000000000E+00 0. -1.
         23    2    1    2    0    0  0.17424807380E+03  0.79572357757E+03  0.23995735349E+03  0.85378442781E+03  0.88486804446E+02 0.  0.
    5000000    2    1    2    0    0 -0.17424807380E+03 -0.79572357757E+03 -0.88042761844E+03  0.13411526845E+04  0.59999944051E+03 0.  0.
         23    2    4    4    0    0 -0.25013332566E+03 -0.36570761297E+03 -0.13416989404E+03  0.47175385266E+03  0.90782147180E+02 0.  0.
         23    2    4    4    0    0  0.75885251856E+02 -0.43001596460E+03 -0.74625772440E+03  0.86939883180E+03  0.91002396967E+02 0.  0.
          5    1    3    3  502    0  0.12552212915E+03  0.36820768662E+03  0.11111909350E+03  0.40460134494E+03  0.47000000000E+01 0. -1.
         -5    1    3    3    0  502  0.48725944646E+02  0.42751589095E+03  0.12883825999E+03  0.44918308287E+03  0.47000000000E+01 0.  1.
         13    1    5    5    0    0 -0.19754533818E+02 -0.38990774675E+01  0.51183703056E+01  0.20775998798E+02  0.00000000000E+00 0.  1.
        -13    1    5    5    0    0 -0.23037879184E+03 -0.36180853550E+03 -0.13928826435E+03  0.45097785386E+03  0.00000000000E+00 0. -1.
          2    1    6    6  503    0  0.43996345150E+02 -0.11441815838E+03 -0.27786460609E+03  0.30370369223E+03  0.00000000000E+00 0.  1.
         -2    1    6    6    0  503  0.31888906706E+02 -0.31559780622E+03 -0.46839311831E+03  0.56569513957E+03  0.00000000000E+00 0. -1.
<mgrwt>
<rscale>  0 0.85410368E+03</rscale>
<asrwt>0</asrwt>
<pdfrwt beam="1">  1        1 0.21810826E+00 0.85410368E+03</pdfrwt>
<pdfrwt beam="2">  1       -1 0.11957437E+00 0.85410368E+03</pdfrwt>
<totfact> 0.47760159E+00</totfact>
</mgrwt>
</event>
<event>
12    1  0.3147868E-008  0.3193589E+03  0.7818608E-02  0.1075945E+00
         -2   -1    0    0    0  501 -0.00000000000E+00  0.00000000000E+00  0.89495520222E+02  0.89495520222E+02  0.00000000000E+00 0.  1.
          2   -1    0    0  501    0  0.00000000000E+00 -0.00000000000E+00 -0.16427520841E+04  0.16427520841E+04  0.00000000000E+00 0. -1.
         23    2    1    2    0    0  0.70034107627E+02  0.93667405714E+02 -0.21697401479E+03  0.26285567529E+03  0.91307304251E+02 0.  0.
    5000000    2    1    2    0    0 -0.70034107627E+02 -0.93667405714E+02 -0.13362825491E+04  0.14693919290E+04  0.59981933197E+03 0.  0.
         23    2    4    4    0    0  0.25606376541E+02  0.18597597948E+03 -0.19016340015E+03  0.28195105239E+03  0.89952908384E+02 0.  0.
         23    2    4    4    0    0 -0.95640484169E+02 -0.27964338519E+03 -0.11461191489E+04  0.11874408766E+04  0.95284872244E+02 0.  0.
          5    1    3    3  502    0  0.42110507989E+02  0.10717736892E+03 -0.18570256858E+03  0.21855849851E+03  0.47000000000E+01 0. -1.
         -5    1    3    3    0  502  0.27923599639E+02 -0.13509963202E+02 -0.31271446213E+02  0.44297176781E+02  0.47000000000E+01 0.  1.
         11    1    5    5    0    0  0.17903588111E+01  0.26898620718E+02 -0.86468251695E+02  0.90573173359E+02  0.00000000000E+00 0. -1.
        -11    1    5    5    0    0  0.23816017730E+02  0.15907735876E+03 -0.10369514846E+03  0.19137787904E+03  0.00000000000E+00 0.  1.
          4    1    6    6  503    0 -0.99686666004E+02 -0.19010494364E+03 -0.69074553551E+03  0.72333029509E+03  0.00000000000E+00 0.  1.
         -4    1    6    6    0  503  0.40461818360E+01 -0.89538441547E+02 -0.45537361339E+03  0.46411058152E+03  0.00000000000E+00 0. -1.
<mgrwt>
<rscale>  0 0.31935891E+03</rscale>
<asrwt>0</asrwt>
<pdfrwt beam="1">  1        2 0.25273106E+00 0.31935891E+03</pdfrwt>
<pdfrwt beam="2">  1       -2 0.13768543E-01 0.31935891E+03</pdfrwt>
<totfact> 0.45060863E+02</totfact>
</mgrwt>
</event>
<event>
12    1  0.3147868E-008  0.9076977E+03  0.7818608E-02  0.9416010E-01
         -1   -1    0    0    0  501 -0.00000000000E+00  0.00000000000E+00  0.17404593604E+04  0.17404593604E+04  0.00000000000E+00 0.  1.
          1   -1    0    0  501    0  0.00000000000E+00 -0.00000000000E+00 -0.80410010752E+03  0.80410010752E+03  0.00000000000E+00 0. -1.
         23    2    1    2    0    0  0.57712445076E+02 -0.82243444037E+03  0.12299400119E+04  0.14834345314E+04  0.89980226383E+02 0.  0.
    5000000    2    1    2    0    0 -0.57712445076E+02  0.82243444037E+03 -0.29358075894E+03  0.10611249366E+04  0.60005610900E+03 0.  0.
         23    2    4    4    0    0  0.21892586546E+03  0.57375485531E+03 -0.27212237209E+03  0.67786717504E+03  0.91269672118E+02 0.  0.
         23    2    4    4    0    0 -0.27663831053E+03  0.24867958505E+03 -0.21458386858E+02  0.38325776152E+03  0.89753877454E+02 0.  0.
          5    1    3    3  502    0 -0.51598380893E+00 -0.45088809355E+03  0.61496154294E+03  0.76256155715E+03  0.47000000000E+01 0. -1.
         -5    1    3    3    0  502  0.58228428885E+02 -0.37154634682E+03  0.61497846893E+03  0.72087297426E+03  0.47000000000E+01 0.  1.
         13    1    5    5    0    0  0.19623836607E+03  0.47053223579E+03 -0.19016312787E+03  0.54412507426E+03  0.00000000000E+00 0. -1.
        -13    1    5    5    0    0  0.22687499387E+02  0.10322261952E+03 -0.81959244214E+02  0.13374210078E+03  0.00000000000E+00 0.  1.
          3    1    6    6  503    0 -0.15819741295E+03  0.12495672847E+03  0.31365563043E+02  0.20402059700E+03  0.00000000000E+00 0. -1.
         -3    1    6    6    0  503 -0.11844089758E+03  0.12372285658E+03 -0.52823949901E+02  0.17923716452E+03  0.00000000000E+00 0.  1.
<mgrwt>
<rscale>  0 0.90769772E+03</rscale>
<asrwt>0</asrwt>
<pdfrwt beam="1">  1        1 0.12370771E+00 0.90769772E+03</pdfrwt>
<pdfrwt beam="2">  1       -1 0.26776298E+00 0.90769772E+03</pdfrwt>
<totfact> 0.11992181E+00</totfact>
</mgrwt>
</event>
<event>
12    1  0.3147868E-008  0.7982896E+03  0.7818608E-02  0.9562496E-01
         -3   -1    0    0    0  501 -0.00000000000E+00  0.00000000000E+00  0.15475002856E+04  0.15475002856E+04  0.00000000000E+00 0.  1.
          3   -1    0    0  501    0  0.00000000000E+00 -0.00000000000E+00 -0.12877145293E+04  0.12877145293E+04  0.00000000000E+00 0. -1.
         23    2    1    2    0    0  0.77362486174E+03 -0.31626678318E+02  0.12301701209E+04  0.14564369877E+04  0.91621500055E+02 0.  0.
    5000000    2    1    2    0    0 -0.77362486174E+03  0.31626678318E+02 -0.97038436463E+03  0.13787778272E+04  0.59990566597E+03 0.  0.
         23    2    4    4    0    0 -0.38984669199E+03  0.14558547025E+03 -0.85028254443E+03  0.95068464589E+03  0.87437510099E+02 0.  0.
         23    2    4    4    0    0 -0.38377816975E+03 -0.11395879193E+03 -0.12010182020E+03  0.42809318127E+03  0.92558277841E+02 0.  0.
          5    1    3    3  502    0  0.46472148019E+03 -0.61013337543E+01  0.81629430984E+03  0.93934113649E+03  0.47000000000E+01 0. -1.
         -5    1    3    3    0  502  0.30890338156E+03 -0.25525344564E+02  0.41387581106E+03  0.51709585121E+03  0.47000000000E+01 0.  1.
         13    1    5    5    0    0 -0.74877695994E+02  0.14476377247E+02 -0.23603931020E+03  0.24805400786E+03  0.00000000000E+00 0.  1.
        -13    1    5    5    0    0 -0.31496899600E+03  0.13110909300E+03 -0.61424323423E+03  0.70263063803E+03  0.00000000000E+00 0. -1.
          3    1    6    6  503    0 -0.19049697593E+03 -0.26898037615E+02 -0.95197721673E+02  0.21465136496E+03  0.00000000000E+00 0. -1.
         -3    1    6    6    0  503 -0.19328119382E+03 -0.87060754316E+02 -0.24904098528E+02  0.21344181631E+03  0.00000000000E+00 0.  1.
<mgrwt>
<rscale>  0 0.79828956E+03</rscale>
<asrwt>0</asrwt>
<pdfrwt beam="1">  1        3 0.19810993E+00 0.79828956E+03</pdfrwt>
<pdfrwt beam="2">  1       -3 0.23807697E+00 0.79828956E+03</pdfrwt>
<totfact> 0.33655855E-02</totfact>
</mgrwt>
</event>
<event>
12    1  0.3147868E-008  0.2159235E+04  0.7818608E-02  0.8535589E-01
         -2   -1    0    0    0  501 -0.00000000000E+00  0.00000000000E+00  0.20513713432E+04  0.20513713432E+04  0.00000000000E+00 0.  1.
          2   -1    0    0  501    0  0.00000000000E+00 -0.00000000000E+00 -0.23334615793E+04  0.23334615793E+04  0.00000000000E+00 0. -1.
         23    2    1    2    0    0 -0.20545114792E+04 -0.59952522727E+03  0.16271821123E+02  0.21421705213E+04  0.90453600645E+02 0.  0.
    5000000    2    1    2    0    0  0.20545114792E+04  0.59952522727E+03 -0.29836205725E+03  0.22426624011E+04  0.60005567378E+03 0.  0.
         23    2    4    4    0    0  0.13309138009E+04  0.57361639542E+03 -0.39838100376E+03  0.15058447499E+04  0.92161120413E+02 0.  0.
         23    2    4    4    0    0  0.72359767830E+03  0.25908831849E+02  0.10001894651E+03  0.73681765117E+03  0.92906371156E+02 0.  0.
          5    1    3    3  502    0 -0.12326985910E+04 -0.31370505420E+03  0.10463256083E+02  0.12720409769E+04  0.47000000000E+01 0. -1.
         -5    1    3    3    0  502 -0.82181288825E+03 -0.28582017306E+03  0.58085650400E+01  0.87012954441E+03  0.47000000000E+01 0.  1.
         13    1    5    5    0    0  0.32218741134E+03  0.16318709871E+03 -0.65251298346E+02  0.36700475357E+03  0.00000000000E+00 0.  1.
        -13    1    5    5    0    0  0.10087263896E+04  0.41042929671E+03 -0.33312970541E+03  0.11388399964E+04  0.00000000000E+00 0. -1.
          4    1    6    6  503    0  0.71160416274E+03  0.32773068751E+02  0.10854418649E+03  0.72058059847E+03  0.00000000000E+00 0. -1.
         -4    1    6    6    0  503  0.11993515561E+02 -0.68642369021E+01 -0.85252399793E+01  0.16237052703E+02  0.00000000000E+00 0.  1.
<mgrwt>
<rscale>  0 0.21592353E+04</rscale>
<asrwt>0</asrwt>
<pdfrwt beam="1">  1        2 0.35899409E+00 0.21592353E+04</pdfrwt>
<pdfrwt beam="2">  1       -2 0.31559559E+00 0.21592353E+04</pdfrwt>
<totfact> 0.96657776E-02</totfact>
</mgrwt>
</event>
<event>
12    1  0.3147868E-008  0.7476812E+03  0.7818608E-02  0.9638995E-01
          1   -1    0    0  501    0  0.00000000000E+00  0.00000000000E+00  0.66492896476E+03  0.66492896476E+03  0.00000000000E+00 0. -1.
         -1   -1    0    0    0  501 -0.00000000000E+00 -0.00000000000E+00 -0.19293260117E+04  0.19293260117E+04  0.00000000000E+00 0.  1.
         23    2    1    2    0    0 -0.63250813513E+03 -0.48834075113E+01 -0.15501900674E+04  0.16767202468E+04  0.90615408439E+02 0.  0.
    5000000    2    1    2    0    0  0.63250813513E+03  0.48834075113E+01  0.28579302050E+03  0.91753472963E+03  0.60008494468E+03 0.  0.
         23    2    4    4    0    0  0.14338981091E+03  0.25811079416E+03  0.56253698609E+02  0.31412667466E+03  0.91264829989E+02 0.  0.
         23    2    4    4    0    0  0.48911832422E+03 -0.25322738664E+03  0.22953932189E+03  0.60340805497E+03  0.89733695300E+02 0.  0.
          5    1    3    3  502    0 -0.24151250399E+03  0.27195484077E+02 -0.50909481423E+03  0.56415202190E+03  0.47000000000E+01 0. -1.
         -5    1    3    3    0  502 -0.39099563114E+03 -0.32078891588E+02 -0.10410952532E+04  0.11125682249E+04  0.47000000000E+01 0.  1.
         11    1    5    5    0    0  0.14023530987E+03  0.16800193046E+03  0.42284495938E+02  0.22288689815E+03  0.00000000000E+00 0. -1.
        -11    1    5    5    0    0  0.31545010405E+01  0.90108863697E+02  0.13969202671E+02  0.91239776506E+02  0.00000000000E+00 0.  1.
          1    1    6    6  503    0  0.25230458147E+03 -0.12325846713E+03  0.16492271983E+03  0.32565281369E+03  0.00000000000E+00 0. -1.
         -1    1    6    6    0  503  0.23681374275E+03 -0.12996891951E+03  0.64616602067E+02  0.27775524128E+03  0.00000000000E+00 0.  1.
<mgrwt>
<rscale>  0 0.74768124E+03</rscale>
<asrwt>0</asrwt>
<pdfrwt beam="1">  1        1 0.10229676E+00 0.74768124E+03</pdfrwt>
<pdfrwt beam="2">  1       -1 0.29681939E+00 0.74768124E+03</pdfrwt>
<totfact> 0.10767203E+00</totfact>
</mgrwt>
</event>
<event>
12    1  0.3147868E-008  0.1032995E+04  0.7818608E-02  0.9273079E-01
         -1   -1    0    0    0  501 -0.00000000000E+00  0.00000000000E+00  0.17922308336E+04  0.17922308336E+04  0.00000000000E+00 0.  1.
          1   -1    0    0  501    0  0.00000000000E+00 -0.00000000000E+00 -0.19624458922E+04  0.19624458922E+04  0.00000000000E+00 0. -1.
         23    2    1    2    0    0 -0.86022130872E+03 -0.45757929286E+03 -0.16291271030E+04  0.19005254750E+04  0.92641535975E+02 0.  0.
    5000000    2    1    2    0    0  0.86022130872E+03  0.45757929286E+03  0.14589120443E+04  0.18541512509E+04  0.60007749394E+03 0.  0.
         23    2    4    4    0    0 -0.35809151920E+02  0.11086876470E+03  0.37329394978E+03  0.40164445357E+03  0.91628138671E+02 0.  0.
         23    2    4    4    0    0  0.89603046064E+03  0.34671052817E+03  0.10856180946E+04  0.14525067973E+04  0.90169685635E+02 0.  0.
          5    1    3    3  502    0 -0.31683789955E+03 -0.12005452175E+03 -0.58234543578E+03  0.67375636499E+03  0.47000000000E+01 0. -1.
         -5    1    3    3    0  502 -0.54338340918E+03 -0.33752477111E+03 -0.10467816672E+04  0.12267691100E+04  0.47000000000E+01 0.  1.
         11    1    5    5    0    0  0.84713112121E+01  0.36144937469E+02  0.23793597017E+03  0.24081475353E+03  0.00000000000E+00 0.  1.
        -11    1    5    5    0    0 -0.44280463132E+02  0.74723827230E+02  0.13535797961E+03  0.16082970004E+03  0.00000000000E+00 0. -1.
          1    1    6    6  503    0  0.29184655591E+03  0.14945645957E+03  0.33122119170E+03  0.46606772398E+03  0.00000000000E+00 0. -1.
         -1    1    6    6    0  503  0.60418390473E+03  0.19725406859E+03  0.75439690286E+03  0.98643907332E+03  0.00000000000E+00 0.  1.
<mgrwt>
<rscale>  0 0.10329950E+04</rscale>
<asrwt>0</asrwt>
<pdfrwt beam="1">  1        1 0.30191475E+00 0.10329950E+04</pdfrwt>
<pdfrwt beam="2">  1       -1 0.27572782E+00 0.10329950E+04</pdfrwt>
<totfact> 0.15180069E-01</totfact>
</mgrwt>
</event>
<event>
12    1  0.3147868E-008  0.1441153E+04  0.7818608E-02  0.8924557E-01
          1   -1    0    0  501    0  0.00000000000E+00  0.00000000000E+00  0.10550727919E+04  0.10550727919E+04  0.00000000000E+00 0. -1.
         -1   -1    0    0    0  501 -0.00000000000E+00 -0.00000000000E+00 -0.22998972108E+04  0.22998972108E+04  0.00000000000E+00 0.  1.
         23    2    1    2    0    0  0.10670168898E+03  0.14055396510E+04 -0.52136879921E+02  0.14134756758E+04  0.90930032736E+02 0.  0.
    5000000    2    1    2    0    0 -0.10670168898E+03 -0.14055396510E+04 -0.11926875390E+04  0.19414943269E+04  0.59997474519E+03 0.  0.
         23    2    4    4    0    0  0.61546374000E+02 -0.32538654466E+02 -0.22151890153E+03  0.24890513028E+03  0.89646081657E+02 0.  0.
         23    2    4    4    0    0 -0.16824806298E+03 -0.13730009965E+04 -0.97116863743E+03  0.16925891966E+04  0.90832367904E+02 0.  0.
          5    1    3    3  502    0  0.43769131014E+02  0.57861435714E+03  0.23053605950E+02  0.58074423791E+03  0.47000000000E+01 0. -1.
         -5    1    3    3    0  502  0.62932557962E+02  0.82692529382E+03 -0.75190485871E+02  0.83273143784E+03  0.47000000000E+01 0.  1.
         13    1    5    5    0    0  0.19798881294E+01  0.13698773514E+02  0.10778806395E+01  0.13883017664E+02  0.00000000000E+00 0. -1.
        -13    1    5    5    0    0  0.59566485871E+02 -0.46237427980E+02 -0.22259678217E+03  0.23502211261E+03  0.00000000000E+00 0.  1.
          1    1    6    6  503    0 -0.96803845192E+02 -0.70062998571E+03 -0.44263938583E+03  0.83437580695E+03  0.00000000000E+00 0. -1.
         -1    1    6    6    0  503 -0.71444217784E+02 -0.67237101077E+03 -0.52852925160E+03  0.85821338965E+03  0.00000000000E+00 0.  1.
<mgrwt>
<rscale>  0 0.14411527E+04</rscale>
<asrwt>0</asrwt>
<pdfrwt beam="1">  1        1 0.16231889E+00 0.14411527E+04</pdfrwt>
<pdfrwt beam="2">  1       -1 0.35383033E+00 0.14411527E+04</pdfrwt>
<totfact> 0.19259519E-01</totfact>
</mgrwt>
</event>
<event>
12    1  0.3147868E-008  0.5046505E+03  0.7818608E-02  0.1012572E+00
         -2   -1    0    0    0  501 -0.00000000000E+00  0.00000000000E+00  0.33289619785E+03  0.33289619785E+03  0.00000000000E+00 0. -1.
          2   -1    0    0  501    0  0.00000000000E+00 -0.00000000000E+00 -0.11200494207E+04  0.11200494207E+04  0.00000000000E+00 0.  1.
         23    2    1    2    0    0 -0.96239189779E+02 -0.44594534175E+03 -0.25938694338E+03  0.53281902573E+03  0.92115678951E+02 0.  0.
    5000000    2    1    2    0    0  0.96239189779E+02  0.44594534175E+03 -0.52776627944E+03  0.92012659279E+03  0.59997205899E+03 0.  0.
         23    2    4    4    0    0  0.40489072970E+02 -0.10745815406E+02  0.96725778171E+02  0.13934364248E+03  0.91136913258E+02 0.  0.
         23    2    4    4    0    0  0.55750116809E+02  0.45669115715E+03 -0.62449205761E+03  0.78078295031E+03  0.89200879629E+02 0.  0.
          5    1    3    3  502    0 -0.68242993835E+00 -0.16237126473E+03 -0.59822533375E+02  0.17310609123E+03  0.47000000000E+01 0. -1.
         -5    1    3    3    0  502 -0.95556759841E+02 -0.28357407701E+03 -0.19956441001E+03  0.35971293450E+03  0.47000000000E+01 0.  1.
         13    1    5    5    0    0  0.59057581054E+02 -0.30861197728E+01  0.23877016288E+02  0.63776437044E+02  0.00000000000E+00 0. -1.
        -13    1    5    5    0    0 -0.18568508083E+02 -0.76596956328E+01  0.72848761883E+02  0.75567205436E+02  0.00000000000E+00 0.  1.
          2    1    6    6  503    0  0.71583153995E+02  0.22469622020E+03 -0.30067869258E+03  0.38212591574E+03  0.00000000000E+00 0. -1.
         -2    1    6    6    0  503 -0.15833037186E+02  0.23199493695E+03 -0.32381336503E+03  0.39865703456E+03  0.00000000000E+00 0.  1.
<mgrwt>
<rscale>  0 0.50465055E+03</rscale>
<asrwt>0</asrwt>
<pdfrwt beam="1">  1        2 0.17231530E+00 0.50465055E+03</pdfrwt>
<pdfrwt beam="2">  1       -2 0.51214799E-01 0.50465055E+03</pdfrwt>
<totfact> 0.79396765E+01</totfact>
</mgrwt>
</event>
<event>
12    1  0.3147868E-008  0.4126608E+03  0.7818608E-02  0.1039482E+00
         -2   -1    0    0    0  501 -0.00000000000E+00  0.00000000000E+00  0.11154975427E+04  0.11154975427E+04  0.00000000000E+00 0.  1.
          2   -1    0    0  501    0  0.00000000000E+00 -0.00000000000E+00 -0.28190655170E+03  0.28190655170E+03  0.00000000000E+00 0. -1.
         23    2    1    2    0    0  0.13928739475E+03 -0.31645955713E+03  0.53384355992E+03  0.64279043251E+03  0.92967542906E+02 0.  0.
    5000000    2    1    2    0    0 -0.13928739475E+03  0.31645955713E+03  0.29974743104E+03  0.75461366184E+03  0.60003802095E+03 0.  0.
         23    2    4    4    0    0 -0.23629732824E+03  0.20141475730E+03  0.42791907298E+03  0.53673616372E+03  0.92556170151E+02 0.  0.
         23    2    4    4    0    0  0.97009933494E+02  0.11504479983E+03 -0.12817164194E+03  0.21787749812E+03  0.91631878871E+02 0.  0.
          5    1    3    3  502    0  0.10110274049E+03 -0.14018834457E+03  0.20944580230E+03  0.27159560045E+03  0.47000000000E+01 0. -1.
         -5    1    3    3    0  502  0.38184654259E+02 -0.17627121256E+03  0.32439775762E+03  0.37119483206E+03  0.47000000000E+01 0.  1.
         11    1    5    5    0    0 -0.19905210643E+03  0.13284413120E+03  0.36519204362E+03  0.43661714693E+03  0.00000000000E+00 0.  1.
        -11    1    5    5    0    0 -0.37245221810E+02  0.68570626094E+02  0.62727029362E+02  0.10011901679E+03  0.00000000000E+00 0. -1.
          2    1    6    6  503    0  0.65482516429E+02  0.50070234449E+02 -0.11945167725E+03  0.14513335775E+03  0.00000000000E+00 0.  1.
         -2    1    6    6    0  503  0.31527417065E+02  0.64974565381E+02 -0.87199646886E+01  0.72744140365E+02  0.00000000000E+00 0. -1.
<mgrwt>
<rscale>  0 0.41266081E+03</rscale>
<asrwt>0</asrwt>
<pdfrwt beam="1">  1        2 0.43370239E-01 0.41266081E+03</pdfrwt>
<pdfrwt beam="2">  1       -2 0.17161500E+00 0.41266081E+03</pdfrwt>
<totfact> 0.25597674E+01</totfact>
</mgrwt>
</event>
<event>
12    1  0.3147868E-008  0.7660369E+03  0.7818608E-02  0.9610522E-01
          2   -1    0    0  501    0  0.00000000000E+00  0.00000000000E+00  0.40063983249E+04  0.40063983249E+04  0.00000000000E+00 0. -1.
         -2   -1    0    0    0  501 -0.00000000000E+00 -0.00000000000E+00 -0.15799813033E+03  0.15799813033E+03  0.00000000000E+00 0.  1.
         23    2    1    2    0    0 -0.63227987111E+03  0.23487748328E+03  0.18747196825E+04  0.19941505637E+04  0.84364182307E+02 0.  0.
    5000000    2    1    2    0    0  0.63227987111E+03 -0.23487748328E+03  0.19736805121E+04  0.21702458915E+04  0.59967257594E+03 0.  0.
         23    2    4    4    0    0 -0.68586047051E+02 -0.11918016334E+03  0.20813685201E+03  0.26489003248E+03  0.89094460871E+02 0.  0.
         23    2    4    4    0    0  0.70086591816E+03 -0.11569731994E+03  0.17655436601E+04  0.19053558590E+04  0.92938844931E+02 0.  0.
          5    1    3    3  502    0 -0.37676272848E+03  0.11897625908E+03  0.12009146263E+04  0.12642482088E+04  0.47000000000E+01 0. -1.
         -5    1    3    3    0  502 -0.25551714263E+03  0.11590122420E+03  0.67380505615E+03  0.72990235487E+03  0.47000000000E+01 0.  1.
         13    1    5    5    0    0 -0.69523908565E+02 -0.81850834728E+02  0.87251914677E+02  0.13836917873E+03  0.00000000000E+00 0.  1.
        -13    1    5    5    0    0  0.93786151412E+00 -0.37329328608E+02  0.12088493733E+03  0.12652085375E+03  0.00000000000E+00 0. -1.
          3    1    6    6  503    0  0.19803646096E+03 -0.13573278703E+02  0.59672834774E+03  0.62887788541E+03  0.00000000000E+00 0. -1.
         -3    1    6    6    0  503  0.50282945720E+03 -0.10212404124E+03  0.11688153123E+04  0.12764779736E+04  0.00000000000E+00 0.  1.
<mgrwt>
<rscale>  0 0.76603685E+03</rscale>
<asrwt>0</asrwt>
<pdfrwt beam="1">  1        2 0.61636890E+00 0.76603685E+03</pdfrwt>
<pdfrwt beam="2">  1       -2 0.24307408E-01 0.76603685E+03</pdfrwt>
<totfact> 0.56099075E+00</totfact>
</mgrwt>
</event>
<event>
12    1  0.3147868E-008  0.6410563E+03  0.7818608E-02  0.9823708E-01
         -2   -1    0    0    0  501 -0.00000000000E+00  0.00000000000E+00  0.39487249378E+03  0.39487249378E+03  0.00000000000E+00 0.  1.
          2   -1    0    0  501    0  0.00000000000E+00 -0.00000000000E+00 -0.12452141037E+04  0.12452141037E+04  0.00000000000E+00 0. -1.
         23    2    1    2    0    0 -0.10509886082E+03 -0.55741617338E+03 -0.39585890692E+03  0.69756906537E+03  0.90220651078E+02 0.  0.
    5000000    2    1    2    0    0  0.10509886082E+03  0.55741617338E+03 -0.45448270299E+03  0.94251753210E+03  0.60002184136E+03 0.  0.
         23    2    4    4    0    0 -0.10424951383E+03  0.43239216857E+03 -0.43288021123E+02  0.45598438798E+03  0.90647452977E+02 0.  0.
         23    2    4    4    0    0  0.20934837465E+03  0.12502400481E+03 -0.41119468187E+03  0.48653314412E+03  0.90419523257E+02 0.  0.
          5    1    3    3  502    0 -0.50734246440E+02 -0.14152237931E+03 -0.67466255720E+02  0.16485245909E+03  0.47000000000E+01 0. -1.
         -5    1    3    3    0  502 -0.54364614382E+02 -0.41589379407E+03 -0.32839265120E+03  0.53271660628E+03  0.47000000000E+01 0.  1.
         11    1    5    5    0    0 -0.11076430433E+03  0.30286063291E+03 -0.48907197073E+02  0.32616745393E+03  0.00000000000E+00 0.  1.
        -11    1    5    5    0    0  0.65147905015E+01  0.12953153566E+03  0.56191759499E+01  0.12981693404E+03  0.00000000000E+00 0. -1.
          2    1    6    6  503    0  0.12478651838E+03  0.12338486466E+03 -0.27764534333E+03  0.32845461888E+03  0.00000000000E+00 0. -1.
         -2    1    6    6    0  503  0.84561856274E+02  0.16391401523E+01 -0.13354933854E+03  0.15807852524E+03  0.00000000000E+00 0.  1.
<mgrwt>
<rscale>  0 0.64105627E+03</rscale>
<asrwt>0</asrwt>
<pdfrwt beam="1">  1        2 0.19157140E+00 0.64105627E+03</pdfrwt>
<pdfrwt beam="2">  1       -2 0.60749615E-01 0.64105627E+03</pdfrwt>
<totfact> 0.46271611E+01</totfact>
</mgrwt>
</event>
<event>
12    1  0.3147868E-008  0.5515713E+03  0.7818608E-02  0.1001131E+00
         -2   -1    0    0    0  501 -0.00000000000E+00  0.00000000000E+00  0.13793551821E+03  0.13793551821E+03  0.00000000000E+00 0.  1.
          2   -1    0    0  501    0  0.00000000000E+00 -0.00000000000E+00 -0.33222090721E+04  0.33222090721E+04  0.00000000000E+00 0. -1.
         23    2    1    2    0    0  0.18356189284E+02  0.53459411358E+03 -0.14690176508E+04  0.15660396664E+04  0.91321205240E+02 0.  0.
    5000000    2    1    2    0    0 -0.18356189284E+02 -0.53459411358E+03 -0.17152559032E+04  0.18941049239E+04  0.59950215479E+03 0.  0.
         23    2    4    4    0    0  0.30367065108E+02 -0.19411665278E+03 -0.14057000202E+04  0.14223428987E+04  0.91996418976E+02 0.  0.
         23    2    4    4    0    0 -0.48723254392E+02 -0.34047746080E+03 -0.30955588296E+03  0.47176202526E+03  0.91846104821E+02 0.  0.
          5    1    3    3  502    0  0.42603648151E+02  0.42096906729E+03 -0.12177014927E+04  0.12891272403E+04  0.47000000000E+01 0.  1.
         -5    1    3    3    0  502 -0.24247458867E+02  0.11362504629E+03 -0.25131615807E+03  0.27691242607E+03  0.47000000000E+01 0.  1.
         13    1    5    5    0    0 -0.23414128658E+02 -0.13504943249E+03 -0.89047143900E+03  0.90095835327E+03  0.00000000000E+00 0. -1.
        -13    1    5    5    0    0  0.53781193766E+02 -0.59067220292E+02 -0.51522858120E+03  0.52138454542E+03  0.00000000000E+00 0.  1.
          3    1    6    6  503    0  0.58824566206E+01 -0.99954968568E+02 -0.44100954666E+02  0.10940974929E+03  0.00000000000E+00 0. -1.
         -3    1    6    6    0  503 -0.54605711012E+02 -0.24052249223E+03 -0.26545492829E+03  0.36235227597E+03  0.00000000000E+00 0.  1.
<mgrwt>
<rscale>  0 0.55157127E+03</rscale>
<asrwt>0</asrwt>
<pdfrwt beam="1">  1        2 0.51110904E+00 0.55157127E+03</pdfrwt>
<pdfrwt beam="2">  1       -2 0.21220851E-01 0.55157127E+03</pdfrwt>
<totfact> 0.23023788E+01</totfact>
</mgrwt>
</event>
<event>
12    1  0.3147868E-008  0.8155760E+03  0.7818608E-02  0.9537741E-01
          1   -1    0    0  501    0  0.00000000000E+00  0.00000000000E+00  0.11137742624E+04  0.11137742624E+04  0.00000000000E+00 0. -1.
         -1   -1    0    0    0  501 -0.00000000000E+00 -0.00000000000E+00 -0.72893296627E+03  0.72893296627E+03  0.00000000000E+00 0.  1.
         23    2    1    2    0    0  0.71837212955E+03 -0.86603600967E+01  0.52751315717E+03  0.89589903574E+03  0.90727244485E+02 0.  0.
    5000000    2    1    2    0    0 -0.71837212955E+03  0.86603600967E+01 -0.14267186109E+03  0.94680819289E+03  0.59996414545E+03 0.  0.
         23    2    4    4    0    0 -0.22109454309E+03 -0.25692553372E+03 -0.13286518895E+03  0.37563488507E+03  0.92492602844E+02 0.  0.
         23    2    4    4    0    0 -0.49727758646E+03  0.26558589382E+03 -0.98066721411E+01  0.57117330782E+03  0.91224512923E+02 0.  0.
          5    1    3    3  502    0  0.42602988717E+03  0.13763542580E+02  0.36153252419E+03  0.55894432273E+03  0.47000000000E+01 0. -1.
         -5    1    3    3    0  502  0.29234224238E+03 -0.22423902677E+02  0.16598063298E+03  0.33695471300E+03  0.47000000000E+01 0.  1.
         11    1    5    5    0    0 -0.19548384320E+02 -0.55411231747E+02 -0.54278728703E+02  0.79992026621E+02  0.00000000000E+00 0. -1.
        -11    1    5    5    0    0 -0.20154615877E+03 -0.20151430198E+03 -0.78586460251E+02  0.29564285845E+03  0.00000000000E+00 0.  1.
          3    1    6    6  503    0 -0.44535435024E+03  0.21194516106E+03 -0.29076603276E+02  0.49407155093E+03  0.00000000000E+00 0. -1.
         -3    1    6    6    0  503 -0.51923236218E+02  0.53640732763E+02  0.19269931135E+02  0.77101756897E+02  0.00000000000E+00 0.  1.
<mgrwt>
<rscale>  0 0.81557598E+03</rscale>
<asrwt>0</asrwt>
<pdfrwt beam="1">  1        1 0.17134989E+00 0.81557598E+03</pdfrwt>
<pdfrwt beam="2">  1       -1 0.11214353E+00 0.81557598E+03</pdfrwt>
<totfact> 0.92489978E+00</totfact>
</mgrwt>
</event>
<event>
12    1  0.3147868E-008  0.7491928E+03  0.7818608E-02  0.9636618E-01
         -2   -1    0    0    0  501 -0.00000000000E+00  0.00000000000E+00  0.27586040385E+03  0.27586040385E+03  0.00000000000E+00 0.  1.
          2   -1    0    0  501    0  0.00000000000E+00 -0.00000000000E+00 -0.21485179099E+04  0.21485179099E+04  0.00000000000E+00 0. -1.
         23    2    1    2    0    0 -0.38733500274E+03 -0.50066423978E+03 -0.57130168689E+03  0.85761372456E+03  0.91774712059E+02 0.  0.
    5000000    2    1    2    0    0  0.38733500274E+03  0.50066423978E+03 -0.13013558192E+04  0.15667645892E+04  0.60044252394E+03 0.  0.
         23    2    4    4    0    0  0.90831286593E+02  0.54357043807E+03 -0.89006932893E+03  0.10505940648E+04  0.88347806075E+02 0.  0.
         23    2    4    4    0    0  0.29650371615E+03 -0.42906198289E+02 -0.41128649022E+03  0.51617052443E+03  0.86718150985E+02 0.  0.
          5    1    3    3  502    0 -0.20363594385E+03 -0.32845927014E+03 -0.37231027230E+03  0.53664710810E+03  0.47000000000E+01 0. -1.
         -5    1    3    3    0  502 -0.18369905889E+03 -0.17220496964E+03 -0.19899141459E+03  0.32096661646E+03  0.47000000000E+01 0.  1.
         13    1    5    5    0    0  0.86002205802E+02  0.25432532205E+03 -0.40894830747E+03  0.48919982321E+03  0.00000000000E+00 0.  1.
        -13    1    5    5    0    0  0.48290807906E+01  0.28924511601E+03 -0.48112102146E+03  0.56139424155E+03  0.00000000000E+00 0. -1.
          4    1    6    6  503    0  0.13159285431E+03 -0.39348194442E+02 -0.25126677006E+03  0.28635633300E+03  0.00000000000E+00 0. -1.
         -4    1    6    6    0  503  0.16491086184E+03 -0.35580038477E+01 -0.16001972016E+03  0.22981419143E+03  0.00000000000E+00 0.  1.
<mgrwt>
<rscale>  0 0.74919275E+03</rscale>
<asrwt>0</asrwt>
<pdfrwt beam="1">  1        2 0.33054121E+00 0.74919275E+03</pdfrwt>
<pdfrwt beam="2">  1       -2 0.42440063E-01 0.74919275E+03</pdfrwt>
<totfact> 0.30084625E+01</totfact>
</mgrwt>
</event>
<event>
12    1  0.3147868E-008  0.1190715E+04  0.7818608E-02  0.9121022E-01
          2   -1    0    0  501    0  0.00000000000E+00  0.00000000000E+00  0.27361508232E+04  0.27361508232E+04  0.00000000000E+00 0. -1.
         -2   -1    0    0    0  501 -0.00000000000E+00 -0.00000000000E+00 -0.62342756175E+03  0.62342756175E+03  0.00000000000E+00 0.  1.
         23    2    1    2    0    0  0.85271806734E+03  0.80117323738E+03  0.49242214004E+03  0.12728534154E+04  0.93110657225E+02 0.  0.
    5000000    2    1    2    0    0 -0.85271806734E+03 -0.80117323738E+03  0.16203011214E+04  0.20867249695E+04  0.60003226222E+03 0.  0.
         23    2    4    4    0    0 -0.33335520392E+03 -0.16408394371E+03  0.94256779725E+03  0.10173955028E+04  0.92791832517E+02 0.  0.
         23    2    4    4    0    0 -0.51936286342E+03 -0.63708929368E+03  0.67773332419E+03  0.10693294667E+04  0.92317374645E+02 0.  0.
          5    1    3    3  502    0  0.58922415659E+03  0.59862345447E+03  0.38046297921E+03  0.92212218035E+03  0.47000000000E+01 0. -1.
         -5    1    3    3    0  502  0.26349391075E+03  0.20254978292E+03  0.11195916083E+03  0.35073123508E+03  0.47000000000E+01 0.  1.
         13    1    5    5    0    0 -0.15371185941E+03 -0.12579524161E+03  0.51944023118E+03  0.55612042967E+03  0.00000000000E+00 0. -1.
        -13    1    5    5    0    0 -0.17964334451E+03 -0.38288702096E+02  0.42312756608E+03  0.46127507315E+03  0.00000000000E+00 0.  1.
          1    1    6    6  503    0 -0.40060327396E+03 -0.42744341368E+03  0.49439391377E+03  0.76656128064E+03  0.00000000000E+00 0. -1.
         -1    1    6    6    0  503 -0.11875958946E+03 -0.20964588000E+03  0.18333941042E+03  0.30276818608E+03  0.00000000000E+00 0.  1.
<mgrwt>
<rscale>  0 0.11907154E+04</rscale>
<asrwt>0</asrwt>
<pdfrwt beam="1">  1        2 0.42094628E+00 0.11907154E+04</pdfrwt>
<pdfrwt beam="2">  1       -2 0.95911934E-01 0.11907154E+04</pdfrwt>
<totfact> 0.22754051E+00</totfact>
</mgrwt>
</event>
<event>
12    1  0.3147868E-008  0.7000945E+03  0.7818608E-02  0.9717071E-01
         -1   -1    0    0    0  501 -0.00000000000E+00  0.00000000000E+00  0.10625033625E+04  0.10625033625E+04  0.00000000000E+00 0.  1.
          1   -1    0    0  501    0  0.00000000000E+00 -0.00000000000E+00 -0.57438814097E+03  0.57438814097E+03  0.00000000000E+00 0. -1.
         23    2    1    2    0    0  0.24032566037E+03  0.58069419192E+03 -0.90269651598E+01  0.63583071052E+03  0.96109514499E+02 0.  0.
    5000000    2    1    2    0    0 -0.24032566037E+03 -0.58069419192E+03  0.49714218669E+03  0.10010607930E+04  0.60000849147E+03 0.  0.
         23    2    4    4    0    0  0.99009793156E+01 -0.50015439740E+03  0.10330948447E+03  0.51964778327E+03  0.95438558485E+02 0.  0.
         23    2    4    4    0    0 -0.25022663969E+03 -0.80539794520E+02  0.39383270222E+03  0.48141300968E+03  0.86915239412E+02 0.  0.
          5    1    3    3  502    0  0.20078916162E+03  0.40038067573E+03 -0.35269407787E+02  0.44931836602E+03  0.47000000000E+01 0. -1.
         -5    1    3    3    0  502  0.39536498759E+02  0.18031351619E+03  0.26242442627E+02  0.18651234450E+03  0.47000000000E+01 0.  1.
         11    1    5    5    0    0 -0.10001620191E+02 -0.20288643212E+03  0.87844110101E+02  0.22131318177E+03  0.00000000000E+00 0.  1.
        -11    1    5    5    0    0  0.19902599507E+02 -0.29726796527E+03  0.15465374367E+02  0.29833460150E+03  0.00000000000E+00 0. -1.
          4    1    6    6  503    0 -0.19175299742E+03 -0.41404413323E+02  0.22503084147E+03  0.29853377878E+03  0.00000000000E+00 0. -1.
         -4    1    6    6    0  503 -0.58473642272E+02 -0.39135381197E+02  0.16880186075E+03  0.18287923090E+03  0.00000000000E+00 0.  1.
<mgrwt>
<rscale>  0 0.70009448E+03</rscale>
<asrwt>0</asrwt>
<pdfrwt beam="1">  1        1 0.88367407E-01 0.70009448E+03</pdfrwt>
<pdfrwt beam="2">  1       -1 0.16346206E+00 0.70009448E+03</pdfrwt>
<totfact> 0.10407413E+01</totfact>
</mgrwt>
</event>
<event>
12    1  0.3147868E-008  0.7775249E+03  0.7818608E-02  0.9593131E-01
         -1   -1    0    0    0  501 -0.00000000000E+00  0.00000000000E+00  0.21396818300E+03  0.21396818300E+03  0.00000000000E+00 0.  1.
          1   -1    0    0  501    0  0.00000000000E+00 -0.00000000000E+00 -0.32769908537E+04  0.32769908537E+04  0.00000000000E+00 0. -1.
         23    2    1    2    0    0 -0.22677780888E+03  0.68583229150E+03 -0.11775103147E+04  0.13845508819E+04  0.93040296408E+02 0.  0.
    5000000    2    1    2    0    0  0.22677780888E+03 -0.68583229150E+03 -0.18855123560E+04  0.21064081547E+04  0.60000363599E+03 0.  0.
         23    2    4    4    0    0  0.68240128331E+02 -0.63731265781E+03 -0.17720133630E+04  0.18865338695E+04  0.90302510136E+02 0.  0.
         23    2    4    4    0    0  0.15853768055E+03 -0.48519633692E+02 -0.11349899302E+03  0.21987428526E+03  0.89299097948E+02 0.  0.
          5    1    3    3  502    0 -0.46253814100E+02  0.88283139220E+02 -0.11515818946E+03  0.15237068809E+03  0.47000000000E+01 0. -1.
         -5    1    3    3    0  502 -0.18052399478E+03  0.59754915228E+03 -0.10623521253E+04  0.12321801938E+04  0.47000000000E+01 0.  1.
         13    1    5    5    0    0 -0.10194282571E+02 -0.21708512939E+03 -0.67740879189E+03  0.71141587566E+03  0.00000000000E+00 0. -1.
        -13    1    5    5    0    0  0.78434410902E+02 -0.42022752841E+03 -0.10946045711E+04  0.11751179938E+04  0.00000000000E+00 0.  1.
          2    1    6    6  503    0  0.70799302789E+02  0.21476670921E+02 -0.29350175000E+02  0.79594104315E+02  0.00000000000E+00 0. -1.
         -2    1    6    6    0  503  0.87738377757E+02 -0.69996304613E+02 -0.84148818018E+02  0.14028018094E+03  0.00000000000E+00 0.  1.
<mgrwt>
<rscale>  0 0.77752493E+03</rscale>
<asrwt>0</asrwt>
<pdfrwt beam="1">  1        1 0.50415240E+00 0.77752493E+03</pdfrwt>
<pdfrwt beam="2">  1       -1 0.32918184E-01 0.77752493E+03</pdfrwt>
<totfact> 0.34469702E+00</totfact>
</mgrwt>
</event>
<event>
12    1  0.3147868E-008  0.2383977E+04  0.7818608E-02  0.8445527E-01
          2   -1    0    0  501    0  0.00000000000E+00  0.00000000000E+00  0.32149659625E+04  0.32149659625E+04  0.00000000000E+00 0. -1.
         -2   -1    0    0    0  501 -0.00000000000E+00 -0.00000000000E+00 -0.17826721299E+04  0.17826721299E+04  0.00000000000E+00 0.  1.
         23    2    1    2    0    0 -0.20333143705E+04  0.11877586341E+04  0.64675957311E+03  0.24437570429E+04  0.92263952995E+02 0.  0.
    5000000    2    1    2    0    0  0.20333143705E+04 -0.11877586341E+04  0.78553425944E+03  0.25538810495E+04  0.60008869326E+03 0.  0.
         23    2    4    4    0    0  0.15097800928E+04 -0.61045302123E+03  0.39763311154E+03  0.16787674431E+04  0.89773140518E+02 0.  0.
         23    2    4    4    0    0  0.52353427769E+03 -0.57730561292E+03  0.38790114790E+03  0.87511360639E+03  0.89367851721E+02 0.  0.
          5    1    3    3  502    0 -0.13022376394E+04  0.74650089013E+03  0.45605126824E+03  0.15687865686E+04  0.47000000000E+01 0. -1.
         -5    1    3    3    0  502 -0.73107673108E+03  0.44125774402E+03  0.19070830486E+03  0.87497047432E+03  0.47000000000E+01 0.  1.
         13    1    5    5    0    0  0.10182096396E+04 -0.40401816037E+03  0.22451130029E+03  0.11182069880E+04  0.00000000000E+00 0. -1.
        -13    1    5    5    0    0  0.49157045320E+03 -0.20643486086E+03  0.17312181125E+03  0.56056045505E+03  0.00000000000E+00 0.  1.
          3    1    6    6  503    0  0.42354013635E+03 -0.41000294289E+03  0.29606865456E+03  0.65965544680E+03  0.00000000000E+00 0. -1.
         -3    1    6    6    0  503  0.99994141343E+02 -0.16730267003E+03  0.91832493333E+02  0.21545815959E+03  0.00000000000E+00 0.  1.
<mgrwt>
<rscale>  0 0.23839768E+04</rscale>
<asrwt>0</asrwt>
<pdfrwt beam="1">  1        2 0.49461015E+00 0.23839768E+04</pdfrwt>
<pdfrwt beam="2">  1       -2 0.27425725E+00 0.23839768E+04</pdfrwt>
<totfact> 0.49408410E-02</totfact>
</mgrwt>
</event>
<event>
12    1  0.3147868E-008  0.1652539E+04  0.7818608E-02  0.8788906E-01
         -2   -1    0    0    0  501 -0.00000000000E+00  0.00000000000E+00  0.11825821026E+04  0.11825821026E+04  0.00000000000E+00 0.  1.
          2   -1    0    0  501    0  0.00000000000E+00 -0.00000000000E+00 -0.27519663962E+04  0.27519663962E+04  0.00000000000E+00 0. -1.
         23    2    1    2    0    0  0.73396860220E+03 -0.14331117945E+04 -0.75959586483E+01  0.16125469207E+04  0.87923537897E+02 0.  0.
    5000000    2    1    2    0    0 -0.73396860220E+03  0.14331117945E+04 -0.15617883349E+04  0.23220015780E+04  0.59999100061E+03 0.  0.
         23    2    4    4    0    0 -0.13248538554E+03  0.81512101763E+03 -0.59095480313E+03  0.10201052921E+04  0.97018435989E+02 0.  0.
         23    2    4    4    0    0 -0.60148321666E+03  0.61799077685E+03 -0.97083353181E+03  0.13018962859E+04  0.93389146102E+02 0.  0.
          5    1    3    3  502    0  0.59553267648E+03 -0.11315702024E+04  0.26239825715E+02  0.12789921463E+04  0.47000000000E+01 0. -1.
         -5    1    3    3    0  502  0.13843592572E+03 -0.30154159204E+03 -0.33835784363E+02  0.33355477446E+03  0.47000000000E+01 0.  1.
         11    1    5    5    0    0 -0.83686722861E+02  0.34191741076E+03 -0.29971859333E+03  0.46232263469E+03  0.00000000000E+00 0. -1.
        -11    1    5    5    0    0 -0.48798662676E+02  0.47320360687E+03 -0.29123620980E+03  0.55778265743E+03  0.00000000000E+00 0.  1.
          2    1    6    6  503    0 -0.48133078589E+03  0.54084575206E+03 -0.79216592066E+03  0.10731823232E+04  0.00000000000E+00 0. -1.
         -2    1    6    6    0  503 -0.12015243077E+03  0.77145024782E+02 -0.17866761115E+03  0.22871396272E+03  0.00000000000E+00 0.  1.
<mgrwt>
<rscale>  0 0.16525393E+04</rscale>
<asrwt>0</asrwt>
<pdfrwt beam="1">  1        2 0.42337944E+00 0.16525393E+04</pdfrwt>
<pdfrwt beam="2">  1       -2 0.18193571E+00 0.16525393E+04</pdfrwt>
<totfact> 0.40289383E-01</totfact>
</mgrwt>
</event>
<event>
12    1  0.3147868E-008  0.3406590E+03  0.7818608E-02  0.1066516E+00
          1   -1    0    0  501    0  0.00000000000E+00  0.00000000000E+00  0.88685458318E+03  0.88685458318E+03  0.00000000000E+00 0. -1.
         -1   -1    0    0    0  501 -0.00000000000E+00 -0.00000000000E+00 -0.30028373893E+03  0.30028373893E+03  0.00000000000E+00 0.  1.
         23    2    1    2    0    0  0.23580173848E+03 -0.15912491178E+03 -0.35960894278E+01  0.29867405497E+03  0.90939880334E+02 0.  0.
    5000000    2    1    2    0    0 -0.23580173848E+03  0.15912491178E+03  0.59016693367E+03  0.88846426714E+03  0.60012377636E+03 0.  0.
         23    2    4    4    0    0 -0.24254650233E+03  0.16436154859E+03  0.18324144913E+02  0.30942071825E+03  0.97784876876E+02 0.  0.
         23    2    4    4    0    0  0.67447638430E+01 -0.52366368189E+01  0.57184278876E+03  0.57904354889E+03  0.90633008612E+02 0.  0.
          5    1    3    3  502    0  0.66321083575E+02 -0.37362338727E+02  0.38960367259E+02  0.85641290851E+02  0.47000000000E+01 0. -1.
         -5    1    3    3    0  502  0.16948065491E+03 -0.12176257305E+03 -0.42556456686E+02  0.21303276412E+03  0.47000000000E+01 0.  1.
         13    1    5    5    0    0 -0.31351115332E+02  0.65756520678E+02  0.22689268743E+02  0.76299510879E+02  0.00000000000E+00 0.  1.
        -13    1    5    5    0    0 -0.21119538699E+03  0.98605027916E+02 -0.43651238297E+01  0.23312120737E+03  0.00000000000E+00 0. -1.
          1    1    6    6  503    0  0.44170838781E+02 -0.22034787218E+02  0.27754846397E+03  0.28190378624E+03  0.00000000000E+00 0. -1.
         -1    1    6    6    0  503 -0.37426074938E+02  0.16798150399E+02  0.29429432479E+03  0.29713976265E+03  0.00000000000E+00 0.  1.
<mgrwt>
<rscale>  0 0.34065904E+03</rscale>
<asrwt>0</asrwt>
<pdfrwt beam="1">  1        1 0.13643917E+00 0.34065904E+03</pdfrwt>
<pdfrwt beam="2">  1       -1 0.46197499E-01 0.34065904E+03</pdfrwt>
<totfact> 0.93011176E+01</totfact>
</mgrwt>
</event>
<event>
12    1  0.3147868E-008  0.9584713E+03  0.7818608E-02  0.9355303E-01
         -1   -1    0    0    0  501 -0.00000000000E+00  0.00000000000E+00  0.64754737848E+03  0.64754737848E+03  0.00000000000E+00 0.  1.
          1   -1    0    0  501    0  0.00000000000E+00 -0.00000000000E+00 -0.17189399337E+04  0.17189399337E+04  0.00000000000E+00 0. -1.
         23    2    1    2    0    0 -0.63770911292E+03  0.67882454680E+03 -0.19959501675E+03  0.95665388208E+03  0.88728807919E+02 0.  0.
    5000000    2    1    2    0    0  0.63770911292E+03 -0.67882454680E+03 -0.87179753847E+03  0.14098334301E+04  0.60010305321E+03 0.  0.
         23    2    4    4    0    0  0.80074569871E+02 -0.29022076548E+03 -0.18350607006E+02  0.31504971886E+03  0.90992038781E+02 0.  0.
         23    2    4    4    0    0  0.55763454305E+03 -0.38860378133E+03 -0.85344693146E+03  0.10947837112E+04  0.90611958874E+02 0.  0.
          5    1    3    3  502    0 -0.49532515921E+03  0.48925261738E+03 -0.11985779241E+03  0.70647230473E+03  0.47000000000E+01 0. -1.
         -5    1    3    3    0  502 -0.14238395371E+03  0.18957192942E+03 -0.79737224339E+02  0.25018157735E+03  0.47000000000E+01 0.  1.
         13    1    5    5    0    0 -0.88921830311E+00 -0.15092700958E+02 -0.23809517737E+02  0.28204139169E+02  0.00000000000E+00 0.  1.
        -13    1    5    5    0    0  0.80963788174E+02 -0.27512806452E+03  0.54589107313E+01  0.28684557969E+03  0.00000000000E+00 0. -1.
          3    1    6    6  503    0  0.21117481893E+03 -0.11689612778E+03 -0.24693245244E+03  0.34530442353E+03  0.00000000000E+00 0. -1.
         -3    1    6    6    0  503  0.34645972412E+03 -0.27170765354E+03 -0.60651447902E+03  0.74947928770E+03  0.00000000000E+00 0.  1.
<mgrwt>
<rscale>  0 0.95847126E+03</rscale>
<asrwt>0</asrwt>
<pdfrwt beam="1">  1        1 0.26445229E+00 0.95847126E+03</pdfrwt>
<pdfrwt beam="2">  1       -1 0.99622676E-01 0.95847126E+03</pdfrwt>
<totfact> 0.45065649E+00</totfact>
</mgrwt>
</event>
<event>
12    1  0.3147868E-008  0.6407622E+03  0.7818608E-02  0.9824269E-01
         -1   -1    0    0    0  501 -0.00000000000E+00  0.00000000000E+00  0.35087249105E+03  0.35087249105E+03  0.00000000000E+00 0.  1.
          1   -1    0    0  501    0  0.00000000000E+00 -0.00000000000E+00 -0.14108969730E+04  0.14108969730E+04  0.00000000000E+00 0. -1.
         23    2    1    2    0    0 -0.47160116921E+03  0.31807852202E+03 -0.36690608534E+03  0.68302920301E+03  0.91253535475E+02 0.  0.
    5000000    2    1    2    0    0  0.47160116921E+03 -0.31807852202E+03 -0.69311839657E+03  0.10787402610E+04  0.59973813455E+03 0.  0.
         23    2    4    4    0    0  0.27219306600E+03 -0.39820784972E+03 -0.19611656416E+03  0.52958094550E+03  0.96621500432E+02 0.  0.
         23    2    4    4    0    0  0.19940810322E+03  0.80129327700E+02 -0.49700183241E+03  0.54915931548E+03  0.91546881875E+02 0.  0.
          5    1    3    3  502    0 -0.20623786982E+03  0.18287755680E+03 -0.14418636156E+03  0.31111100364E+03  0.47000000000E+01 0. -1.
         -5    1    3    3    0  502 -0.26536329940E+03  0.13520096522E+03 -0.22271972378E+03  0.37191819937E+03  0.47000000000E+01 0.  1.
         11    1    5    5    0    0  0.14118723243E+03 -0.23730429140E+03 -0.63520473845E+02  0.28334080524E+03  0.00000000000E+00 0. -1.
        -11    1    5    5    0    0  0.13100583357E+03 -0.16090355832E+03 -0.13259609031E+03  0.24624014026E+03  0.00000000000E+00 0.  1.
          3    1    6    6  503    0 -0.80596344979E+00  0.13253097384E+02 -0.57372853425E+01  0.14464114576E+02  0.00000000000E+00 0. -1.
         -3    1    6    6    0  503  0.20021406667E+03  0.66876230316E+02 -0.49126454707E+03  0.53469520091E+03  0.00000000000E+00 0.  1.
<mgrwt>
<rscale>  0 0.64076219E+03</rscale>
<asrwt>0</asrwt>
<pdfrwt beam="1">  1        1 0.21706107E+00 0.64076219E+03</pdfrwt>
<pdfrwt beam="2">  1       -1 0.53980384E-01 0.64076219E+03</pdfrwt>
<totfact> 0.27375901E+01</totfact>
</mgrwt>
</event>
<event>
12    1  0.3147868E-008  0.4946919E+03  0.7818608E-02  0.1015174E+00
          1   -1    0    0  501    0  0.00000000000E+00  0.00000000000E+00  0.46641597081E+03  0.46641597081E+03  0.00000000000E+00 0. -1.
         -1   -1    0    0    0  501 -0.00000000000E+00 -0.00000000000E+00 -0.54158091775E+03  0.54158091775E+03  0.00000000000E+00 0.  1.
         23    2    1    2    0    0 -0.13628250081E+03  0.28318828576E+03 -0.90265046525E+01  0.32745291397E+03  0.91517254454E+02 0.  0.
    5000000    2    1    2    0    0  0.13628250081E+03 -0.28318828576E+03 -0.66138442292E+02  0.68054397459E+03  0.59999773548E+03 0.  0.
         23    2    4    4    0    0 -0.97360593413E+02 -0.38099701193E+03 -0.57388225014E+01  0.40475563481E+03  0.95688983578E+02 0.  0.
         23    2    4    4    0    0  0.23364309423E+03  0.97808726169E+02 -0.60399619791E+02  0.27578833978E+03  0.90859517359E+02 0.  0.
          5    1    3    3  502    0 -0.84468056783E+02  0.80463858653E+02  0.10637580626E+02  0.11723708154E+03  0.47000000000E+01 0. -1.
         -5    1    3    3    0  502 -0.51814444030E+02  0.20272442710E+03 -0.19664085279E+02  0.21021583243E+03  0.47000000000E+01 0.  1.
         11    1    5    5    0    0 -0.32808596708E+02 -0.28525636670E+03  0.14602775734E+02  0.28750798218E+03  0.00000000000E+00 0.  1.
        -11    1    5    5    0    0 -0.64551996704E+02 -0.95740645228E+02 -0.20341598235E+02  0.11724765262E+03  0.00000000000E+00 0. -1.
          1    1    6    6  503    0  0.69943623964E+02 -0.17955336246E+00  0.13419071259E+02  0.71219479401E+02  0.00000000000E+00 0. -1.
         -1    1    6    6    0  503  0.16369947026E+03  0.97988279532E+02 -0.73818691050E+02  0.20456886038E+03  0.00000000000E+00 0.  1.
<mgrwt>
<rscale>  0 0.49469187E+03</rscale>
<asrwt>0</asrwt>
<pdfrwt beam="1">  1        1 0.71756303E-01 0.49469187E+03</pdfrwt>
<pdfrwt beam="2">  1       -1 0.83320141E-01 0.49469187E+03</pdfrwt>
<totfact> 0.72730406E+01</totfact>
</mgrwt>
</event>
<event>
12    1  0.3147868E-008  0.5846504E+03  0.7818608E-02  0.9937773E-01
         -1   -1    0    0    0  501 -0.00000000000E+00  0.00000000000E+00  0.12319491222E+04  0.12319491222E+04  0.00000000000E+00 0.  1.
          1   -1    0    0  501    0  0.00000000000E+00 -0.00000000000E+00 -0.29087817335E+03  0.29087817335E+03  0.00000000000E+00 0. -1.
         23    2    1    2    0    0 -0.42865725907E+03  0.97365535212E+02  0.29656971640E+03  0.53859967717E+03  0.94387087886E+02 0.  0.
    5000000    2    1    2    0    0  0.42865725907E+03 -0.97365535212E+02  0.64450123241E+03  0.98422761834E+03  0.60007922221E+03 0.  0.
         23    2    4    4    0    0  0.28170576616E+03  0.22669854045E+03  0.27457638179E+03  0.46302122957E+03  0.90808054011E+02 0.  0.
         23    2    4    4    0    0  0.14695149291E+03 -0.32406407566E+03  0.36992485062E+03  0.52120638876E+03  0.90550749193E+02 0.  0.
          5    1    3    3  502    0 -0.16687734538E+03  0.60453444996E+02  0.71644981091E+02  0.19146216527E+03  0.47000000000E+01 0. -1.
         -5    1    3    3    0  502 -0.26177991369E+03  0.36912090216E+02  0.22492473531E+03  0.34713751190E+03  0.47000000000E+01 0.  1.
         13    1    5    5    0    0  0.20218933521E+03  0.15999887283E+03  0.24359406308E+03  0.35470866094E+03  0.00000000000E+00 0. -1.
        -13    1    5    5    0    0  0.79516430946E+02  0.66699667620E+02  0.30982318705E+02  0.10831256863E+03  0.00000000000E+00 0.  1.
          1    1    6    6  503    0  0.76393250483E+02 -0.75801910791E+02  0.88325824009E+02  0.13922395478E+03  0.00000000000E+00 0. -1.
         -1    1    6    6    0  503  0.70558242424E+02 -0.24826216487E+03  0.28159902661E+03  0.38198243398E+03  0.00000000000E+00 0.  1.
<mgrwt>
<rscale>  0 0.58465043E+03</rscale>
<asrwt>0</asrwt>
<pdfrwt beam="1">  1        1 0.44750489E-01 0.58465043E+03</pdfrwt>
<pdfrwt beam="2">  1       -1 0.18953063E+00 0.58465043E+03</pdfrwt>
<totfact> 0.17032382E+01</totfact>
</mgrwt>
</event>
<event>
12    1  0.3147868E-008  0.6146563E+03  0.7818608E-02  0.9875457E-01
         -2   -1    0    0    0  501 -0.00000000000E+00  0.00000000000E+00  0.12863294048E+03  0.12863294048E+03  0.00000000000E+00 0. -1.
          2   -1    0    0  501    0  0.00000000000E+00 -0.00000000000E+00 -0.32529649872E+04  0.32529649872E+04  0.00000000000E+00 0.  1.
         23    2    1    2    0    0  0.20858685137E+03  0.45566876160E+03 -0.11146930538E+04  0.12252586631E+04  0.87038453271E+02 0.  0.
    5000000    2    1    2    0    0 -0.20858685137E+03 -0.45566876160E+03 -0.20096389929E+04  0.21563392646E+04  0.60000637282E+03 0.  0.
         23    2    4    4    0    0 -0.36602448199E+03 -0.42070796104E+03 -0.17382788357E+04  0.18278596277E+04  0.92132502702E+02 0.  0.
         23    2    4    4    0    0  0.15743763062E+03 -0.34960800559E+02 -0.27136015720E+03  0.32847963690E+03  0.90849721139E+02 0.  0.
          5    1    3    3  502    0  0.79469424899E+02  0.90384267726E+02 -0.23710591860E+03  0.26594362557E+03  0.47000000000E+01 0. -1.
         -5    1    3    3    0  502  0.12911742647E+03  0.36528449388E+03 -0.87758713522E+03  0.95931503751E+03  0.47000000000E+01 0.  1.
         11    1    5    5    0    0 -0.33840421070E+03 -0.36383094606E+03 -0.16085066063E+04  0.16835034510E+04  0.00000000000E+00 0. -1.
        -11    1    5    5    0    0 -0.27620271291E+02 -0.56877014986E+02 -0.12977222937E+03  0.14435617665E+03  0.00000000000E+00 0.  1.
          3    1    6    6  503    0  0.25585078472E+02 -0.67625837546E+01 -0.13177811707E+03  0.13440908049E+03  0.00000000000E+00 0. -1.
         -3    1    6    6    0  503  0.13185255214E+03 -0.28198216804E+02 -0.13958204013E+03  0.19407055641E+03  0.00000000000E+00 0.  1.
<mgrwt>
<rscale>  0 0.61465627E+03</rscale>
<asrwt>0</asrwt>
<pdfrwt beam="1">  1        2 0.50045613E+00 0.61465627E+03</pdfrwt>
<pdfrwt beam="2">  1       -2 0.19789684E-01 0.61465627E+03</pdfrwt>
<totfact> 0.28432181E+01</totfact>
</mgrwt>
</event>
<event>
12    1  0.3147868E-008  0.1089296E+04  0.7818608E-02  0.9215688E-01
          1   -1    0    0  501    0  0.00000000000E+00  0.00000000000E+00  0.12678021852E+04  0.12678021852E+04  0.00000000000E+00 0. -1.
         -1   -1    0    0    0  501 -0.00000000000E+00 -0.00000000000E+00 -0.11240211188E+04  0.11240211188E+04  0.00000000000E+00 0.  1.
         23    2    1    2    0    0  0.51004052282E+03  0.87673856822E+03 -0.39948825195E+03  0.10940831837E+04  0.92818626761E+02 0.  0.
    5000000    2    1    2    0    0 -0.51004052282E+03 -0.87673856822E+03  0.54326931838E+03  0.12977401203E+04  0.60014666187E+03 0.  0.
         23    2    4    4    0    0 -0.34926883920E+03 -0.94891033650E+02  0.21580698185E+03  0.43112116385E+03  0.91103096568E+02 0.  0.
         23    2    4    4    0    0 -0.16077168362E+03 -0.78184753457E+03  0.32746233653E+03  0.86661895650E+03  0.81631687173E+02 0.  0.
          5    1    3    3  502    0  0.18555020120E+02  0.73842644037E+02 -0.18336542400E+02  0.78455998095E+02  0.47000000000E+01 0. -1.
         -5    1    3    3    0  502  0.49148550270E+03  0.80289592418E+03 -0.38115170955E+03  0.10156271856E+04  0.47000000000E+01 0.  1.
         11    1    5    5    0    0 -0.26578592045E+03 -0.82293397679E+02  0.11884527658E+03  0.30255339789E+03  0.00000000000E+00 0.  1.
        -11    1    5    5    0    0 -0.83482918746E+02 -0.12597635970E+02  0.96961705270E+02  0.12856776596E+03  0.00000000000E+00 0. -1.
          1    1    6    6  503    0 -0.48026641847E+02 -0.21455006881E+03  0.13016485353E+03  0.25550181887E+03  0.00000000000E+00 0. -1.
         -1    1    6    6    0  503 -0.11274504177E+03 -0.56729746576E+03  0.19729748301E+03  0.61111713763E+03  0.00000000000E+00 0.  1.
<mgrwt>
<rscale>  0 0.10892957E+04</rscale>
<asrwt>0</asrwt>
<pdfrwt beam="1">  1        1 0.19504649E+00 0.10892957E+04</pdfrwt>
<pdfrwt beam="2">  1       -1 0.17292633E+00 0.10892957E+04</pdfrwt>
<totfact> 0.22186190E+00</totfact>
</mgrwt>
</event>
<event>
12    1  0.3317299E-008  0.8668839E+03  0.7818608E-02  0.9467952E-01
          2   -1    0    0  501    0  0.00000000000E+00  0.00000000000E+00  0.10574288592E+04  0.10574288592E+04  0.00000000000E+00 0. -1.
         -2   -1    0    0    0  501 -0.00000000000E+00 -0.00000000000E+00 -0.86093595551E+03  0.86093595551E+03  0.00000000000E+00 0.  1.
         23    2    1    2    0    0 -0.79957601107E+03 -0.24743894598E+03  0.27630722467E+03  0.88556477636E+03  0.85623952625E+02 0.  0.
    5000000    2    1    2    0    0  0.79957601107E+03  0.24743894598E+03 -0.79814320994E+02  0.10328000383E+04  0.59979810259E+03 0.  0.
         23    2    4    4    0    0  0.31682780945E+03 -0.39399340683E+02  0.21189359160E+03  0.39345473879E+03  0.89306037990E+02 0.  0.
         23    2    4    4    0    0  0.48274820162E+03  0.28683828666E+03 -0.29170791260E+03  0.63934529954E+03  0.91361244086E+02 0.  0.
          5    1    3    3  502    0 -0.45582556593E+03 -0.18494403378E+03  0.16106896161E+03  0.51763553064E+03  0.47000000000E+01 0. -1.
         -5    1    3    3    0  502 -0.34375044514E+03 -0.62494912195E+02  0.11523826306E+03  0.36792924572E+03  0.47000000000E+01 0.  1.
         13    1    5    5    0    0  0.17580148032E+03  0.21462842908E+02  0.99667381699E+02  0.20322500113E+03  0.00000000000E+00 0. -1.
        -13    1    5    5    0    0  0.14102632913E+03 -0.60862183591E+02  0.11222620990E+03  0.19022973766E+03  0.00000000000E+00 0.  1.
          4    1    6    6  503    0  0.38413793420E+03  0.23468641939E+03 -0.19078711834E+03  0.48891654958E+03  0.00000000000E+00 0.  1.
         -4    1    6    6    0  503  0.98610267421E+02  0.52151867267E+02 -0.10092079426E+03  0.15042874996E+03  0.00000000000E+00 0. -1.
<mgrwt>
<rscale>  0 0.86688388E+03</rscale>
<asrwt>0</asrwt>
<pdfrwt beam="1">  1        2 0.16268136E+00 0.86688388E+03</pdfrwt>
<pdfrwt beam="2">  1       -2 0.13245169E+00 0.86688388E+03</pdfrwt>
<totfact> 0.96373758E+00</totfact>
</mgrwt>
</event>
<event>
12    1  0.3147868E-008  0.6095299E+03  0.7818608E-02  0.9885829E-01
         -1   -1    0    0    0  501 -0.00000000000E+00  0.00000000000E+00  0.14302258870E+04  0.14302258870E+04  0.00000000000E+00 0.  1.
          1   -1    0    0  501    0  0.00000000000E+00 -0.00000000000E+00 -0.32845947932E+03  0.32845947932E+03  0.00000000000E+00 0. -1.
         23    2    1    2    0    0 -0.50367207309E+03  0.87122126836E+02  0.70652940946E+03  0.87678225876E+03  0.91035710847E+02 0.  0.
    5000000    2    1    2    0    0  0.50367207309E+03 -0.87122126836E+02  0.39523699818E+03  0.88190310752E+03  0.60022077949E+03 0.  0.
         23    2    4    4    0    0  0.39106659621E+03 -0.27431593388E+03  0.87927617212E+02  0.49422929483E+03  0.91372948709E+02 0.  0.
         23    2    4    4    0    0  0.11260547688E+03  0.18719380704E+03  0.30730938096E+03  0.38767381269E+03  0.90168811665E+02 0.  0.
          5    1    3    3  502    0 -0.41835479196E+02  0.14485977805E+01  0.10805713117E+03  0.11597732258E+03  0.47000000000E+01 0. -1.
         -5    1    3    3    0  502 -0.46183659390E+03  0.85673529055E+02  0.59847227829E+03  0.76080493618E+03  0.47000000000E+01 0.  1.
         13    1    5    5    0    0  0.18707804112E+03 -0.18252690295E+03  0.29453819164E+02  0.26302431681E+03  0.00000000000E+00 0. -1.
        -13    1    5    5    0    0  0.20398855508E+03 -0.91789030923E+02  0.58473798047E+02  0.23120497802E+03  0.00000000000E+00 0.  1.
          1    1    6    6  503    0  0.55936555616E+02  0.13048081604E+03  0.25527515521E+03  0.29209509834E+03  0.00000000000E+00 0. -1.
         -1    1    6    6    0  503  0.56668921268E+02  0.56712991003E+02  0.52034225754E+02  0.95578714345E+02  0.00000000000E+00 0.  1.
<mgrwt>
<rscale>  0 0.60952993E+03</rscale>
<asrwt>0</asrwt>
<pdfrwt beam="1">  1        1 0.50532228E-01 0.60952993E+03</pdfrwt>
<pdfrwt beam="2">  1       -1 0.22003475E+00 0.60952993E+03</pdfrwt>
<totfact> 0.90218026E+00</totfact>
</mgrwt>
</event>
<event>
12    1  0.3147868E-008  0.9327507E+03  0.7818608E-02  0.9385543E-01
         -2   -1    0    0    0  501 -0.00000000000E+00  0.00000000000E+00  0.44260750915E+03  0.44260750915E+03  0.00000000000E+00 0.  1.
          2   -1    0    0  501    0  0.00000000000E+00 -0.00000000000E+00 -0.23284965887E+04  0.23284965887E+04  0.00000000000E+00 0. -1.
         23    2    1    2    0    0  0.23279608639E+03 -0.84676400993E+03 -0.12540363953E+04  0.15339536434E+04  0.95933273132E+02 0.  0.
    5000000    2    1    2    0    0 -0.23279608639E+03  0.84676400993E+03 -0.63185268425E+03  0.12371504545E+04  0.60008343262E+03 0.  0.
         23    2    4    4    0    0 -0.34155396039E+03  0.47190196802E+03 -0.58963413605E+03  0.83444356492E+03  0.96317565163E+02 0.  0.
         23    2    4    4    0    0  0.10875787400E+03  0.37486204191E+03 -0.42218548196E+02  0.40270688957E+03  0.89669434450E+02 0.  0.
          5    1    3    3  502    0  0.59508655876E+02 -0.37366286435E+03 -0.57672385273E+03  0.68978091349E+03  0.47000000000E+01 0. -1.
         -5    1    3    3    0  502  0.17328743051E+03 -0.47310114558E+03 -0.67731254258E+03  0.84417272987E+03  0.47000000000E+01 0.  1.
         13    1    5    5    0    0 -0.22434154553E+03  0.26332777165E+03 -0.29295949330E+03  0.45331656608E+03  0.00000000000E+00 0. -1.
        -13    1    5    5    0    0 -0.11721241486E+03  0.20857419637E+03 -0.29667464275E+03  0.38112699884E+03  0.00000000000E+00 0.  1.
          3    1    6    6  503    0  0.11245268240E+03  0.26179042517E+03 -0.10082007502E+02  0.28509906939E+03  0.00000000000E+00 0. -1.
         -3    1    6    6    0  503 -0.36948083957E+01  0.11307161674E+03 -0.32136540694E+02  0.11760782019E+03  0.00000000000E+00 0.  1.
<mgrwt>
<rscale>  0 0.93275073E+03</rscale>
<asrwt>0</asrwt>
<pdfrwt beam="1">  1        2 0.35823024E+00 0.93275073E+03</pdfrwt>
<pdfrwt beam="2">  1       -2 0.68093464E-01 0.93275073E+03</pdfrwt>
<totfact> 0.87664074E+00</totfact>
</mgrwt>
</event>
<event>
12    1  0.3147868E-008  0.1098468E+04  0.7818608E-02  0.9206686E-01
          2   -1    0    0  501    0  0.00000000000E+00  0.00000000000E+00  0.22863289175E+04  0.22863289175E+04  0.00000000000E+00 0. -1.
         -2   -1    0    0    0  501 -0.00000000000E+00 -0.00000000000E+00 -0.53965664498E+03  0.53965664498E+03  0.00000000000E+00 0.  1.
         23    2    1    2    0    0  0.45736130121E+03  0.91769662182E+03  0.72655782081E+03  0.12600008563E+04  0.91484650751E+02 0.  0.
    5000000    2    1    2    0    0 -0.45736130121E+03 -0.91769662182E+03  0.10201144517E+04  0.15659847062E+04  0.60027340094E+03 0.  0.
         23    2    4    4    0    0 -0.25493088547E+03 -0.39770438456E+02  0.15795900585E+03  0.31564805381E+03  0.90062212955E+02 0.  0.
         23    2    4    4    0    0 -0.20243041574E+03 -0.87792618336E+03  0.86215544583E+03  0.12503366524E+04  0.91089378113E+02 0.  0.
          5    1    3    3  502    0  0.19669500403E+03  0.39957715965E+03  0.37109945964E+03  0.57973073928E+03  0.47000000000E+01 0. -1.
         -5    1    3    3    0  502  0.26066629718E+03  0.51811946217E+03  0.35545836116E+03  0.68027011700E+03  0.47000000000E+01 0.  1.
         11    1    5    5    0    0 -0.23963744270E+03 -0.57642460557E+02  0.15674998846E+03  0.29209470397E+03  0.00000000000E+00 0.  1.
        -11    1    5    5    0    0 -0.15293442770E+02  0.17872022101E+02  0.12090173891E+01  0.23553349842E+02  0.00000000000E+00 0. -1.
          4    1    6    6  503    0 -0.67496159620E+02 -0.22948475670E+03  0.17853619839E+03  0.29848644735E+03  0.00000000000E+00 0. -1.
         -4    1    6    6    0  503 -0.13493425612E+03 -0.64844142667E+03  0.68361924744E+03  0.95185020500E+03  0.00000000000E+00 0.  1.
<mgrwt>
<rscale>  0 0.10984685E+04</rscale>
<asrwt>0</asrwt>
<pdfrwt beam="1">  1        2 0.35174291E+00 0.10984685E+04</pdfrwt>
<pdfrwt beam="2">  1       -2 0.83024100E-01 0.10984685E+04</pdfrwt>
<totfact> 0.58338991E+00</totfact>
</mgrwt>
</event>
<event>
12    1  0.3147868E-008  0.1378830E+04  0.7818608E-02  0.8969287E-01
         -1   -1    0    0    0  501 -0.00000000000E+00  0.00000000000E+00  0.11292386968E+04  0.11292386968E+04  0.00000000000E+00 0.  1.
          1   -1    0    0  501    0  0.00000000000E+00 -0.00000000000E+00 -0.17975413799E+04  0.17975413799E+04  0.00000000000E+00 0. -1.
         23    2    1    2    0    0  0.20703196957E+03  0.13166974136E+04 -0.42017818191E+02  0.13365841063E+04  0.90206767222E+02 0.  0.
    5000000    2    1    2    0    0 -0.20703196957E+03 -0.13166974136E+04 -0.62628486492E+03  0.15901959704E+04  0.59994681162E+03 0.  0.
         23    2    4    4    0    0  0.16198348814E+03 -0.49741716443E+03 -0.87220853078E+02  0.53838489451E+03  0.92673251405E+02 0.  0.
         23    2    4    4    0    0 -0.36901545771E+03 -0.81928024914E+03 -0.53906401184E+03  0.10518110758E+04  0.91235934484E+02 0.  0.
          5    1    3    3  502    0  0.50891640044E+02  0.19285181673E+03 -0.30842390808E+02  0.20187898681E+03  0.47000000000E+01 0. -1.
         -5    1    3    3    0  502  0.15614032953E+03  0.11238455968E+04 -0.11175427383E+02  0.11347051195E+04  0.47000000000E+01 0.  1.
         11    1    5    5    0    0  0.95748908277E+02 -0.35301184294E+03 -0.21317450060E+02  0.36638729286E+03  0.00000000000E+00 0. -1.
        -11    1    5    5    0    0  0.66234579863E+02 -0.14440532149E+03 -0.65903403018E+02  0.17199760165E+03  0.00000000000E+00 0.  1.
          1    1    6    6  503    0 -0.29670545518E+03 -0.68063534340E+03 -0.40458673932E+03  0.84557023803E+03  0.00000000000E+00 0. -1.
         -1    1    6    6    0  503 -0.72310002532E+02 -0.13864490574E+03 -0.13447727253E+03  0.20624083781E+03  0.00000000000E+00 0.  1.
<mgrwt>
<rscale>  0 0.13788300E+04</rscale>
<asrwt>0</asrwt>
<pdfrwt beam="1">  1        1 0.27654482E+00 0.13788300E+04</pdfrwt>
<pdfrwt beam="2">  1       -1 0.17372903E+00 0.13788300E+04</pdfrwt>
<totfact> 0.90752767E-01</totfact>
</mgrwt>
</event>
<event>
12    1  0.3147868E-008  0.8339580E+03  0.7818608E-02  0.9512124E-01
         -2   -1    0    0    0  501 -0.00000000000E+00  0.00000000000E+00  0.72906528637E+03  0.72906528637E+03  0.00000000000E+00 0.  1.
          2   -1    0    0  501    0  0.00000000000E+00 -0.00000000000E+00 -0.97398931914E+03  0.97398931914E+03  0.00000000000E+00 0. -1.
         23    2    1    2    0    0  0.72821267672E+03 -0.80974205584E+02 -0.11194142863E+03  0.74674703910E+03  0.90828037836E+02 0.  0.
    5000000    2    1    2    0    0 -0.72821267672E+03  0.80974205584E+02 -0.13298260415E+03  0.95630756641E+03  0.59999105332E+03 0.  0.
         23    2    4    4    0    0 -0.30131726473E+03  0.31921247528E+03 -0.37768162758E+02  0.44967169530E+03  0.89941653502E+02 0.  0.
         23    2    4    4    0    0 -0.42689541198E+03 -0.23823826970E+03 -0.95214441392E+02  0.50663587111E+03  0.92827528909E+02 0.  0.
          5    1    3    3  502    0  0.24126713209E+03  0.11225860433E+02 -0.17477170441E+02  0.24220526513E+03  0.47000000000E+01 0. -1.
         -5    1    3    3    0  502  0.48694554463E+03 -0.92200066017E+02 -0.94464258184E+02  0.50454177397E+03  0.47000000000E+01 0.  1.
         13    1    5    5    0    0 -0.13476720720E+03  0.16614465938E+03  0.23766141687E+02  0.21524655042E+03  0.00000000000E+00 0.  1.
        -13    1    5    5    0    0 -0.16655005753E+03  0.15306781591E+03 -0.61534304444E+02  0.23442514488E+03  0.00000000000E+00 0. -1.
          3    1    6    6  503    0 -0.12107695622E+03 -0.46892354341E+02 -0.63390069319E+02  0.14448814176E+03  0.00000000000E+00 0. -1.
         -3    1    6    6    0  503 -0.30581845577E+03 -0.19134591536E+03 -0.31824372074E+02  0.36214772934E+03  0.00000000000E+00 0.  1.
<mgrwt>
<rscale>  0 0.83395805E+03</rscale>
<asrwt>0</asrwt>
<pdfrwt beam="1">  1        2 0.14984451E+00 0.83395805E+03</pdfrwt>
<pdfrwt beam="2">  1       -2 0.11216389E+00 0.83395805E+03</pdfrwt>
<totfact> 0.16536497E+01</totfact>
</mgrwt>
</event>
<event>
12    1  0.3147868E-008  0.2073105E+04  0.7818608E-02  0.8573184E-01
         -2   -1    0    0    0  501 -0.00000000000E+00  0.00000000000E+00  0.13839329508E+04  0.13839329508E+04  0.00000000000E+00 0.  1.
          2   -1    0    0  501    0  0.00000000000E+00 -0.00000000000E+00 -0.37840374218E+04  0.37840374218E+04  0.00000000000E+00 0. -1.
         23    2    1    2    0    0  0.10822327303E+04 -0.17250017081E+04 -0.10437668243E+03  0.20410843198E+04  0.90951268367E+02 0.  0.
    5000000    2    1    2    0    0 -0.10822327303E+04  0.17250017081E+04 -0.22957277886E+04  0.31268860528E+04  0.60015975586E+03 0.  0.
         23    2    4    4    0    0 -0.26048563162E+02  0.43097128792E+03 -0.59965975142E+03  0.74464534903E+03  0.92141736995E+02 0.  0.
         23    2    4    4    0    0 -0.10561841671E+04  0.12940304202E+04 -0.16960680372E+04  0.23822407038E+04  0.91565609648E+02 0.  0.
          5    1    3    3  502    0  0.71310777711E+03 -0.11471533799E+04 -0.11161684532E+03  0.13553464461E+04  0.47000000000E+01 0. -1.
         -5    1    3    3    0  502  0.36912495317E+03 -0.57784832821E+03  0.72401628895E+01  0.68573787370E+03  0.47000000000E+01 0.  1.
         11    1    5    5    0    0  0.25020689836E+02  0.22998881641E+03 -0.27446630651E+03  0.35896050479E+03  0.00000000000E+00 0. -1.
        -11    1    5    5    0    0 -0.51069252998E+02  0.20098247152E+03 -0.32519344491E+03  0.38568484424E+03  0.00000000000E+00 0.  1.
          1    1    6    6  503    0 -0.90154387247E+03  0.10763275376E+04 -0.13833128396E+04  0.19709938444E+04  0.00000000000E+00 0. -1.
         -1    1    6    6    0  503 -0.15464029465E+03  0.21770288262E+03 -0.31275519753E+03  0.41124685945E+03  0.00000000000E+00 0.  1.
<mgrwt>
<rscale>  0 0.20731049E+04</rscale>
<asrwt>0</asrwt>
<pdfrwt beam="1">  1        2 0.58215961E+00 0.20731049E+04</pdfrwt>
<pdfrwt beam="2">  1       -2 0.21291276E+00 0.20731049E+04</pdfrwt>
<totfact> 0.49098462E-02</totfact>
</mgrwt>
</event>
<event>
12    1  0.3147868E-008  0.1167489E+04  0.7818608E-02  0.9141799E-01
         -1   -1    0    0    0  501 -0.00000000000E+00  0.00000000000E+00  0.56651981613E+03  0.56651981613E+03  0.00000000000E+00 0.  1.
          1   -1    0    0  501    0  0.00000000000E+00 -0.00000000000E+00 -0.27568568852E+04  0.27568568852E+04  0.00000000000E+00 0. -1.
         23    2    1    2    0    0  0.11345986680E+04  0.26381147627E+03 -0.82063270959E+03  0.14278665721E+04  0.91947111243E+02 0.  0.
    5000000    2    1    2    0    0 -0.11345986680E+04 -0.26381147627E+03 -0.13697043595E+04  0.18955101292E+04  0.59996498647E+03 0.  0.
         23    2    4    4    0    0 -0.90297211841E+03 -0.19789209726E+03 -0.13440253425E+04  0.16337972982E+04  0.91485308933E+02 0.  0.
         23    2    4    4    0    0 -0.23162654962E+03 -0.65919379005E+02 -0.25679017005E+02  0.26171283095E+03  0.99186546223E+02 0.  0.
          5    1    3    3  502    0  0.22818546563E+03  0.90685302102E+02 -0.16541077679E+03  0.29610006049E+03  0.47000000000E+01 0. -1.
         -5    1    3    3    0  502  0.90641320240E+03  0.17312617417E+03 -0.65522193280E+03  0.11317665116E+04  0.47000000000E+01 0.  1.
         13    1    5    5    0    0 -0.77430078609E+03 -0.18639362425E+03 -0.11050214727E+04  0.13621148063E+04  0.00000000000E+00 0. -1.
        -13    1    5    5    0    0 -0.12867133232E+03 -0.11498473010E+02 -0.23900386982E+03  0.27168249195E+03  0.00000000000E+00 0.  1.
          2    1    6    6  503    0 -0.12246272497E+02 -0.54996657433E+01  0.25193605654E+02  0.28547071290E+02  0.00000000000E+00 0.  1.
         -2    1    6    6    0  503 -0.21938027712E+03 -0.60419713262E+02 -0.50872622659E+02  0.23316575966E+03  0.00000000000E+00 0. -1.
<mgrwt>
<rscale>  0 0.11674887E+04</rscale>
<asrwt>0</asrwt>
<pdfrwt beam="1">  1        1 0.42413182E+00 0.11674887E+04</pdfrwt>
<pdfrwt beam="2">  1       -1 0.87156896E-01 0.11674887E+04</pdfrwt>
<totfact> 0.11577433E+00</totfact>
</mgrwt>
</event>
<event>
12    1  0.3147868E-008  0.7707115E+03  0.7818608E-02  0.9603406E-01
          1   -1    0    0  501    0  0.00000000000E+00  0.00000000000E+00  0.17476218936E+04  0.17476218936E+04  0.00000000000E+00 0. -1.
         -1   -1    0    0    0  501 -0.00000000000E+00 -0.00000000000E+00 -0.35309325255E+03  0.35309325255E+03  0.00000000000E+00 0.  1.
         23    2    1    2    0    0  0.64681761116E+03  0.16260415229E+03  0.57314047244E+03  0.88442345662E+03  0.94348911113E+02 0.  0.
    5000000    2    1    2    0    0 -0.64681761116E+03 -0.16260415229E+03  0.82138816862E+03  0.12162916895E+04  0.59989483914E+03 0.  0.
         23    2    4    4    0    0 -0.93346683999E+02 -0.28409249605E+03  0.20168002338E+03  0.37118647525E+03  0.87649403041E+02 0.  0.
         23    2    4    4    0    0 -0.55347092716E+03  0.12148834377E+03  0.61970814524E+03  0.84510521428E+03  0.95263597654E+02 0.  0.
          5    1    3    3  502    0  0.96787151037E+02  0.34645970064E+02  0.49174891322E+02  0.11405417916E+03  0.47000000000E+01 0. -1.
         -5    1    3    3    0  502  0.55003046012E+03  0.12795818222E+03  0.52396558112E+03  0.77036927746E+03  0.47000000000E+01 0.  1.
         11    1    5    5    0    0 -0.76436861365E+02 -0.21589689042E+03  0.19465772993E+03  0.30057560262E+03  0.00000000000E+00 0. -1.
        -11    1    5    5    0    0 -0.16909822633E+02 -0.68195605629E+02  0.70222934511E+01  0.70610872633E+02  0.00000000000E+00 0.  1.
          3    1    6    6  503    0 -0.35583389254E+02  0.34087859154E+02  0.57938748666E+02  0.76059570926E+02  0.00000000000E+00 0. -1.
         -3    1    6    6    0  503 -0.51788753791E+03  0.87400484613E+02  0.56176939657E+03  0.76904564335E+03  0.00000000000E+00 0.  1.
<mgrwt>
<rscale>  0 0.77071149E+03</rscale>
<asrwt>0</asrwt>
<pdfrwt beam="1">  1        1 0.26886490E+00 0.77071149E+03</pdfrwt>
<pdfrwt beam="2">  1       -1 0.54322040E-01 0.77071149E+03</pdfrwt>
<totfact> 0.15685505E+01</totfact>
</mgrwt>
</event>
<event>
12    1  0.3147868E-008  0.3560403E+03  0.7818608E-02  0.1060163E+00
         -2   -1    0    0    0  501 -0.00000000000E+00  0.00000000000E+00  0.27497495582E+03  0.27497495582E+03  0.00000000000E+00 0.  1.
          2   -1    0    0  501    0  0.00000000000E+00 -0.00000000000E+00 -0.14074272391E+04  0.14074272391E+04  0.00000000000E+00 0. -1.
         23    2    1    2    0    0 -0.16052402236E+03 -0.28050848401E+03 -0.90440739355E+03  0.96461631869E+03  0.89882909437E+02 0.  0.
    5000000    2    1    2    0    0  0.16052402236E+03  0.28050848401E+03 -0.22804488968E+03  0.71778587620E+03  0.59896504156E+03 0.  0.
         23    2    4    4    0    0  0.15594877646E+03  0.20183953208E+03  0.15836287570E+03  0.31293007747E+03  0.88245200423E+02 0.  0.
         23    2    4    4    0    0  0.45752459027E+01  0.78668951925E+02 -0.38640776538E+03  0.40485579873E+03  0.91583403202E+02 0.  0.
          5    1    3    3  502    0 -0.41687276880E+02 -0.52998901294E+02 -0.30755631930E+03  0.31489631966E+03  0.47000000000E+01 0. -1.
         -5    1    3    3    0  502 -0.11883674548E+03 -0.22750958271E+03 -0.59685107425E+03  0.64971999903E+03  0.47000000000E+01 0.  1.
         13    1    5    5    0    0  0.27800540980E+02 -0.19849892498E+01  0.77091344480E+01  0.28917832129E+02  0.00000000000E+00 0.  1.
        -13    1    5    5    0    0  0.12814823548E+03  0.20382452133E+03  0.15065374125E+03  0.28401224534E+03  0.00000000000E+00 0. -1.
          4    1    6    6  503    0 -0.39646458976E+02  0.16735164876E+02 -0.10866542586E+03  0.11687635445E+03  0.00000000000E+00 0. -1.
         -4    1    6    6    0  503  0.44221704879E+02  0.61933787049E+02 -0.27774233953E+03  0.28797944428E+03  0.00000000000E+00 0.  1.
<mgrwt>
<rscale>  0 0.35604027E+03</rscale>
<asrwt>0</asrwt>
<pdfrwt beam="1">  1        2 0.21652727E+00 0.35604027E+03</pdfrwt>
<pdfrwt beam="2">  1       -2 0.42303838E-01 0.35604027E+03</pdfrwt>
<totfact> 0.81414266E+01</totfact>
</mgrwt>
</event>
<event>
12    1  0.3147868E-008  0.6966103E+03  0.7818608E-02  0.9723047E-01
         -2   -1    0    0    0  501 -0.00000000000E+00  0.00000000000E+00  0.26368673208E+03  0.26368673208E+03  0.00000000000E+00 0.  1.
          2   -1    0    0  501    0  0.00000000000E+00 -0.00000000000E+00 -0.22828558451E+04  0.22828558451E+04  0.00000000000E+00 0. -1.
         23    2    1    2    0    0 -0.63547015656E+03 -0.16459791468E+03 -0.85600594588E+03  0.10824031485E+04  0.89082001717E+02 0.  0.
    5000000    2    1    2    0    0  0.63547015656E+03  0.16459791468E+03 -0.11631631672E+04  0.14641394287E+04  0.59986741863E+03 0.  0.
         23    2    4    4    0    0  0.53502101240E+02 -0.80835421074E+02 -0.59956962321E+03  0.61332120967E+03  0.85336586618E+02 0.  0.
         23    2    4    4    0    0  0.58196805532E+03  0.24543333575E+03 -0.56359354395E+03  0.85081821906E+03  0.85613196371E+02 0.  0.
          5    1    3    3  502    0 -0.10206606563E+03 -0.59908405964E+02 -0.16816905059E+03  0.20569253373E+03  0.47000000000E+01 0. -1.
         -5    1    3    3    0  502 -0.53340409093E+03 -0.10468950872E+03 -0.68783689529E+03  0.87671061473E+03  0.47000000000E+01 0.  1.
         11    1    5    5    0    0  0.38065084289E+02 -0.50804505772E+02 -0.15535342370E+03  0.16782352250E+03  0.00000000000E+00 0. -1.
        -11    1    5    5    0    0  0.15437016950E+02 -0.30030915302E+02 -0.44421619951E+03  0.44549768717E+03  0.00000000000E+00 0.  1.
          1    1    6    6  503    0  0.50338251316E+03  0.23172071246E+03 -0.51992370798E+03  0.75987440097E+03  0.00000000000E+00 0. -1.
         -1    1    6    6    0  503  0.78585542164E+02  0.13712623289E+02 -0.43669835971E+02  0.90943818088E+02  0.00000000000E+00 0.  1.
<mgrwt>
<rscale>  0 0.69661033E+03</rscale>
<asrwt>0</asrwt>
<pdfrwt beam="1">  1        2 0.35120857E+00 0.69661033E+03</pdfrwt>
<pdfrwt beam="2">  1       -2 0.40567192E-01 0.69661033E+03</pdfrwt>
<totfact> 0.27926365E+01</totfact>
</mgrwt>
</event>
<event>
12    1  0.3147868E-008  0.1146876E+04  0.7818608E-02  0.9160670E-01
          2   -1    0    0  501    0  0.00000000000E+00  0.00000000000E+00  0.15571874483E+04  0.15571874483E+04  0.00000000000E+00 0.  1.
         -2   -1    0    0    0  501 -0.00000000000E+00 -0.00000000000E+00 -0.11291250889E+04  0.11291250889E+04  0.00000000000E+00 0. -1.
         23    2    1    2    0    0  0.77257153812E+03  0.79126505521E+03  0.80724978287E+03  0.13722273756E+04  0.91589242385E+02 0.  0.
    5000000    2    1    2    0    0 -0.77257153812E+03 -0.79126505521E+03 -0.37918742351E+03  0.13140851616E+04  0.60005794771E+03 0.  0.
         23    2    4    4    0    0 -0.82367857764E+03 -0.71191937968E+03 -0.23065598386E+03  0.11163864002E+04  0.88548344314E+02 0.  0.
         23    2    4    4    0    0  0.51107039527E+02 -0.79345675525E+02 -0.14853143965E+03  0.19769876135E+03  0.90086325043E+02 0.  0.
          5    1    3    3  502    0  0.84195970856E+02  0.65091940549E+02  0.51718250737E+02  0.11841786053E+03  0.47000000000E+01 0. -1.
         -5    1    3    3    0  502  0.68837556726E+03  0.72617311466E+03  0.75553153213E+03  0.12538095151E+04  0.47000000000E+01 0.  1.
         13    1    5    5    0    0 -0.42827450446E+03 -0.34926641154E+03 -0.15928524220E+03  0.57513291141E+03  0.00000000000E+00 0. -1.
        -13    1    5    5    0    0 -0.39540407318E+03 -0.36265296814E+03 -0.71370741659E+02  0.54125348882E+03  0.00000000000E+00 0.  1.
          3    1    6    6  503    0 -0.19832192785E+01 -0.96092043059E+01 -0.93920472734E+02  0.94431589866E+02  0.00000000000E+00 0. -1.
         -3    1    6    6    0  503  0.53090258805E+02 -0.69736471219E+02 -0.54610966918E+02  0.10326717148E+03  0.00000000000E+00 0.  1.
<mgrwt>
<rscale>  0 0.11468761E+04</rscale>
<asrwt>0</asrwt>
<pdfrwt beam="1">  1        2 0.23956730E+00 0.11468761E+04</pdfrwt>
<pdfrwt beam="2">  1       -2 0.17371155E+00 0.11468761E+04</pdfrwt>
<totfact> 0.23081102E+00</totfact>
</mgrwt>
</event>
<event>
12    1  0.3147868E-008  0.3271566E+03  0.7818608E-02  0.1072402E+00
         -2   -1    0    0    0  501 -0.00000000000E+00  0.00000000000E+00  0.11864275686E+03  0.11864275686E+03  0.00000000000E+00 0.  1.
          2   -1    0    0  501    0  0.00000000000E+00 -0.00000000000E+00 -0.22160133548E+04  0.22160133548E+04  0.00000000000E+00 0. -1.
         23    2    1    2    0    0 -0.68600698178E+02 -0.22999451648E+03 -0.18717968408E+03  0.31808062093E+03  0.92387844888E+02 0.  0.
    5000000    2    1    2    0    0  0.68600698178E+02  0.22999451648E+03 -0.19101909139E+04  0.20165754907E+04  0.60011986217E+03 0.  0.
         23    2    4    4    0    0 -0.69992326572E+02  0.22171868662E+03 -0.17997746402E+04  0.18168093036E+04  0.86886065835E+02 0.  0.
         23    2    4    4    0    0  0.13859302475E+03  0.82758298596E+01 -0.11041627364E+03  0.19976618708E+03  0.91860002979E+02 0.  0.
          5    1    3    3  502    0 -0.18024252641E+02 -0.18376875700E+03 -0.15945547655E+03  0.24401632883E+03  0.47000000000E+01 0. -1.
         -5    1    3    3    0  502 -0.50576445537E+02 -0.46225759477E+02 -0.27724207527E+02  0.74064292107E+02  0.47000000000E+01 0.  1.
         13    1    5    5    0    0 -0.68294009241E+02  0.17142151246E+03 -0.11129360148E+04  0.11281294162E+04  0.00000000000E+00 0.  1.
        -13    1    5    5    0    0 -0.16983173305E+01  0.50297174157E+02 -0.68683862537E+03  0.68867988740E+03  0.00000000000E+00 0. -1.
          3    1    6    6  503    0  0.79080666885E+02 -0.40754191794E+02 -0.66076255581E+02  0.11081844420E+03  0.00000000000E+00 0. -1.
         -3    1    6    6    0  503  0.59512357865E+02  0.49030021653E+02 -0.44340018062E+02  0.88947742881E+02  0.00000000000E+00 0.  1.
<mgrwt>
<rscale>  0 0.32715655E+03</rscale>
<asrwt>0</asrwt>
<pdfrwt beam="1">  1        2 0.34092513E+00 0.32715655E+03</pdfrwt>
<pdfrwt beam="2">  1       -2 0.18252732E-01 0.32715655E+03</pdfrwt>
<totfact> 0.13919185E+02</totfact>
</mgrwt>
</event>
<event>
12    1  0.3147868E-008  0.7700311E+03  0.7818608E-02  0.9604438E-01
          3   -1    0    0  501    0  0.00000000000E+00  0.00000000000E+00  0.95214312559E+03  0.95214312559E+03  0.00000000000E+00 0. -1.
         -3   -1    0    0    0  501 -0.00000000000E+00 -0.00000000000E+00 -0.66169031923E+03  0.66169031923E+03  0.00000000000E+00 0.  1.
         23    2    1    2    0    0  0.67384722076E+03 -0.47467052145E+02  0.80010021493E+02  0.68630509193E+03  0.91048765558E+02 0.  0.
    5000000    2    1    2    0    0 -0.67384722076E+03  0.47467052145E+02  0.21044278487E+03  0.92752835289E+03  0.59974951585E+03 0.  0.
         23    2    4    4    0    0 -0.43398152323E+03 -0.22861853694E+03  0.23413844058E+03  0.54992487289E+03  0.83607167906E+02 0.  0.
         23    2    4    4    0    0 -0.23986569753E+03  0.27608558909E+03 -0.23695655710E+02  0.37760348001E+03  0.90907088079E+02 0.  0.
          5    1    3    3  502    0  0.24484429432E+03 -0.41573965748E+02 -0.70469665308E+01  0.24849320479E+03  0.47000000000E+01 0. -1.
         -5    1    3    3    0  502  0.42900292643E+03 -0.58930863969E+01  0.87056988024E+02  0.43781188714E+03  0.47000000000E+01 0.  1.
         13    1    5    5    0    0 -0.66093421309E+02 -0.49704085159E+01  0.21046460008E+02  0.69541345831E+02  0.00000000000E+00 0.  1.
        -13    1    5    5    0    0 -0.36788810192E+03 -0.22364812843E+03  0.21309198057E+03  0.48038352705E+03  0.00000000000E+00 0. -1.
          4    1    6    6  503    0 -0.12481613301E+03  0.14847225795E+03  0.32830931294E+02  0.19672556644E+03  0.00000000000E+00 0. -1.
         -4    1    6    6    0  503 -0.11504956451E+03  0.12761333114E+03 -0.56526587004E+02  0.18087791357E+03  0.00000000000E+00 0.  1.
<mgrwt>
<rscale>  0 0.77003114E+03</rscale>
<asrwt>0</asrwt>
<pdfrwt beam="1">  1        3 0.14648356E+00 0.77003114E+03</pdfrwt>
<pdfrwt beam="2">  1       -3 0.10179851E+00 0.77003114E+03</pdfrwt>
<totfact> 0.74661919E-01</totfact>
</mgrwt>
</event>
<event>
12    1  0.3147868E-008  0.5607655E+03  0.7818608E-02  0.9990324E-01
         -1   -1    0    0    0  501 -0.00000000000E+00  0.00000000000E+00  0.85118550956E+03  0.85118550956E+03  0.00000000000E+00 0.  1.
          1   -1    0    0  501    0  0.00000000000E+00 -0.00000000000E+00 -0.10763122821E+04  0.10763122821E+04  0.00000000000E+00 0. -1.
         23    2    1    2    0    0 -0.15271179808E+03  0.52730981666E+03  0.56532899708E+03  0.79342990442E+03  0.92507309251E+02 0.  0.
    5000000    2    1    2    0    0  0.15271179808E+03 -0.52730981666E+03 -0.79045576961E+03  0.11340678872E+04  0.59992758990E+03 0.  0.
         23    2    4    4    0    0  0.74242936045E+02 -0.41977379865E+03 -0.13101085558E+03  0.45516186243E+03  0.91029781613E+02 0.  0.
         23    2    4    4    0    0  0.78468862038E+02 -0.10753601801E+03 -0.65944491403E+03  0.67890602481E+03  0.91238360373E+02 0.  0.
          5    1    3    3  502    0 -0.81585706768E+02  0.15605931464E+03  0.14546552434E+03  0.22845797426E+03  0.47000000000E+01 0. -1.
         -5    1    3    3    0  502 -0.71126091315E+02  0.37125050202E+03  0.41986347275E+03  0.56497193016E+03  0.47000000000E+01 0.  1.
         13    1    5    5    0    0  0.55560396916E+02 -0.11836047002E+03 -0.14821627117E+02  0.13158966220E+03  0.00000000000E+00 0. -1.
        -13    1    5    5    0    0  0.18682539129E+02 -0.30141332863E+03 -0.11618922847E+03  0.32357220022E+03  0.00000000000E+00 0.  1.
          3    1    6    6  503    0  0.61124846935E+02 -0.68078818106E+02 -0.59086503062E+03  0.59790672918E+03  0.00000000000E+00 0. -1.
         -3    1    6    6    0  503  0.17344015103E+02 -0.39457199903E+02 -0.68579883408E+02  0.80999295628E+02  0.00000000000E+00 0.  1.
<mgrwt>
<rscale>  0 0.56076549E+03</rscale>
<asrwt>0</asrwt>
<pdfrwt beam="1">  1        1 0.16558651E+00 0.56076549E+03</pdfrwt>
<pdfrwt beam="2">  1       -1 0.13095162E+00 0.56076549E+03</pdfrwt>
<totfact> 0.70385101E+00</totfact>
</mgrwt>
</event>
<event>
12    1  0.3147868E-008  0.4403618E+03  0.7818608E-02  0.1030636E+00
         -1   -1    0    0    0  501 -0.00000000000E+00  0.00000000000E+00  0.69509776077E+03  0.69509776077E+03  0.00000000000E+00 0.  1.
          1   -1    0    0  501    0  0.00000000000E+00 -0.00000000000E+00 -0.43449333030E+03  0.43449333030E+03  0.00000000000E+00 0. -1.
         23    2    1    2    0    0  0.14073271339E+03 -0.19895309026E+03 -0.20731096317E+03  0.33109024857E+03  0.85175633293E+02 0.  0.
    5000000    2    1    2    0    0 -0.14073271339E+03  0.19895309026E+03  0.46791539364E+03  0.79850084250E+03  0.59939198454E+03 0.  0.
         23    2    4    4    0    0 -0.31723921077E+03  0.27983824316E+03  0.32760513314E+03  0.54290330948E+03  0.92025653993E+02 0.  0.
         23    2    4    4    0    0  0.17650649737E+03 -0.80885152907E+02  0.14031026049E+03  0.25559753303E+03  0.89141337846E+02 0.  0.
          5    1    3    3  502    0  0.45673206278E+02 -0.13301094021E+02 -0.54452447190E+02  0.72457710969E+02  0.47000000000E+01 0. -1.
         -5    1    3    3    0  502  0.95059507116E+02 -0.18565199624E+03 -0.15285851598E+03  0.25863253760E+03  0.47000000000E+01 0.  1.
         11    1    5    5    0    0 -0.89609764822E+02  0.11665083216E+03  0.72219251387E+02  0.16386868787E+03  0.00000000000E+00 0.  1.
        -11    1    5    5    0    0 -0.22762944595E+03  0.16318741100E+03  0.25538588176E+03  0.37903462160E+03  0.00000000000E+00 0. -1.
          1    1    6    6  503    0  0.10571947231E+03 -0.29854540576E+02  0.12600695630E+03  0.16716953507E+03  0.00000000000E+00 0. -1.
         -1    1    6    6    0  503  0.70787025062E+02 -0.51030612331E+02  0.14303304195E+02  0.88427997958E+02  0.00000000000E+00 0.  1.
<mgrwt>
<rscale>  0 0.44036178E+03</rscale>
<asrwt>0</asrwt>
<pdfrwt beam="1">  1        1 0.66845128E-01 0.44036178E+03</pdfrwt>
<pdfrwt beam="2">  1       -1 0.10693812E+00 0.44036178E+03</pdfrwt>
<totfact> 0.46283361E+01</totfact>
</mgrwt>
</event>
<event>
12    1  0.3147868E-008  0.8424486E+03  0.7818608E-02  0.9500529E-01
          1   -1    0    0  501    0  0.00000000000E+00  0.00000000000E+00  0.30548064382E+04  0.30548064382E+04  0.00000000000E+00 0. -1.
         -1   -1    0    0    0  501 -0.00000000000E+00 -0.00000000000E+00 -0.36398223527E+03  0.36398223527E+03  0.00000000000E+00 0.  1.
         23    2    1    2    0    0  0.73987986263E+03  0.33738005865E+03  0.39103724381E+03  0.90676900395E+03  0.89846454413E+02 0.  0.
    5000000    2    1    2    0    0 -0.73987986263E+03 -0.33738005865E+03  0.22997869592E+04  0.25120196696E+04  0.59997937269E+03 0.  0.
         23    2    4    4    0    0 -0.55187864837E+03 -0.37410809186E+03  0.21517028869E+04  0.22543788881E+04  0.88724012481E+02 0.  0.
         23    2    4    4    0    0 -0.18800121426E+03  0.36728033207E+02  0.14808407223E+03  0.25764078151E+03  0.88070851360E+02 0.  0.
          5    1    3    3  502    0  0.27750583962E+03  0.14029393852E+03  0.10388526944E+03  0.32788125811E+03  0.47000000000E+01 0. -1.
         -5    1    3    3    0  502  0.46237402301E+03  0.19708612013E+03  0.28715197437E+03  0.57888774584E+03  0.47000000000E+01 0.  1.
         11    1    5    5    0    0 -0.17886796674E+03 -0.17207603456E+03  0.82059132469E+03  0.85730626579E+03  0.00000000000E+00 0. -1.
        -11    1    5    5    0    0 -0.37301068163E+03 -0.20203205730E+03  0.13311115622E+04  0.13970726223E+04  0.00000000000E+00 0.  1.
          1    1    6    6  503    0 -0.54744147042E+02  0.36128760842E+02  0.92172428159E+02  0.11312809336E+03  0.00000000000E+00 0. -1.
         -1    1    6    6    0  503 -0.13325706722E+03  0.59927236511E+00  0.55911644073E+02  0.14451268814E+03  0.00000000000E+00 0.  1.
<mgrwt>
<rscale>  0 0.84244860E+03</rscale>
<asrwt>0</asrwt>
<pdfrwt beam="1">  1        1 0.46997020E+00 0.84244860E+03</pdfrwt>
<pdfrwt beam="2">  1       -1 0.55997269E-01 0.84244860E+03</pdfrwt>
<totfact> 0.18580175E+00</totfact>
</mgrwt>
</event>
<event>
12    1  0.3147868E-008  0.6529499E+03  0.7818608E-02  0.9801260E-01
          1   -1    0    0  501    0  0.00000000000E+00  0.00000000000E+00  0.14019033735E+04  0.14019033735E+04  0.00000000000E+00 0. -1.
         -1   -1    0    0    0  501 -0.00000000000E+00 -0.00000000000E+00 -0.38801254769E+03  0.38801254769E+03  0.00000000000E+00 0.  1.
         23    2    1    2    0    0  0.47784868560E+03  0.36664620650E+03  0.29755185840E+03  0.67818998575E+03  0.92928689088E+02 0.  0.
    5000000    2    1    2    0    0 -0.47784868560E+03 -0.36664620650E+03  0.71633896745E+03  0.11117259355E+04  0.60002019323E+03 0.  0.
         23    2    4    4    0    0 -0.32950103937E+03 -0.41536759370E+03  0.75113934945E+03  0.92394929456E+03  0.91492096766E+02 0.  0.
         23    2    4    4    0    0 -0.14834764623E+03  0.48721387196E+02 -0.34800382003E+02  0.18777664093E+03  0.98327018574E+02 0.  0.
          5    1    3    3  502    0  0.29779284440E+03  0.18876418330E+03  0.20957064772E+03  0.41018830000E+03  0.47000000000E+01 0. -1.
         -5    1    3    3    0  502  0.18005584120E+03  0.17788202321E+03  0.87981210686E+02  0.26800168575E+03  0.47000000000E+01 0.  1.
         11    1    5    5    0    0 -0.27743840042E+03 -0.28716125378E+03  0.57236848822E+03  0.69788203732E+03  0.00000000000E+00 0. -1.
        -11    1    5    5    0    0 -0.52062638951E+02 -0.12820633992E+03  0.17877086123E+03  0.22606725724E+03  0.00000000000E+00 0.  1.
          1    1    6    6  503    0 -0.70932723432E+02  0.46904839187E+02  0.26436876172E+02  0.89052925917E+02  0.00000000000E+00 0. -1.
         -1    1    6    6    0  503 -0.77414922795E+02  0.18165480094E+01 -0.61237258175E+02  0.98723715017E+02  0.00000000000E+00 0.  1.
<mgrwt>
<rscale>  0 0.65294987E+03</rscale>
<asrwt>0</asrwt>
<pdfrwt beam="1">  1        1 0.21567744E+00 0.65294987E+03</pdfrwt>
<pdfrwt beam="2">  1       -1 0.59694239E-01 0.65294987E+03</pdfrwt>
<totfact> 0.22804831E+01</totfact>
</mgrwt>
</event>
<event>
12    1  0.3147868E-008  0.7484435E+03  0.7818608E-02  0.9637795E-01
          2   -1    0    0  501    0  0.00000000000E+00  0.00000000000E+00  0.11337494062E+04  0.11337494062E+04  0.00000000000E+00 0. -1.
         -2   -1    0    0    0  501 -0.00000000000E+00 -0.00000000000E+00 -0.60730505752E+03  0.60730505752E+03  0.00000000000E+00 0.  1.
         23    2    1    2    0    0  0.55996452466E+03  0.39799972262E+03  0.44914122015E+03  0.82562863747E+03  0.89279131332E+02 0.  0.
    5000000    2    1    2    0    0 -0.55996452466E+03 -0.39799972262E+03  0.77303128550E+02  0.91542582628E+03  0.60005384896E+03 0.  0.
         23    2    4    4    0    0 -0.21623100969E+02  0.70499020586E+02 -0.12120247000E+03  0.16859320829E+03  0.91082164812E+02 0.  0.
         23    2    4    4    0    0 -0.53834142369E+03 -0.46849874321E+03  0.19850559855E+03  0.74683261799E+03  0.95141609114E+02 0.  0.
          5    1    3    3  502    0  0.31789296503E+03  0.26188475951E+03  0.30624068868E+03  0.51326894888E+03  0.47000000000E+01 0. -1.
         -5    1    3    3    0  502  0.24207155963E+03  0.13611496311E+03  0.14290053147E+03  0.31235968859E+03  0.47000000000E+01 0.  1.
         11    1    5    5    0    0 -0.33008009477E+02  0.18731709866E+02 -0.10727322595E+03  0.11378906209E+03  0.00000000000E+00 0.  1.
        -11    1    5    5    0    0  0.11384908507E+02  0.51767310721E+02 -0.13929244049E+02  0.54804146200E+02  0.00000000000E+00 0. -1.
          1    1    6    6  503    0 -0.34217120077E+03 -0.33593134778E+03  0.96980110237E+02  0.48921993300E+03  0.00000000000E+00 0. -1.
         -1    1    6    6    0  503 -0.19617022292E+03 -0.13256739543E+03  0.10152548832E+03  0.25761268499E+03  0.00000000000E+00 0.  1.
<mgrwt>
<rscale>  0 0.74844351E+03</rscale>
<asrwt>0</asrwt>
<pdfrwt beam="1">  1        2 0.17442299E+00 0.74844351E+03</pdfrwt>
<pdfrwt beam="2">  1       -2 0.93431547E-01 0.74844351E+03</pdfrwt>
<totfact> 0.20494507E+01</totfact>
</mgrwt>
</event>
<event>
12    1  0.3147868E-008  0.5937924E+03  0.7818608E-02  0.9918369E-01
         -1   -1    0    0    0  501 -0.00000000000E+00  0.00000000000E+00  0.50699752677E+03  0.50699752677E+03  0.00000000000E+00 0.  1.
          1   -1    0    0  501    0  0.00000000000E+00 -0.00000000000E+00 -0.19135046088E+04  0.19135046088E+04  0.00000000000E+00 0. -1.
         23    2    1    2    0    0 -0.49612353059E+03  0.96779855471E+02  0.26191746830E+03  0.57682145415E+03  0.92829584395E+02 0.  0.
    5000000    2    1    2    0    0  0.49612353059E+03 -0.96779855471E+02 -0.16684245503E+04  0.18436806814E+04  0.60001089726E+03 0.  0.
         23    2    4    4    0    0  0.10198172552E+03 -0.22746093167E+03 -0.11151495586E+04  0.11470458415E+04  0.10008434785E+03 0.  0.
         23    2    4    4    0    0  0.39414180507E+03  0.13068107620E+03 -0.55327499174E+03  0.69663483992E+03  0.82228812009E+02 0.  0.
          5    1    3    3  502    0 -0.33902169748E+03  0.34044076789E+02  0.20792824597E+03  0.39918787056E+03  0.47000000000E+01 0.  1.
         -5    1    3    3    0  502 -0.15710183310E+03  0.62735778682E+02  0.53989222329E+02  0.17763358359E+03  0.47000000000E+01 0. -1.
         11    1    5    5    0    0  0.31052462755E+02 -0.16440623550E+03 -0.58444822646E+03  0.60792548485E+03  0.00000000000E+00 0. -1.
        -11    1    5    5    0    0  0.70929262762E+02 -0.63054696174E+02 -0.53070133210E+03  0.53912035661E+03  0.00000000000E+00 0.  1.
          3    1    6    6  503    0  0.18807564514E+03  0.67966481017E+02 -0.19970260187E+03  0.28261815234E+03  0.00000000000E+00 0. -1.
         -3    1    6    6    0  503  0.20606615993E+03  0.62714595183E+02 -0.35357238988E+03  0.41401668759E+03  0.00000000000E+00 0.  1.
<mgrwt>
<rscale>  0 0.59379239E+03</rscale>
<asrwt>0</asrwt>
<pdfrwt beam="1">  1        1 0.29438532E+00 0.59379239E+03</pdfrwt>
<pdfrwt beam="2">  1       -1 0.77999620E-01 0.59379239E+03</pdfrwt>
<totfact> 0.60609432E+00</totfact>
</mgrwt>
</event>
<event>
12    1  0.3147868E-008  0.7149582E+03  0.7818608E-02  0.9691988E-01
         -1   -1    0    0    0  501 -0.00000000000E+00  0.00000000000E+00  0.21092757080E+03  0.21092757080E+03  0.00000000000E+00 0.  1.
          1   -1    0    0  501    0  0.00000000000E+00 -0.00000000000E+00 -0.27794696934E+04  0.27794696934E+04  0.00000000000E+00 0. -1.
         23    2    1    2    0    0 -0.16190886236E+03  0.60547674009E+03 -0.79984034621E+03  0.10203197408E+04  0.92147878541E+02 0.  0.
    5000000    2    1    2    0    0  0.16190886236E+03 -0.60547674009E+03 -0.17687017764E+04  0.19700775234E+04  0.60006908929E+03 0.  0.
         23    2    4    4    0    0 -0.75886413713E+02  0.58162910236E+02 -0.12664199458E+03  0.18029362382E+03  0.85591612244E+02 0.  0.
         23    2    4    4    0    0  0.23779527608E+03 -0.66363965032E+03 -0.16420597818E+04  0.17897838996E+04  0.10000950639E+03 0.  0.
          5    1    3    3  502    0 -0.45304515468E+02  0.15361357559E+03 -0.27261976917E+03  0.31621710622E+03  0.47000000000E+01 0. -1.
         -5    1    3    3    0  502 -0.11660434689E+03  0.45186316450E+03 -0.52722057705E+03  0.70410263457E+03  0.47000000000E+01 0.  1.
         11    1    5    5    0    0 -0.41037359988E+02  0.39331281469E+02 -0.10790310943E+02  0.57857112156E+02  0.00000000000E+00 0.  1.
        -11    1    5    5    0    0 -0.34849053724E+02  0.18831628767E+02 -0.11585168364E+03  0.12243651167E+03  0.00000000000E+00 0. -1.
          3    1    6    6  503    0  0.39434186006E+02 -0.66362285951E+02 -0.25909382431E+03  0.27034906661E+03  0.00000000000E+00 0. -1.
         -3    1    6    6    0  503  0.19836109007E+03 -0.59727736437E+03 -0.13829659575E+04  0.15194348330E+04  0.00000000000E+00 0.  1.
<mgrwt>
<rscale>  0 0.71495820E+03</rscale>
<asrwt>0</asrwt>
<pdfrwt beam="1">  1        1 0.42761071E+00 0.71495820E+03</pdfrwt>
<pdfrwt beam="2">  1       -1 0.32450396E-01 0.71495820E+03</pdfrwt>
<totfact> 0.81624563E+00</totfact>
</mgrwt>
</event>
<event>
12    1  0.3147868E-008  0.1367546E+04  0.7818608E-02  0.8977651E-01
         -2   -1    0    0    0  501 -0.00000000000E+00  0.00000000000E+00  0.62206976936E+03  0.62206976936E+03  0.00000000000E+00 0.  1.
          2   -1    0    0  501    0  0.00000000000E+00 -0.00000000000E+00 -0.32889093048E+04  0.32889093048E+04  0.00000000000E+00 0. -1.
         23    2    1    2    0    0  0.19518991994E+03  0.13468300830E+04 -0.14358171864E+04  0.19803881318E+04  0.91190911215E+02 0.  0.
    5000000    2    1    2    0    0 -0.19518991994E+03 -0.13468300830E+04 -0.12310223491E+04  0.19305909424E+04  0.59976244098E+03 0.  0.
         23    2    4    4    0    0 -0.46687892669E+02 -0.87056993212E+03 -0.11007781163E+04  0.14071004513E+04  0.90263240245E+02 0.  0.
         23    2    4    4    0    0 -0.14850202727E+03 -0.47626015092E+03 -0.13024423277E+03  0.52349049117E+03  0.90565725959E+02 0.  0.
          5    1    3    3  502    0  0.30307671168E+02  0.51295291810E+03 -0.53288417930E+03  0.74028838277E+03  0.47000000000E+01 0. -1.
         -5    1    3    3    0  502  0.16488224877E+03  0.83387716494E+03 -0.90293300708E+03  0.12400997490E+04  0.47000000000E+01 0.  1.
         13    1    5    5    0    0 -0.18422853144E+02 -0.59621664564E+03 -0.68698338073E+03  0.90981308820E+03  0.00000000000E+00 0.  1.
        -13    1    5    5    0    0 -0.28265039525E+02 -0.27435328648E+03 -0.41379473559E+03  0.49728736307E+03  0.00000000000E+00 0. -1.
          1    1    6    6  503    0 -0.72323006506E+02 -0.23632667429E+03 -0.17810208992E+02  0.24778643586E+03  0.00000000000E+00 0. -1.
         -1    1    6    6    0  503 -0.76179020762E+02 -0.23993347662E+03 -0.11243402378E+03  0.27570405531E+03  0.00000000000E+00 0.  1.
<mgrwt>
<rscale>  0 0.13675463E+04</rscale>
<asrwt>0</asrwt>
<pdfrwt beam="1">  1        2 0.50598603E+00 0.13675463E+04</pdfrwt>
<pdfrwt beam="2">  1       -2 0.95703044E-01 0.13675463E+04</pdfrwt>
<totfact> 0.10120811E+00</totfact>
</mgrwt>
</event>
<event>
12    1  0.3147868E-008  0.8402390E+03  0.7818608E-02  0.9503532E-01
          2   -1    0    0  501    0  0.00000000000E+00  0.00000000000E+00  0.14166119126E+04  0.14166119126E+04  0.00000000000E+00 0. -1.
         -2   -1    0    0    0  501 -0.00000000000E+00 -0.00000000000E+00 -0.50373560081E+03  0.50373560081E+03  0.00000000000E+00 0.  1.
         23    2    1    2    0    0 -0.66096722814E+03 -0.31868313638E+03  0.40910409700E+03  0.84647714677E+03  0.10354119827E+03 0.  0.
    5000000    2    1    2    0    0  0.66096722814E+03  0.31868313638E+03  0.50377221475E+03  0.10738703666E+04  0.60081153604E+03 0.  0.
         23    2    4    4    0    0  0.19654873767E+03  0.41217113987E+03  0.24837634077E+03  0.52735044703E+03  0.88832609519E+02 0.  0.
         23    2    4    4    0    0  0.46441849047E+03 -0.93488003492E+02  0.25539587399E+03  0.54651991957E+03  0.95039091732E+02 0.  0.
          5    1    3    3  502    0 -0.16132585758E+03 -0.12731609701E+03  0.12655691774E+03  0.24140042318E+03  0.47000000000E+01 0. -1.
         -5    1    3    3    0  502 -0.49964137055E+03 -0.19136703937E+03  0.28254717926E+03  0.60507672359E+03  0.47000000000E+01 0.  1.
         13    1    5    5    0    0  0.54800636060E+02  0.12198585568E+03  0.12046371436E+03  0.17998656943E+03  0.00000000000E+00 0. -1.
        -13    1    5    5    0    0  0.14174810161E+03  0.29018528418E+03  0.12791262641E+03  0.34736387760E+03  0.00000000000E+00 0.  1.
          3    1    6    6  503    0  0.32756230033E+03 -0.20832155503E+02  0.17258638855E+03  0.37083298237E+03  0.00000000000E+00 0. -1.
         -3    1    6    6    0  503  0.13685619013E+03 -0.72655847989E+02  0.82809485441E+02  0.17568693720E+03  0.00000000000E+00 0.  1.
<mgrwt>
<rscale>  0 0.84023903E+03</rscale>
<asrwt>0</asrwt>
<pdfrwt beam="1">  1        2 0.21794029E+00 0.84023903E+03</pdfrwt>
<pdfrwt beam="2">  1       -2 0.77497785E-01 0.84023903E+03</pdfrwt>
<totfact> 0.21272035E+01</totfact>
</mgrwt>
</event>
<event>
12    1  0.3147868E-008  0.3742183E+03  0.7818608E-02  0.1053092E+00
         -1   -1    0    0    0  501 -0.00000000000E+00  0.00000000000E+00  0.44621756162E+03  0.44621756162E+03  0.00000000000E+00 0.  1.
          1   -1    0    0  501    0  0.00000000000E+00 -0.00000000000E+00 -0.41383454356E+03  0.41383454356E+03  0.00000000000E+00 0. -1.
         23    2    1    2    0    0 -0.71276183924E+02 -0.15446924702E+03  0.12230867728E+03  0.22999839411E+03  0.94862037122E+02 0.  0.
    5000000    2    1    2    0    0  0.71276183924E+02  0.15446924702E+03 -0.89925659226E+02  0.63005371106E+03  0.59995000789E+03 0.  0.
         23    2    4    4    0    0  0.19017596811E+03  0.30471790459E+03  0.53038237467E+02  0.37416713653E+03  0.90377492768E+02 0.  0.
         23    2    4    4    0    0 -0.11889978419E+03 -0.15024865757E+03 -0.14296389669E+03  0.25588657454E+03  0.91254838169E+02 0.  0.
          5    1    3    3  502    0 -0.19346176762E+02 -0.35175810867E+02 -0.12773985122E+02  0.42389585058E+02  0.47000000000E+01 0. -1.
         -5    1    3    3    0  502 -0.51930007162E+02 -0.11929343615E+03  0.13508266241E+03  0.18760880906E+03  0.47000000000E+01 0.  1.
         11    1    5    5    0    0  0.88023274864E+02  0.20528861442E+03  0.60520551922E+02  0.23141791057E+03  0.00000000000E+00 0. -1.
        -11    1    5    5    0    0  0.10215269325E+03  0.99429290169E+02 -0.74823144556E+01  0.14274922596E+03  0.00000000000E+00 0.  1.
          3    1    6    6  503    0 -0.70704526148E+02 -0.20679156236E+02 -0.56405169087E+02  0.92780928106E+02  0.00000000000E+00 0. -1.
         -3    1    6    6    0  503 -0.48195258043E+02 -0.12956950133E+03 -0.86558727606E+02  0.16310564643E+03  0.00000000000E+00 0.  1.
<mgrwt>
<rscale>  0 0.37421827E+03</rscale>
<asrwt>0</asrwt>
<pdfrwt beam="1">  1        1 0.63666853E-01 0.37421827E+03</pdfrwt>
<pdfrwt beam="2">  1       -1 0.68648856E-01 0.37421827E+03</pdfrwt>
<totfact> 0.12891250E+02</totfact>
</mgrwt>
</event>
<event>
12    1  0.3147868E-008  0.3658627E+03  0.7818608E-02  0.1056286E+00
         -1   -1    0    0    0  501 -0.00000000000E+00  0.00000000000E+00  0.72804743964E+02  0.72804743964E+02  0.00000000000E+00 0.  1.
          1   -1    0    0  501    0  0.00000000000E+00 -0.00000000000E+00 -0.42508043386E+04  0.42508043386E+04  0.00000000000E+00 0. -1.
         23    2    1    2    0    0  0.18132592233E+03  0.26925280411E+03 -0.66982809818E+03  0.74980168207E+03  0.90314554180E+02 0.  0.
    5000000    2    1    2    0    0 -0.18132592233E+03 -0.26925280411E+03 -0.35081714965E+04  0.35738074005E+04  0.59954643241E+03 0.  0.
         23    2    4    4    0    0 -0.18411181563E+03 -0.25227158356E+03 -0.78503177357E+03  0.84905464681E+03  0.84147461270E+02 0.  0.
         23    2    4    4    0    0  0.27858932939E+01 -0.16981220548E+02 -0.27231397229E+04  0.27247527537E+04  0.92149309504E+02 0.  0.
          5    1    3    3  502    0  0.16208525140E+03  0.25693566894E+03 -0.55589066987E+03  0.63350145504E+03  0.47000000000E+01 0. -1.
         -5    1    3    3    0  502  0.19240670932E+02  0.12317135168E+02 -0.11393742831E+03  0.11630022703E+03  0.47000000000E+01 0.  1.
         13    1    5    5    0    0 -0.94677466447E+02 -0.14434114282E+03 -0.32306717020E+03  0.36629303109E+03  0.00000000000E+00 0. -1.
        -13    1    5    5    0    0 -0.89434349180E+02 -0.10793044074E+03 -0.46196460336E+03  0.48276161572E+03  0.00000000000E+00 0.  1.
          3    1    6    6  503    0 -0.40429279604E+02  0.89215543213E+01 -0.95820338008E+03  0.95909740818E+03  0.00000000000E+00 0. -1.
         -3    1    6    6    0  503  0.43215172898E+02 -0.25902774870E+02 -0.17649363428E+04  0.17656553455E+04  0.00000000000E+00 0.  1.
<mgrwt>
<rscale>  0 0.36586274E+03</rscale>
<asrwt>0</asrwt>
<pdfrwt beam="1">  1        1 0.65397015E+00 0.36586274E+03</pdfrwt>
<pdfrwt beam="2">  1       -1 0.11200725E-01 0.36586274E+03</pdfrwt>
<totfact> 0.37003646E+00</totfact>
</mgrwt>
</event>
<event>
12    1  0.3147868E-008  0.6623212E+03  0.7818608E-02  0.9783930E-01
         -2   -1    0    0    0  501 -0.00000000000E+00  0.00000000000E+00  0.14517143013E+04  0.14517143013E+04  0.00000000000E+00 0.  1.
          2   -1    0    0  501    0  0.00000000000E+00 -0.00000000000E+00 -0.49163933920E+03  0.49163933920E+03  0.00000000000E+00 0. -1.
         23    2    1    2    0    0 -0.52514445932E+03  0.25812944139E+03  0.93231044652E+03  0.11048914986E+04  0.95785923930E+02 0.  0.
    5000000    2    1    2    0    0  0.52514445932E+03 -0.25812944139E+03  0.27764515622E+02  0.83846214199E+03  0.59986697154E+03 0.  0.
         23    2    4    4    0    0  0.59451590416E+03 -0.17728261348E+03  0.15861811840E+03  0.64692686529E+03  0.92067237420E+02 0.  0.
         23    2    4    4    0    0 -0.69371444836E+02 -0.80846827911E+02 -0.13085360278E+03  0.19153527670E+03  0.90633823251E+02 0.  0.
          5    1    3    3  502    0 -0.10361090853E+03  0.95777923172E+02  0.22640672587E+03  0.26681590367E+03  0.47000000000E+01 0. -1.
         -5    1    3    3    0  502 -0.42153355080E+03  0.16235151822E+03  0.70590372065E+03  0.83807559489E+03  0.47000000000E+01 0.  1.
         11    1    5    5    0    0  0.55223429417E+03 -0.17388129707E+03  0.16925489863E+03  0.60319535959E+03  0.00000000000E+00 0.  1.
        -11    1    5    5    0    0  0.42281609991E+02 -0.34013164062E+01 -0.10636780224E+02  0.43731505694E+02  0.00000000000E+00 0. -1.
          1    1    6    6  503    0 -0.34067095432E+00 -0.14807726822E+02 -0.83698255639E+02  0.84998722505E+02  0.00000000000E+00 0. -1.
         -1    1    6    6    0  503 -0.69030773882E+02 -0.66039101089E+02 -0.47155347142E+02  0.10653655419E+03  0.00000000000E+00 0.  1.
<mgrwt>
<rscale>  0 0.66232122E+03</rscale>
<asrwt>0</asrwt>
<pdfrwt beam="1">  1        2 0.75636822E-01 0.66232122E+03</pdfrwt>
<pdfrwt beam="2">  1       -2 0.22334066E+00 0.66232122E+03</pdfrwt>
<totfact> 0.61193531E+00</totfact>
</mgrwt>
</event>
<event>
12    1  0.3147868E-008  0.4467912E+03  0.7818608E-02  0.1028683E+00
         -1   -1    0    0    0  501 -0.00000000000E+00  0.00000000000E+00  0.38053646227E+03  0.38053646227E+03  0.00000000000E+00 0.  1.
          1   -1    0    0  501    0  0.00000000000E+00 -0.00000000000E+00 -0.95153301229E+03  0.95153301229E+03  0.00000000000E+00 0. -1.
         23    2    1    2    0    0 -0.13942692036E+03  0.41344020814E+03 -0.31968404579E+03  0.54857582168E+03  0.91459669623E+02 0.  0.
    5000000    2    1    2    0    0  0.13942692036E+03 -0.41344020814E+03 -0.25131250423E+03  0.78349365288E+03  0.60027631761E+03 0.  0.
         23    2    4    4    0    0  0.12564272983E+03 -0.19360645492E+03  0.17010014588E+03  0.29945342888E+03  0.86421880850E+02 0.  0.
         23    2    4    4    0    0  0.13784190532E+02 -0.21983375322E+03 -0.42141265011E+03  0.48404022400E+03  0.90495490576E+02 0.  0.
          5    1    3    3  502    0 -0.12888838001E+03  0.37031489503E+03 -0.31631206219E+03  0.50380625906E+03  0.47000000000E+01 0. -1.
         -5    1    3    3    0  502 -0.10538540349E+02  0.43125313113E+02 -0.33719836053E+01  0.44769562620E+02  0.47000000000E+01 0.  1.
         11    1    5    5    0    0 -0.50988895964E+01 -0.78607001353E+01  0.32629687959E+02  0.33948281518E+02  0.00000000000E+00 0.  1.
        -11    1    5    5    0    0  0.13074161943E+03 -0.18574575479E+03  0.13747045792E+03  0.26550514736E+03  0.00000000000E+00 0. -1.
          4    1    6    6  503    0  0.34879562383E+01 -0.35033208407E+02 -0.15943720342E+03  0.16327802474E+03  0.00000000000E+00 0. -1.
         -4    1    6    6    0  503  0.10296234294E+02 -0.18480054481E+03 -0.26197544670E+03  0.32076219926E+03  0.00000000000E+00 0.  1.
<mgrwt>
<rscale>  0 0.44679123E+03</rscale>
<asrwt>0</asrwt>
<pdfrwt beam="1">  1        1 0.14638969E+00 0.44679123E+03</pdfrwt>
<pdfrwt beam="2">  1       -1 0.58544072E-01 0.44679123E+03</pdfrwt>
<totfact> 0.51953501E+01</totfact>
</mgrwt>
</event>
<event>
12    1  0.3147868E-008  0.1734204E+04  0.7818608E-02  0.8742093E-01
         -3   -1    0    0    0  501 -0.00000000000E+00  0.00000000000E+00  0.15226121259E+04  0.15226121259E+04  0.00000000000E+00 0.  1.
          3   -1    0    0  501    0  0.00000000000E+00 -0.00000000000E+00 -0.27052103853E+04  0.27052103853E+04  0.00000000000E+00 0. -1.
         23    2    1    2    0    0  0.17070842070E+04 -0.17392071057E+03  0.45880244322E+03  0.17785880281E+04  0.92145473944E+02 0.  0.
    5000000    2    1    2    0    0 -0.17070842070E+04  0.17392071057E+03 -0.16414007026E+04  0.24492344831E+04  0.60014030302E+03 0.  0.
         23    2    4    4    0    0 -0.22743501690E+03  0.14231997822E+03 -0.51569193366E+03  0.58792387316E+03  0.87946842359E+02 0.  0.
         23    2    4    4    0    0 -0.14796491901E+04  0.31600732348E+02 -0.11257087689E+04  0.18613106099E+04  0.83045903504E+02 0.  0.
          5    1    3    3  502    0  0.66814942931E+03 -0.11090091622E+03  0.19513804134E+03  0.70485716161E+03  0.47000000000E+01 0. -1.
         -5    1    3    3    0  502  0.10389347777E+04 -0.63019794349E+02  0.26366440188E+03  0.10737308665E+04  0.47000000000E+01 0.  1.
         11    1    5    5    0    0 -0.23114328893E+02  0.16329553508E+02 -0.13593712301E+02  0.31396106958E+02  0.00000000000E+00 0. -1.
        -11    1    5    5    0    0 -0.20432068800E+03  0.12599042471E+03 -0.50209822136E+03  0.55652776621E+03  0.00000000000E+00 0.  1.
          2    1    6    6  503    0 -0.11264431682E+04 -0.81002627013E+01 -0.87429091701E+03  0.14259468549E+04  0.00000000000E+00 0.  1.
         -2    1    6    6    0  503 -0.35320602194E+03  0.39700995050E+02 -0.25141785193E+03  0.43536375505E+03  0.00000000000E+00 0. -1.
<mgrwt>
<rscale>  0 0.17342040E+04</rscale>
<asrwt>0</asrwt>
<pdfrwt beam="1">  1        3 0.41618621E+00 0.17342040E+04</pdfrwt>
<pdfrwt beam="2">  1       -3 0.23424802E+00 0.17342040E+04</pdfrwt>
<totfact> 0.19218011E-03</totfact>
</mgrwt>
</event>
<event>
12    1  0.3147868E-008  0.4539595E+03  0.7818608E-02  0.1026548E+00
          1   -1    0    0  501    0  0.00000000000E+00  0.00000000000E+00  0.19703163245E+04  0.19703163245E+04  0.00000000000E+00 0. -1.
         -1   -1    0    0    0  501 -0.00000000000E+00 -0.00000000000E+00 -0.14414013874E+03  0.14414013874E+03  0.00000000000E+00 0.  1.
         23    2    1    2    0    0  0.26516540250E+03  0.20662326823E+03  0.86373342555E+03  0.93126762965E+03  0.90653747604E+02 0.  0.
    5000000    2    1    2    0    0 -0.26516540250E+03 -0.20662326823E+03  0.96244276020E+03  0.11831888336E+04  0.60052800400E+03 0.  0.
         23    2    4    4    0    0 -0.10627411528E+03 -0.32989045212E+03  0.24763586205E+03  0.43574654458E+03  0.91813032637E+02 0.  0.
         23    2    4    4    0    0 -0.15889128722E+03  0.12326718389E+03  0.71480689815E+03  0.74744228900E+03  0.85321943061E+02 0.  0.
          5    1    3    3  502    0  0.18882760000E+03  0.17912628891E+03  0.72702983307E+03  0.77222830696E+03  0.47000000000E+01 0. -1.
         -5    1    3    3    0  502  0.76337802501E+02  0.27496979316E+02  0.13670359248E+03  0.15903932269E+03  0.47000000000E+01 0.  1.
         13    1    5    5    0    0 -0.10631483433E+03 -0.24729844097E+03  0.22301148620E+03  0.34956184843E+03  0.00000000000E+00 0. -1.
        -13    1    5    5    0    0  0.40719045677E-01 -0.82592011149E+02  0.24624375851E+02  0.86184696146E+02  0.00000000000E+00 0.  1.
          2    1    6    6  503    0 -0.10074511507E+03  0.30843804875E+02  0.42151879554E+03  0.43448706943E+03  0.00000000000E+00 0. -1.
         -2    1    6    6    0  503 -0.58146172150E+02  0.92423379013E+02  0.29328810261E+03  0.31295521957E+03  0.00000000000E+00 0.  1.
<mgrwt>
<rscale>  0 0.45395952E+03</rscale>
<asrwt>0</asrwt>
<pdfrwt beam="1">  1        1 0.30312557E+00 0.45395952E+03</pdfrwt>
<pdfrwt beam="2">  1       -1 0.22175407E-01 0.45395952E+03</pdfrwt>
<totfact> 0.57830173E+01</totfact>
</mgrwt>
</event>
<event>
12    1  0.3147868E-008  0.5025168E+03  0.7818608E-02  0.1013124E+00
         -1   -1    0    0    0  501 -0.00000000000E+00  0.00000000000E+00  0.93299052601E+03  0.93299052601E+03  0.00000000000E+00 0.  1.
          1   -1    0    0  501    0  0.00000000000E+00 -0.00000000000E+00 -0.44717013063E+03  0.44717013063E+03  0.00000000000E+00 0. -1.
         23    2    1    2    0    0 -0.17153730638E+03  0.31898198768E+03  0.56225097742E+03  0.67524124231E+03  0.93005471677E+02 0.  0.
    5000000    2    1    2    0    0  0.17153730638E+03 -0.31898198768E+03 -0.76430582044E+02  0.70491941432E+03  0.59991265270E+03 0.  0.
         23    2    4    4    0    0  0.34337642184E+03 -0.12662324748E+03 -0.17284660773E+03  0.41372663668E+03  0.85749438568E+02 0.  0.
         23    2    4    4    0    0 -0.17183911546E+03 -0.19235874021E+03  0.96416025688E+02  0.29119277764E+03  0.94692223572E+02 0.  0.
          5    1    3    3  502    0 -0.16725699592E+03  0.23179413023E+03  0.41340276316E+03  0.50262048912E+03  0.47000000000E+01 0. -1.
         -5    1    3    3    0  502 -0.42803104646E+01  0.87187857453E+02  0.14884821426E+03  0.17262075320E+03  0.47000000000E+01 0.  1.
         13    1    5    5    0    0  0.19502693697E+03 -0.56216976803E+02 -0.13917563810E+03  0.24610102166E+03  0.00000000000E+00 0. -1.
        -13    1    5    5    0    0  0.14834948488E+03 -0.70406270674E+02 -0.33670969630E+02  0.16762561502E+03  0.00000000000E+00 0.  1.
          1    1    6    6  503    0 -0.91238594546E+02 -0.14428564449E+03  0.23447964204E+02  0.17231551110E+03  0.00000000000E+00 0. -1.
         -1    1    6    6    0  503 -0.80600520914E+02 -0.48073095717E+02  0.72968061484E+02  0.11887726654E+03  0.00000000000E+00 0.  1.
<mgrwt>
<rscale>  0 0.50251676E+03</rscale>
<asrwt>0</asrwt>
<pdfrwt beam="1">  1        1 0.68795405E-01 0.50251676E+03</pdfrwt>
<pdfrwt beam="2">  1       -1 0.14353700E+00 0.50251676E+03</pdfrwt>
<totfact> 0.21456197E+01</totfact>
</mgrwt>
</event>
<event>
12    1  0.3147868E-008  0.9305953E+03  0.7818608E-02  0.9388124E-01
         -2   -1    0    0    0  501 -0.00000000000E+00  0.00000000000E+00  0.17045433376E+04  0.17045433376E+04  0.00000000000E+00 0. -1.
          2   -1    0    0  501    0  0.00000000000E+00 -0.00000000000E+00 -0.73994336746E+03  0.73994336746E+03  0.00000000000E+00 0.  1.
         23    2    1    2    0    0 -0.82547683362E+03  0.36155872440E+03  0.10136078127E+04  0.13607883137E+04  0.11048675389E+03 0.  0.
    5000000    2    1    2    0    0  0.82547683362E+03 -0.36155872440E+03 -0.49007842560E+02  0.10836983913E+04  0.59988642315E+03 0.  0.
         23    2    4    4    0    0  0.44553139737E+03 -0.34394328355E+02 -0.26650864098E+03  0.52966196278E+03  0.99165232011E+02 0.  0.
         23    2    4    4    0    0  0.37994543625E+03 -0.32716439604E+03  0.21750079842E+03  0.55403642854E+03  0.90855326024E+02 0.  0.
          5    1    3    3  502    0 -0.45614868002E+03  0.18620745054E+03  0.63327479024E+03  0.80237390466E+03  0.47000000000E+01 0. -1.
         -5    1    3    3    0  502 -0.36932815361E+03  0.17535127386E+03  0.38033302245E+03  0.55841440907E+03  0.47000000000E+01 0.  1.
         13    1    5    5    0    0  0.21532597736E+03  0.17414425690E+02 -0.16927752625E+03  0.27445112432E+03  0.00000000000E+00 0.  1.
        -13    1    5    5    0    0  0.23020542001E+03 -0.51808754046E+02 -0.97231114726E+02  0.25521083846E+03  0.00000000000E+00 0. -1.
          1    1    6    6  503    0  0.16686947291E+03 -0.19596686685E+03  0.86109743556E+02  0.27140987791E+03  0.00000000000E+00 0. -1.
         -1    1    6    6    0  503  0.21307596334E+03 -0.13119752919E+03  0.13139105486E+03  0.28262655062E+03  0.00000000000E+00 0.  1.
<mgrwt>
<rscale>  0 0.93059529E+03</rscale>
<asrwt>0</asrwt>
<pdfrwt beam="1">  1        2 0.11383744E+00 0.93059529E+03</pdfrwt>
<pdfrwt beam="2">  1       -2 0.26223744E+00 0.93059529E+03</pdfrwt>
<totfact> 0.20795010E+00</totfact>
</mgrwt>
</event>
<event>
12    1  0.3147868E-008  0.6668456E+03  0.7818608E-02  0.9775673E-01
         -2   -1    0    0    0  501 -0.00000000000E+00  0.00000000000E+00  0.74373821978E+03  0.74373821978E+03  0.00000000000E+00 0.  1.
          2   -1    0    0  501    0  0.00000000000E+00 -0.00000000000E+00 -0.63105833285E+03  0.63105833285E+03  0.00000000000E+00 0. -1.
         23    2    1    2    0    0  0.37638580821E+03 -0.39256788703E+03  0.12274495552E+03  0.56488725339E+03  0.90859575161E+02 0.  0.
    5000000    2    1    2    0    0 -0.37638580821E+03  0.39256788703E+03 -0.10065068587E+02  0.80990929924E+03  0.60006328403E+03 0.  0.
         23    2    4    4    0    0 -0.51916620575E+03  0.30966797767E+03 -0.62197200279E+02  0.61446422638E+03  0.90939475486E+02 0.  0.
         23    2    4    4    0    0  0.14278039754E+03  0.82899909361E+02  0.52132131691E+02  0.19544507286E+03  0.90677342570E+02 0.  0.
          5    1    3    3  502    0  0.18889480279E+03 -0.16429818098E+03  0.16531442956E+02  0.25093927034E+03  0.47000000000E+01 0. -1.
         -5    1    3    3    0  502  0.18749100542E+03 -0.22826970605E+03  0.10621351256E+03  0.31394798306E+03  0.47000000000E+01 0.  1.
         11    1    5    5    0    0 -0.16781762331E+03  0.14853215494E+03 -0.90509054839E+01  0.22429104894E+03  0.00000000000E+00 0.  1.
        -11    1    5    5    0    0 -0.35134858243E+03  0.16113582272E+03 -0.53146294795E+02  0.39017317744E+03  0.00000000000E+00 0. -1.
          4    1    6    6  503    0  0.11810525264E+02 -0.10939881801E+02  0.28321369943E+02  0.32577131799E+02  0.00000000000E+00 0. -1.
         -4    1    6    6    0  503  0.13096987227E+03  0.93839791162E+02  0.23810761749E+02  0.16286794106E+03  0.00000000000E+00 0.  1.
<mgrwt>
<rscale>  0 0.66684561E+03</rscale>
<asrwt>0</asrwt>
<pdfrwt beam="1">  1        2 0.97085897E-01 0.66684561E+03</pdfrwt>
<pdfrwt beam="2">  1       -2 0.11442126E+00 0.66684561E+03</pdfrwt>
<totfact> 0.28410403E+01</totfact>
</mgrwt>
</event>
<event>
12    1  0.3147868E-008  0.7995063E+03  0.7818608E-02  0.9560732E-01
         -1   -1    0    0    0  501 -0.00000000000E+00  0.00000000000E+00  0.10252057169E+04  0.10252057169E+04  0.00000000000E+00 0.  1.
          1   -1    0    0  501    0  0.00000000000E+00 -0.00000000000E+00 -0.77032241387E+03  0.77032241387E+03  0.00000000000E+00 0. -1.
         23    2    1    2    0    0 -0.98658830883E+02  0.77485644987E+03  0.18169821959E+03  0.80723140807E+03  0.92044665018E+02 0.  0.
    5000000    2    1    2    0    0  0.98658830883E+02 -0.77485644987E+03  0.73185083489E+02  0.98829672274E+03  0.60103100829E+03 0.  0.
         23    2    4    4    0    0  0.10948256396E+03 -0.22884846853E+03  0.28768724442E+03  0.39466811333E+03  0.92956525931E+02 0.  0.
         23    2    4    4    0    0 -0.10823733078E+02 -0.54600798134E+03 -0.21450216093E+03  0.59362860942E+03  0.90232366640E+02 0.  0.
          5    1    3    3  502    0 -0.89331546456E+01  0.27630174686E+03  0.28306441580E+02  0.27793128864E+03  0.47000000000E+01 0. -1.
         -5    1    3    3    0  502 -0.89725676237E+02  0.49855470301E+03  0.15339177801E+03  0.52930011944E+03  0.47000000000E+01 0.  1.
         11    1    5    5    0    0  0.50875040896E+02 -0.19266848580E+03  0.19156787007E+03  0.27641936265E+03  0.00000000000E+00 0.  1.
        -11    1    5    5    0    0  0.58607523065E+02 -0.36179982735E+02  0.96119374353E+02  0.11824875068E+03  0.00000000000E+00 0. -1.
          1    1    6    6  503    0  0.14818385324E+02 -0.31842857089E+03 -0.16648406983E+03  0.35962937145E+03  0.00000000000E+00 0. -1.
         -1    1    6    6    0  503 -0.25642118402E+02 -0.22757941044E+03 -0.48018091109E+02  0.23399923797E+03  0.00000000000E+00 0.  1.
<mgrwt>
<rscale>  0 0.79950630E+03</rscale>
<asrwt>0</asrwt>
<pdfrwt beam="1">  1        1 0.11851114E+00 0.79950630E+03</pdfrwt>
<pdfrwt beam="2">  1       -1 0.15772396E+00 0.79950630E+03</pdfrwt>
<totfact> 0.73284990E+00</totfact>
</mgrwt>
</event>
<event>
12    1  0.3147868E-008  0.6744219E+03  0.7818608E-02  0.9762002E-01
         -1   -1    0    0    0  501 -0.00000000000E+00  0.00000000000E+00  0.60281899589E+03  0.60281899589E+03  0.00000000000E+00 0.  1.
          1   -1    0    0  501    0  0.00000000000E+00 -0.00000000000E+00 -0.10997703062E+04  0.10997703062E+04  0.00000000000E+00 0. -1.
         23    2    1    2    0    0  0.65119142652E+03 -0.75916280813E+02  0.42006683898E+02  0.66321252159E+03  0.90954558071E+02 0.  0.
    5000000    2    1    2    0    0 -0.65119142652E+03  0.75916280813E+02 -0.53895799421E+03  0.10393767805E+04  0.60001234708E+03 0.  0.
         23    2    4    4    0    0 -0.26831359632E+03 -0.38860070135E+02 -0.55913773363E+03  0.62818418148E+03  0.92076433870E+02 0.  0.
         23    2    4    4    0    0 -0.38287783020E+03  0.11477635095E+03  0.20179739416E+02  0.41119259902E+03  0.94356176323E+02 0.  0.
          5    1    3    3  502    0  0.50039929025E+03 -0.25607135409E+02  0.52589073660E+02  0.50382822046E+03  0.47000000000E+01 0. -1.
         -5    1    3    3    0  502  0.15079213627E+03 -0.50309145404E+02 -0.10582389762E+02  0.15938430113E+03  0.47000000000E+01 0.  1.
         11    1    5    5    0    0 -0.15621535347E+03  0.23002832093E+02 -0.32492510910E+03  0.36125986972E+03  0.00000000000E+00 0. -1.
        -11    1    5    5    0    0 -0.11209824286E+03 -0.61862902228E+02 -0.23421262453E+03  0.26692431177E+03  0.00000000000E+00 0.  1.
          2    1    6    6  503    0 -0.32601765321E+01 -0.38822321256E+01  0.12388846013E+02  0.13385962156E+02  0.00000000000E+00 0. -1.
         -2    1    6    6    0  503 -0.37961765367E+03  0.11865858307E+03  0.77908934031E+01  0.39780663686E+03  0.00000000000E+00 0.  1.
<mgrwt>
<rscale>  0 0.67442188E+03</rscale>
<asrwt>0</asrwt>
<pdfrwt beam="1">  1        1 0.16919543E+00 0.67442188E+03</pdfrwt>
<pdfrwt beam="2">  1       -1 0.92741385E-01 0.67442188E+03</pdfrwt>
<totfact> 0.14941935E+01</totfact>
</mgrwt>
</event>
<event>
12    1  0.3147868E-008  0.5421005E+03  0.7818608E-02  0.1003339E+00
          2   -1    0    0  501    0  0.00000000000E+00  0.00000000000E+00  0.17010364054E+04  0.17010364054E+04  0.00000000000E+00 0. -1.
         -2   -1    0    0    0  501 -0.00000000000E+00 -0.00000000000E+00 -0.39533811951E+03  0.39533811951E+03  0.00000000000E+00 0.  1.
         23    2    1    2    0    0 -0.14246796297E+03  0.39083585831E+03 -0.16342340680E+03  0.45584818293E+03  0.89669210866E+02 0.  0.
    5000000    2    1    2    0    0  0.14246796297E+03 -0.39083585831E+03  0.14691216927E+04  0.16405263420E+04  0.59996528416E+03 0.  0.
         23    2    4    4    0    0  0.33671652330E+03 -0.23074096289E+03  0.60460250018E+03  0.73536489743E+03  0.92725078182E+02 0.  0.
         23    2    4    4    0    0 -0.19424856033E+03 -0.16009489542E+03  0.86451919248E+03  0.90516144453E+03  0.92525281768E+02 0.  0.
          5    1    3    3  502    0 -0.12188249909E+03  0.23383340356E+03 -0.12962197455E+03  0.29386621189E+03  0.47000000000E+01 0.  1.
         -5    1    3    3    0  502 -0.20585463888E+02  0.15700245475E+03 -0.33801432253E+02  0.16198197104E+03  0.47000000000E+01 0. -1.
         13    1    5    5    0    0  0.18920438137E+03 -0.10923228082E+03  0.39732675827E+03  0.45342975415E+03  0.00000000000E+00 0.  1.
        -13    1    5    5    0    0  0.14751214193E+03 -0.12150868207E+03  0.20727574191E+03  0.28193514328E+03  0.00000000000E+00 0. -1.
          2    1    6    6  503    0 -0.17510622655E+03 -0.15122796932E+03  0.65654972452E+03  0.69612472306E+03  0.00000000000E+00 0. -1.
         -2    1    6    6    0  503 -0.19142333778E+02 -0.88669260994E+01  0.20796946796E+03  0.20903672148E+03  0.00000000000E+00 0.  1.
<mgrwt>
<rscale>  0 0.54210049E+03</rscale>
<asrwt>0</asrwt>
<pdfrwt beam="1">  1        2 0.26169790E+00 0.54210049E+03</pdfrwt>
<pdfrwt beam="2">  1       -2 0.60821250E-01 0.54210049E+03</pdfrwt>
<totfact> 0.26099940E+01</totfact>
</mgrwt>
</event>
<event>
12    1  0.3147868E-008  0.5960724E+03  0.7818608E-02  0.9913588E-01
          1   -1    0    0  501    0  0.00000000000E+00  0.00000000000E+00  0.28639974889E+04  0.28639974889E+04  0.00000000000E+00 0. -1.
         -1   -1    0    0    0  501 -0.00000000000E+00 -0.00000000000E+00 -0.17292776307E+03  0.17292776307E+03  0.00000000000E+00 0.  1.
         23    2    1    2    0    0  0.44041360915E+03  0.66608333351E+02  0.18804659126E+04  0.19345566745E+04  0.89200120280E+02 0.  0.
    5000000    2    1    2    0    0 -0.44041360915E+03 -0.66608333351E+02  0.81060381325E+03  0.11023685774E+04  0.59978089435E+03 0.  0.
         23    2    4    4    0    0 -0.29516333540E+03  0.24380922674E+03  0.42154280766E+03  0.57672497174E+03  0.91372975905E+02 0.  0.
         23    2    4    4    0    0 -0.14525027375E+03 -0.31041756009E+03  0.38906100559E+03  0.52564360568E+03  0.86464041562E+02 0.  0.
          5    1    3    3  502    0  0.15583828277E+03  0.66661671546E+02  0.68360104800E+03  0.70431657063E+03  0.47000000000E+01 0. -1.
         -5    1    3    3    0  502  0.28457532639E+03 -0.53338195080E-01  0.11968648646E+04  0.12302401039E+04  0.47000000000E+01 0.  1.
         11    1    5    5    0    0 -0.41453080188E+02  0.78932327087E+02  0.73511023859E+02  0.11555319444E+03  0.00000000000E+00 0. -1.
        -11    1    5    5    0    0 -0.25371025521E+03  0.16487689965E+03  0.34803178380E+03  0.46117177730E+03  0.00000000000E+00 0.  1.
          1    1    6    6  503    0 -0.72662685499E+02 -0.99726962135E+02  0.19163979245E+03  0.22792793355E+03  0.00000000000E+00 0. -1.
         -1    1    6    6    0  503 -0.72587588253E+02 -0.21069059796E+03  0.19742121314E+03  0.29771567213E+03  0.00000000000E+00 0.  1.
<mgrwt>
<rscale>  0 0.59607237E+03</rscale>
<asrwt>0</asrwt>
<pdfrwt beam="1">  1        1 0.44061496E+00 0.59607237E+03</pdfrwt>
<pdfrwt beam="2">  1       -1 0.26604273E-01 0.59607237E+03</pdfrwt>
<totfact> 0.10288187E+01</totfact>
</mgrwt>
</event>
<event>
12    1  0.3147868E-008  0.1796992E+04  0.7818608E-02  0.8707901E-01
         -2   -1    0    0    0  501 -0.00000000000E+00  0.00000000000E+00  0.30240936295E+04  0.30240936295E+04  0.00000000000E+00 0. -1.
          2   -1    0    0  501    0  0.00000000000E+00 -0.00000000000E+00 -0.11350762805E+04  0.11350762805E+04  0.00000000000E+00 0.  1.
         23    2    1    2    0    0 -0.15946561908E+04  0.81808209643E+03  0.11405028106E+04  0.21262908395E+04  0.90439978498E+02 0.  0.
    5000000    2    1    2    0    0  0.15946561908E+04 -0.81808209643E+03  0.74851453839E+03  0.20328790705E+04  0.60011383723E+03 0.  0.
         23    2    4    4    0    0  0.70199908599E+03 -0.38155090765E+03  0.32451116079E+02  0.80473222815E+03  0.90316511373E+02 0.  0.
         23    2    4    4    0    0  0.89265710485E+03 -0.43653118877E+03  0.71606342231E+03  0.12281468424E+04  0.90562994651E+02 0.  0.
          5    1    3    3  502    0 -0.90369525524E+03  0.51330537352E+03  0.65576001158E+03  0.12288982072E+04  0.47000000000E+01 0. -1.
         -5    1    3    3    0  502 -0.69096093560E+03  0.30477672291E+03  0.48474279905E+03  0.89739263234E+03  0.47000000000E+01 0.  1.
         13    1    5    5    0    0  0.46367066288E+03 -0.28677567208E+03  0.51071688049E+02  0.54757564504E+03  0.00000000000E+00 0.  1.
        -13    1    5    5    0    0  0.23832842311E+03 -0.94775235570E+02 -0.18620571970E+02  0.25715658311E+03  0.00000000000E+00 0. -1.
          3    1    6    6  503    0  0.45603505033E+03 -0.17263235951E+03  0.34867018771E+03  0.59945041370E+03  0.00000000000E+00 0.  1.
         -3    1    6    6    0  503  0.43662205452E+03 -0.26389882926E+03  0.36739323460E+03  0.62869642866E+03  0.00000000000E+00 0. -1.
<mgrwt>
<rscale>  0 0.17969920E+04</rscale>
<asrwt>0</asrwt>
<pdfrwt beam="1">  1        2 0.17462712E+00 0.17969920E+04</pdfrwt>
<pdfrwt beam="2">  1       -2 0.46524517E+00 0.17969920E+04</pdfrwt>
<totfact> 0.52189399E-02</totfact>
</mgrwt>
</event>
<event>
12    1  0.3147868E-008  0.1235418E+04  0.7818608E-02  0.9082408E-01
         -1   -1    0    0    0  501 -0.00000000000E+00  0.00000000000E+00  0.14512048594E+04  0.14512048594E+04  0.00000000000E+00 0.  1.
          1   -1    0    0  501    0  0.00000000000E+00 -0.00000000000E+00 -0.13628360783E+04  0.13628360783E+04  0.00000000000E+00 0. -1.
         23    2    1    2    0    0 -0.12149349350E+04 -0.20754367665E+03 -0.48545339461E+03  0.13279886213E+04  0.93528102439E+02 0.  0.
    5000000    2    1    2    0    0  0.12149349350E+04  0.20754367665E+03  0.57382217573E+03  0.14860523163E+04  0.59994860081E+03 0.  0.
         23    2    4    4    0    0  0.56537868727E+03  0.78407882442E+02  0.57930572663E+03  0.81836878762E+03  0.91277004695E+02 0.  0.
         23    2    4    4    0    0  0.64955624771E+03  0.12913579421E+03 -0.54835509066E+01  0.66768352873E+03  0.84686793101E+02 0.  0.
          5    1    3    3  502    0 -0.54713675614E+03 -0.99997971941E+02 -0.26845321396E+03  0.61761431525E+03  0.47000000000E+01 0. -1.
         -5    1    3    3    0  502 -0.66779817884E+03 -0.10754570471E+03 -0.21700018065E+03  0.71037430602E+03  0.47000000000E+01 0.  1.
         11    1    5    5    0    0  0.18085665986E+03  0.28705196266E+02  0.12819055073E+03  0.22353061760E+03  0.00000000000E+00 0.  1.
        -11    1    5    5    0    0  0.38452202741E+03  0.49702686176E+02  0.45111517590E+03  0.59483817001E+03  0.00000000000E+00 0. -1.
          1    1    6    6  503    0  0.15460062362E+03  0.67075711655E+02  0.73876920782E+01  0.16868634181E+03  0.00000000000E+00 0. -1.
         -1    1    6    6    0  503  0.49495562409E+03  0.62060082551E+02 -0.12871242985E+02  0.49899718692E+03  0.00000000000E+00 0.  1.
<mgrwt>
<rscale>  0 0.12354179E+04</rscale>
<asrwt>0</asrwt>
<pdfrwt beam="1">  1        1 0.20966709E+00 0.12354179E+04</pdfrwt>
<pdfrwt beam="2">  1       -1 0.22326229E+00 0.12354179E+04</pdfrwt>
<totfact> 0.83339413E-01</totfact>
</mgrwt>
</event>
<event>
12    1  0.3147868E-008  0.1424732E+04  0.7818608E-02  0.8936108E-01
          1   -1    0    0  501    0  0.00000000000E+00  0.00000000000E+00  0.19704507861E+04  0.19704507861E+04  0.00000000000E+00 0. -1.
         -1   -1    0    0    0  501 -0.00000000000E+00 -0.00000000000E+00 -0.13021082075E+04  0.13021082075E+04  0.00000000000E+00 0.  1.
         23    2    1    2    0    0  0.44316447951E+03  0.13459846011E+04  0.94964350296E+03  0.17082132166E+04  0.90001713152E+02 0.  0.
    5000000    2    1    2    0    0 -0.44316447951E+03 -0.13459846011E+04 -0.28130092431E+03  0.15643457770E+04  0.59998183098E+03 0.  0.
         23    2    4    4    0    0 -0.26425482782E+03 -0.54982759267E+03  0.15350827104E+03  0.63511822146E+03  0.87574940845E+02 0.  0.
         23    2    4    4    0    0 -0.17890965169E+03 -0.79615700847E+03 -0.43480919535E+03  0.92922755551E+03  0.92358908371E+02 0.  0.
          5    1    3    3  502    0  0.37036777555E+03  0.11331977674E+04  0.83674026698E+03  0.14565252602E+04  0.47000000000E+01 0. -1.
         -5    1    3    3    0  502  0.72796703960E+02  0.21278683378E+03  0.11290323598E+03  0.25168795647E+03  0.47000000000E+01 0.  1.
         13    1    5    5    0    0 -0.32992831715E+02 -0.12389505501E+03  0.59817088966E+02  0.14148001884E+03  0.00000000000E+00 0. -1.
        -13    1    5    5    0    0 -0.23126199610E+03 -0.42593253766E+03  0.93691182075E+02  0.49363820261E+03  0.00000000000E+00 0.  1.
          3    1    6    6  503    0  0.75189233961E+01 -0.33656280221E+02 -0.31555994808E+02  0.46744627666E+02  0.00000000000E+00 0. -1.
         -3    1    6    6    0  503 -0.18642857509E+03 -0.76250072825E+03 -0.40325320055E+03  0.88248292785E+03  0.00000000000E+00 0.  1.
<mgrwt>
<rscale>  0 0.14247323E+04</rscale>
<asrwt>0</asrwt>
<pdfrwt beam="1">  1        1 0.30314628E+00 0.14247323E+04</pdfrwt>
<pdfrwt beam="2">  1       -1 0.20032434E+00 0.14247323E+04</pdfrwt>
<totfact> 0.44564429E-01</totfact>
</mgrwt>
</event>
<event>
12    1  0.3147868E-008  0.6485244E+03  0.7818608E-02  0.9809552E-01
         -1   -1    0    0    0  501 -0.00000000000E+00  0.00000000000E+00  0.64831737613E+03  0.64831737613E+03  0.00000000000E+00 0.  1.
          1   -1    0    0  501    0  0.00000000000E+00 -0.00000000000E+00 -0.68608775859E+03  0.68608775859E+03  0.00000000000E+00 0. -1.
         23    2    1    2    0    0  0.31338383309E+03  0.41113999920E+03  0.87355365675E+02  0.53260890003E+03  0.93785684876E+02 0.  0.
    5000000    2    1    2    0    0 -0.31338383309E+03 -0.41113999920E+03 -0.12512574814E+03  0.80179623469E+03  0.59997935242E+03 0.  0.
         23    2    4    4    0    0 -0.23789473605E+03  0.93164418030E+02 -0.77503117731E+02  0.28175462238E+03  0.90030104652E+02 0.  0.
         23    2    4    4    0    0 -0.75489097036E+02 -0.50430441723E+03 -0.47622630407E+02  0.52004161232E+03  0.90298475078E+02 0.  0.
          5    1    3    3  502    0  0.80244235540E+02  0.50802818462E+02  0.29243283034E+02  0.99485291896E+02  0.47000000000E+01 0. -1.
         -5    1    3    3    0  502  0.23313959755E+03  0.36033718074E+03  0.58112082642E+02  0.43312360813E+03  0.47000000000E+01 0.  1.
         11    1    5    5    0    0 -0.44207723878E+02  0.22398490659E+02 -0.55450249113E+02  0.74368981175E+02  0.00000000000E+00 0. -1.
        -11    1    5    5    0    0 -0.19368701218E+03  0.70765927371E+02 -0.22052868617E+02  0.20738564120E+03  0.00000000000E+00 0.  1.
          1    1    6    6  503    0 -0.92371082005E+02 -0.35867499524E+03 -0.20469796698E+02  0.37094363666E+03  0.00000000000E+00 0. -1.
         -1    1    6    6    0  503  0.16881984969E+02 -0.14562942199E+03 -0.27152833709E+02  0.14909797566E+03  0.00000000000E+00 0.  1.
<mgrwt>
<rscale>  0 0.64852439E+03</rscale>
<asrwt>0</asrwt>
<pdfrwt beam="1">  1        1 0.10555196E+00 0.64852439E+03</pdfrwt>
<pdfrwt beam="2">  1       -1 0.99741135E-01 0.64852439E+03</pdfrwt>
<totfact> 0.27925596E+01</totfact>
</mgrwt>
</event>
<event>
12    1  0.3147868E-008  0.1411306E+04  0.7818608E-02  0.8945675E-01
          2   -1    0    0  501    0  0.00000000000E+00  0.00000000000E+00  0.12626615943E+04  0.12626615943E+04  0.00000000000E+00 0. -1.
         -2   -1    0    0    0  501 -0.00000000000E+00 -0.00000000000E+00 -0.17170502086E+04  0.17170502086E+04  0.00000000000E+00 0.  1.
         23    2    1    2    0    0  0.12175084079E+04  0.70069457761E+03 -0.98189048200E+02  0.14110979968E+04  0.90867227107E+02 0.  0.
    5000000    2    1    2    0    0 -0.12175084079E+04 -0.70069457761E+03 -0.35619956609E+03  0.15686138062E+04  0.60030952644E+03 0.  0.
         23    2    4    4    0    0 -0.44157093604E+03 -0.29204253947E+03  0.14208532152E+03  0.55577706522E+03  0.91794178589E+02 0.  0.
         23    2    4    4    0    0 -0.77593747187E+03 -0.40865203814E+03 -0.49828488761E+03  0.10128367409E+04  0.92059687303E+02 0.  0.
          5    1    3    3  502    0  0.38858137393E+03  0.27119690073E+03 -0.44125395091E+02  0.47593317139E+03  0.47000000000E+01 0. -1.
         -5    1    3    3    0  502  0.82892703398E+03  0.42949767687E+03 -0.54063653109E+02  0.93516482541E+03  0.47000000000E+01 0.  1.
         13    1    5    5    0    0 -0.17647259753E+03 -0.17140372916E+03  0.68389894750E+02  0.25534093631E+03  0.00000000000E+00 0. -1.
        -13    1    5    5    0    0 -0.26509833851E+03 -0.12063881031E+03  0.73695426766E+02  0.30043612892E+03  0.00000000000E+00 0.  1.
          3    1    6    6  503    0 -0.69428217766E+03 -0.35150550290E+03 -0.47050033445E+03  0.90937034563E+03  0.00000000000E+00 0. -1.
         -3    1    6    6    0  503 -0.81655294205E+02 -0.57146535246E+02 -0.27784553158E+02  0.10346639530E+03  0.00000000000E+00 0.  1.
<mgrwt>
<rscale>  0 0.14113059E+04</rscale>
<asrwt>0</asrwt>
<pdfrwt beam="1">  1        2 0.19425563E+00 0.14113059E+04</pdfrwt>
<pdfrwt beam="2">  1       -2 0.26416157E+00 0.14113059E+04</pdfrwt>
<totfact> 0.87025743E-01</totfact>
</mgrwt>
</event>
<event>
12    1  0.3147868E-008  0.4442590E+03  0.7818608E-02  0.1029448E+00
         -2   -1    0    0    0  501 -0.00000000000E+00  0.00000000000E+00  0.64147063536E+03  0.64147063536E+03  0.00000000000E+00 0.  1.
          2   -1    0    0  501    0  0.00000000000E+00 -0.00000000000E+00 -0.71075554798E+03  0.71075554798E+03  0.00000000000E+00 0. -1.
         23    2    1    2    0    0 -0.51358752167E+02 -0.29216248463E+03 -0.47663736864E+03  0.56866261576E+03  0.90539220948E+02 0.  0.
    5000000    2    1    2    0    0  0.51358752167E+02  0.29216248463E+03  0.40735245602E+03  0.78356356758E+03  0.60003266758E+03 0.  0.
         23    2    4    4    0    0  0.14760257781E+03 -0.95842463711E+02 -0.93624316502E+01  0.19882431434E+03  0.92038872338E+02 0.  0.
         23    2    4    4    0    0 -0.96243825643E+02  0.38800494834E+03  0.41671488767E+03  0.58473925324E+03  0.91967291773E+02 0.  0.
          5    1    3    3  502    0 -0.73232570226E+02 -0.15916447997E+03 -0.27240810848E+03  0.32392068257E+03  0.47000000000E+01 0. -1.
         -5    1    3    3    0  502  0.21873818059E+02 -0.13299800466E+03 -0.20422926016E+03  0.24474193320E+03  0.47000000000E+01 0.  1.
         11    1    5    5    0    0  0.12687160288E+03 -0.84856724049E+02  0.27536696190E+02  0.15509783000E+03  0.00000000000E+00 0.  1.
        -11    1    5    5    0    0  0.20730974927E+02 -0.10985739661E+02 -0.36899127841E+02  0.43726484340E+02  0.00000000000E+00 0. -1.
          3    1    6    6  503    0 -0.43618401323E+02  0.94203885059E+02  0.16170481078E+03  0.19215978436E+03  0.00000000000E+00 0. -1.
         -3    1    6    6    0  503 -0.52625424320E+02  0.29380106328E+03  0.25501007690E+03  0.39257946888E+03  0.00000000000E+00 0.  1.
<mgrwt>
<rscale>  0 0.44425904E+03</rscale>
<asrwt>0</asrwt>
<pdfrwt beam="1">  1        2 0.10934701E+00 0.44425904E+03</pdfrwt>
<pdfrwt beam="2">  1       -2 0.98687790E-01 0.44425904E+03</pdfrwt>
<totfact> 0.35845746E+01</totfact>
</mgrwt>
</event>
<event>
12    1  0.3147868E-008  0.5679035E+03  0.7818608E-02  0.9974329E-01
         -2   -1    0    0    0  501 -0.00000000000E+00  0.00000000000E+00  0.40044875539E+03  0.40044875539E+03  0.00000000000E+00 0.  1.
          2   -1    0    0  501    0  0.00000000000E+00 -0.00000000000E+00 -0.99310665531E+03  0.99310665531E+03  0.00000000000E+00 0. -1.
         23    2    1    2    0    0 -0.30080261106E+03 -0.30332714044E+03  0.17740627592E+02  0.43713329295E+03  0.91001214215E+02 0.  0.
    5000000    2    1    2    0    0  0.30080261106E+03  0.30332714044E+03 -0.61039852751E+03  0.95642211775E+03  0.59972271924E+03 0.  0.
         23    2    4    4    0    0  0.34738852313E+03  0.43464911148E+03 -0.51478591804E+03  0.76341512633E+03  0.90550966760E+02 0.  0.
         23    2    4    4    0    0 -0.46585912073E+02 -0.13132197105E+03 -0.95612609469E+02  0.19300699141E+03  0.93242803271E+02 0.  0.
          5    1    3    3  502    0 -0.19596766738E+03 -0.15957603471E+03  0.46022933763E+02  0.25692029492E+03  0.47000000000E+01 0. -1.
         -5    1    3    3    0  502 -0.10483494368E+03 -0.14375110572E+03 -0.28282306170E+02  0.18021299802E+03  0.47000000000E+01 0.  1.
         11    1    5    5    0    0  0.14991201993E+03  0.12755343609E+03 -0.20983798915E+03  0.28770727219E+03  0.00000000000E+00 0. -1.
        -11    1    5    5    0    0  0.19747650320E+03  0.30709567539E+03 -0.30494792890E+03  0.47570785415E+03  0.00000000000E+00 0.  1.
          1    1    6    6  503    0 -0.50673896317E+02 -0.10623529347E+03 -0.28301627075E+02  0.12105686036E+03  0.00000000000E+00 0. -1.
         -1    1    6    6    0  503  0.40879842434E+01 -0.25086677578E+02 -0.67310982395E+02  0.71950131049E+02  0.00000000000E+00 0.  1.
<mgrwt>
<rscale>  0 0.56790348E+03</rscale>
<asrwt>0</asrwt>
<pdfrwt beam="1">  1        2 0.15278564E+00 0.56790348E+03</pdfrwt>
<pdfrwt beam="2">  1       -2 0.61607502E-01 0.56790348E+03</pdfrwt>
<totfact> 0.64330697E+01</totfact>
</mgrwt>
</event>
<event>
12    1  0.3147868E-008  0.2182393E+04  0.7818608E-02  0.8525792E-01
         -2   -1    0    0    0  501 -0.00000000000E+00  0.00000000000E+00  0.11593660846E+04  0.11593660846E+04  0.00000000000E+00 0.  1.
          2   -1    0    0  501    0  0.00000000000E+00 -0.00000000000E+00 -0.43508292647E+04  0.43508292647E+04  0.00000000000E+00 0. -1.
         23    2    1    2    0    0 -0.19543968344E+04 -0.94918055056E+03 -0.20285808434E+04  0.29738591627E+04  0.89929849241E+02 0.  0.
    5000000    2    1    2    0    0  0.19543968344E+04  0.94918055056E+03 -0.11628823367E+04  0.25363361865E+04  0.60007934332E+03 0.  0.
         23    2    4    4    0    0  0.18510357848E+04  0.82287253964E+03 -0.11807440731E+04  0.23464511733E+04  0.90685441607E+02 0.  0.
         23    2    4    4    0    0  0.10336104955E+03  0.12630801092E+03  0.17861736395E+02  0.18988501323E+03  0.95394215939E+02 0.  0.
          5    1    3    3  502    0 -0.14872329319E+04 -0.67984004530E+03 -0.15184093683E+04  0.22315092159E+04  0.47000000000E+01 0. -1.
         -5    1    3    3    0  502 -0.46716390243E+03 -0.26934050526E+03 -0.51017147516E+03  0.74234994683E+03  0.47000000000E+01 0.  1.
         13    1    5    5    0    0  0.65863061287E+03  0.33142991854E+03 -0.39994658937E+03  0.83880709908E+03  0.00000000000E+00 0.  1.
        -13    1    5    5    0    0  0.11924051719E+04  0.49144262110E+03 -0.78079748375E+03  0.15076440742E+04  0.00000000000E+00 0. -1.
          3    1    6    6  503    0  0.49195335460E+01  0.50660048301E+01 -0.26586960695E+02  0.27508774859E+02  0.00000000000E+00 0. -1.
         -3    1    6    6    0  503  0.98441516004E+02  0.12124200609E+03  0.44448697090E+02  0.16237623837E+03  0.00000000000E+00 0.  1.
<mgrwt>
<rscale>  0 0.21823934E+04</rscale>
<asrwt>0</asrwt>
<pdfrwt beam="1">  1        2 0.66935835E+00 0.21823934E+04</pdfrwt>
<pdfrwt beam="2">  1       -2 0.17836401E+00 0.21823934E+04</pdfrwt>
<totfact> 0.28060152E-02</totfact>
</mgrwt>
</event>
<event>
12    1  0.3147868E-008  0.9447147E+03  0.7818608E-02  0.9371350E-01
         -2   -1    0    0    0  501 -0.00000000000E+00  0.00000000000E+00  0.64880794412E+03  0.64880794412E+03  0.00000000000E+00 0.  1.
          2   -1    0    0  501    0  0.00000000000E+00 -0.00000000000E+00 -0.15753983904E+04  0.15753983904E+04  0.00000000000E+00 0. -1.
         23    2    1    2    0    0 -0.86612753516E+03 -0.30415130604E+03 -0.36447381580E+03  0.99182695819E+03  0.90524187153E+02 0.  0.
    5000000    2    1    2    0    0  0.86612753516E+03  0.30415130604E+03 -0.56211663051E+03  0.12323793764E+04  0.60008240838E+03 0.  0.
         23    2    4    4    0    0  0.53206338146E+02  0.65758779631E+02 -0.32596994276E+03  0.34846491044E+03  0.89533561889E+02 0.  0.
         23    2    4    4    0    0  0.81292119702E+03  0.23839252641E+03 -0.23614668775E+03  0.88391446592E+03  0.88699806804E+02 0.  0.
          5    1    3    3  502    0 -0.54320517423E+03 -0.19040491962E+03 -0.27490605531E+03  0.63790385167E+03  0.47000000000E+01 0. -1.
         -5    1    3    3    0  502 -0.32292236093E+03 -0.11374638642E+03 -0.89567760498E+02  0.35392310652E+03  0.47000000000E+01 0.  1.
         11    1    5    5    0    0 -0.25416492562E+02  0.18128038643E+02 -0.85910893235E+02  0.91407359964E+02  0.00000000000E+00 0. -1.
        -11    1    5    5    0    0  0.78622830708E+02  0.47630740987E+02 -0.24005904953E+03  0.25705755048E+03  0.00000000000E+00 0.  1.
          4    1    6    6  503    0  0.65653386197E+03  0.17457611586E+03 -0.15635261871E+03  0.69710807880E+03  0.00000000000E+00 0. -1.
         -4    1    6    6    0  503  0.15638733504E+03  0.63816410550E+02 -0.79794069041E+02  0.18680638713E+03  0.00000000000E+00 0.  1.
<mgrwt>
<rscale>  0 0.94471465E+03</rscale>
<asrwt>0</asrwt>
<pdfrwt beam="1">  1        2 0.24236899E+00 0.94471465E+03</pdfrwt>
<pdfrwt beam="2">  1       -2 0.99816606E-01 0.94471465E+03</pdfrwt>
<totfact> 0.95683684E+00</totfact>
</mgrwt>
</event>
<event>
12    1  0.3147868E-008  0.9230261E+03  0.7818608E-02  0.9397247E-01
         -1   -1    0    0    0  501 -0.00000000000E+00  0.00000000000E+00  0.23295359006E+04  0.23295359006E+04  0.00000000000E+00 0.  1.
          1   -1    0    0  501    0  0.00000000000E+00 -0.00000000000E+00 -0.87014246193E+03  0.87014246193E+03  0.00000000000E+00 0. -1.
         23    2    1    2    0    0  0.43867193509E+03 -0.78347113785E+03 -0.44817843978E+03  0.10076477103E+04  0.90718816792E+02 0.  0.
    5000000    2    1    2    0    0 -0.43867193509E+03  0.78347113785E+03  0.19075718784E+04  0.21920306522E+04  0.59992317702E+03 0.  0.
         23    2    4    4    0    0 -0.23518812863E+03  0.20442340495E+03  0.22018948055E+03  0.39418664107E+03  0.98981393776E+02 0.  0.
         23    2    4    4    0    0 -0.20348380646E+03  0.57904773290E+03  0.16873823979E+04  0.17978440111E+04  0.91004369074E+02 0.  0.
          5    1    3    3  502    0  0.24893902206E+03 -0.35248625949E+03 -0.21704862119E+03  0.48306251541E+03  0.47000000000E+01 0. -1.
         -5    1    3    3    0  502  0.18973291303E+03 -0.43098487837E+03 -0.23112981859E+03  0.52458519490E+03  0.47000000000E+01 0.  1.
         11    1    5    5    0    0 -0.22331576883E+03  0.21521441886E+03  0.20298150310E+03  0.37065977567E+03  0.00000000000E+00 0.  1.
        -11    1    5    5    0    0 -0.11872359798E+02 -0.10791013903E+02  0.17207977442E+02  0.23526865407E+02  0.00000000000E+00 0. -1.
          1    1    6    6  503    0 -0.39046598656E+02  0.20660411729E+03  0.66216619312E+03  0.69474741126E+03  0.00000000000E+00 0. -1.
         -1    1    6    6    0  503 -0.16443720780E+03  0.37244361561E+03  0.10252162048E+04  0.11030965999E+04  0.00000000000E+00 0.  1.
<mgrwt>
<rscale>  0 0.92302609E+03</rscale>
<asrwt>0</asrwt>
<pdfrwt beam="1">  1        1 0.13386807E+00 0.92302609E+03</pdfrwt>
<pdfrwt beam="2">  1       -1 0.35839014E+00 0.92302609E+03</pdfrwt>
<totfact> 0.27252733E-01</totfact>
</mgrwt>
</event>
<event>
12    1  0.3147868E-008  0.7848756E+03  0.7818608E-02  0.9582171E-01
          1   -1    0    0  501    0  0.00000000000E+00  0.00000000000E+00  0.25483579458E+04  0.25483579458E+04  0.00000000000E+00 0. -1.
         -1   -1    0    0    0  501 -0.00000000000E+00 -0.00000000000E+00 -0.30898503710E+03  0.30898503710E+03  0.00000000000E+00 0.  1.
         23    2    1    2    0    0  0.73217607573E+03  0.26698584162E+03  0.11172536656E+04  0.13651896115E+04  0.90131441249E+02 0.  0.
    5000000    2    1    2    0    0 -0.73217607573E+03 -0.26698584162E+03  0.11221192431E+04  0.14921533714E+04  0.60000570198E+03 0.  0.
         23    2    4    4    0    0 -0.31619901867E+03 -0.14791303620E+03  0.94214818662E+02  0.37380341542E+03  0.94828664650E+02 0.  0.
         23    2    4    4    0    0 -0.41597705706E+03 -0.11907280542E+03  0.10279044244E+04  0.11183499559E+04  0.83089549047E+02 0.  0.
          5    1    3    3  502    0  0.40819874096E+03  0.19495670865E+03  0.62844698582E+03  0.77433974091E+03  0.47000000000E+01 0. -1.
         -5    1    3    3    0  502  0.32397733476E+03  0.72029132969E+02  0.48880667975E+03  0.59084987062E+03  0.47000000000E+01 0.  1.
         13    1    5    5    0    0 -0.56780989710E+02 -0.47200694423E+02 -0.14124529877E+02  0.75176383863E+02  0.00000000000E+00 0.  1.
        -13    1    5    5    0    0 -0.25941802896E+03 -0.10071234178E+03  0.10833934854E+03  0.29862703156E+03  0.00000000000E+00 0. -1.
          3    1    6    6  503    0 -0.38874472128E+03 -0.10503926916E+03  0.88661161511E+03  0.97377403048E+03  0.00000000000E+00 0. -1.
         -3    1    6    6    0  503 -0.27232335778E+02 -0.14033536259E+02  0.14129280934E+03  0.14457592546E+03  0.00000000000E+00 0.  1.
<mgrwt>
<rscale>  0 0.78487561E+03</rscale>
<asrwt>0</asrwt>
<pdfrwt beam="1">  1        1 0.39205505E+00 0.78487561E+03</pdfrwt>
<pdfrwt beam="2">  1       -1 0.47536161E-01 0.78487561E+03</pdfrwt>
<totfact> 0.58276922E+00</totfact>
</mgrwt>
</event>
<event>
12    1  0.3396144E-008  0.7375200E+03  0.7818608E-02  0.9655135E-01
         -2   -1    0    0    0  501 -0.00000000000E+00  0.00000000000E+00  0.30987698938E+03  0.30987698938E+03  0.00000000000E+00 0.  1.
          2   -1    0    0  501    0  0.00000000000E+00 -0.00000000000E+00 -0.22923206249E+04  0.22923206249E+04  0.00000000000E+00 0. -1.
         23    2    1    2    0    0  0.17834206715E+03 -0.61032948793E+03 -0.14310208676E+04  0.15686412664E+04  0.92231894514E+02 0.  0.
    5000000    2    1    2    0    0 -0.17834206715E+03  0.61032948793E+03 -0.55142276801E+03  0.10335563480E+04  0.59988638807E+03 0.  0.
         23    2    4    4    0    0 -0.92206309674E+02 -0.79634488485E+02 -0.18950431439E+02  0.15343218015E+03  0.91316262271E+02 0.  0.
         23    2    4    4    0    0 -0.86135757477E+02  0.68996397642E+03 -0.53247233657E+03  0.88012416781E+03  0.87304662488E+02 0.  0.
          5    1    3    3  502    0  0.13469308768E+03 -0.36060155606E+03 -0.77557158976E+03  0.86585743107E+03  0.47000000000E+01 0. -1.
         -5    1    3    3    0  502  0.43648979476E+02 -0.24972793187E+03 -0.65544927780E+03  0.70278383529E+03  0.47000000000E+01 0.  1.
         11    1    5    5    0    0 -0.55411985534E+02 -0.80056210825E+01  0.25423092217E+02  0.61489118774E+02  0.00000000000E+00 0. -1.
        -11    1    5    5    0    0 -0.36794324140E+02 -0.71628867403E+02 -0.44373523656E+02  0.91943061380E+02  0.00000000000E+00 0.  1.
          2    1    6    6  503    0 -0.70529000872E+02  0.24985961726E+03 -0.17764579102E+03  0.31458257321E+03  0.00000000000E+00 0. -1.
         -2    1    6    6    0  503 -0.15606756604E+02  0.44010435916E+03 -0.35482654555E+03  0.56554159460E+03  0.00000000000E+00 0.  1.
<mgrwt>
<rscale>  0 0.73752001E+03</rscale>
<asrwt>0</asrwt>
<pdfrwt beam="1">  1        2 0.35266472E+00 0.73752001E+03</pdfrwt>
<pdfrwt beam="2">  1       -2 0.47673382E-01 0.73752001E+03</pdfrwt>
<totfact> 0.19907070E+01</totfact>
</mgrwt>
</event>
<event>
12    1  0.3147868E-008  0.8549000E+03  0.7818608E-02  0.9483784E-01
          2   -1    0    0  501    0  0.00000000000E+00  0.00000000000E+00  0.79232285781E+03  0.79232285781E+03  0.00000000000E+00 0. -1.
         -2   -1    0    0    0  501 -0.00000000000E+00 -0.00000000000E+00 -0.10791437249E+04  0.10791437249E+04  0.00000000000E+00 0.  1.
         23    2    1    2    0    0  0.17406723523E+03 -0.74346094956E+03  0.18646735822E+03  0.79116954750E+03  0.90252929628E+02 0.  0.
    5000000    2    1    2    0    0 -0.17406723523E+03  0.74346094956E+03 -0.47328822534E+03  0.10802970352E+04  0.60000529514E+03 0.  0.
         23    2    4    4    0    0 -0.21630923666E+03  0.80081024326E+03 -0.48067348577E+03  0.96306167565E+03  0.91400544847E+02 0.  0.
         23    2    4    4    0    0  0.42242001427E+02 -0.57349293705E+02  0.73852604322E+01  0.11723535959E+03  0.92823807793E+02 0.  0.
          5    1    3    3  502    0  0.14929239406E+03 -0.55597342995E+03  0.10494216904E+03  0.58517486495E+03  0.47000000000E+01 0. -1.
         -5    1    3    3    0  502  0.24774841177E+02 -0.18748751961E+03  0.81525189186E+02  0.20599468254E+03  0.47000000000E+01 0.  1.
         13    1    5    5    0    0 -0.18551475322E+03  0.64727266873E+03 -0.34867828288E+03  0.75825732855E+03  0.00000000000E+00 0. -1.
        -13    1    5    5    0    0 -0.30794483440E+02  0.15353757453E+03 -0.13199520289E+03  0.20480434710E+03  0.00000000000E+00 0.  1.
          1    1    6    6  503    0 -0.11834451211E+02 -0.59717943270E+02  0.14662401204E+02  0.62620068612E+02  0.00000000000E+00 0. -1.
         -1    1    6    6    0  503  0.54076452638E+02  0.23686495652E+01 -0.72771407721E+01  0.54615290976E+02  0.00000000000E+00 0.  1.
<mgrwt>
<rscale>  0 0.85489995E+03</rscale>
<asrwt>0</asrwt>
<pdfrwt beam="1">  1        2 0.12189583E+00 0.85489995E+03</pdfrwt>
<pdfrwt beam="2">  1       -2 0.16602211E+00 0.85489995E+03</pdfrwt>
<totfact> 0.79867069E+00</totfact>
</mgrwt>
</event>
<event>
12    1  0.3147868E-008  0.1266553E+04  0.7818608E-02  0.9056517E-01
          2   -1    0    0  501    0  0.00000000000E+00  0.00000000000E+00  0.64139109726E+03  0.64139109726E+03  0.00000000000E+00 0.  1.
         -2   -1    0    0    0  501 -0.00000000000E+00 -0.00000000000E+00 -0.25946769138E+04  0.25946769138E+04  0.00000000000E+00 0. -1.
         23    2    1    2    0    0 -0.11937940151E+04 -0.24232367390E+03 -0.89009986916E+03  0.15114767562E+04  0.91756711400E+02 0.  0.
    5000000    2    1    2    0    0  0.11937940151E+04  0.24232367390E+03 -0.10631859474E+04  0.17245912549E+04  0.59998810338E+03 0.  0.
         23    2    4    4    0    0  0.51331252629E+03 -0.12819518836E+03 -0.64564085167E+03  0.83973943699E+03  0.91577599544E+02 0.  0.
         23    2    4    4    0    0  0.68048148881E+03  0.37051886226E+03 -0.41754509571E+03  0.88485181786E+03  0.90992025542E+02 0.  0.
          5    1    3    3  502    0 -0.68483595676E+03 -0.13342564923E+03 -0.56489091763E+03  0.89773410895E+03  0.47000000000E+01 0. -1.
         -5    1    3    3    0  502 -0.50895805833E+03 -0.10889802467E+03 -0.32520895154E+03  0.61374264727E+03  0.47000000000E+01 0.  1.
         13    1    5    5    0    0  0.18394134273E+03 -0.17752026971E+01 -0.23211030293E+03  0.29616340360E+03  0.00000000000E+00 0.  1.
        -13    1    5    5    0    0  0.32937118356E+03 -0.12641998566E+03 -0.41353054874E+03  0.54357603339E+03  0.00000000000E+00 0. -1.
          4    1    6    6  503    0  0.11099385646E+03  0.31525976299E+02 -0.40055840627E+02  0.12213923907E+03  0.00000000000E+00 0. -1.
         -4    1    6    6    0  503  0.56948763235E+03  0.33899288596E+03 -0.37748925508E+03  0.76271257878E+03  0.00000000000E+00 0.  1.
<mgrwt>
<rscale>  0 0.12665534E+04</rscale>
<asrwt>0</asrwt>
<pdfrwt beam="1">  1        2 0.98675554E-01 0.12665534E+04</pdfrwt>
<pdfrwt beam="2">  1       -2 0.39918106E+00 0.12665534E+04</pdfrwt>
<totfact> 0.33762482E-01</totfact>
</mgrwt>
</event>
<event>
12    1  0.3147868E-008  0.3519788E+03  0.7818608E-02  0.1061806E+00
          2   -1    0    0  501    0  0.00000000000E+00  0.00000000000E+00  0.26391014416E+04  0.26391014416E+04  0.00000000000E+00 0. -1.
         -2   -1    0    0    0  501 -0.00000000000E+00 -0.00000000000E+00 -0.12853452824E+03  0.12853452824E+03  0.00000000000E+00 0.  1.
         23    2    1    2    0    0 -0.12145736145E+03  0.25785444074E+03  0.16687124205E+04  0.16952823086E+04  0.90222837626E+02 0.  0.
    5000000    2    1    2    0    0  0.12145736145E+03 -0.25785444074E+03  0.84185449290E+03  0.10723536612E+04  0.59998548672E+03 0.  0.
         23    2    4    4    0    0 -0.70798842402E+02 -0.45140351575E+02  0.75066145342E+03  0.76077745317E+03  0.90772177372E+02 0.  0.
         23    2    4    4    0    0  0.19225620385E+03 -0.21271408916E+03  0.91193039481E+02  0.31157620805E+03  0.80955736846E+02 0.  0.
          5    1    3    3  502    0 -0.78982778917E+02  0.19413413672E+03  0.97152016244E+03  0.99388120942E+03  0.47000000000E+01 0. -1.
         -5    1    3    3    0  502 -0.42474582530E+02  0.63720304019E+02  0.69719225802E+03  0.70140109919E+03  0.47000000000E+01 0.  1.
         13    1    5    5    0    0 -0.43999348463E+01 -0.56022467622E+02  0.36168405088E+03  0.36602353608E+03  0.00000000000E+00 0.  1.
        -13    1    5    5    0    0 -0.66398907556E+02  0.10882116047E+02  0.38897740254E+03  0.39475391709E+03  0.00000000000E+00 0. -1.
          2    1    6    6  503    0  0.81319114584E+02 -0.13861549754E+03  0.74471944059E+02  0.17712460305E+03  0.00000000000E+00 0. -1.
         -2    1    6    6    0  503  0.11093708926E+03 -0.74098591626E+02  0.16721095422E+02  0.13445160500E+03  0.00000000000E+00 0.  1.
<mgrwt>
<rscale>  0 0.35197878E+03</rscale>
<asrwt>0</asrwt>
<pdfrwt beam="1">  1        2 0.40601556E+00 0.35197878E+03</pdfrwt>
<pdfrwt beam="2">  1       -2 0.19774545E-01 0.35197878E+03</pdfrwt>
<totfact> 0.70643517E+01</totfact>
</mgrwt>
</event>
<event>
12    1  0.3147868E-008  0.3193467E+04  0.7818608E-02  0.8190545E-01
          1   -1    0    0  501    0  0.00000000000E+00  0.00000000000E+00  0.24217670593E+04  0.24217670593E+04  0.00000000000E+00 0. -1.
         -1   -1    0    0    0  501 -0.00000000000E+00 -0.00000000000E+00 -0.43852781962E+04  0.43852781962E+04  0.00000000000E+00 0.  1.
         23    2    1    2    0    0  0.28314109885E+04  0.14225589102E+04 -0.16310144321E+04  0.35649879940E+04  0.91483774807E+02 0.  0.
    5000000    2    1    2    0    0 -0.28314109885E+04 -0.14225589102E+04 -0.33249670475E+03  0.32420572614E+04  0.59984930513E+03 0.  0.
         23    2    4    4    0    0 -0.10696433045E+04 -0.83979998664E+03 -0.60380225468E+02  0.13643658080E+04  0.91910118369E+02 0.  0.
         23    2    4    4    0    0 -0.17617676840E+04 -0.58275892355E+03 -0.27211647929E+03  0.18776914535E+04  0.90799123117E+02 0.  0.
          5    1    3    3  502    0  0.20853249975E+04  0.10031667206E+04 -0.11980002400E+04  0.26057917183E+04  0.47000000000E+01 0. -1.
         -5    1    3    3    0  502  0.74608599104E+03  0.41939218961E+03 -0.43301419213E+03  0.95919627570E+03  0.47000000000E+01 0.  1.
         11    1    5    5    0    0 -0.48851299134E+03 -0.39371239001E+03  0.17293020443E+02  0.62765710170E+03  0.00000000000E+00 0. -1.
        -11    1    5    5    0    0 -0.58113031319E+03 -0.44608759663E+03 -0.77673245911E+02  0.73670870628E+03  0.00000000000E+00 0.  1.
          2    1    6    6  503    0 -0.11086421933E+04 -0.40183958777E+03 -0.14420140379E+03  0.11880053080E+04  0.00000000000E+00 0. -1.
         -2    1    6    6    0  503 -0.65312549072E+03 -0.18091933578E+03 -0.12791507550E+03  0.68968614545E+03  0.00000000000E+00 0.  1.
<mgrwt>
<rscale>  0 0.31934667E+04</rscale>
<asrwt>0</asrwt>
<pdfrwt beam="1">  1        1 0.37257955E+00 0.31934667E+04</pdfrwt>
<pdfrwt beam="2">  1       -1 0.67465818E+00 0.31934667E+04</pdfrwt>
<totfact> 0.28768919E-04</totfact>
</mgrwt>
</event>
<event>
12    1  0.3147868E-008  0.8078273E+03  0.7818608E-02  0.9548756E-01
         -2   -1    0    0    0  501 -0.00000000000E+00  0.00000000000E+00  0.38322975563E+03  0.38322975563E+03  0.00000000000E+00 0.  1.
          2   -1    0    0  501    0  0.00000000000E+00 -0.00000000000E+00 -0.22313480246E+04  0.22313480246E+04  0.00000000000E+00 0. -1.
         23    2    1    2    0    0  0.70245501552E+03 -0.35700842759E+03 -0.11724801668E+04  0.14156626602E+04  0.92157256287E+02 0.  0.
    5000000    2    1    2    0    0 -0.70245501552E+03  0.35700842759E+03 -0.67563810213E+03  0.11989151199E+04  0.60001046122E+03 0.  0.
         23    2    4    4    0    0 -0.13841954236E+03 -0.16961893217E+02 -0.45032242813E+03  0.48012740951E+03  0.91018484684E+02 0.  0.
         23    2    4    4    0    0 -0.56403547316E+03  0.37397032081E+03 -0.22531567399E+03  0.71878771043E+03  0.88875215233E+02 0.  0.
          5    1    3    3  502    0  0.21085047800E+03 -0.15526606648E+03 -0.38049411499E+03  0.46191269415E+03  0.47000000000E+01 0. -1.
         -5    1    3    3    0  502  0.49160453752E+03 -0.20174236111E+03 -0.79198605181E+03  0.95374996610E+03  0.47000000000E+01 0.  1.
         13    1    5    5    0    0 -0.49504595726E+01 -0.33419273346E+01  0.34770975446E+01  0.69112759766E+01  0.00000000000E+00 0.  1.
        -13    1    5    5    0    0 -0.13346908278E+03 -0.13619965883E+02 -0.45379952568E+03  0.47321613353E+03  0.00000000000E+00 0. -1.
          3    1    6    6  503    0 -0.24782625172E+03  0.11367334865E+03 -0.78902508382E+02  0.28383989688E+03  0.00000000000E+00 0. -1.
         -3    1    6    6    0  503 -0.31620922145E+03  0.26029697216E+03 -0.14641316561E+03  0.43494781355E+03  0.00000000000E+00 0.  1.
<mgrwt>
<rscale>  0 0.80782734E+03</rscale>
<asrwt>0</asrwt>
<pdfrwt beam="1">  1        2 0.34328431E+00 0.80782734E+03</pdfrwt>
<pdfrwt beam="2">  1       -2 0.58958424E-01 0.80782734E+03</pdfrwt>
<totfact> 0.13747840E+01</totfact>
</mgrwt>
</event>
<event>
12    1  0.3147868E-008  0.6235795E+03  0.7818608E-02  0.9857659E-01
          2   -1    0    0  501    0  0.00000000000E+00  0.00000000000E+00  0.13109713660E+04  0.13109713660E+04  0.00000000000E+00 0. -1.
         -2   -1    0    0    0  501 -0.00000000000E+00 -0.00000000000E+00 -0.33637666288E+03  0.33637666288E+03  0.00000000000E+00 0.  1.
         23    2    1    2    0    0 -0.42986958441E+03 -0.28659818802E+03  0.28008947755E+03  0.59407668503E+03  0.86894253483E+02 0.  0.
    5000000    2    1    2    0    0  0.42986958441E+03  0.28659818802E+03  0.69450522555E+03  0.10532713438E+04  0.60009718749E+03 0.  0.
         23    2    4    4    0    0  0.50017831996E+03  0.93913476737E+02  0.29679291086E+03  0.59630224111E+03  0.92153339338E+02 0.  0.
         23    2    4    4    0    0 -0.70308735549E+02  0.19268471128E+03  0.39771231469E+03  0.45696910272E+03  0.92601076265E+02 0.  0.
          5    1    3    3  502    0 -0.12376009214E+03 -0.92894139271E+02  0.12914431715E+03  0.20160909248E+03  0.47000000000E+01 0. -1.
         -5    1    3    3    0  502 -0.30610949226E+03 -0.19370404875E+03  0.15094516040E+03  0.39246759255E+03  0.47000000000E+01 0.  1.
         13    1    5    5    0    0  0.23407596140E+03 -0.24929715551E+01  0.13950348950E+03  0.27250503517E+03  0.00000000000E+00 0. -1.
        -13    1    5    5    0    0  0.26610235856E+03  0.96406448292E+02  0.15728942136E+03  0.32379720594E+03  0.00000000000E+00 0.  1.
          4    1    6    6  503    0 -0.69218819790E+02  0.10814599961E+03  0.30801653654E+03  0.33370793971E+03  0.00000000000E+00 0. -1.
         -4    1    6    6    0  503 -0.10899157583E+01  0.84538711671E+02  0.89695778153E+02  0.12326116301E+03  0.00000000000E+00 0.  1.
<mgrwt>
<rscale>  0 0.62357947E+03</rscale>
<asrwt>0</asrwt>
<pdfrwt beam="1">  1        2 0.20168790E+00 0.62357947E+03</pdfrwt>
<pdfrwt beam="2">  1       -2 0.51750256E-01 0.62357947E+03</pdfrwt>
<totfact> 0.59289141E+01</totfact>
</mgrwt>
</event>
<event>
12    1  0.3147868E-008  0.1451036E+04  0.7818608E-02  0.8917683E-01
          2   -1    0    0  501    0  0.00000000000E+00  0.00000000000E+00  0.16889925736E+04  0.16889925736E+04  0.00000000000E+00 0.  1.
         -2   -1    0    0    0  501 -0.00000000000E+00 -0.00000000000E+00 -0.13886756000E+04  0.13886756000E+04  0.00000000000E+00 0. -1.
         23    2    1    2    0    0  0.13496311125E+04  0.49737056777E+03  0.45566688182E+03  0.15115345472E+04  0.90679427879E+02 0.  0.
    5000000    2    1    2    0    0 -0.13496311125E+04 -0.49737056777E+03 -0.15534990818E+03  0.15661336264E+04  0.59979940015E+03 0.  0.
         23    2    4    4    0    0 -0.92921303328E+02 -0.85078445754E+02  0.13840527669E+03  0.20834296774E+03  0.91531748845E+02 0.  0.
         23    2    4    4    0    0 -0.12567098091E+04 -0.41229212202E+03 -0.29375518486E+03  0.13577906587E+04  0.89437273691E+02 0.  0.
          5    1    3    3  502    0  0.10991100811E+04  0.39079967902E+03  0.40315693952E+03  0.12342305163E+04  0.47000000000E+01 0. -1.
         -5    1    3    3    0  502  0.25052103134E+03  0.10657088876E+03  0.52509942299E+02  0.27730403083E+03  0.47000000000E+01 0.  1.
         11    1    5    5    0    0  0.61622585431E+01  0.35162696182E+01  0.45804549705E+02  0.46350775139E+02  0.00000000000E+00 0. -1.
        -11    1    5    5    0    0 -0.99083561871E+02 -0.88594715372E+02  0.92600726981E+02  0.16199219260E+03  0.00000000000E+00 0.  1.
          4    1    6    6  503    0 -0.74306629977E+03 -0.26491355214E+03 -0.21499467875E+03  0.81764871910E+03  0.00000000000E+00 0. -1.
         -4    1    6    6    0  503 -0.51364350937E+03 -0.14737856988E+03 -0.78760506115E+02  0.54014193958E+03  0.00000000000E+00 0.  1.
<mgrwt>
<rscale>  0 0.14510361E+04</rscale>
<asrwt>0</asrwt>
<pdfrwt beam="1">  1        2 0.25984501E+00 0.14510361E+04</pdfrwt>
<pdfrwt beam="2">  1       -2 0.21364240E+00 0.14510361E+04</pdfrwt>
<totfact> 0.10192116E+00</totfact>
</mgrwt>
</event>
<event>
12    1  0.3147868E-008  0.1857306E+04  0.7818608E-02  0.8676405E-01
         -2   -1    0    0    0  501 -0.00000000000E+00  0.00000000000E+00  0.19779949594E+04  0.19779949594E+04  0.00000000000E+00 0.  1.
          2   -1    0    0  501    0  0.00000000000E+00 -0.00000000000E+00 -0.31018393454E+04  0.31018393454E+04  0.00000000000E+00 0. -1.
         23    2    1    2    0    0  0.18087112238E+04 -0.26198253943E+03 -0.22114028228E+04  0.28700730400E+04  0.83340676878E+02 0.  0.
    5000000    2    1    2    0    0 -0.18087112238E+04  0.26198253943E+03  0.10875584368E+04  0.22097612648E+04  0.60015860553E+03 0.  0.
         23    2    4    4    0    0 -0.85544853019E+03 -0.96167330019E+02  0.28863367787E+03  0.91282243094E+03  0.94313558206E+02 0.  0.
         23    2    4    4    0    0 -0.95326269356E+03  0.35814986945E+03  0.79892475897E+03  0.12969388338E+04  0.82392209817E+02 0.  0.
          5    1    3    3  502    0  0.15812157785E+04 -0.25186686207E+03 -0.19120356415E+04  0.24939091080E+04  0.47000000000E+01 0. -1.
         -5    1    3    3    0  502  0.22749544521E+03 -0.10115677358E+02 -0.29936718127E+03  0.37616393201E+03  0.47000000000E+01 0.  1.
         11    1    5    5    0    0 -0.67866434702E+03 -0.45535123845E+02  0.25164359930E+03  0.72524702308E+03  0.00000000000E+00 0. -1.
        -11    1    5    5    0    0 -0.17678418318E+03 -0.50632206174E+02  0.36990078567E+02  0.18757540786E+03  0.00000000000E+00 0.  1.
          1    1    6    6  503    0 -0.85961426934E+03  0.34808904644E+03  0.72879541489E+03  0.11795106753E+04  0.00000000000E+00 0. -1.
         -1    1    6    6    0  503 -0.93648424217E+02  0.10060823009E+02  0.70129344077E+02  0.11742815854E+03  0.00000000000E+00 0.  1.
<mgrwt>
<rscale>  0 0.18573060E+04</rscale>
<asrwt>0</asrwt>
<pdfrwt beam="1">  1        2 0.47720605E+00 0.18573060E+04</pdfrwt>
<pdfrwt beam="2">  1       -2 0.30430692E+00 0.18573060E+04</pdfrwt>
<totfact> 0.40334394E-02</totfact>
</mgrwt>
</event>
<event>
12    1  0.3147868E-008  0.4874700E+03  0.7818608E-02  0.1017102E+00
         -2   -1    0    0    0  501 -0.00000000000E+00  0.00000000000E+00  0.55297101044E+03  0.55297101044E+03  0.00000000000E+00 0.  1.
          2   -1    0    0  501    0  0.00000000000E+00 -0.00000000000E+00 -0.12537202427E+04  0.12537202427E+04  0.00000000000E+00 0. -1.
         23    2    1    2    0    0  0.30433887661E+02 -0.45157682375E+03 -0.91492141686E+03  0.10248598462E+04  0.91698724390E+02 0.  0.
    5000000    2    1    2    0    0 -0.30433887661E+02  0.45157682375E+03  0.21417218462E+03  0.78183140693E+03  0.60045214208E+03 0.  0.
         23    2    4    4    0    0 -0.99945391822E+02  0.33731139828E+03  0.39696673876E+03  0.53844534296E+03  0.92589064774E+02 0.  0.
         23    2    4    4    0    0  0.69511504161E+02  0.11426542547E+03 -0.18279455414E+03  0.24338606397E+03  0.89075756769E+02 0.  0.
          5    1    3    3  502    0 -0.23852819574E+02 -0.63541882145E+02 -0.10473813915E+03  0.12489473800E+03  0.47000000000E+01 0. -1.
         -5    1    3    3    0  502  0.54286707236E+02 -0.38803494160E+03 -0.81018327772E+03  0.89996510820E+03  0.47000000000E+01 0.  1.
         13    1    5    5    0    0  0.16218157607E-01  0.75232348594E+02  0.13549801185E+03  0.15498263694E+03  0.00000000000E+00 0.  1.
        -13    1    5    5    0    0 -0.99961609980E+02  0.26207904969E+03  0.26146872691E+03  0.38346270602E+03  0.00000000000E+00 0. -1.
          1    1    6    6  503    0  0.67706665498E+02  0.12836212169E+03 -0.15606584633E+03  0.21311399585E+03  0.00000000000E+00 0. -1.
         -1    1    6    6    0  503  0.18048386627E+01 -0.14096696221E+02 -0.26728707813E+02  0.30272068121E+02  0.00000000000E+00 0.  1.
<mgrwt>
<rscale>  0 0.48746996E+03</rscale>
<asrwt>0</asrwt>
<pdfrwt beam="1">  1        2 0.19288004E+00 0.48746996E+03</pdfrwt>
<pdfrwt beam="2">  1       -2 0.85072464E-01 0.48746996E+03</pdfrwt>
<totfact> 0.22384141E+01</totfact>
</mgrwt>
</event>
<event>
12    1  0.3147868E-008  0.5886532E+03  0.7818608E-02  0.9929231E-01
         -3   -1    0    0    0  501 -0.00000000000E+00  0.00000000000E+00  0.34784658332E+03  0.34784658332E+03  0.00000000000E+00 0.  1.
          3   -1    0    0  501    0  0.00000000000E+00 -0.00000000000E+00 -0.13934630844E+04  0.13934630844E+04  0.00000000000E+00 0. -1.
         23    2    1    2    0    0 -0.20494364440E+03 -0.41430975208E+03 -0.82867440476E+03  0.95327038168E+03  0.91480508494E+02 0.  0.
    5000000    2    1    2    0    0  0.20494364440E+03  0.41430975208E+03 -0.21694209628E+03  0.78803928601E+03  0.60023959808E+03 0.  0.
         23    2    4    4    0    0  0.34099061122E+03  0.11247240340E+03  0.19506527461E+02  0.37041276007E+03  0.88884586667E+02 0.  0.
         23    2    4    4    0    0 -0.13604696681E+03  0.30183734868E+03 -0.23644862374E+03  0.41762652593E+03  0.94283621350E+02 0.  0.
          5    1    3    3  502    0 -0.11561516185E+03 -0.27008645174E+03 -0.43917503707E+03  0.52840359598E+03  0.47000000000E+01 0. -1.
         -5    1    3    3    0  502 -0.89328482557E+02 -0.14422330034E+03 -0.38949936769E+03  0.42486678570E+03  0.47000000000E+01 0.  1.
         13    1    5    5    0    0  0.18966329259E+03  0.16405715999E+02  0.17277307681E+02  0.19115391033E+03  0.00000000000E+00 0.  1.
        -13    1    5    5    0    0  0.15132731863E+03  0.96066687396E+02  0.22292197806E+01  0.17925884974E+03  0.00000000000E+00 0. -1.
          2    1    6    6  503    0  0.61581533574E+01  0.82608651453E+02 -0.52752606299E+02  0.98208704395E+02  0.00000000000E+00 0. -1.
         -2    1    6    6    0  503 -0.14220512017E+03  0.21922869723E+03 -0.18369601744E+03  0.31941782154E+03  0.00000000000E+00 0.  1.
<mgrwt>
<rscale>  0 0.58865320E+03</rscale>
<asrwt>0</asrwt>
<pdfrwt beam="1">  1        3 0.21437893E+00 0.58865320E+03</pdfrwt>
<pdfrwt beam="2">  1       -3 0.53514859E-01 0.58865320E+03</pdfrwt>
<totfact> 0.10948387E+00</totfact>
</mgrwt>
</event>
<event>
12    1  0.3147868E-008  0.1280877E+04  0.7818608E-02  0.9044868E-01
          1   -1    0    0  501    0  0.00000000000E+00  0.00000000000E+00  0.12611864429E+04  0.12611864429E+04  0.00000000000E+00 0. -1.
         -1   -1    0    0    0  501 -0.00000000000E+00 -0.00000000000E+00 -0.16231067992E+04  0.16231067992E+04  0.00000000000E+00 0.  1.
         23    2    1    2    0    0  0.45886087786E+03  0.11837446273E+04 -0.68218052178E+03  0.14440964504E+04  0.90772495340E+02 0.  0.
    5000000    2    1    2    0    0 -0.45886087786E+03 -0.11837446273E+04  0.32026016549E+03  0.14401967917E+04  0.59982962359E+03 0.  0.
         23    2    4    4    0    0 -0.46089330336E+03 -0.11482591302E+04  0.15968567774E+03  0.12507416167E+04  0.89069685461E+02 0.  0.
         23    2    4    4    0    0  0.20324255014E+01 -0.35485497098E+02  0.16057448774E+03  0.18945517501E+03  0.94051825954E+02 0.  0.
          5    1    3    3  502    0  0.97831904973E+02  0.31519113583E+03 -0.21447158312E+03  0.39361997370E+03  0.47000000000E+01 0. -1.
         -5    1    3    3    0  502  0.36102897289E+03  0.86855349152E+03 -0.46770893866E+03  0.10504764767E+04  0.47000000000E+01 0.  1.
         11    1    5    5    0    0 -0.41623461509E+03 -0.10126940692E+04  0.16826914692E+03  0.11077522460E+04  0.00000000000E+00 0.  1.
        -11    1    5    5    0    0 -0.44658688269E+02 -0.13556506101E+03 -0.85834691785E+01  0.14298937075E+03  0.00000000000E+00 0. -1.
          4    1    6    6  503    0  0.87275569358E+01  0.65366839160E+01 -0.93005521577E+01  0.14331739501E+02  0.00000000000E+00 0. -1.
         -4    1    6    6    0  503 -0.66951314344E+01 -0.42022181014E+02  0.16987503990E+03  0.17512343551E+03  0.00000000000E+00 0.  1.
<mgrwt>
<rscale>  0 0.12808774E+04</rscale>
<asrwt>0</asrwt>
<pdfrwt beam="1">  1        1 0.19402868E+00 0.12808774E+04</pdfrwt>
<pdfrwt beam="2">  1       -1 0.24970874E+00 0.12808774E+04</pdfrwt>
<totfact> 0.65603124E-01</totfact>
</mgrwt>
</event>
<event>
12    1  0.3147868E-008  0.8132051E+03  0.7818608E-02  0.9541098E-01
         -1   -1    0    0    0  501 -0.00000000000E+00  0.00000000000E+00  0.20486562392E+04  0.20486562392E+04  0.00000000000E+00 0.  1.
          1   -1    0    0  501    0  0.00000000000E+00 -0.00000000000E+00 -0.38928211675E+03  0.38928211675E+03  0.00000000000E+00 0. -1.
         23    2    1    2    0    0  0.30212950019E+03 -0.64899713756E+03  0.28396115992E+03  0.77542017223E+03  0.90349231956E+02 0.  0.
    5000000    2    1    2    0    0 -0.30212950019E+03  0.64899713756E+03  0.13754129625E+04  0.16625181837E+04  0.59977193523E+03 0.  0.
         23    2    4    4    0    0 -0.20549280974E+03 -0.36930321799E+02  0.42779763650E+03  0.48497742387E+03  0.92742333078E+02 0.  0.
         23    2    4    4    0    0 -0.96636690450E+02  0.68592745936E+03  0.94761532605E+03  0.11775407599E+04  0.93767294717E+02 0.  0.
          5    1    3    3  502    0  0.19004549109E+03 -0.32855516475E+03  0.11793286124E+03  0.39748715040E+03  0.47000000000E+01 0. -1.
         -5    1    3    3    0  502  0.11208400910E+03 -0.32044197280E+03  0.16602829868E+03  0.37793302184E+03  0.47000000000E+01 0.  1.
         11    1    5    5    0    0 -0.15467828651E+03 -0.48951018635E+02  0.23734672870E+03  0.28749790289E+03  0.00000000000E+00 0. -1.
        -11    1    5    5    0    0 -0.50814523233E+02  0.12020696836E+02  0.19045090780E+03  0.19747952098E+03  0.00000000000E+00 0.  1.
          1    1    6    6  503    0 -0.69247267177E+02  0.53474366990E+03  0.66776140132E+03  0.85828390734E+03  0.00000000000E+00 0. -1.
         -1    1    6    6    0  503 -0.27389423274E+02  0.15118378946E+03  0.27985392473E+03  0.31925685253E+03  0.00000000000E+00 0.  1.
<mgrwt>
<rscale>  0 0.81320506E+03</rscale>
<asrwt>0</asrwt>
<pdfrwt beam="1">  1        1 0.59889558E-01 0.81320506E+03</pdfrwt>
<pdfrwt beam="2">  1       -1 0.31517788E+00 0.81320506E+03</pdfrwt>
<totfact> 0.17082101E+00</totfact>
</mgrwt>
</event>
<event>
12    1  0.3147868E-008  0.1110695E+04  0.7818608E-02  0.9194830E-01
         -1   -1    0    0    0  501 -0.00000000000E+00  0.00000000000E+00  0.11292060359E+04  0.11292060359E+04  0.00000000000E+00 0.  1.
          1   -1    0    0  501    0  0.00000000000E+00 -0.00000000000E+00 -0.11045270394E+04  0.11045270394E+04  0.00000000000E+00 0. -1.
         23    2    1    2    0    0  0.82516796596E+03  0.62311338035E+03  0.20160683442E+02  0.10382571466E+04  0.91646017401E+02 0.  0.
    5000000    2    1    2    0    0 -0.82516796596E+03 -0.62311338035E+03  0.45183130423E+01  0.11954759287E+04  0.59997485291E+03 0.  0.
         23    2    4    4    0    0 -0.52609925423E+03 -0.68681734655E+03 -0.47455885919E+02  0.87118931137E+03  0.90665662261E+02 0.  0.
         23    2    4    4    0    0 -0.29906871173E+03  0.63703966191E+02  0.51974198962E+02  0.32428661733E+03  0.94658349761E+02 0.  0.
          5    1    3    3  502    0  0.23153363626E+03  0.19122921935E+03  0.45127150253E+02  0.30370213820E+03  0.47000000000E+01 0. -1.
         -5    1    3    3    0  502  0.59363432970E+03  0.43188416100E+03 -0.24966466811E+02  0.73455500841E+03  0.47000000000E+01 0.  1.
         13    1    5    5    0    0 -0.22410633023E+03 -0.22762116096E+03 -0.36194622386E+02  0.32147331282E+03  0.00000000000E+00 0. -1.
        -13    1    5    5    0    0 -0.30199292401E+03 -0.45919618558E+03 -0.11261263533E+02  0.54971599855E+03  0.00000000000E+00 0.  1.
          2    1    6    6  503    0 -0.22130753005E+03  0.65691487558E+01  0.53511609864E+02  0.22777986953E+03  0.00000000000E+00 0. -1.
         -2    1    6    6    0  503 -0.77761181681E+02  0.57134817435E+02 -0.15374109020E+01  0.96506747806E+02  0.00000000000E+00 0.  1.
<mgrwt>
<rscale>  0 0.11106953E+04</rscale>
<asrwt>0</asrwt>
<pdfrwt beam="1">  1        1 0.16992724E+00 0.11106953E+04</pdfrwt>
<pdfrwt beam="2">  1       -1 0.17372401E+00 0.11106953E+04</pdfrwt>
<totfact> 0.28789477E+00</totfact>
</mgrwt>
</event>
<event>
12    1  0.3147868E-008  0.9298338E+03  0.7818608E-02  0.9389037E-01
         -1   -1    0    0    0  501 -0.00000000000E+00  0.00000000000E+00  0.44946922018E+03  0.44946922018E+03  0.00000000000E+00 0.  1.
          1   -1    0    0  501    0  0.00000000000E+00 -0.00000000000E+00 -0.25238915785E+04  0.25238915785E+04  0.00000000000E+00 0. -1.
         23    2    1    2    0    0  0.82717804483E+03 -0.23303119210E+03 -0.16093830613E+04  0.18267135599E+04  0.90782915949E+02 0.  0.
    5000000    2    1    2    0    0 -0.82717804483E+03  0.23303119210E+03 -0.46503929700E+03  0.11466472387E+04  0.60000940652E+03 0.  0.
         23    2    4    4    0    0 -0.10627594442E+03 -0.13322350764E+03  0.28016280659E+02  0.19529563051E+03  0.91172320174E+02 0.  0.
         23    2    4    4    0    0 -0.72090210041E+03  0.36625469973E+03 -0.49305557766E+03  0.95135160818E+03  0.90131771721E+02 0.  0.
          5    1    3    3  502    0  0.21411527495E+03 -0.70017156727E+02 -0.50731535484E+03  0.55510243420E+03  0.47000000000E+01 0. -1.
         -5    1    3    3    0  502  0.61306276988E+03 -0.16301403537E+03 -0.11020677064E+04  0.12716111257E+04  0.47000000000E+01 0.  1.
         13    1    5    5    0    0 -0.44244865885E+01 -0.72752538030E+02 -0.26673389050E+01  0.72935742734E+02  0.00000000000E+00 0.  1.
        -13    1    5    5    0    0 -0.10185145783E+03 -0.60470969609E+02  0.30683619564E+02  0.12235988778E+03  0.00000000000E+00 0. -1.
          3    1    6    6  503    0 -0.35967427179E+03  0.18597424702E+03 -0.19430063971E+03  0.44911550956E+03  0.00000000000E+00 0. -1.
         -3    1    6    6    0  503 -0.36122782862E+03  0.18028045271E+03 -0.29875493795E+03  0.50223609861E+03  0.00000000000E+00 0.  1.
<mgrwt>
<rscale>  0 0.92983377E+03</rscale>
<asrwt>0</asrwt>
<pdfrwt beam="1">  1        1 0.38829101E+00 0.92983377E+03</pdfrwt>
<pdfrwt beam="2">  1       -1 0.69149111E-01 0.92983377E+03</pdfrwt>
<totfact> 0.28414188E+00</totfact>
</mgrwt>
</event>
<event>
12    1  0.3147868E-008  0.2797412E+03  0.7818608E-02  0.1095830E+00
         -1   -1    0    0    0  501 -0.00000000000E+00  0.00000000000E+00  0.16270709974E+03  0.16270709974E+03  0.00000000000E+00 0.  1.
          1   -1    0    0  501    0  0.00000000000E+00 -0.00000000000E+00 -0.11442588922E+04  0.11442588922E+04  0.00000000000E+00 0. -1.
         23    2    1    2    0    0  0.16569608853E+03  0.12531192284E+03 -0.27560349045E+03  0.35753092602E+03  0.93342419906E+02 0.  0.
    5000000    2    1    2    0    0 -0.16569608853E+03 -0.12531192284E+03 -0.70594830198E+03  0.94943506588E+03  0.59992138444E+03 0.  0.
         23    2    4    4    0    0 -0.23187794406E+03 -0.10530441692E+03 -0.77097758680E+03  0.81756692671E+03  0.95670471660E+02 0.  0.
         23    2    4    4    0    0  0.66181855533E+02 -0.20007505916E+02  0.65029284819E+02  0.13186813917E+03  0.91542667367E+02 0.  0.
          5    1    3    3  502    0  0.12472458368E+03  0.43530396824E+02 -0.19465427933E+03  0.23529448715E+03  0.47000000000E+01 0. -1.
         -5    1    3    3    0  502  0.40971504846E+02  0.81781526012E+02 -0.80949211120E+02  0.12223643887E+03  0.47000000000E+01 0.  1.
         11    1    5    5    0    0 -0.19053375697E+03 -0.11621255445E+03 -0.57092566071E+03  0.61299639510E+03  0.00000000000E+00 0. -1.
        -11    1    5    5    0    0 -0.41344187098E+02  0.10908137533E+02 -0.20005192609E+03  0.20457053161E+03  0.00000000000E+00 0.  1.
          3    1    6    6  503    0  0.18406102804E+02 -0.12732980076E+01  0.76994408501E+02  0.79174142551E+02  0.00000000000E+00 0. -1.
         -3    1    6    6    0  503  0.47775752729E+02 -0.18734207908E+02 -0.11965123681E+02  0.52693996617E+02  0.00000000000E+00 0.  1.
<mgrwt>
<rscale>  0 0.27974117E+03</rscale>
<asrwt>0</asrwt>
<pdfrwt beam="1">  1        1 0.17603983E+00 0.27974117E+03</pdfrwt>
<pdfrwt beam="2">  1       -1 0.25031861E-01 0.27974117E+03</pdfrwt>
<totfact> 0.17560883E+02</totfact>
</mgrwt>
</event>
<event>
12    1  0.3147868E-008  0.6401244E+03  0.7818608E-02  0.9825488E-01
         -1   -1    0    0    0  501 -0.00000000000E+00  0.00000000000E+00  0.22914973289E+03  0.22914973289E+03  0.00000000000E+00 0.  1.
          1   -1    0    0  501    0  0.00000000000E+00 -0.00000000000E+00 -0.19098234784E+04  0.19098234784E+04  0.00000000000E+00 0. -1.
         23    2    1    2    0    0  0.30442341957E+03 -0.40014231214E+03 -0.89224461009E+03  0.10279674319E+04  0.88482248980E+02 0.  0.
    5000000    2    1    2    0    0 -0.30442341957E+03  0.40014231214E+03 -0.78842913546E+03  0.11110057795E+04  0.59993820682E+03 0.  0.
         23    2    4    4    0    0 -0.35989059718E+03  0.88887798530E+01 -0.30865900430E+03  0.48276183413E+03  0.90489530905E+02 0.  0.
         23    2    4    4    0    0  0.55467177615E+02  0.39125353229E+03 -0.47977013116E+03  0.62824394534E+03  0.91406464644E+02 0.  0.
          5    1    3    3  502    0  0.60061540209E+02 -0.34468107171E+02 -0.14810580060E+03  0.16356300680E+03  0.47000000000E+01 0. -1.
         -5    1    3    3    0  502  0.24436187936E+03 -0.36567420497E+03 -0.74413880949E+03  0.86440442506E+03  0.47000000000E+01 0.  1.
         13    1    5    5    0    0 -0.25642310359E+03  0.41169586779E+02 -0.24516833540E+03  0.35714878638E+03  0.00000000000E+00 0.  1.
        -13    1    5    5    0    0 -0.10346749359E+03 -0.32280806926E+02 -0.63490668903E+02  0.12561304774E+03  0.00000000000E+00 0. -1.
          2    1    6    6  503    0 -0.24575546744E+01  0.25306797218E+03 -0.26564935689E+03  0.36690464556E+03  0.00000000000E+00 0. -1.
         -2    1    6    6    0  503  0.57924732290E+02  0.13818556011E+03 -0.21412077428E+03  0.26133929978E+03  0.00000000000E+00 0.  1.
<mgrwt>
<rscale>  0 0.64012443E+03</rscale>
<asrwt>0</asrwt>
<pdfrwt beam="1">  1        1 0.29381901E+00 0.64012443E+03</pdfrwt>
<pdfrwt beam="2">  1       -1 0.35253803E-01 0.64012443E+03</pdfrwt>
<totfact> 0.27688457E+01</totfact>
</mgrwt>
</event>
<event>
12    1  0.3147868E-008  0.4314684E+03  0.7818608E-02  0.1033397E+00
          1   -1    0    0  501    0  0.00000000000E+00  0.00000000000E+00  0.38592804336E+04  0.38592804336E+04  0.00000000000E+00 0. -1.
         -1   -1    0    0    0  501 -0.00000000000E+00 -0.00000000000E+00 -0.10374194852E+03  0.10374194852E+03  0.00000000000E+00 0.  1.
         23    2    1    2    0    0  0.39987014889E+03  0.84726449081E+02  0.22854852903E+04  0.23235224280E+04  0.90767583461E+02 0.  0.
    5000000    2    1    2    0    0 -0.39987014889E+03 -0.84726449081E+02  0.14700531948E+04  0.16394999541E+04  0.59985748043E+03 0.  0.
         23    2    4    4    0    0 -0.18081141005E+03 -0.77935949502E+00  0.67008059282E+02  0.21391851132E+03  0.92615744174E+02 0.  0.
         23    2    4    4    0    0 -0.21905873884E+03 -0.83947089586E+02  0.14030451355E+04  0.14255814428E+04  0.93343199097E+02 0.  0.
          5    1    3    3  502    0  0.35741741886E+03  0.50677093722E+02  0.20683998046E+04  0.20996702648E+04  0.47000000000E+01 0. -1.
         -5    1    3    3    0  502  0.42452730027E+02  0.34049355359E+02  0.21708548568E+03  0.22385216322E+03  0.47000000000E+01 0.  1.
         11    1    5    5    0    0 -0.81976918788E+02  0.39827325169E+02  0.54865280480E+02  0.10637965053E+03  0.00000000000E+00 0.  1.
        -11    1    5    5    0    0 -0.98834491265E+02 -0.40606684664E+02  0.12142778802E+02  0.10753886079E+03  0.00000000000E+00 0. -1.
          3    1    6    6  503    0 -0.66224743182E+02  0.14114070929E+02  0.48977233756E+03  0.49443085083E+03  0.00000000000E+00 0. -1.
         -3    1    6    6    0  503 -0.15283399565E+03 -0.98061160515E+02  0.91327279793E+03  0.93115059194E+03  0.00000000000E+00 0.  1.
<mgrwt>
<rscale>  0 0.43146838E+03</rscale>
<asrwt>0</asrwt>
<pdfrwt beam="1">  1        1 0.59373534E+00 0.43146838E+03</pdfrwt>
<pdfrwt beam="2">  1       -1 0.15960303E-01 0.43146838E+03</pdfrwt>
<totfact> 0.44701758E+00</totfact>
</mgrwt>
</event>
<event>
12    1  0.3147868E-008  0.5631791E+03  0.7818608E-02  0.9984887E-01
         -2   -1    0    0    0  501 -0.00000000000E+00  0.00000000000E+00  0.51110120976E+03  0.51110120976E+03  0.00000000000E+00 0.  1.
          2   -1    0    0  501    0  0.00000000000E+00 -0.00000000000E+00 -0.64159498111E+03  0.64159498111E+03  0.00000000000E+00 0. -1.
         23    2    1    2    0    0 -0.62089539868E+02 -0.40277682094E+03 -0.84404826363E+02  0.42590182928E+03  0.90464993337E+02 0.  0.
    5000000    2    1    2    0    0  0.62089539868E+02  0.40277682094E+03 -0.46088944979E+02  0.72679436159E+03  0.60001797868E+03 0.  0.
         23    2    4    4    0    0  0.24841964639E+03  0.44023868702E+03 -0.32390456395E+02  0.51476687324E+03  0.91724423459E+02 0.  0.
         23    2    4    4    0    0 -0.18633010652E+03 -0.37461866072E+02 -0.13698488585E+02  0.21202748835E+03  0.92982295205E+02 0.  0.
          5    1    3    3  502    0  0.36957835745E+01 -0.20140148278E+03 -0.11528560716E+02  0.20181975571E+03  0.47000000000E+01 0. -1.
         -5    1    3    3    0  502 -0.65785323442E+02 -0.20137533817E+03 -0.72876265647E+02  0.22408207357E+03  0.47000000000E+01 0.  1.
         13    1    5    5    0    0  0.15421117992E+03  0.29536964415E+03  0.21099897134E+02  0.33387051436E+03  0.00000000000E+00 0. -1.
        -13    1    5    5    0    0  0.94208466469E+02  0.14486904286E+03 -0.53490353529E+02  0.18089635888E+03  0.00000000000E+00 0.  1.
          1    1    6    6  503    0 -0.48448383611E+02 -0.48603560736E+02 -0.25461124548E+02  0.73197136924E+02  0.00000000000E+00 0. -1.
         -1    1    6    6    0  503 -0.13788172291E+03  0.11141694663E+02  0.11762635963E+02  0.13883035143E+03  0.00000000000E+00 0.  1.
<mgrwt>
<rscale>  0 0.56317910E+03</rscale>
<asrwt>0</asrwt>
<pdfrwt beam="1">  1        2 0.98706920E-01 0.56317910E+03</pdfrwt>
<pdfrwt beam="2">  1       -2 0.78630955E-01 0.56317910E+03</pdfrwt>
<totfact> 0.67422981E+01</totfact>
</mgrwt>
</event>
<event>
12    1  0.3147868E-008  0.7862110E+03  0.7818608E-02  0.9580193E-01
          2   -1    0    0  501    0  0.00000000000E+00  0.00000000000E+00  0.42276928174E+03  0.42276928174E+03  0.00000000000E+00 0.  1.
         -2   -1    0    0    0  501 -0.00000000000E+00 -0.00000000000E+00 -0.18713994812E+04  0.18713994812E+04  0.00000000000E+00 0. -1.
         23    2    1    2    0    0 -0.62318844010E+03 -0.32943367905E+03 -0.10891603745E+04  0.13010981893E+04  0.98467233646E+02 0.  0.
    5000000    2    1    2    0    0  0.62318844010E+03  0.32943367905E+03 -0.35946982493E+03  0.99307057360E+03  0.60006685323E+03 0.  0.
         23    2    4    4    0    0  0.51439159702E+02  0.27638679494E+03 -0.27831181660E+03  0.40569319603E+03  0.89965851727E+02 0.  0.
         23    2    4    4    0    0  0.57174928040E+03  0.53046884102E+02 -0.81158008335E+02  0.58737737757E+03  0.93350681921E+02 0.  0.
          5    1    3    3  502    0 -0.25094927729E+02 -0.63865336900E+01 -0.81002848534E+02  0.85170973230E+02  0.47000000000E+01 0. -1.
         -5    1    3    3    0  502 -0.59809351237E+03 -0.32304714536E+03 -0.10081575260E+04  0.12159272161E+04  0.47000000000E+01 0.  1.
         11    1    5    5    0    0  0.56686560300E+02  0.14105618107E+03 -0.19279973584E+03  0.24552382873E+03  0.00000000000E+00 0. -1.
        -11    1    5    5    0    0 -0.52474005988E+01  0.13533061387E+03 -0.85512080759E+02  0.16016936729E+03  0.00000000000E+00 0.  1.
          1    1    6    6  503    0  0.52339110434E+03  0.69073191126E+02 -0.57007607495E+02  0.53099832500E+03  0.00000000000E+00 0. -1.
         -1    1    6    6    0  503  0.48358176054E+02 -0.16026307024E+02 -0.24150400840E+02  0.56379052571E+02  0.00000000000E+00 0.  1.
<mgrwt>
<rscale>  0 0.78621104E+03</rscale>
<asrwt>0</asrwt>
<pdfrwt beam="1">  1        2 0.65041428E-01 0.78621104E+03</pdfrwt>
<pdfrwt beam="2">  1       -2 0.28790761E+00 0.78621104E+03</pdfrwt>
<totfact> 0.29058246E+00</totfact>
</mgrwt>
</event>
<event>
12    1  0.3147868E-008  0.6172501E+03  0.7818608E-02  0.9870250E-01
         -2   -1    0    0    0  501 -0.00000000000E+00  0.00000000000E+00  0.41173224215E+03  0.41173224215E+03  0.00000000000E+00 0.  1.
          2   -1    0    0  501    0  0.00000000000E+00 -0.00000000000E+00 -0.12049496337E+04  0.12049496337E+04  0.00000000000E+00 0. -1.
         23    2    1    2    0    0  0.55139338206E+03  0.14791338037E+03 -0.37154647007E+03  0.68752179692E+03  0.93415266166E+02 0.  0.
    5000000    2    1    2    0    0 -0.55139338206E+03 -0.14791338037E+03 -0.42167092152E+03  0.92916007898E+03  0.59968246301E+03 0.  0.
         23    2    4    4    0    0 -0.77355915121E+02  0.99681053748E+02 -0.34841583452E+03  0.38157748119E+03  0.91035873842E+02 0.  0.
         23    2    4    4    0    0 -0.47403746694E+03 -0.24759443412E+03 -0.73255087004E+02  0.54758259779E+03  0.92010161220E+02 0.  0.
          5    1    3    3  502    0  0.44987955790E+03  0.10446699161E+03 -0.25790875252E+03  0.52900282001E+03  0.47000000000E+01 0. -1.
         -5    1    3    3    0  502  0.10151382416E+03  0.43446388757E+02 -0.11363771755E+03  0.15851897691E+03  0.47000000000E+01 0. -1.
         11    1    5    5    0    0 -0.27948657552E+02  0.34719490841E+02 -0.24897190580E+03  0.25292999106E+03  0.00000000000E+00 0. -1.
        -11    1    5    5    0    0 -0.49407257568E+02  0.64961562907E+02 -0.99443928721E+02  0.12864749012E+03  0.00000000000E+00 0.  1.
          4    1    6    6  503    0 -0.10639639390E+03 -0.72219577551E+02 -0.54957932563E+02  0.13984360682E+03  0.00000000000E+00 0. -1.
         -4    1    6    6    0  503 -0.36764107304E+03 -0.17537485656E+03 -0.18297154441E+02  0.40773899097E+03  0.00000000000E+00 0.  1.
<mgrwt>
<rscale>  0 0.61725010E+03</rscale>
<asrwt>0</asrwt>
<pdfrwt beam="1">  1        2 0.18537687E+00 0.61725010E+03</pdfrwt>
<pdfrwt beam="2">  1       -2 0.63343422E-01 0.61725010E+03</pdfrwt>
<totfact> 0.44824354E+01</totfact>
</mgrwt>
</event>
<event>
12    1  0.3147868E-008  0.8881054E+03  0.7818608E-02  0.9440574E-01
          1   -1    0    0  501    0  0.00000000000E+00  0.00000000000E+00  0.66620706249E+03  0.66620706249E+03  0.00000000000E+00 0. -1.
         -1   -1    0    0    0  501 -0.00000000000E+00 -0.00000000000E+00 -0.16953926886E+04  0.16953926886E+04  0.00000000000E+00 0.  1.
         23    2    1    2    0    0 -0.19883284467E+03 -0.82093621300E+03 -0.10169743555E+04  0.13251723959E+04  0.91511055676E+02 0.  0.
    5000000    2    1    2    0    0  0.19883284467E+03  0.82093621300E+03 -0.12211270631E+02  0.10364273552E+04  0.60046796872E+03 0.  0.
         23    2    4    4    0    0  0.12468966639E+03  0.25239368929E+02 -0.15469116613E+03  0.21957608586E+03  0.89998677520E+02 0.  0.
         23    2    4    4    0    0  0.74143178280E+02  0.79569684407E+03  0.14247989550E+03  0.81685126930E+03  0.91185508613E+02 0.  0.
          5    1    3    3  502    0 -0.13593218549E+03 -0.57416450737E+03 -0.77303051980E+03  0.97249201288E+03  0.47000000000E+01 0. -1.
         -5    1    3    3    0  502 -0.62900659171E+02 -0.24677170563E+03 -0.24394383568E+03  0.35268038305E+03  0.47000000000E+01 0.  1.
         11    1    5    5    0    0  0.12704919292E+03  0.26103767136E+02 -0.97331534517E+02  0.16216143713E+03  0.00000000000E+00 0. -1.
        -11    1    5    5    0    0 -0.23595265360E+01 -0.86439820606E+00 -0.57359631618E+02  0.57414648732E+02  0.00000000000E+00 0.  1.
          2    1    6    6  503    0  0.44970570206E+02  0.41769222757E+03  0.29010395135E+02  0.42110658055E+03  0.00000000000E+00 0. -1.
         -2    1    6    6    0  503  0.29172608074E+02  0.37800461650E+03  0.11346950037E+03  0.39574468875E+03  0.00000000000E+00 0.  1.
<mgrwt>
<rscale>  0 0.88810545E+03</rscale>
<asrwt>0</asrwt>
<pdfrwt beam="1">  1        1 0.10249339E+00 0.88810545E+03</pdfrwt>
<pdfrwt beam="2">  1       -1 0.26082965E+00 0.88810545E+03</pdfrwt>
<totfact> 0.17830577E+00</totfact>
</mgrwt>
</event>
<event>
12    1  0.3147868E-008  0.1391407E+04  0.7818608E-02  0.8960062E-01
         -2   -1    0    0    0  501 -0.00000000000E+00  0.00000000000E+00  0.24322687347E+04  0.24322687347E+04  0.00000000000E+00 0. -1.
          2   -1    0    0  501    0  0.00000000000E+00 -0.00000000000E+00 -0.10390967689E+04  0.10390967689E+04  0.00000000000E+00 0.  1.
         23    2    1    2    0    0 -0.12823969806E+04  0.36619830778E+03 -0.15032595635E+03  0.13450725269E+04  0.89325210009E+02 0.  0.
    5000000    2    1    2    0    0  0.12823969806E+04 -0.36619830778E+03  0.15434979222E+04  0.21262929767E+04  0.60007730401E+03 0.  0.
         23    2    4    4    0    0  0.73782063297E+03  0.79591696022E+02  0.69712972430E+03  0.10222525918E+04  0.91084490038E+02 0.  0.
         23    2    4    4    0    0  0.54457634760E+03 -0.44579000380E+03  0.84636819786E+03  0.11040403850E+04  0.85287276136E+02 0.  0.
          5    1    3    3  502    0 -0.72172420359E+03  0.16988778550E+03 -0.11075031798E+03  0.74969020845E+03  0.47000000000E+01 0. -1.
         -5    1    3    3    0  502 -0.56067277698E+03  0.19631052228E+03 -0.39575638369E+02  0.59538231848E+03  0.47000000000E+01 0.  1.
         11    1    5    5    0    0  0.95691932310E+02  0.25298600362E+02  0.13304338171E+03  0.16582372118E+03  0.00000000000E+00 0. -1.
        -11    1    5    5    0    0  0.64212870066E+03  0.54293095659E+02  0.56408634259E+03  0.85642887057E+03  0.00000000000E+00 0.  1.
          3    1    6    6  503    0  0.11727907203E+03 -0.89333212688E+02  0.23438941750E+03  0.27689926446E+03  0.00000000000E+00 0. -1.
         -3    1    6    6    0  503  0.42729727558E+03 -0.35645679111E+03  0.61197878036E+03  0.82714112052E+03  0.00000000000E+00 0.  1.
<mgrwt>
<rscale>  0 0.13914070E+04</rscale>
<asrwt>0</asrwt>
<pdfrwt beam="1">  1        2 0.15986104E+00 0.13914070E+04</pdfrwt>
<pdfrwt beam="2">  1       -2 0.37419519E+00 0.13914070E+04</pdfrwt>
<totfact> 0.24932433E-01</totfact>
</mgrwt>
</event>
<event>
12    1  0.3147868E-008  0.6453900E+03  0.7818608E-02  0.9815468E-01
          1   -1    0    0  501    0  0.00000000000E+00  0.00000000000E+00  0.34985617693E+03  0.34985617693E+03  0.00000000000E+00 0. -1.
         -1   -1    0    0    0  501 -0.00000000000E+00 -0.00000000000E+00 -0.13626132744E+04  0.13626132744E+04  0.00000000000E+00 0.  1.
         23    2    1    2    0    0  0.42253925102E+03 -0.30928201753E+03 -0.18064209633E+03  0.56147000499E+03  0.91772624035E+02 0.  0.
    5000000    2    1    2    0    0 -0.42253925102E+03  0.30928201753E+03 -0.83211500116E+03  0.11509994463E+04  0.59848940285E+03 0.  0.
         23    2    4    4    0    0 -0.17002549400E+03 -0.15355792791E+03 -0.36696350542E+03  0.44209747264E+03  0.91100247908E+02 0.  0.
         23    2    4    4    0    0 -0.25251375702E+03  0.46283994544E+03 -0.46515149574E+03  0.70890197371E+03  0.90510119708E+02 0.  0.
          5    1    3    3  502    0  0.15540543916E+03 -0.16943656546E+03 -0.72880488493E+02  0.24123278350E+03  0.47000000000E+01 0. -1.
         -5    1    3    3    0  502  0.26713381186E+03 -0.13984545207E+03 -0.10776160783E+03  0.32023722149E+03  0.47000000000E+01 0.  1.
         11    1    5    5    0    0 -0.12679657319E+03 -0.92156104623E+02 -0.31159125962E+03  0.34879683436E+03  0.00000000000E+00 0.  1.
        -11    1    5    5    0    0 -0.43228920815E+02 -0.61401823282E+02 -0.55372245801E+02  0.93300638273E+02  0.00000000000E+00 0. -1.
          3    1    6    6  503    0 -0.11273982443E+03  0.22080281884E+03 -0.15985308805E+03  0.29498671594E+03  0.00000000000E+00 0. -1.
         -3    1    6    6    0  503 -0.13977393259E+03  0.24203712660E+03 -0.30529840769E+03  0.41391525778E+03  0.00000000000E+00 0.  1.
<mgrwt>
<rscale>  0 0.64538996E+03</rscale>
<asrwt>0</asrwt>
<pdfrwt beam="1">  1        1 0.53824028E-01 0.64538996E+03</pdfrwt>
<pdfrwt beam="2">  1       -1 0.20963281E+00 0.64538996E+03</pdfrwt>
<totfact> 0.96962858E+00</totfact>
</mgrwt>
</event>
<event>
12    1  0.3147868E-008  0.6601948E+03  0.7818608E-02  0.9787835E-01
          2   -1    0    0  501    0  0.00000000000E+00  0.00000000000E+00  0.77672680445E+03  0.77672680445E+03  0.00000000000E+00 0. -1.
         -2   -1    0    0    0  501 -0.00000000000E+00 -0.00000000000E+00 -0.20870719759E+04  0.20870719759E+04  0.00000000000E+00 0.  1.
         23    2    1    2    0    0 -0.52415794112E+03  0.81069411317E+02 -0.18310506596E+04  0.19084923380E+04  0.91009283499E+02 0.  0.
    5000000    2    1    2    0    0  0.52415794112E+03 -0.81069411317E+02  0.52070548811E+03  0.95530644233E+03  0.60013531535E+03 0.  0.
         23    2    4    4    0    0  0.34745539127E+03  0.23212424803E+03  0.26781001913E+03  0.50488741048E+03  0.92640031670E+02 0.  0.
         23    2    4    4    0    0  0.17670254985E+03 -0.31319365935E+03  0.25289546898E+03  0.45041903185E+03  0.98015950970E+02 0.  0.
          5    1    3    3  502    0 -0.34253070792E+03  0.17506795693E+02 -0.12610882613E+04  0.13069045361E+04  0.47000000000E+01 0. -1.
         -5    1    3    3    0  502 -0.18162723320E+03  0.63562615624E+02 -0.56996239828E+03  0.60158780191E+03  0.47000000000E+01 0.  1.
         11    1    5    5    0    0  0.29545540283E+03  0.20597968626E+03  0.26399694461E+03  0.44656008888E+03  0.00000000000E+00 0. -1.
        -11    1    5    5    0    0  0.51999988437E+02  0.26144561770E+02  0.38130745144E+01  0.58327321598E+02  0.00000000000E+00 0.  1.
          1    1    6    6  503    0  0.13823655951E+03 -0.17464687375E+03  0.19276022691E+03  0.29456303565E+03  0.00000000000E+00 0. -1.
         -1    1    6    6    0  503  0.38465990347E+02 -0.13854678560E+03  0.60135242072E+02  0.15585599620E+03  0.00000000000E+00 0.  1.
<mgrwt>
<rscale>  0 0.66019475E+03</rscale>
<asrwt>0</asrwt>
<pdfrwt beam="1">  1        2 0.11949643E+00 0.66019475E+03</pdfrwt>
<pdfrwt beam="2">  1       -2 0.32108799E+00 0.66019475E+03</pdfrwt>
<totfact> 0.90230885E-01</totfact>
</mgrwt>
</event>
<event>
12    1  0.3147868E-008  0.3490453E+03  0.7818608E-02  0.1063008E+00
          2   -1    0    0  501    0  0.00000000000E+00  0.00000000000E+00  0.41393707837E+04  0.41393707837E+04  0.00000000000E+00 0. -1.
         -2   -1    0    0    0  501 -0.00000000000E+00 -0.00000000000E+00 -0.25522059624E+03  0.25522059624E+03  0.00000000000E+00 0.  1.
         23    2    1    2    0    0  0.17922867970E+03  0.41443588883E+02 -0.18549403907E+03  0.27685957725E+03  0.91666222235E+02 0.  0.
    5000000    2    1    2    0    0 -0.17922867970E+03 -0.41443588883E+02  0.40696442266E+04  0.41177318027E+04  0.59989213830E+03 0.  0.
         23    2    4    4    0    0  0.15805053260E+03 -0.56775351795E+02  0.57602122907E+03  0.60662136557E+03  0.89362259386E+02 0.  0.
         23    2    4    4    0    0 -0.33727921230E+03  0.15331762912E+02  0.34936229975E+04  0.35111104371E+04  0.92209127494E+02 0.  0.
          5    1    3    3  502    0  0.12412842259E+03  0.27302105056E+02 -0.63458945061E+02  0.14213513972E+03  0.47000000000E+01 0. -1.
         -5    1    3    3    0  502  0.55100257114E+02  0.14141483827E+02 -0.12203509401E+03  0.13472443753E+03  0.47000000000E+01 0.  1.
         13    1    5    5    0    0  0.13812314069E+03 -0.37069225789E+02  0.55030893014E+03  0.56858776639E+03  0.00000000000E+00 0. -1.
        -13    1    5    5    0    0  0.19927391911E+02 -0.19706126006E+02  0.25712298926E+02  0.38033599180E+02  0.00000000000E+00 0.  1.
          2    1    6    6  503    0 -0.13037601819E+03 -0.22939692647E+02  0.17107184758E+04  0.17158326955E+04  0.00000000000E+00 0. -1.
         -2    1    6    6    0  503 -0.20690319411E+03  0.38271455558E+02  0.17829045217E+04  0.17952777416E+04  0.00000000000E+00 0.  1.
<mgrwt>
<rscale>  0 0.34904526E+03</rscale>
<asrwt>0</asrwt>
<pdfrwt beam="1">  1        2 0.63682623E+00 0.34904526E+03</pdfrwt>
<pdfrwt beam="2">  1       -2 0.39264710E-01 0.34904526E+03</pdfrwt>
<totfact> 0.20722805E+00</totfact>
</mgrwt>
</event>
<event>
12    1  0.3147868E-008  0.5325034E+03  0.7818608E-02  0.1005627E+00
          2   -1    0    0  501    0  0.00000000000E+00  0.00000000000E+00  0.16431684741E+04  0.16431684741E+04  0.00000000000E+00 0. -1.
         -2   -1    0    0    0  501 -0.00000000000E+00 -0.00000000000E+00 -0.29656576587E+03  0.29656576587E+03  0.00000000000E+00 0.  1.
         23    2    1    2    0    0  0.31354378102E+03  0.42419543609E+03  0.83453269492E+03  0.99088289789E+03  0.84573209831E+02 0.  0.
    5000000    2    1    2    0    0 -0.31354378102E+03 -0.42419543609E+03  0.51207001327E+03  0.94885134204E+03  0.59987640409E+03 0.  0.
         23    2    4    4    0    0 -0.27801868233E+03 -0.33767355857E+03  0.62991002614E+03  0.77226610065E+03  0.91052014256E+02 0.  0.
         23    2    4    4    0    0 -0.35525098686E+02 -0.86521877523E+02 -0.11784001287E+03  0.17658524139E+03  0.92455453690E+02 0.  0.
          5    1    3    3  502    0  0.58653660968E+02  0.12824593495E+03  0.26580785042E+03  0.30093716141E+03  0.47000000000E+01 0. -1.
         -5    1    3    3    0  502  0.25489012005E+03  0.29594950114E+03  0.56872484451E+03  0.68994573648E+03  0.47000000000E+01 0.  1.
         13    1    5    5    0    0 -0.18678431166E+03 -0.24692942310E+03  0.37162696644E+03  0.48370354688E+03  0.00000000000E+00 0. -1.
        -13    1    5    5    0    0 -0.91234370675E+02 -0.90744135472E+02  0.25828305969E+03  0.28856255377E+03  0.00000000000E+00 0.  1.
          3    1    6    6  503    0 -0.18176967804E+02 -0.64231416502E+02 -0.13001282197E+02  0.68008163945E+02  0.00000000000E+00 0. -1.
         -3    1    6    6    0  503 -0.17348130882E+02 -0.22290461021E+02 -0.10483873067E+03  0.10857707744E+03  0.00000000000E+00 0.  1.
<mgrwt>
<rscale>  0 0.53250343E+03</rscale>
<asrwt>0</asrwt>
<pdfrwt beam="1">  1        2 0.25279514E+00 0.53250343E+03</pdfrwt>
<pdfrwt beam="2">  1       -2 0.45625504E-01 0.53250343E+03</pdfrwt>
<totfact> 0.50613290E+01</totfact>
</mgrwt>
</event>
<event>
12    1  0.3147868E-008  0.5609545E+03  0.7818608E-02  0.9989897E-01
         -1   -1    0    0    0  501 -0.00000000000E+00  0.00000000000E+00  0.49455206075E+03  0.49455206075E+03  0.00000000000E+00 0.  1.
          1   -1    0    0  501    0  0.00000000000E+00 -0.00000000000E+00 -0.10531056689E+04  0.10531056689E+04  0.00000000000E+00 0. -1.
         23    2    1    2    0    0 -0.11972899048E+03 -0.50210926038E+03 -0.54457277440E+03  0.75598132136E+03  0.92192793116E+02 0.  0.
    5000000    2    1    2    0    0  0.11972899048E+03  0.50210926038E+03 -0.13980833771E+02  0.79167640831E+03  0.60008943603E+03 0.  0.
         23    2    4    4    0    0  0.11039152887E+03  0.51440180154E+03 -0.21090010268E+03  0.57386483408E+03  0.89702237451E+02 0.  0.
         23    2    4    4    0    0  0.93374616059E+01 -0.12292541162E+02  0.19691926891E+03  0.21781157423E+03  0.91795362862E+02 0.  0.
          5    1    3    3  502    0 -0.88825532900E+02 -0.19697933968E+03 -0.19726879825E+03  0.29262246038E+03  0.47000000000E+01 0. -1.
         -5    1    3    3    0  502 -0.30903457579E+02 -0.30512992070E+03 -0.34730397615E+03  0.46335886098E+03  0.47000000000E+01 0.  1.
         11    1    5    5    0    0  0.73443192987E+02  0.23727463577E+03 -0.14126915845E+03  0.28574486961E+03  0.00000000000E+00 0.  1.
        -11    1    5    5    0    0  0.36948335886E+02  0.27712716577E+03 -0.69630944227E+02  0.28811996447E+03  0.00000000000E+00 0. -1.
          2    1    6    6  503    0  0.49799166070E+01  0.29072570090E+02  0.15839466514E+03  0.16111760874E+03  0.00000000000E+00 0. -1.
         -2    1    6    6    0  503  0.43575449988E+01 -0.41365111253E+02  0.38524603768E+02  0.56693965489E+02  0.00000000000E+00 0.  1.
<mgrwt>
<rscale>  0 0.56095455E+03</rscale>
<asrwt>0</asrwt>
<pdfrwt beam="1">  1        1 0.16201626E+00 0.56095455E+03</pdfrwt>
<pdfrwt beam="2">  1       -1 0.76084933E-01 0.56095455E+03</pdfrwt>
<totfact> 0.25196938E+01</totfact>
</mgrwt>
</event>
<event>
12    1  0.3147868E-008  0.1876370E+04  0.7818608E-02  0.8666709E-01
         -2   -1    0    0    0  501 -0.00000000000E+00  0.00000000000E+00  0.15408478597E+04  0.15408478597E+04  0.00000000000E+00 0. -1.
          2   -1    0    0  501    0  0.00000000000E+00 -0.00000000000E+00 -0.27271193252E+04  0.27271193252E+04  0.00000000000E+00 0.  1.
         23    2    1    2    0    0 -0.15646177209E+04  0.94556658067E+03 -0.14378094321E+04  0.23274884661E+04  0.88214658029E+02 0.  0.
    5000000    2    1    2    0    0  0.15646177209E+04 -0.94556658067E+03  0.25153796658E+03  0.19404787188E+04  0.60005127998E+03 0.  0.
         23    2    4    4    0    0  0.57668992049E+03 -0.46426479769E+02  0.78131787990E+02  0.59057713047E+03  0.89163267779E+02 0.  0.
         23    2    4    4    0    0  0.98792780040E+03 -0.89914010090E+03  0.17340617859E+03  0.13499015884E+04  0.87808516924E+02 0.  0.
          5    1    3    3  502    0 -0.53202040881E+03  0.36572897526E+03 -0.53023707451E+03  0.83545008464E+03  0.47000000000E+01 0. -1.
         -5    1    3    3    0  502 -0.10325973121E+04  0.57983760541E+03 -0.90757235760E+03  0.14920383815E+04  0.47000000000E+01 0.  1.
         11    1    5    5    0    0  0.54695051377E+03 -0.62688146549E+02  0.65539962932E+02  0.55441875417E+03  0.00000000000E+00 0. -1.
        -11    1    5    5    0    0  0.29739406716E+02  0.16261666780E+02  0.12591825057E+02  0.36158376299E+02  0.00000000000E+00 0.  1.
          1    1    6    6  503    0  0.57553423216E+03 -0.46786407988E+03  0.11010059113E+03  0.74983904259E+03  0.00000000000E+00 0. -1.
         -1    1    6    6    0  503  0.41239356824E+03 -0.43127602102E+03  0.63305587464E+02  0.60006254577E+03  0.00000000000E+00 0.  1.
<mgrwt>
<rscale>  0 0.18763702E+04</rscale>
<asrwt>0</asrwt>
<pdfrwt beam="1">  1        2 0.41955681E+00 0.18763702E+04</pdfrwt>
<pdfrwt beam="2">  1       -2 0.23705352E+00 0.18763702E+04</pdfrwt>
<totfact> 0.17801619E-01</totfact>
</mgrwt>
</event>
<event>
12    1  0.3147868E-008  0.3687088E+03  0.7818608E-02  0.1055188E+00
         -1   -1    0    0    0  501 -0.00000000000E+00  0.00000000000E+00  0.16013503338E+03  0.16013503338E+03  0.00000000000E+00 0.  1.
          1   -1    0    0  501    0  0.00000000000E+00 -0.00000000000E+00 -0.10014799239E+04  0.10014799239E+04  0.00000000000E+00 0. -1.
         23    2    1    2    0    0 -0.47545367949E+02 -0.14233981426E+03 -0.12654641010E+03  0.21638729673E+03  0.91040010646E+02 0.  0.
    5000000    2    1    2    0    0  0.47545367949E+02  0.14233981426E+03 -0.71479848042E+03  0.94522766056E+03  0.59999773161E+03 0.  0.
         23    2    4    4    0    0 -0.78223214650E+02 -0.18675608017E+03 -0.42346418381E+03  0.47883156621E+03  0.94662817635E+02 0.  0.
         23    2    4    4    0    0  0.12576858260E+03  0.32909589443E+03 -0.29133429661E+03  0.46639609435E+03  0.92346090011E+02 0.  0.
          5    1    3    3  502    0  0.20462729059E+02 -0.65621229525E+02 -0.28858117868E+02  0.74697724274E+02  0.47000000000E+01 0. -1.
         -5    1    3    3    0  502 -0.68008097008E+02 -0.76718584740E+02 -0.97688292236E+02  0.14168957246E+03  0.47000000000E+01 0.  1.
         13    1    5    5    0    0 -0.26305015817E+02 -0.13327129252E+03 -0.34414269613E+03  0.36998295443E+03  0.00000000000E+00 0. -1.
        -13    1    5    5    0    0 -0.51918198833E+02 -0.53484787651E+02 -0.79321487677E+02  0.10884861178E+03  0.00000000000E+00 0.  1.
          4    1    6    6  503    0  0.11752776914E+03  0.25298706850E+03 -0.26681335517E+03  0.38601113953E+03  0.00000000000E+00 0. -1.
         -4    1    6    6    0  503  0.82408134581E+01  0.76108825936E+02 -0.24520941444E+02  0.80384954818E+02  0.00000000000E+00 0.  1.
<mgrwt>
<rscale>  0 0.36870883E+03</rscale>
<asrwt>0</asrwt>
<pdfrwt beam="1">  1        1 0.15407383E+00 0.36870883E+03</pdfrwt>
<pdfrwt beam="2">  1       -1 0.24636159E-01 0.36870883E+03</pdfrwt>
<totfact> 0.22661693E+02</totfact>
</mgrwt>
</event>
<event>
12    1  0.3147868E-008  0.9321689E+03  0.7818608E-02  0.9386239E-01
         -2   -1    0    0    0  501 -0.00000000000E+00  0.00000000000E+00  0.83620737175E+03  0.83620737175E+03  0.00000000000E+00 0.  1.
          2   -1    0    0  501    0  0.00000000000E+00 -0.00000000000E+00 -0.11952789413E+04  0.11952789413E+04  0.00000000000E+00 0. -1.
         23    2    1    2    0    0 -0.87539186289E+03  0.88942651057E+02 -0.38918934414E+03  0.96609430008E+03  0.87453657793E+02 0.  0.
    5000000    2    1    2    0    0  0.87539186289E+03 -0.88942651057E+02  0.30117774547E+02  0.10653920130E+04  0.59994279081E+03 0.  0.
         23    2    4    4    0    0  0.13158425096E+03 -0.17923248671E+03 -0.15813460387E+03  0.28751167969E+03  0.90651605716E+02 0.  0.
         23    2    4    4    0    0  0.74380761193E+03  0.90289835656E+02  0.18825237842E+03  0.77788033332E+03  0.90867139290E+02 0.  0.
          5    1    3    3  502    0 -0.44505098502E+03  0.73833779819E+02 -0.16321954132E+03  0.47977548393E+03  0.47000000000E+01 0. -1.
         -5    1    3    3    0  502 -0.43034087787E+03  0.15108871238E+02 -0.22596980282E+03  0.48631881615E+03  0.47000000000E+01 0.  1.
         11    1    5    5    0    0  0.12733865982E+03 -0.12707080335E+03 -0.88729382143E+02  0.20058670595E+03  0.00000000000E+00 0.  1.
        -11    1    5    5    0    0  0.42455911431E+01 -0.52161683360E+02 -0.69405221731E+02  0.86924973734E+02  0.00000000000E+00 0. -1.
          2    1    6    6  503    0  0.52317703642E+02  0.16728799377E+02  0.37007890189E+02  0.66231252285E+02  0.00000000000E+00 0. -1.
         -2    1    6    6    0  503  0.69148990829E+03  0.73561036279E+02  0.15124448823E+03  0.71164908104E+03  0.00000000000E+00 0.  1.
<mgrwt>
<rscale>  0 0.93216891E+03</rscale>
<asrwt>0</asrwt>
<pdfrwt beam="1">  1        2 0.18388907E+00 0.93216891E+03</pdfrwt>
<pdfrwt beam="2">  1       -2 0.12864729E+00 0.93216891E+03</pdfrwt>
<totfact> 0.84925691E+00</totfact>
</mgrwt>
</event>
<event>
12    1  0.3147868E-008  0.4677484E+03  0.7818608E-02  0.1022558E+00
         -2   -1    0    0    0  501 -0.00000000000E+00  0.00000000000E+00  0.18520055939E+03  0.18520055939E+03  0.00000000000E+00 0.  1.
          2   -1    0    0  501    0  0.00000000000E+00 -0.00000000000E+00 -0.30176757170E+04  0.30176757170E+04  0.00000000000E+00 0. -1.
         23    2    1    2    0    0  0.33965418342E+03  0.18692863045E+03 -0.15623549278E+03  0.43296028496E+03  0.11286187113E+03 0.  0.
    5000000    2    1    2    0    0 -0.33965418342E+03 -0.18692863045E+03 -0.26762396648E+04  0.27699159914E+04  0.59989047230E+03 0.  0.
         23    2    4    4    0    0  0.39277736937E+02 -0.10712762388E+03 -0.18173221918E+04  0.18231745701E+04  0.91030192761E+02 0.  0.
         23    2    4    4    0    0 -0.37893192035E+03 -0.79801006575E+02 -0.85891747306E+03  0.94674142131E+03  0.92857376591E+02 0.  0.
          5    1    3    3  502    0  0.17236322183E+03  0.48634080032E+02 -0.11234250476E+03  0.21146461254E+03  0.47000000000E+01 0. -1.
         -5    1    3    3    0  502  0.16729096159E+03  0.13829455042E+03 -0.43892988018E+02  0.22149567243E+03  0.47000000000E+01 0.  1.
         13    1    5    5    0    0 -0.12289231093E+02  0.10784747819E+02 -0.27887850149E+03  0.27935739579E+03  0.00000000000E+00 0. -1.
        -13    1    5    5    0    0  0.51566968031E+02 -0.11791237170E+03 -0.15384436903E+04  0.15438171743E+04  0.00000000000E+00 0.  1.
          3    1    6    6  503    0 -0.34747956325E+03 -0.93572249684E+02 -0.81564950605E+03  0.89150542876E+03  0.00000000000E+00 0. -1.
         -3    1    6    6    0  503 -0.31452357103E+02  0.13771243109E+02 -0.43267967008E+02  0.55235992551E+02  0.00000000000E+00 0.  1.
<mgrwt>
<rscale>  0 0.46774835E+03</rscale>
<asrwt>0</asrwt>
<pdfrwt beam="1">  1        2 0.46425777E+00 0.46774835E+03</pdfrwt>
<pdfrwt beam="2">  1       -2 0.28492396E-01 0.46774835E+03</pdfrwt>
<totfact> 0.21529888E+01</totfact>
</mgrwt>
</event>
<event>
12    1  0.3147868E-008  0.4088159E+03  0.7818608E-02  0.1040769E+00
         -1   -1    0    0    0  501 -0.00000000000E+00  0.00000000000E+00  0.27795439419E+03  0.27795439419E+03  0.00000000000E+00 0.  1.
          1   -1    0    0  501    0  0.00000000000E+00 -0.00000000000E+00 -0.13640199415E+04  0.13640199415E+04  0.00000000000E+00 0. -1.
         23    2    1    2    0    0  0.24294271849E+03  0.29063040404E+03 -0.77453492625E+03  0.86699959553E+03  0.91086499779E+02 0.  0.
    5000000    2    1    2    0    0 -0.24294271849E+03 -0.29063040404E+03 -0.31153062109E+03  0.77497474020E+03  0.60003943524E+03 0.  0.
         23    2    4    4    0    0 -0.50447924190E+02 -0.22167030417E+02  0.15956813335E+03  0.19236997244E+03  0.92237990127E+02 0.  0.
         23    2    4    4    0    0 -0.19249479430E+03 -0.26846337362E+03 -0.47109875444E+03  0.58260476776E+03  0.91473767667E+02 0.  0.
          5    1    3    3  502    0  0.58071319864E+02  0.92037849571E+02 -0.31524583172E+03  0.33353450850E+03  0.47000000000E+01 0. -1.
         -5    1    3    3    0  502  0.18487139863E+03  0.19859255447E+03 -0.45928909453E+03  0.53346508703E+03  0.47000000000E+01 0.  1.
         13    1    5    5    0    0 -0.66409171008E+02 -0.44202186233E+02  0.12640994825E+03  0.14947737715E+03  0.00000000000E+00 0.  1.
        -13    1    5    5    0    0  0.15961246818E+02  0.22035155816E+02  0.33158185096E+02  0.42892595290E+02  0.00000000000E+00 0. -1.
          3    1    6    6  503    0 -0.73023043687E+02 -0.99448712814E+02 -0.25553644860E+03  0.28376273179E+03  0.00000000000E+00 0. -1.
         -3    1    6    6    0  503 -0.11947175062E+03 -0.16901466081E+03 -0.21556230584E+03  0.29884203597E+03  0.00000000000E+00 0.  1.
<mgrwt>
<rscale>  0 0.40881589E+03</rscale>
<asrwt>0</asrwt>
<pdfrwt beam="1">  1        1 0.20984922E+00 0.40881589E+03</pdfrwt>
<pdfrwt beam="2">  1       -1 0.42762215E-01 0.40881589E+03</pdfrwt>
<totfact> 0.47382608E+01</totfact>
</mgrwt>
</event>
<event>
12    1  0.3147868E-008  0.4676623E+03  0.7818608E-02  0.1022582E+00
          2   -1    0    0  501    0  0.00000000000E+00  0.00000000000E+00  0.15489683250E+04  0.15489683250E+04  0.00000000000E+00 0. -1.
         -2   -1    0    0    0  501 -0.00000000000E+00 -0.00000000000E+00 -0.25413976788E+03  0.25413976788E+03  0.00000000000E+00 0.  1.
         23    2    1    2    0    0 -0.11815752533E+03 -0.42083256403E+03  0.78310919999E+03  0.90150576715E+03  0.91604483275E+02 0.  0.
    5000000    2    1    2    0    0  0.11815752533E+03  0.42083256403E+03  0.51171935715E+03  0.90160232575E+03  0.59997400408E+03 0.  0.
         23    2    4    4    0    0  0.13501813064E+03  0.30197193007E+03 -0.25354754730E+02  0.34381393960E+03  0.90267487666E+02 0.  0.
         23    2    4    4    0    0 -0.16860605315E+02  0.11886063397E+03  0.53707411188E+03  0.55778838614E+03  0.90923878832E+02 0.  0.
          5    1    3    3  502    0 -0.27405584606E+02 -0.26264926617E+03  0.47019788711E+03  0.53929940305E+03  0.47000000000E+01 0. -1.
         -5    1    3    3    0  502 -0.90751940721E+02 -0.15818329787E+03  0.31291131288E+03  0.36220636410E+03  0.47000000000E+01 0.  1.
         13    1    5    5    0    0  0.24545359477E+02  0.14111615984E+03  0.16671143345E+02  0.14420184555E+03  0.00000000000E+00 0.  1.
        -13    1    5    5    0    0  0.11047277117E+03  0.16085577023E+03 -0.42025898076E+02  0.19961209406E+03  0.00000000000E+00 0. -1.
          1    1    6    6  503    0  0.22472543610E+02 -0.27065046398E+01  0.91312694711E+02  0.94076291376E+02  0.00000000000E+00 0. -1.
         -1    1    6    6    0  503 -0.39333148926E+02  0.12156713861E+03  0.44576141717E+03  0.46371209477E+03  0.00000000000E+00 0.  1.
<mgrwt>
<rscale>  0 0.46766235E+03</rscale>
<asrwt>0</asrwt>
<pdfrwt beam="1">  1        2 0.23830281E+00 0.46766235E+03</pdfrwt>
<pdfrwt beam="2">  1       -2 0.39098427E-01 0.46766235E+03</pdfrwt>
<totfact> 0.77827928E+01</totfact>
</mgrwt>
</event>
<event>
12    1  0.3147868E-008  0.7944695E+03  0.7818608E-02  0.9568057E-01
         -1   -1    0    0    0  501 -0.00000000000E+00  0.00000000000E+00  0.63493781308E+03  0.63493781308E+03  0.00000000000E+00 0.  1.
          1   -1    0    0  501    0  0.00000000000E+00 -0.00000000000E+00 -0.13704113133E+04  0.13704113133E+04  0.00000000000E+00 0. -1.
         23    2    1    2    0    0  0.12644690001E+03 -0.67872961229E+03 -0.83225149377E+03  0.10854590506E+04  0.94425084716E+02 0.  0.
    5000000    2    1    2    0    0 -0.12644690001E+03  0.67872961229E+03  0.96777993560E+02  0.91989007573E+03  0.60014087202E+03 0.  0.
         23    2    4    4    0    0 -0.31847583689E+03  0.59496737321E+03  0.33287920577E+02  0.68182128946E+03  0.91428394019E+02 0.  0.
         23    2    4    4    0    0  0.19202893687E+03  0.83762239076E+02  0.63490072983E+02  0.23806878627E+03  0.93565657889E+02 0.  0.
          5    1    3    3  502    0  0.57039564936E+02 -0.46285853216E+03 -0.61052535702E+03  0.76828043990E+03  0.47000000000E+01 0. -1.
         -5    1    3    3    0  502  0.69407335079E+02 -0.21587108013E+03 -0.22172613675E+03  0.31717861075E+03  0.47000000000E+01 0.  1.
         13    1    5    5    0    0 -0.20385822851E+03  0.36861794138E+03 -0.23282715888E+02  0.42187610610E+03  0.00000000000E+00 0. -1.
        -13    1    5    5    0    0 -0.11461760838E+03  0.22634943183E+03  0.56570636466E+02  0.25994518336E+03  0.00000000000E+00 0.  1.
          3    1    6    6  503    0  0.54020947144E+02 -0.86553321773E+01  0.45208492802E+02  0.70971722022E+02  0.00000000000E+00 0. -1.
         -3    1    6    6    0  503  0.13800798973E+03  0.92417571253E+02  0.18281580180E+02  0.16709706425E+03  0.00000000000E+00 0.  1.
<mgrwt>
<rscale>  0 0.79446949E+03</rscale>
<asrwt>0</asrwt>
<pdfrwt beam="1">  1        1 0.21083251E+00 0.79446949E+03</pdfrwt>
<pdfrwt beam="2">  1       -1 0.97682742E-01 0.79446949E+03</pdfrwt>
<totfact> 0.83548559E+00</totfact>
</mgrwt>
</event>
<event>
12    1  0.3147868E-008  0.7482267E+03  0.7818608E-02  0.9638136E-01
          2   -1    0    0  501    0  0.00000000000E+00  0.00000000000E+00  0.13418608929E+04  0.13418608929E+04  0.00000000000E+00 0. -1.
         -2   -1    0    0    0  501 -0.00000000000E+00 -0.00000000000E+00 -0.45295145127E+03  0.45295145127E+03  0.00000000000E+00 0.  1.
         23    2    1    2    0    0  0.43516411441E+03 -0.46672441007E+03  0.57724629813E+03  0.86513612712E+03  0.89709243181E+02 0.  0.
    5000000    2    1    2    0    0 -0.43516411441E+03  0.46672441007E+03  0.31166314350E+03  0.92967621707E+03  0.59997039272E+03 0.  0.
         23    2    4    4    0    0 -0.47667800354E+03  0.55402438369E+03  0.30351158880E+03  0.79646110374E+03  0.89811293550E+02 0.  0.
         23    2    4    4    0    0  0.41513889132E+02 -0.87299973615E+02  0.81515547032E+01  0.13321511333E+03  0.91296934187E+02 0.  0.
          5    1    3    3  502    0  0.22904877134E+03 -0.20032897705E+03  0.31719439489E+03  0.43957867652E+03  0.47000000000E+01 0. -1.
         -5    1    3    3    0  502  0.20611534307E+03 -0.26639543302E+03  0.26005190324E+03  0.42555745060E+03  0.47000000000E+01 0.  1.
         11    1    5    5    0    0 -0.14814449362E+03  0.21244999764E+03  0.14441207316E+03  0.29654112591E+03  0.00000000000E+00 0. -1.
        -11    1    5    5    0    0 -0.32853350992E+03  0.34157438605E+03  0.15909951565E+03  0.49991997782E+03  0.00000000000E+00 0.  1.
          1    1    6    6  503    0 -0.19906382999E+02 -0.40469796273E+02  0.28489826326E+02  0.53345465586E+02  0.00000000000E+00 0. -1.
         -1    1    6    6    0  503  0.61420272130E+02 -0.46830177342E+02 -0.20338271623E+02  0.79869647746E+02  0.00000000000E+00 0.  1.
<mgrwt>
<rscale>  0 0.74822669E+03</rscale>
<asrwt>0</asrwt>
<pdfrwt beam="1">  1        2 0.20644013E+00 0.74822669E+03</pdfrwt>
<pdfrwt beam="2">  1       -2 0.69684839E-01 0.74822669E+03</pdfrwt>
<totfact> 0.29958150E+01</totfact>
</mgrwt>
</event>
<event>
12    1  0.3147868E-008  0.1421650E+04  0.7818608E-02  0.8938294E-01
          2   -1    0    0  501    0  0.00000000000E+00  0.00000000000E+00  0.24293233484E+04  0.24293233484E+04  0.00000000000E+00 0. -1.
         -2   -1    0    0    0  501 -0.00000000000E+00 -0.00000000000E+00 -0.10910099885E+04  0.10910099885E+04  0.00000000000E+00 0.  1.
         23    2    1    2    0    0  0.10590336418E+04  0.85867239489E+03  0.14916243265E+04  0.20229020205E+04  0.91208097625E+02 0.  0.
    5000000    2    1    2    0    0 -0.10590336418E+04 -0.85867239489E+03 -0.15331096668E+03  0.14974313164E+04  0.59993812903E+03 0.  0.
         23    2    4    4    0    0 -0.44192387022E+03 -0.71627146442E+03 -0.12857550666E+03  0.85705219365E+03  0.98312175848E+02 0.  0.
         23    2    4    4    0    0 -0.61710977155E+03 -0.14240093047E+03 -0.24735460020E+02  0.64037912274E+03  0.91493621198E+02 0.  0.
          5    1    3    3  502    0  0.30653813122E+02  0.45216814869E+02  0.50628593587E+02  0.74629492122E+02  0.47000000000E+01 0. -1.
         -5    1    3    3    0  502  0.10283798286E+04  0.81345558002E+03  0.14409957329E+04  0.19482725284E+04  0.47000000000E+01 0.  1.
         11    1    5    5    0    0 -0.23940189670E+03 -0.38578977274E+03 -0.19742548191E+02  0.45446318344E+03  0.00000000000E+00 0. -1.
        -11    1    5    5    0    0 -0.20252197352E+03 -0.33048169168E+03 -0.10883295847E+03  0.40258901021E+03  0.00000000000E+00 0.  1.
          2    1    6    6  503    0 -0.32865035726E+03 -0.10340423517E+03 -0.50252915579E+02  0.34817933411E+03  0.00000000000E+00 0. -1.
         -2    1    6    6    0  503 -0.28845941429E+03 -0.38996695295E+02  0.25517455559E+02  0.29219978863E+03  0.00000000000E+00 0.  1.
<mgrwt>
<rscale>  0 0.14216501E+04</rscale>
<asrwt>0</asrwt>
<pdfrwt beam="1">  1        2 0.37374205E+00 0.14216501E+04</pdfrwt>
<pdfrwt beam="2">  1       -2 0.16784769E+00 0.14216501E+04</pdfrwt>
<totfact> 0.80252261E-01</totfact>
</mgrwt>
</event>
<event>
12    1  0.3147868E-008  0.4355230E+03  0.7818608E-02  0.1032129E+00
          1   -1    0    0  501    0  0.00000000000E+00  0.00000000000E+00  0.72437738152E+03  0.72437738152E+03  0.00000000000E+00 0. -1.
         -1   -1    0    0    0  501 -0.00000000000E+00 -0.00000000000E+00 -0.40890886038E+03  0.40890886038E+03  0.00000000000E+00 0.  1.
         23    2    1    2    0    0 -0.62794307331E+02 -0.21414395245E+03  0.42120820172E+03  0.48461806967E+03  0.87393173935E+02 0.  0.
    5000000    2    1    2    0    0  0.62794307331E+02  0.21414395245E+03 -0.10573968058E+03  0.64866817223E+03  0.59982394101E+03 0.  0.
         23    2    4    4    0    0  0.31498344403E+03  0.83379662215E+02 -0.26989190003E+02  0.34015113788E+03  0.93849039117E+02 0.  0.
         23    2    4    4    0    0 -0.25218913670E+03  0.13076429024E+03 -0.78750490574E+02  0.30851703435E+03  0.91008024075E+02 0.  0.
          5    1    3    3  502    0 -0.50249049004E+02 -0.51394546169E+02  0.89443864270E+02  0.11484189635E+03  0.47000000000E+01 0. -1.
         -5    1    3    3    0  502 -0.12545258326E+02 -0.16274940628E+03  0.33176433745E+03  0.36977617332E+03  0.47000000000E+01 0.  1.
         13    1    5    5    0    0  0.10263236876E+03  0.73791234733E+02 -0.59734419086E+01  0.12654734864E+03  0.00000000000E+00 0.  1.
        -13    1    5    5    0    0  0.21235107527E+03  0.95884274824E+01 -0.21015748094E+02  0.21360378924E+03  0.00000000000E+00 0. -1.
          2    1    6    6  503    0  0.33534017267E+01 -0.60216988961E+01  0.27608675629E+01  0.74248602974E+01  0.00000000000E+00 0. -1.
         -2    1    6    6    0  503 -0.25554253843E+03  0.13678598913E+03 -0.81511358137E+02  0.30109217405E+03  0.00000000000E+00 0.  1.
<mgrwt>
<rscale>  0 0.43552296E+03</rscale>
<asrwt>0</asrwt>
<pdfrwt beam="1">  1        1 0.11144267E+00 0.43552296E+03</pdfrwt>
<pdfrwt beam="2">  1       -1 0.62909055E-01 0.43552296E+03</pdfrwt>
<totfact> 0.69958049E+01</totfact>
</mgrwt>
</event>
<event>
12    1  0.3147868E-008  0.5929826E+03  0.7818608E-02  0.9920073E-01
          1   -1    0    0  501    0  0.00000000000E+00  0.00000000000E+00  0.47903025035E+03  0.47903025035E+03  0.00000000000E+00 0. -1.
         -1   -1    0    0    0  501 -0.00000000000E+00 -0.00000000000E+00 -0.10579542966E+04  0.10579542966E+04  0.00000000000E+00 0.  1.
         23    2    1    2    0    0  0.18803540378E+03  0.41050061764E+03  0.15609470620E+03  0.48617933998E+03  0.90203786892E+02 0.  0.
    5000000    2    1    2    0    0 -0.18803540378E+03 -0.41050061764E+03 -0.73501875248E+03  0.10508052070E+04  0.60005911910E+03 0.  0.
         23    2    4    4    0    0  0.17356872761E+03 -0.22230937483E+01 -0.16653646659E+03  0.25809887306E+03  0.93539233605E+02 0.  0.
         23    2    4    4    0    0 -0.36160413139E+03 -0.40827752389E+03 -0.56848228589E+03  0.79270633394E+03  0.88108672353E+02 0.  0.
          5    1    3    3  502    0  0.10347653062E+03  0.12417866176E+03  0.48999799441E+02  0.16896982799E+03  0.47000000000E+01 0. -1.
         -5    1    3    3    0  502  0.84558873164E+02  0.28632195587E+03  0.10709490676E+03  0.31720951199E+03  0.47000000000E+01 0.  1.
         11    1    5    5    0    0  0.94304512060E+02 -0.55528652695E+01 -0.28129273308E+02  0.98566887566E+02  0.00000000000E+00 0. -1.
        -11    1    5    5    0    0  0.79264215548E+02  0.33297715212E+01 -0.13840719328E+03  0.15953198550E+03  0.00000000000E+00 0.  1.
          4    1    6    6  503    0 -0.35748997879E+03 -0.37409945669E+03 -0.52360754523E+03  0.73614832055E+03  0.00000000000E+00 0. -1.
         -4    1    6    6    0  503 -0.41141526047E+01 -0.34178067199E+02 -0.44874740652E+02  0.56558013382E+02  0.00000000000E+00 0.  1.
<mgrwt>
<rscale>  0 0.59298262E+03</rscale>
<asrwt>0</asrwt>
<pdfrwt beam="1">  1        1 0.73696962E-01 0.59298262E+03</pdfrwt>
<pdfrwt beam="2">  1       -1 0.16276220E+00 0.59298262E+03</pdfrwt>
<totfact> 0.13749538E+01</totfact>
</mgrwt>
</event>
<event>
12    1  0.3147868E-008  0.1496389E+04  0.7818608E-02  0.8886857E-01
         -1   -1    0    0    0  501 -0.00000000000E+00  0.00000000000E+00  0.78243995005E+03  0.78243995005E+03  0.00000000000E+00 0.  1.
          1   -1    0    0  501    0  0.00000000000E+00 -0.00000000000E+00 -0.31799497479E+04  0.31799497479E+04  0.00000000000E+00 0. -1.
         23    2    1    2    0    0 -0.54071738170E+03  0.13473626664E+04 -0.17170404129E+04  0.22504458188E+04  0.92288472243E+02 0.  0.
    5000000    2    1    2    0    0  0.54071738170E+03 -0.13473626664E+04 -0.68046938497E+03  0.17119438792E+04  0.59995984840E+03 0.  0.
         23    2    4    4    0    0  0.16227216599E+03 -0.32933766422E+02 -0.18496056901E+02  0.18967231059E+03  0.90645421592E+02 0.  0.
         23    2    4    4    0    0  0.37844521571E+03 -0.13144289000E+04 -0.66197332807E+03  0.15222715686E+04  0.90321242745E+02 0.  0.
          5    1    3    3  502    0 -0.30063937862E+03  0.64714161013E+03 -0.80294443309E+03  0.10742058239E+04  0.47000000000E+01 0. -1.
         -5    1    3    3    0  502 -0.24007800308E+03  0.70022105631E+03 -0.91409597978E+03  0.11762399949E+04  0.47000000000E+01 0.  1.
         13    1    5    5    0    0  0.12565574830E+03 -0.43558560277E+02  0.21156224770E+02  0.13466365917E+03  0.00000000000E+00 0.  1.
        -13    1    5    5    0    0  0.36616417693E+02  0.10624793855E+02 -0.39652281670E+02  0.55008651418E+02  0.00000000000E+00 0. -1.
          1    1    6    6  503    0  0.24514607881E+03 -0.84471083963E+03 -0.47328185016E+03  0.99881365241E+03  0.00000000000E+00 0. -1.
         -1    1    6    6    0  503  0.13329913689E+03 -0.46971806039E+03 -0.18869147791E+03  0.52345791615E+03  0.00000000000E+00 0.  1.
<mgrwt>
<rscale>  0 0.14963895E+04</rscale>
<asrwt>0</asrwt>
<pdfrwt beam="1">  1        1 0.48922305E+00 0.14963895E+04</pdfrwt>
<pdfrwt beam="2">  1       -1 0.12037537E+00 0.14963895E+04</pdfrwt>
<totfact> 0.25885313E-01</totfact>
</mgrwt>
</event>
<event>
12    1  0.3147868E-008  0.7571271E+03  0.7818608E-02  0.9624235E-01
         -2   -1    0    0    0  501 -0.00000000000E+00  0.00000000000E+00  0.36038008437E+03  0.36038008437E+03  0.00000000000E+00 0.  1.
          2   -1    0    0  501    0  0.00000000000E+00 -0.00000000000E+00 -0.23325068854E+04  0.23325068854E+04  0.00000000000E+00 0. -1.
         23    2    1    2    0    0 -0.66074554442E+03 -0.11850482026E+03 -0.15633116287E+04  0.17038750935E+04  0.92838672564E+02 0.  0.
    5000000    2    1    2    0    0  0.66074554442E+03  0.11850482026E+03 -0.40881517231E+03  0.98901187620E+03  0.60032206295E+03 0.  0.
         23    2    4    4    0    0  0.56484059379E+03 -0.11107626449E+03 -0.42809211022E+03  0.72323227232E+03  0.91756372928E+02 0.  0.
         23    2    4    4    0    0  0.95904950624E+02  0.22958108475E+03  0.19276937902E+02  0.26577960388E+03  0.91443772199E+02 0.  0.
          5    1    3    3  502    0 -0.57568008131E+03 -0.90291148485E+02 -0.14181732725E+04  0.15332310877E+04  0.47000000000E+01 0. -1.
         -5    1    3    3    0  502 -0.85065463108E+02 -0.28213671776E+02 -0.14513835621E+03  0.17064400585E+03  0.47000000000E+01 0.  1.
         11    1    5    5    0    0  0.52452745111E+03 -0.77460614871E+02 -0.38370999992E+03  0.65449412362E+03  0.00000000000E+00 0. -1.
        -11    1    5    5    0    0  0.40313142686E+02 -0.33615649614E+02 -0.44382110295E+02  0.68738148698E+02  0.00000000000E+00 0.  1.
          3    1    6    6  503    0  0.55450034603E+02  0.48964228099E+02  0.31242406910E+02  0.80301245074E+02  0.00000000000E+00 0. -1.
         -3    1    6    6    0  503  0.40454916021E+02  0.18061685665E+03 -0.11965469008E+02  0.18547835880E+03  0.00000000000E+00 0.  1.
<mgrwt>
<rscale>  0 0.75712715E+03</rscale>
<asrwt>0</asrwt>
<pdfrwt beam="1">  1        2 0.35884722E+00 0.75712715E+03</pdfrwt>
<pdfrwt beam="2">  1       -2 0.55443089E-01 0.75712715E+03</pdfrwt>
<totfact> 0.13840542E+01</totfact>
</mgrwt>
</event>
<event>
12    1  0.3147868E-008  0.6727147E+03  0.7818608E-02  0.9765066E-01
         -1   -1    0    0    0  501 -0.00000000000E+00  0.00000000000E+00  0.44450281599E+03  0.44450281599E+03  0.00000000000E+00 0.  1.
          1   -1    0    0  501    0  0.00000000000E+00 -0.00000000000E+00 -0.12922065547E+04  0.12922065547E+04  0.00000000000E+00 0. -1.
         23    2    1    2    0    0  0.20660311178E+03 -0.55703116093E+03 -0.10113567855E+03  0.60955017073E+03  0.91402544421E+02 0.  0.
    5000000    2    1    2    0    0 -0.20660311178E+03  0.55703116093E+03 -0.74656806019E+03  0.11271592000E+04  0.60012951401E+03 0.  0.
         23    2    4    4    0    0 -0.33296441189E+03  0.50418967109E+03 -0.36650591765E+03  0.71257526150E+03  0.91457047844E+02 0.  0.
         23    2    4    4    0    0  0.12636130011E+03  0.52841489835E+02 -0.38006214254E+03  0.41458393850E+03  0.93130063102E+02 0.  0.
          5    1    3    3  502    0  0.17815485336E+03 -0.44126046055E+03 -0.11457288743E+03  0.48948849053E+03  0.47000000000E+01 0. -1.
         -5    1    3    3    0  502  0.28448258415E+02 -0.11577070037E+03  0.13437208879E+02  0.12006168021E+03  0.47000000000E+01 0.  1.
         11    1    5    5    0    0 -0.35182743718E+02  0.99341089985E+02 -0.92163335333E+02  0.14000199282E+03  0.00000000000E+00 0. -1.
        -11    1    5    5    0    0 -0.29778166817E+03  0.40484858111E+03 -0.27434258232E+03  0.57257326867E+03  0.00000000000E+00 0.  1.
          3    1    6    6  503    0  0.70761945286E+02  0.49919933449E+02 -0.11624413022E+03  0.14495499462E+03  0.00000000000E+00 0. -1.
         -3    1    6    6    0  503  0.55599354828E+02  0.29215563868E+01 -0.26381801232E+03  0.26962894387E+03  0.00000000000E+00 0.  1.
<mgrwt>
<rscale>  0 0.67271470E+03</rscale>
<asrwt>0</asrwt>
<pdfrwt beam="1">  1        1 0.19880101E+00 0.67271470E+03</pdfrwt>
<pdfrwt beam="2">  1       -1 0.68385049E-01 0.67271470E+03</pdfrwt>
<totfact> 0.20680724E+01</totfact>
</mgrwt>
</event>
<event>
12    1  0.3147868E-008  0.1441542E+04  0.7818608E-02  0.8924285E-01
         -1   -1    0    0    0  501 -0.00000000000E+00  0.00000000000E+00  0.54398991068E+03  0.54398991068E+03  0.00000000000E+00 0.  1.
          1   -1    0    0  501    0  0.00000000000E+00 -0.00000000000E+00 -0.38728980496E+04  0.38728980496E+04  0.00000000000E+00 0. -1.
         23    2    1    2    0    0 -0.20894351613E+03 -0.13718742379E+04 -0.16238774169E+04  0.21379474821E+04  0.90251058869E+02 0.  0.
    5000000    2    1    2    0    0  0.20894351613E+03  0.13718742379E+04 -0.17050307220E+04  0.22789404782E+04  0.60061936590E+03 0.  0.
         23    2    4    4    0    0  0.70535036144E+02  0.13374268357E+04 -0.14944331447E+04  0.20088165615E+04  0.91256898150E+02 0.  0.
         23    2    4    4    0    0  0.13840847999E+03  0.34447402106E+02 -0.21059757733E+03  0.27012391670E+03  0.90950865599E+02 0.  0.
          5    1    3    3  502    0 -0.10880596113E+02 -0.18727303402E+02 -0.36573474957E+02  0.42764568686E+02  0.47000000000E+01 0. -1.
         -5    1    3    3    0  502 -0.19806292002E+03 -0.13531469345E+04 -0.15873039420E+04  0.20951829134E+04  0.47000000000E+01 0.  1.
         13    1    5    5    0    0  0.79899315381E+02  0.72254673486E+03 -0.78253284424E+03  0.10680895735E+04  0.00000000000E+00 0.  1.
        -13    1    5    5    0    0 -0.93642792366E+01  0.61488010088E+03 -0.71190030042E+03  0.94072698798E+03  0.00000000000E+00 0. -1.
          4    1    6    6  503    0  0.82615327986E+01 -0.10852834614E+02  0.47630649201E+01  0.14447274164E+02  0.00000000000E+00 0. -1.
         -4    1    6    6    0  503  0.13014694719E+03  0.45300236720E+02 -0.21536064225E+03  0.25567664254E+03  0.00000000000E+00 0.  1.
<mgrwt>
<rscale>  0 0.14415419E+04</rscale>
<asrwt>0</asrwt>
<pdfrwt beam="1">  1        1 0.59583048E+00 0.14415419E+04</pdfrwt>
<pdfrwt beam="2">  1       -1 0.83690754E-01 0.14415419E+04</pdfrwt>
<totfact> 0.17124920E-01</totfact>
</mgrwt>
</event>
<event>
12    1  0.3147868E-008  0.1119488E+04  0.7818608E-02  0.9186403E-01
          2   -1    0    0  501    0  0.00000000000E+00  0.00000000000E+00  0.16435449369E+04  0.16435449369E+04  0.00000000000E+00 0. -1.
         -2   -1    0    0    0  501 -0.00000000000E+00 -0.00000000000E+00 -0.16647893543E+04  0.16647893543E+04  0.00000000000E+00 0.  1.
         23    2    1    2    0    0  0.10406102037E+04 -0.71473297284E+02 -0.12215804227E+04  0.16087371829E+04  0.88309491365E+02 0.  0.
    5000000    2    1    2    0    0 -0.10406102037E+04  0.71473297284E+02  0.12003360053E+04  0.16995971082E+04  0.59987146654E+03 0.  0.
         23    2    4    4    0    0 -0.10859829032E+04  0.38006470891E+02  0.11428884431E+04  0.15796895856E+04  0.91770559126E+02 0.  0.
         23    2    4    4    0    0  0.45372699523E+02  0.33466826393E+02  0.57447562222E+02  0.11990752264E+03  0.88875650492E+02 0.  0.
          5    1    3    3  502    0  0.54956945103E+03  0.38638714546E+01 -0.66327735440E+03  0.86139447982E+03  0.47000000000E+01 0. -1.
         -5    1    3    3    0  502  0.49104075270E+03 -0.75337168738E+02 -0.55830306829E+03  0.74734270309E+03  0.47000000000E+01 0.  1.
         11    1    5    5    0    0 -0.95527333090E+03  0.33280837938E+01  0.10027812661E+04  0.13849651550E+04  0.00000000000E+00 0. -1.
        -11    1    5    5    0    0 -0.13070957235E+03  0.34678387097E+02  0.14010717697E+03  0.19472443060E+03  0.00000000000E+00 0.  1.
          4    1    6    6  503    0  0.69560901640E+02  0.13888584654E+02  0.52835475113E+02  0.88448851045E+02  0.00000000000E+00 0. -1.
         -4    1    6    6    0  503 -0.24188202117E+02  0.19578241738E+02  0.46120871088E+01  0.31458671598E+02  0.00000000000E+00 0.  1.
<mgrwt>
<rscale>  0 0.11194875E+04</rscale>
<asrwt>0</asrwt>
<pdfrwt beam="1">  1        2 0.25285307E+00 0.11194875E+04</pdfrwt>
<pdfrwt beam="2">  1       -2 0.25612144E+00 0.11194875E+04</pdfrwt>
<totfact> 0.61058908E-01</totfact>
</mgrwt>
</event>
<event>
12    1  0.3147868E-008  0.9399009E+03  0.7818608E-02  0.9377033E-01
          2   -1    0    0  501    0  0.00000000000E+00  0.00000000000E+00  0.10710098494E+04  0.10710098494E+04  0.00000000000E+00 0. -1.
         -2   -1    0    0    0  501 -0.00000000000E+00 -0.00000000000E+00 -0.86182510270E+03  0.86182510270E+03  0.00000000000E+00 0.  1.
         23    2    1    2    0    0 -0.59322730838E+03 -0.61088387039E+03  0.24805434499E+03  0.89047544908E+03  0.79484745883E+02 0.  0.
    5000000    2    1    2    0    0  0.59322730838E+03  0.61088387039E+03 -0.38869598331E+02  0.10423595030E+04  0.59992061580E+03 0.  0.
         23    2    4    4    0    0  0.28066853552E+03 -0.51508307439E+02  0.31279272511E+02  0.30107798347E+03  0.90783405300E+02 0.  0.
         23    2    4    4    0    0  0.31255877286E+03  0.66239217783E+03 -0.70148870842E+02  0.74128151951E+03  0.90116831584E+02 0.  0.
          5    1    3    3  502    0 -0.53430795546E+03 -0.56087082718E+03  0.20265302781E+03  0.80071931145E+03  0.47000000000E+01 0. -1.
         -5    1    3    3    0  502 -0.58919352923E+02 -0.50013043208E+02  0.45401317180E+02  0.89756137626E+02  0.47000000000E+01 0.  1.
         11    1    5    5    0    0  0.25103172995E+03 -0.67434643754E+02  0.46656292592E+02  0.26408553588E+03  0.00000000000E+00 0. -1.
        -11    1    5    5    0    0  0.29636805565E+02  0.15926336315E+02 -0.15377020080E+02  0.36992447595E+02  0.00000000000E+00 0.  1.
          3    1    6    6  503    0  0.26882507464E+03  0.52280790201E+03 -0.25832511334E+02  0.58844060176E+03  0.00000000000E+00 0. -1.
         -3    1    6    6    0  503  0.43733698222E+02  0.13958427583E+03 -0.44316359509E+02  0.15284091775E+03  0.00000000000E+00 0.  1.
<mgrwt>
<rscale>  0 0.93990095E+03</rscale>
<asrwt>0</asrwt>
<pdfrwt beam="1">  1        2 0.16477075E+00 0.93990095E+03</pdfrwt>
<pdfrwt beam="2">  1       -2 0.13258848E+00 0.93990095E+03</pdfrwt>
<totfact> 0.93571540E+00</totfact>
</mgrwt>
</event>
<event>
12    1  0.3147868E-008  0.1418080E+04  0.7818608E-02  0.8940834E-01
         -2   -1    0    0    0  501 -0.00000000000E+00  0.00000000000E+00  0.10399841495E+04  0.10399841495E+04  0.00000000000E+00 0.  1.
          2   -1    0    0  501    0  0.00000000000E+00 -0.00000000000E+00 -0.20640281953E+04  0.20640281953E+04  0.00000000000E+00 0. -1.
         23    2    1    2    0    0  0.57883958598E+03  0.12763419658E+04 -0.43653399463E+03  0.14701706179E+04  0.82070928626E+02 0.  0.
    5000000    2    1    2    0    0 -0.57883958598E+03 -0.12763419658E+04 -0.58751005117E+03  0.16338417268E+04  0.60013885737E+03 0.  0.
         23    2    4    4    0    0 -0.44954569552E+03 -0.11116059886E+04 -0.68287945455E+03  0.13827222697E+04  0.88528635792E+02 0.  0.
         23    2    4    4    0    0 -0.12929389046E+03 -0.16473597720E+03  0.95369403387E+02  0.25111945715E+03  0.10055250549E+03 0.  0.
          5    1    3    3  502    0  0.63750755511E+02  0.20914818510E+03 -0.59989696552E+02  0.22677737067E+03  0.47000000000E+01 0. -1.
         -5    1    3    3    0  502  0.51508883047E+03  0.10671937807E+04 -0.37654429808E+03  0.12433932472E+04  0.47000000000E+01 0.  1.
         11    1    5    5    0    0 -0.18792919379E+03 -0.39522040253E+03 -0.21050835086E+03  0.48562363434E+03  0.00000000000E+00 0. -1.
        -11    1    5    5    0    0 -0.26161650173E+03 -0.71638558608E+03 -0.47237110369E+03  0.89709863534E+03  0.00000000000E+00 0.  1.
          4    1    6    6  503    0 -0.12053213341E+03 -0.17877940808E+03  0.90744289839E+02  0.23393289225E+03  0.00000000000E+00 0. -1.
         -4    1    6    6    0  503 -0.87617570528E+01  0.14043430883E+02  0.46251135480E+01  0.17186564897E+02  0.00000000000E+00 0.  1.
<mgrwt>
<rscale>  0 0.14180803E+04</rscale>
<asrwt>0</asrwt>
<pdfrwt beam="1">  1        2 0.31754280E+00 0.14180803E+04</pdfrwt>
<pdfrwt beam="2">  1       -2 0.15999756E+00 0.14180803E+04</pdfrwt>
<totfact> 0.14736382E+00</totfact>
</mgrwt>
</event>
<event>
12    1  0.3147868E-008  0.7658759E+03  0.7818608E-02  0.9610768E-01
          2   -1    0    0  501    0  0.00000000000E+00  0.00000000000E+00  0.10540767765E+04  0.10540767765E+04  0.00000000000E+00 0. -1.
         -2   -1    0    0    0  501 -0.00000000000E+00 -0.00000000000E+00 -0.58900622449E+03  0.58900622449E+03  0.00000000000E+00 0.  1.
         23    2    1    2    0    0  0.36438451383E+03  0.55556829447E+03  0.10795677777E+03  0.67927727179E+03  0.91272900470E+02 0.  0.
    5000000    2    1    2    0    0 -0.36438451383E+03 -0.55556829447E+03  0.35711377422E+03  0.96380572918E+03  0.59996585913E+03 0.  0.
         23    2    4    4    0    0 -0.17451692888E+03  0.71217110120E+02  0.18799636021E+03  0.28153409526E+03  0.91601201402E+02 0.  0.
         23    2    4    4    0    0 -0.18986758495E+03 -0.62678540459E+03  0.16911741401E+03  0.68227163393E+03  0.89354571869E+02 0.  0.
          5    1    3    3  502    0  0.63334060607E+02  0.99411672771E+02 -0.15396015817E+02  0.11896642896E+03  0.47000000000E+01 0. -1.
         -5    1    3    3    0  502  0.30105045323E+03  0.45615662170E+03  0.12335279358E+03  0.56031084283E+03  0.47000000000E+01 0.  1.
         13    1    5    5    0    0 -0.25122528536E+02  0.51482995926E+02  0.36925202621E+02  0.68155050423E+02  0.00000000000E+00 0. -1.
        -13    1    5    5    0    0 -0.14939440035E+03  0.19734114194E+02  0.15107115759E+03  0.21337904483E+03  0.00000000000E+00 0.  1.
          1    1    6    6  503    0  0.12569748803E+01 -0.80144497730E+02  0.46942883580E+01  0.80291698484E+02  0.00000000000E+00 0. -1.
         -1    1    6    6    0  503 -0.19112455983E+03 -0.54664090686E+03  0.16442312566E+03  0.60197993544E+03  0.00000000000E+00 0.  1.
<mgrwt>
<rscale>  0 0.76587595E+03</rscale>
<asrwt>0</asrwt>
<pdfrwt beam="1">  1        2 0.16216566E+00 0.76587595E+03</pdfrwt>
<pdfrwt beam="2">  1       -2 0.90616342E-01 0.76587595E+03</pdfrwt>
<totfact> 0.24578867E+01</totfact>
</mgrwt>
</event>
<event>
12    1  0.3147868E-008  0.6714478E+03  0.7818608E-02  0.9767346E-01
          1   -1    0    0  501    0  0.00000000000E+00  0.00000000000E+00  0.48843416387E+03  0.48843416387E+03  0.00000000000E+00 0. -1.
         -1   -1    0    0    0  501 -0.00000000000E+00 -0.00000000000E+00 -0.10680762670E+04  0.10680762670E+04  0.00000000000E+00 0.  1.
         23    2    1    2    0    0  0.36051540435E+03  0.44782589914E+03 -0.81993840568E+02  0.58793714198E+03  0.91802507116E+02 0.  0.
    5000000    2    1    2    0    0 -0.36051540435E+03 -0.44782589914E+03 -0.49764826255E+03  0.96857328887E+03  0.59996752411E+03 0.  0.
         23    2    4    4    0    0 -0.20188316215E+03  0.68181212854E+02 -0.31686438785E+03  0.39248923832E+03  0.90770441005E+02 0.  0.
         23    2    4    4    0    0 -0.15863224220E+03 -0.51600711199E+03 -0.18078387470E+03  0.57608405056E+03  0.88105028602E+02 0.  0.
          5    1    3    3  502    0  0.15626835068E+03  0.12512566885E+03 -0.29913652525E+02  0.20246764442E+03  0.47000000000E+01 0. -1.
         -5    1    3    3    0  502  0.20424705367E+03  0.32270023029E+03 -0.52080188043E+02  0.38546949756E+03  0.47000000000E+01 0.  1.
         11    1    5    5    0    0 -0.12044255156E+03  0.25222044775E+02 -0.25016707444E+03  0.27879405464E+03  0.00000000000E+00 0.  1.
        -11    1    5    5    0    0 -0.81440610585E+02  0.42959168079E+02 -0.66697313413E+02  0.11369518368E+03  0.00000000000E+00 0. -1.
          3    1    6    6  503    0 -0.13347281701E+03 -0.30299488609E+03 -0.89494107109E+02  0.34297243196E+03  0.00000000000E+00 0. -1.
         -3    1    6    6    0  503 -0.25159425195E+02 -0.21301222590E+03 -0.91289767589E+02  0.23311161860E+03  0.00000000000E+00 0.  1.
<mgrwt>
<rscale>  0 0.67144779E+03</rscale>
<asrwt>0</asrwt>
<pdfrwt beam="1">  1        1 0.75143719E-01 0.67144779E+03</pdfrwt>
<pdfrwt beam="2">  1       -1 0.16431942E+00 0.67144779E+03</pdfrwt>
<totfact> 0.12897041E+01</totfact>
</mgrwt>
</event>
<event>
12    1  0.3147868E-008  0.1133773E+04  0.7818608E-02  0.9172885E-01
          1   -1    0    0  501    0  0.00000000000E+00  0.00000000000E+00  0.14813813215E+04  0.14813813215E+04  0.00000000000E+00 0. -1.
         -1   -1    0    0    0  501 -0.00000000000E+00 -0.00000000000E+00 -0.10069101310E+04  0.10069101310E+04  0.00000000000E+00 0.  1.
         23    2    1    2    0    0  0.79166040003E+03  0.76434322612E+03 -0.10170726481E+03  0.11088431614E+04  0.90785640440E+02 0.  0.
    5000000    2    1    2    0    0 -0.79166040003E+03 -0.76434322612E+03  0.57617845537E+03  0.13794482911E+04  0.59995768115E+03 0.  0.
         23    2    4    4    0    0 -0.79770603954E+03 -0.70876674065E+03  0.34472116280E+03  0.11246636795E+04  0.85735019957E+02 0.  0.
         23    2    4    4    0    0  0.60456395050E+01 -0.55576485467E+02  0.23145729257E+03  0.25478461167E+03  0.90650011397E+02 0.  0.
          5    1    3    3  502    0  0.59757345974E+03  0.61009148365E+03 -0.49473198683E+02  0.85543868605E+03  0.47000000000E+01 0. -1.
         -5    1    3    3    0  502  0.19408694030E+03  0.15425174246E+03 -0.52234066125E+02  0.25340447532E+03  0.47000000000E+01 0.  1.
         11    1    5    5    0    0 -0.60370803615E+03 -0.58342531855E+03  0.26823398258E+03  0.88136142680E+03  0.00000000000E+00 0.  1.
        -11    1    5    5    0    0 -0.19399800339E+03 -0.12534142210E+03  0.76487180215E+02  0.24330225266E+03  0.00000000000E+00 0. -1.
          2    1    6    6  503    0  0.28964824983E+02  0.58016857462E+01  0.13490706808E+03  0.13810335862E+03  0.00000000000E+00 0. -1.
         -2    1    6    6    0  503 -0.22919185478E+02 -0.61378171213E+02  0.96550224484E+02  0.11668125305E+03  0.00000000000E+00 0.  1.
<mgrwt>
<rscale>  0 0.11337734E+04</rscale>
<asrwt>0</asrwt>
<pdfrwt beam="1">  1        1 0.22790482E+00 0.11337734E+04</pdfrwt>
<pdfrwt beam="2">  1       -1 0.15490925E+00 0.11337734E+04</pdfrwt>
<totfact> 0.21291892E+00</totfact>
</mgrwt>
</event>
<event>
12    1  0.3147868E-008  0.1561648E+04  0.7818608E-02  0.8844462E-01
          2   -1    0    0  501    0  0.00000000000E+00  0.00000000000E+00  0.11472034505E+04  0.11472034505E+04  0.00000000000E+00 0. -1.
         -2   -1    0    0    0  501 -0.00000000000E+00 -0.00000000000E+00 -0.21809931840E+04  0.21809931840E+04  0.00000000000E+00 0.  1.
         23    2    1    2    0    0 -0.58731613082E+02  0.15061167001E+04 -0.26632495844E+03  0.15334587896E+04  0.93434251164E+02 0.  0.
    5000000    2    1    2    0    0  0.58731613082E+02 -0.15061167001E+04 -0.76746477503E+03  0.17947378448E+04  0.60020399362E+03 0.  0.
         23    2    4    4    0    0  0.31188649851E+03 -0.72379091225E+03 -0.41435657728E+03  0.89520883987E+03  0.92525786882E+02 0.  0.
         23    2    4    4    0    0 -0.25315488543E+03 -0.78232578787E+03 -0.35310819774E+03  0.89952900494E+03  0.91356428602E+02 0.  0.
          5    1    3    3  502    0 -0.11245563796E+02  0.12047522534E+04 -0.22303759971E+03  0.12252845856E+04  0.47000000000E+01 0. -1.
         -5    1    3    3    0  502 -0.47486049286E+02  0.30136444669E+03 -0.43287358730E+02  0.30817420403E+03  0.47000000000E+01 0.  1.
         13    1    5    5    0    0  0.17516924828E+03 -0.38097579254E+03 -0.16938900925E+03  0.45223827404E+03  0.00000000000E+00 0.  1.
        -13    1    5    5    0    0  0.13671725023E+03 -0.34281511971E+03 -0.24496756803E+03  0.44297056584E+03  0.00000000000E+00 0. -1.
          4    1    6    6  503    0 -0.73115400099E+02 -0.33278127813E+03 -0.17937068956E+03  0.38504945796E+03  0.00000000000E+00 0.  1.
         -4    1    6    6    0  503 -0.18003948533E+03 -0.44954450974E+03 -0.17373750818E+03  0.51447954698E+03  0.00000000000E+00 0. -1.
<mgrwt>
<rscale>  0 0.15616484E+04</rscale>
<asrwt>0</asrwt>
<pdfrwt beam="1">  1        2 0.17649284E+00 0.15616484E+04</pdfrwt>
<pdfrwt beam="2">  1       -2 0.33553741E+00 0.15616484E+04</pdfrwt>
<totfact> 0.36748900E-01</totfact>
</mgrwt>
</event>
<event>
12    1  0.3147868E-008  0.5284553E+03  0.7818608E-02  0.1006607E+00
          2   -1    0    0  501    0  0.00000000000E+00  0.00000000000E+00  0.42803809165E+03  0.42803809165E+03  0.00000000000E+00 0. -1.
         -2   -1    0    0    0  501 -0.00000000000E+00 -0.00000000000E+00 -0.95024585432E+03  0.95024585432E+03  0.00000000000E+00 0.  1.
         23    2    1    2    0    0  0.42389185711E+03 -0.23724806015E+03 -0.12423210719E+03  0.50956493137E+03  0.90839717389E+02 0.  0.
    5000000    2    1    2    0    0 -0.42389185711E+03  0.23724806015E+03 -0.39797565548E+03  0.86871901460E+03  0.60026423799E+03 0.  0.
         23    2    4    4    0    0 -0.19163191588E+03  0.27156425448E+03 -0.49282319597E+03  0.59970979744E+03  0.79417902072E+02 0.  0.
         23    2    4    4    0    0 -0.23225994123E+03 -0.34316194329E+02  0.94847540490E+02  0.26900921716E+03  0.90816416386E+02 0.  0.
          5    1    3    3  502    0  0.24705849273E+03 -0.14886234141E+03 -0.11811430195E+03  0.31172259117E+03  0.47000000000E+01 0. -1.
         -5    1    3    3    0  502  0.17683336438E+03 -0.88385718743E+02 -0.61178052424E+01  0.19784234020E+03  0.47000000000E+01 0.  1.
         11    1    5    5    0    0 -0.43132214623E+02  0.10028087514E+03 -0.21507884734E+03  0.24119608710E+03  0.00000000000E+00 0. -1.
        -11    1    5    5    0    0 -0.14849970126E+03  0.17128337934E+03 -0.27774434862E+03  0.35851371035E+03  0.00000000000E+00 0.  1.
          3    1    6    6  503    0 -0.19303985493E+03 -0.30265505340E+02  0.36794025328E+02  0.19883205653E+03  0.00000000000E+00 0. -1.
         -3    1    6    6    0  503 -0.39220086298E+02 -0.40506889887E+01  0.58053515162E+02  0.70177160624E+02  0.00000000000E+00 0.  1.
<mgrwt>
<rscale>  0 0.52845527E+03</rscale>
<asrwt>0</asrwt>
<pdfrwt beam="1">  1        2 0.65852015E-01 0.52845527E+03</pdfrwt>
<pdfrwt beam="2">  1       -2 0.14619167E+00 0.52845527E+03</pdfrwt>
<totfact> 0.24425834E+01</totfact>
</mgrwt>
</event>
<event>
12    1  0.3147868E-008  0.3237411E+03  0.7818608E-02  0.1073940E+00
         -2   -1    0    0    0  501 -0.00000000000E+00  0.00000000000E+00  0.31912755401E+03  0.31912755401E+03  0.00000000000E+00 0. -1.
          2   -1    0    0  501    0  0.00000000000E+00 -0.00000000000E+00 -0.89209805488E+03  0.89209805488E+03  0.00000000000E+00 0.  1.
         23    2    1    2    0    0  0.79565611430E+02 -0.11374723174E+03 -0.57098959423E+03  0.59538090420E+03  0.95813282560E+02 0.  0.
    5000000    2    1    2    0    0 -0.79565611430E+02  0.11374723174E+03 -0.19809066459E+01  0.61584470469E+03  0.59999304750E+03 0.  0.
         23    2    4    4    0    0 -0.12812729633E+03  0.26570156458E+03  0.18001482636E+03  0.35726724933E+03  0.90667658272E+02 0.  0.
         23    2    4    4    0    0  0.48561684897E+02 -0.15195433283E+03 -0.18199573300E+03  0.25857745535E+03  0.91057657994E+02 0.  0.
          5    1    3    3  502    0  0.17960543643E+02 -0.10081233652E+03 -0.40564856877E+03  0.41839999960E+03  0.47000000000E+01 0. -1.
         -5    1    3    3    0  502  0.61605067787E+02 -0.12934895219E+02 -0.16534102547E+03  0.17698090460E+03  0.47000000000E+01 0.  1.
         13    1    5    5    0    0 -0.64086088683E+01  0.64728174440E+02  0.68775359344E+01  0.65407242218E+02  0.00000000000E+00 0.  1.
        -13    1    5    5    0    0 -0.12171868746E+03  0.20097339014E+03  0.17313729042E+03  0.29186000712E+03  0.00000000000E+00 0. -1.
          2    1    6    6  503    0  0.12832325395E+02 -0.14485157384E+03 -0.12977182775E+03  0.19490349996E+03  0.00000000000E+00 0. -1.
         -2    1    6    6    0  503  0.35729359502E+02 -0.71027589924E+01 -0.52223905249E+02  0.63673955391E+02  0.00000000000E+00 0.  1.
<mgrwt>
<rscale>  0 0.32374109E+03</rscale>
<asrwt>0</asrwt>
<pdfrwt beam="1">  1        2 0.13724585E+00 0.32374109E+03</pdfrwt>
<pdfrwt beam="2">  1       -2 0.49096547E-01 0.32374109E+03</pdfrwt>
<totfact> 0.12293750E+02</totfact>
</mgrwt>
</event>
<event>
12    1  0.3147868E-008  0.8175368E+03  0.7818608E-02  0.9534975E-01
         -1   -1    0    0    0  501 -0.00000000000E+00  0.00000000000E+00  0.39337022477E+03  0.39337022477E+03  0.00000000000E+00 0.  1.
          1   -1    0    0  501    0  0.00000000000E+00 -0.00000000000E+00 -0.25775109304E+04  0.25775109304E+04  0.00000000000E+00 0. -1.
         23    2    1    2    0    0 -0.73362248791E+03 -0.18073375519E+03 -0.23566266264E+03  0.79656589309E+03  0.90076003673E+02 0.  0.
    5000000    2    1    2    0    0  0.73362248791E+03  0.18073375519E+03 -0.19484780430E+04  0.21743152621E+04  0.60017791521E+03 0.  0.
         23    2    4    4    0    0  0.75055780571E+03  0.20557592139E+03 -0.12934742918E+04  0.15122794150E+04  0.91185559747E+02 0.  0.
         23    2    4    4    0    0 -0.16935317798E+02 -0.24842166201E+02 -0.65500375122E+03  0.66203584712E+03  0.91419967996E+02 0.  0.
          5    1    3    3  502    0 -0.20796732877E+03 -0.33843444013E+02 -0.10437403913E+03  0.23518464785E+03  0.47000000000E+01 0. -1.
         -5    1    3    3    0  502 -0.52565515914E+03 -0.14689031117E+03 -0.13128862351E+03  0.56138124524E+03  0.47000000000E+01 0.  1.
         11    1    5    5    0    0  0.43041316941E+03  0.16348973194E+03 -0.74300602704E+03  0.87409515791E+03  0.00000000000E+00 0.  1.
        -11    1    5    5    0    0  0.32014463630E+03  0.42086189448E+02 -0.55046826473E+03  0.63818425706E+03  0.00000000000E+00 0. -1.
          2    1    6    6  503    0 -0.54371015512E+02 -0.12726360817E+02 -0.43103533249E+03  0.43463734934E+03  0.00000000000E+00 0. -1.
         -2    1    6    6    0  503  0.37435697714E+02 -0.12115805384E+02 -0.22396841873E+03  0.22739849778E+03  0.00000000000E+00 0.  1.
<mgrwt>
<rscale>  0 0.81753680E+03</rscale>
<asrwt>0</asrwt>
<pdfrwt beam="1">  1        1 0.39654016E+00 0.81753680E+03</pdfrwt>
<pdfrwt beam="2">  1       -1 0.60518493E-01 0.81753680E+03</pdfrwt>
<totfact> 0.34765691E+00</totfact>
</mgrwt>
</event>
<event>
12    1  0.3147868E-008  0.4044131E+03  0.7818608E-02  0.1042262E+00
          1   -1    0    0  501    0  0.00000000000E+00  0.00000000000E+00  0.79299900821E+03  0.79299900821E+03  0.00000000000E+00 0. -1.
         -1   -1    0    0    0  501 -0.00000000000E+00 -0.00000000000E+00 -0.30952072882E+03  0.30952072882E+03  0.00000000000E+00 0.  1.
         23    2    1    2    0    0 -0.10307054127E+03  0.17824676053E+03  0.41026720542E+03  0.46439793780E+03  0.70362068397E+02 0.  0.
    5000000    2    1    2    0    0  0.10307054127E+03 -0.17824676053E+03  0.73211073966E+02  0.63812179922E+03  0.59953659202E+03 0.  0.
         23    2    4    4    0    0  0.24349346456E+03  0.10930669506E+03  0.11339460116E+03  0.30358527811E+03  0.89825746011E+02 0.  0.
         23    2    4    4    0    0 -0.14042292328E+03 -0.28755345559E+03 -0.40183527192E+02  0.33453652111E+03  0.88850328634E+02 0.  0.
          5    1    3    3  502    0 -0.63506816487E+02  0.77452093158E+02  0.13197460755E+03  0.16574477220E+03  0.47000000000E+01 0. -1.
         -5    1    3    3    0  502 -0.39563724786E+02  0.10079466737E+03  0.27829259787E+03  0.29865316559E+03  0.47000000000E+01 0.  1.
         13    1    5    5    0    0  0.21070407668E+03  0.82652339329E+02  0.12657146977E+03  0.25932210489E+03  0.00000000000E+00 0. -1.
        -13    1    5    5    0    0  0.32789387873E+02  0.26654355731E+02 -0.13176868613E+02  0.44263173214E+02  0.00000000000E+00 0.  1.
          1    1    6    6  503    0  0.47200216829E+01 -0.69374190511E+02 -0.16181218320E+02  0.71392497786E+02  0.00000000000E+00 0. -1.
         -1    1    6    6    0  503 -0.14514294497E+03 -0.21817926508E+03 -0.24002308872E+02  0.26314402333E+03  0.00000000000E+00 0.  1.
<mgrwt>
<rscale>  0 0.40441314E+03</rscale>
<asrwt>0</asrwt>
<pdfrwt beam="1">  1        1 0.12199985E+00 0.40441314E+03</pdfrwt>
<pdfrwt beam="2">  1       -1 0.47618574E-01 0.40441314E+03</pdfrwt>
<totfact> 0.10410219E+02</totfact>
</mgrwt>
</event>
<event>
12    1  0.3147868E-008  0.6067118E+03  0.7818608E-02  0.9891578E-01
          2   -1    0    0  501    0  0.00000000000E+00  0.00000000000E+00  0.10057012138E+04  0.10057012138E+04  0.00000000000E+00 0. -1.
         -2   -1    0    0    0  501 -0.00000000000E+00 -0.00000000000E+00 -0.68015771280E+03  0.68015771280E+03  0.00000000000E+00 0.  1.
         23    2    1    2    0    0  0.49521228870E+03 -0.27334484850E+03 -0.30374783802E+03  0.64854386622E+03  0.91617576031E+02 0.  0.
    5000000    2    1    2    0    0 -0.49521228870E+03  0.27334484850E+03  0.62929133904E+03  0.10373150604E+04  0.60005193779E+03 0.  0.
         23    2    4    4    0    0 -0.10973543932E+02 -0.63837922844E+01  0.42782195590E+03  0.43668866894E+03  0.86626763528E+02 0.  0.
         23    2    4    4    0    0 -0.48423874476E+03  0.27972864079E+03  0.20146938313E+03  0.60062639145E+03  0.86179320927E+02 0.  0.
          5    1    3    3  502    0  0.25987745795E+03 -0.10214515912E+03 -0.11739832174E+03  0.30294287024E+03  0.47000000000E+01 0. -1.
         -5    1    3    3    0  502  0.23533483074E+03 -0.17119968938E+03 -0.18634951628E+03  0.34560099598E+03  0.47000000000E+01 0.  1.
         13    1    5    5    0    0 -0.23789460947E+02 -0.39648903083E+02  0.16141006131E+03  0.16790229856E+03  0.00000000000E+00 0.  1.
        -13    1    5    5    0    0  0.12815917015E+02  0.33265110799E+02  0.26641189459E+03  0.26878637038E+03  0.00000000000E+00 0. -1.
          4    1    6    6  503    0 -0.58250614902E+02  0.16848587657E+02 -0.10296054956E+01  0.60647086739E+02  0.00000000000E+00 0. -1.
         -4    1    6    6    0  503 -0.42598812986E+03  0.26288005313E+03  0.20249898863E+03  0.53997930471E+03  0.00000000000E+00 0.  1.
<mgrwt>
<rscale>  0 0.60671180E+03</rscale>
<asrwt>0</asrwt>
<pdfrwt beam="1">  1        2 0.15472326E+00 0.60671180E+03</pdfrwt>
<pdfrwt beam="2">  1       -2 0.10463965E+00 0.60671180E+03</pdfrwt>
<totfact> 0.19141285E+01</totfact>
</mgrwt>
</event>
<event>
12    1  0.3147868E-008  0.4179343E+03  0.7818608E-02  0.1037741E+00
         -2   -1    0    0    0  501 -0.00000000000E+00  0.00000000000E+00  0.25134349770E+03  0.25134349770E+03  0.00000000000E+00 0. -1.
          2   -1    0    0  501    0  0.00000000000E+00 -0.00000000000E+00 -0.12827963293E+04  0.12827963293E+04  0.00000000000E+00 0.  1.
         23    2    1    2    0    0 -0.38626916790E+03  0.99636804767E+02 -0.45380802226E+03  0.61064695190E+03  0.88411627434E+02 0.  0.
    5000000    2    1    2    0    0  0.38626916790E+03 -0.99636804767E+02 -0.57764480935E+03  0.92349287510E+03  0.60002850071E+03 0.  0.
         23    2    4    4    0    0  0.26557881111E+03 -0.91661546301E+02  0.30381802856E+02  0.29679752438E+03  0.90729116343E+02 0.  0.
         23    2    4    4    0    0  0.12069035679E+03 -0.79752584658E+01 -0.60802661221E+03  0.62669535073E+03  0.91765649896E+02 0.  0.
          5    1    3    3  502    0 -0.26794876006E+03  0.44769774097E+02 -0.35452952912E+03  0.44667006583E+03  0.47000000000E+01 0. -1.
         -5    1    3    3    0  502 -0.11832040783E+03  0.54867030670E+02 -0.99278493136E+02  0.16397688606E+03  0.47000000000E+01 0.  1.
         13    1    5    5    0    0  0.67148937115E+02 -0.42398629321E+02  0.45954016952E+02  0.91751813050E+02  0.00000000000E+00 0.  1.
        -13    1    5    5    0    0  0.19842987399E+03 -0.49262916980E+02 -0.15572214096E+02  0.20504571133E+03  0.00000000000E+00 0. -1.
          1    1    6    6  503    0  0.13120008236E+03  0.71232249927E+01 -0.49309434211E+03  0.51030013930E+03  0.00000000000E+00 0. -1.
         -1    1    6    6    0  503 -0.10509725568E+02 -0.15098483459E+02 -0.11493227010E+03  0.11639521143E+03  0.00000000000E+00 0.  1.
<mgrwt>
<rscale>  0 0.41793427E+03</rscale>
<asrwt>0</asrwt>
<pdfrwt beam="1">  1        2 0.19735329E+00 0.41793427E+03</pdfrwt>
<pdfrwt beam="2">  1       -2 0.38668230E-01 0.41793427E+03</pdfrwt>
<totfact> 0.11249891E+02</totfact>
</mgrwt>
</event>
<event>
12    1  0.3147868E-008  0.6481199E+03  0.7818608E-02  0.9810314E-01
         -2   -1    0    0    0  501 -0.00000000000E+00  0.00000000000E+00  0.39212860436E+03  0.39212860436E+03  0.00000000000E+00 0. -1.
          2   -1    0    0  501    0  0.00000000000E+00 -0.00000000000E+00 -0.13074012978E+04  0.13074012978E+04  0.00000000000E+00 0.  1.
         23    2    1    2    0    0  0.33499564951E+03 -0.40290503947E+03 -0.69148337758E+03  0.87230019282E+03  0.90574880102E+02 0.  0.
    5000000    2    1    2    0    0 -0.33499564951E+03  0.40290503947E+03 -0.22378931589E+03  0.82722970937E+03  0.59972725312E+03 0.  0.
         23    2    4    4    0    0  0.12421026269E+03  0.74737042134E+01 -0.14132620562E+03  0.20868642755E+03  0.89960452632E+02 0.  0.
         23    2    4    4    0    0 -0.45920591220E+03  0.39543133526E+03 -0.82463110270E+02  0.61854328182E+03  0.92518194005E+02 0.  0.
          5    1    3    3  502    0  0.25194706778E+03 -0.24255583700E+03 -0.48485632864E+03  0.59784480298E+03  0.47000000000E+01 0. -1.
         -5    1    3    3    0  502  0.83048581726E+02 -0.16034920247E+03 -0.20662704894E+03  0.27445538984E+03  0.47000000000E+01 0.  1.
         13    1    5    5    0    0  0.25038732892E+02  0.41277320870E+02 -0.52535427754E+02  0.71349327484E+02  0.00000000000E+00 0. -1.
        -13    1    5    5    0    0  0.99171529795E+02 -0.33803616657E+02 -0.88790777866E+02  0.13733710007E+03  0.00000000000E+00 0.  1.
          3    1    6    6  503    0 -0.26961098370E+03  0.28951379153E+03 -0.61436043398E+02  0.40035322585E+03  0.00000000000E+00 0. -1.
         -3    1    6    6    0  503 -0.18959492850E+03  0.10591754373E+03 -0.21027066872E+02  0.21819005597E+03  0.00000000000E+00 0.  1.
<mgrwt>
<rscale>  0 0.64811985E+03</rscale>
<asrwt>0</asrwt>
<pdfrwt beam="1">  1        2 0.20113866E+00 0.64811985E+03</pdfrwt>
<pdfrwt beam="2">  1       -2 0.60327478E-01 0.64811985E+03</pdfrwt>
<totfact> 0.43199102E+01</totfact>
</mgrwt>
</event>
<event>
12    1  0.3147868E-008  0.5355187E+03  0.7818608E-02  0.1004902E+00
          2   -1    0    0  501    0  0.00000000000E+00  0.00000000000E+00  0.23332642191E+04  0.23332642191E+04  0.00000000000E+00 0. -1.
         -2   -1    0    0    0  501 -0.00000000000E+00 -0.00000000000E+00 -0.19797479674E+03  0.19797479674E+03  0.00000000000E+00 0.  1.
         23    2    1    2    0    0  0.16604333230E+03 -0.35986467481E+03  0.17404238175E+03  0.44226130138E+03  0.90726708737E+02 0.  0.
    5000000    2    1    2    0    0 -0.16604333230E+03  0.35986467481E+03  0.19612470406E+04  0.20889777145E+04  0.60022076339E+03 0.  0.
         23    2    4    4    0    0 -0.34356935383E+03  0.33868488703E+03  0.16140886568E+04  0.16872065696E+04  0.92932571026E+02 0.  0.
         23    2    4    4    0    0  0.17752602154E+03  0.21179787788E+02  0.34715838380E+03  0.40177114489E+03  0.94535906869E+02 0.  0.
          5    1    3    3  502    0  0.51176211437E+02 -0.16152193253E+03  0.31774698146E+02  0.17245306825E+03  0.47000000000E+01 0. -1.
         -5    1    3    3    0  502  0.11486712086E+03 -0.19834274228E+03  0.14226768360E+03  0.26980823314E+03  0.47000000000E+01 0.  1.
         11    1    5    5    0    0 -0.22225711407E+03  0.17718674879E+03  0.10600626329E+04  0.10975090680E+04  0.00000000000E+00 0. -1.
        -11    1    5    5    0    0 -0.12131223976E+03  0.16149813823E+03  0.55402602391E+03  0.58969750155E+03  0.00000000000E+00 0.  1.
          4    1    6    6  503    0  0.95930803296E+02  0.37224148863E+02  0.26753064449E+03  0.28663740514E+03  0.00000000000E+00 0. -1.
         -4    1    6    6    0  503  0.81595218240E+02 -0.16044361074E+02  0.79627739305E+02  0.11513373975E+03  0.00000000000E+00 0.  1.
<mgrwt>
<rscale>  0 0.53551871E+03</rscale>
<asrwt>0</asrwt>
<pdfrwt beam="1">  1        2 0.35896371E+00 0.53551871E+03</pdfrwt>
<pdfrwt beam="2">  1       -2 0.30457663E-01 0.53551871E+03</pdfrwt>
<totfact> 0.46391022E+01</totfact>
</mgrwt>
</event>
<event>
12    1  0.3147868E-008  0.1244309E+04  0.7818608E-02  0.9074933E-01
          1   -1    0    0  501    0  0.00000000000E+00  0.00000000000E+00  0.52139442841E+03  0.52139442841E+03  0.00000000000E+00 0. -1.
         -1   -1    0    0    0  501 -0.00000000000E+00 -0.00000000000E+00 -0.32482989023E+04  0.32482989023E+04  0.00000000000E+00 0.  1.
         23    2    1    2    0    0 -0.11489826917E+04  0.43822908323E+03 -0.12347425548E+04  0.17451534175E+04  0.93623280156E+02 0.  0.
    5000000    2    1    2    0    0  0.11489826917E+04 -0.43822908323E+03 -0.14921619190E+04  0.20245399132E+04  0.60000726011E+03 0.  0.
         23    2    4    4    0    0  0.97590935593E+03 -0.29671644488E+03 -0.14582286886E+04  0.17817289679E+04  0.87678316656E+02 0.  0.
         23    2    4    4    0    0  0.17307333580E+03 -0.14151263835E+03 -0.33933230460E+02  0.24281094529E+03  0.88461769392E+02 0.  0.
          5    1    3    3  502    0 -0.17878083723E+03  0.85706479879E+02 -0.24320988508E+03  0.31381734600E+03  0.47000000000E+01 0. -1.
         -5    1    3    3    0  502 -0.97020185451E+03  0.35252260335E+03 -0.99153266973E+03  0.14313360715E+04  0.47000000000E+01 0.  1.
         13    1    5    5    0    0  0.91997898330E+03 -0.29138245872E+03 -0.14038148454E+04  0.17035143636E+04  0.00000000000E+00 0.  1.
        -13    1    5    5    0    0  0.55930372637E+02 -0.53339861619E+01 -0.54413843218E+02  0.78214604298E+02  0.00000000000E+00 0. -1.
          3    1    6    6  503    0  0.23160594892E+02  0.85687747167E+01 -0.17056573064E+02  0.30012726311E+02  0.00000000000E+00 0. -1.
         -3    1    6    6    0  503  0.14991274091E+03 -0.15008141307E+03 -0.16876657396E+02  0.21279821898E+03  0.00000000000E+00 0.  1.
<mgrwt>
<rscale>  0 0.12443093E+04</rscale>
<asrwt>0</asrwt>
<pdfrwt beam="1">  1        1 0.80214529E-01 0.12443093E+04</pdfrwt>
<pdfrwt beam="2">  1       -1 0.49973829E+00 0.12443093E+04</pdfrwt>
<totfact> 0.61535923E-02</totfact>
</mgrwt>
</event>
<event>
12    1  0.3147868E-008  0.1482090E+04  0.7818608E-02  0.8896451E-01
          1   -1    0    0  501    0  0.00000000000E+00  0.00000000000E+00  0.37928223816E+04  0.37928223816E+04  0.00000000000E+00 0. -1.
         -1   -1    0    0    0  501 -0.00000000000E+00 -0.00000000000E+00 -0.59556200592E+03  0.59556200592E+03  0.00000000000E+00 0.  1.
         23    2    1    2    0    0  0.13709594136E+04  0.39617052419E+03  0.12379884751E+04  0.18913464959E+04  0.89973913866E+02 0.  0.
    5000000    2    1    2    0    0 -0.13709594136E+04 -0.39617052419E+03  0.19592719006E+04  0.24970378916E+04  0.59997587770E+03 0.  0.
         23    2    4    4    0    0 -0.68296104602E+03  0.91630089231E+02  0.78126255634E+03  0.10456459545E+04  0.90401418902E+02 0.  0.
         23    2    4    4    0    0 -0.68799836755E+03 -0.48780061342E+03  0.11780093442E+04  0.14513919371E+04  0.86840934167E+02 0.  0.
          5    1    3    3  502    0  0.47380695712E+03  0.13050487601E+03  0.37144597498E+03  0.61605093751E+03  0.47000000000E+01 0. -1.
         -5    1    3    3    0  502  0.89715245645E+03  0.26566564818E+03  0.86654250007E+03  0.12752955584E+04  0.47000000000E+01 0.  1.
         13    1    5    5    0    0 -0.50397853943E+02  0.19969782825E+02  0.34054466949E+02  0.64019080182E+02  0.00000000000E+00 0. -1.
        -13    1    5    5    0    0 -0.63256319208E+03  0.71660306406E+02  0.74720808939E+03  0.98162687429E+03  0.00000000000E+00 0.  1.
          3    1    6    6  503    0 -0.15873554665E+03 -0.14960943556E+03  0.26543417152E+03  0.34356259457E+03  0.00000000000E+00 0. -1.
         -3    1    6    6    0  503 -0.52926282090E+03 -0.33819117787E+03  0.91257517272E+03  0.11078293426E+04  0.00000000000E+00 0.  1.
<mgrwt>
<rscale>  0 0.14820902E+04</rscale>
<asrwt>0</asrwt>
<pdfrwt beam="1">  1        1 0.58351112E+00 0.14820902E+04</pdfrwt>
<pdfrwt beam="2">  1       -1 0.91624926E-01 0.14820902E+04</pdfrwt>
<totfact> 0.16278888E-01</totfact>
</mgrwt>
</event>
<event>
12    1  0.3147868E-008  0.5489556E+03  0.7818608E-02  0.1001736E+00
          2   -1    0    0  501    0  0.00000000000E+00  0.00000000000E+00  0.16144725277E+04  0.16144725277E+04  0.00000000000E+00 0. -1.
         -2   -1    0    0    0  501 -0.00000000000E+00 -0.00000000000E+00 -0.20479361569E+03  0.20479361569E+03  0.00000000000E+00 0.  1.
         23    2    1    2    0    0 -0.28044621544E+03  0.30017197992E+03  0.56907229943E+03  0.70779255886E+03  0.91508071318E+02 0.  0.
    5000000    2    1    2    0    0  0.28044621544E+03 -0.30017197992E+03  0.84060661257E+03  0.11114735845E+04  0.60000062892E+03 0.  0.
         23    2    4    4    0    0 -0.11695552506E+03 -0.22982103928E+03  0.16299059539E+03  0.31776886209E+03  0.88965221254E+02 0.  0.
         23    2    4    4    0    0  0.39740174050E+03 -0.70350940649E+02  0.67761601718E+03  0.79370472243E+03  0.89029890846E+02 0.  0.
          5    1    3    3  502    0 -0.12406637330E+03  0.77657888100E+02  0.16401276702E+03  0.21987607945E+03  0.47000000000E+01 0. -1.
         -5    1    3    3    0  502 -0.15637984214E+03  0.22251409182E+03  0.40505953241E+03  0.48791647941E+03  0.47000000000E+01 0.  1.
         11    1    5    5    0    0 -0.45979912818E+02 -0.18855106975E+02  0.22478693054E+02  0.54543185488E+02  0.00000000000E+00 0. -1.
        -11    1    5    5    0    0 -0.70975612242E+02 -0.21096593230E+03  0.14051190233E+03  0.26322567660E+03  0.00000000000E+00 0.  1.
          4    1    6    6  503    0  0.16209113529E+03 -0.55768015586E+02  0.35397127977E+03  0.39329286112E+03  0.00000000000E+00 0. -1.
         -4    1    6    6    0  503  0.23531060521E+03 -0.14582925063E+02  0.32364473741E+03  0.40041186131E+03  0.00000000000E+00 0.  1.
<mgrwt>
<rscale>  0 0.54895564E+03</rscale>
<asrwt>0</asrwt>
<pdfrwt beam="1">  1        2 0.24838038E+00 0.54895564E+03</pdfrwt>
<pdfrwt beam="2">  1       -2 0.31506711E-01 0.54895564E+03</pdfrwt>
<totfact> 0.10666355E+02</totfact>
</mgrwt>
</event>
<event>
12    1  0.3147868E-008  0.1235527E+04  0.7818608E-02  0.9082316E-01
          1   -1    0    0  501    0  0.00000000000E+00  0.00000000000E+00  0.18541741290E+04  0.18541741290E+04  0.00000000000E+00 0. -1.
         -1   -1    0    0    0  501 -0.00000000000E+00 -0.00000000000E+00 -0.95199953981E+03  0.95199953981E+03  0.00000000000E+00 0.  1.
         23    2    1    2    0    0 -0.11745072837E+04  0.17562938421E+03  0.87056546084E+03  0.14752651436E+04  0.90608951849E+02 0.  0.
    5000000    2    1    2    0    0  0.11745072837E+04 -0.17562938421E+03  0.31609128360E+02  0.13309085252E+04  0.60000443775E+03 0.  0.
         23    2    4    4    0    0  0.78666122294E+03  0.98802055614E+02  0.19313083545E+03  0.82064410095E+03  0.86945356155E+02 0.  0.
         23    2    4    4    0    0  0.38784606081E+03 -0.27443143983E+03 -0.16152170709E+03  0.51026442426E+03  0.92430183128E+02 0.  0.
          5    1    3    3  502    0 -0.15851511395E+03 -0.58665210350E+01  0.10612722443E+03  0.19090975665E+03  0.47000000000E+01 0.  1.
         -5    1    3    3    0  502 -0.10159921698E+04  0.18149590525E+03  0.76443823641E+03  0.12843553870E+04  0.47000000000E+01 0. -1.
         11    1    5    5    0    0  0.48888394570E+03  0.24336185023E+02  0.14015306693E+03  0.50915876152E+03  0.00000000000E+00 0. -1.
        -11    1    5    5    0    0  0.29777727724E+03  0.74465870591E+02  0.52977768522E+02  0.31148533944E+03  0.00000000000E+00 0.  1.
          3    1    6    6  503    0  0.15758206437E+03 -0.58271938617E+02 -0.49342823243E+02  0.17510693889E+03  0.00000000000E+00 0. -1.
         -3    1    6    6    0  503  0.23026399644E+03 -0.21615950121E+03 -0.11217888385E+03  0.33515748537E+03  0.00000000000E+00 0.  1.
<mgrwt>
<rscale>  0 0.12355270E+04</rscale>
<asrwt>0</asrwt>
<pdfrwt beam="1">  1        1 0.28525756E+00 0.12355270E+04</pdfrwt>
<pdfrwt beam="2">  1       -1 0.14646147E+00 0.12355270E+04</pdfrwt>
<totfact> 0.13617408E+00</totfact>
</mgrwt>
</event>
<event>
12    1  0.3147868E-008  0.5384464E+03  0.7818608E-02  0.1004204E+00
         -1   -1    0    0    0  501 -0.00000000000E+00  0.00000000000E+00  0.60394306216E+03  0.60394306216E+03  0.00000000000E+00 0.  1.
          1   -1    0    0  501    0  0.00000000000E+00 -0.00000000000E+00 -0.70589586354E+03  0.70589586354E+03  0.00000000000E+00 0. -1.
         23    2    1    2    0    0  0.41139564206E+03  0.21227943329E+03  0.17482070622E+03  0.50305329871E+03  0.90506408141E+02 0.  0.
    5000000    2    1    2    0    0 -0.41139564206E+03 -0.21227943329E+03 -0.27677350760E+03  0.80678562700E+03  0.59999211771E+03 0.  0.
         23    2    4    4    0    0 -0.46191875269E+03 -0.20864956318E+03 -0.39504621970E+03  0.64984925129E+03  0.96638291626E+02 0.  0.
         23    2    4    4    0    0  0.50523110632E+02 -0.36298701160E+01  0.11827271210E+03  0.15693637570E+03  0.89860063023E+02 0.  0.
          5    1    3    3  502    0  0.19102792951E+03  0.48939801699E+02  0.78326965462E+02  0.21223566515E+03  0.47000000000E+01 0. -1.
         -5    1    3    3    0  502  0.22036771254E+03  0.16333963159E+03  0.96493740758E+02  0.29081763355E+03  0.47000000000E+01 0.  1.
         13    1    5    5    0    0 -0.32082180314E+03 -0.19206327513E+03 -0.28647393936E+03  0.47104378666E+03  0.00000000000E+00 0.  1.
        -13    1    5    5    0    0 -0.14109694955E+03 -0.16586288050E+02 -0.10857228034E+03  0.17880546463E+03  0.00000000000E+00 0. -1.
          2    1    6    6  503    0 -0.19089517931E+02 -0.48145873133E+01  0.68708289468E+02  0.71473204682E+02  0.00000000000E+00 0.  1.
         -2    1    6    6    0  503  0.69612628563E+02  0.11847171973E+01  0.49564422632E+02  0.85463171022E+02  0.00000000000E+00 0. -1.
<mgrwt>
<rscale>  0 0.53844636E+03</rscale>
<asrwt>0</asrwt>
<pdfrwt beam="1">  1        1 0.10859936E+00 0.53844636E+03</pdfrwt>
<pdfrwt beam="2">  1       -1 0.92914317E-01 0.53844636E+03</pdfrwt>
<totfact> 0.31819121E+01</totfact>
</mgrwt>
</event>
<event>
12    1  0.3147868E-008  0.4234522E+03  0.7818608E-02  0.1035949E+00
         -4   -1    0    0    0  501 -0.00000000000E+00  0.00000000000E+00  0.74749404625E+03  0.74749404625E+03  0.00000000000E+00 0.  1.
          4   -1    0    0  501    0  0.00000000000E+00 -0.00000000000E+00 -0.34684574645E+03  0.34684574645E+03  0.00000000000E+00 0. -1.
         23    2    1    2    0    0  0.30925374028E+03  0.89395152966E+02  0.97308136228E+02  0.34891500250E+03  0.92970083061E+02 0.  0.
    5000000    2    1    2    0    0 -0.30925374028E+03 -0.89395152966E+02  0.30334016358E+03  0.74542479020E+03  0.60001124469E+03 0.  0.
         23    2    4    4    0    0 -0.35745261937E+03 -0.16355736025E+03  0.41271118202E+03  0.57739137974E+03  0.92341217540E+02 0.  0.
         23    2    4    4    0    0  0.48198879087E+02  0.74162207283E+02 -0.10937101844E+03  0.16803341045E+03  0.91924112283E+02 0.  0.
          5    1    3    3  502    0  0.20758255596E+03  0.58214987558E+02  0.18432854996E+02  0.21642865443E+03  0.47000000000E+01 0. -1.
         -5    1    3    3    0  502  0.10167118432E+03  0.31180165408E+02  0.78875281233E+02  0.13248634807E+03  0.47000000000E+01 0.  1.
         13    1    5    5    0    0 -0.27468510022E+03 -0.87150151665E+02  0.32689026560E+03  0.43578010390E+03  0.00000000000E+00 0.  1.
        -13    1    5    5    0    0 -0.82767519148E+02 -0.76407208584E+02  0.85820916420E+02  0.14161127584E+03  0.00000000000E+00 0. -1.
          3    1    6    6  503    0  0.70283887031E+01 -0.20012316625E+02 -0.55119699368E+01  0.21915128954E+02  0.00000000000E+00 0. -1.
         -3    1    6    6    0  503  0.41170490384E+02  0.94174523908E+02 -0.10385904850E+03  0.14611828150E+03  0.00000000000E+00 0.  1.
<mgrwt>
<rscale>  0 0.42345220E+03</rscale>
<asrwt>0</asrwt>
<pdfrwt beam="1">  1        4 0.53360884E-01 0.42345220E+03</pdfrwt>
<pdfrwt beam="2">  1       -4 0.11499908E+00 0.42345220E+03</pdfrwt>
<totfact> 0.38387649E+00</totfact>
</mgrwt>
</event>
<event>
12    1  0.3147868E-008  0.6400782E+03  0.7818608E-02  0.9825577E-01
          2   -1    0    0  501    0  0.00000000000E+00  0.00000000000E+00  0.19331212341E+04  0.19331212341E+04  0.00000000000E+00 0. -1.
         -2   -1    0    0    0  501 -0.00000000000E+00 -0.00000000000E+00 -0.22133203166E+03  0.22133203166E+03  0.00000000000E+00 0.  1.
         23    2    1    2    0    0  0.28345965058E+03  0.42392608652E+03  0.61142552022E+03  0.80121799137E+03  0.89701742377E+02 0.  0.
    5000000    2    1    2    0    0 -0.28345965058E+03 -0.42392608652E+03  0.11003636823E+04  0.13532352744E+04  0.60031889390E+03 0.  0.
         23    2    4    4    0    0 -0.26470952920E+03 -0.55185486282E+03  0.92101406306E+03  0.11097953940E+04  0.93616171863E+02 0.  0.
         23    2    4    4    0    0 -0.18750121380E+02  0.12792877631E+03  0.17934961920E+03  0.24343988046E+03  0.10187909812E+03 0.  0.
          5    1    3    3  502    0  0.21042997726E+03  0.25082379380E+03  0.42494133664E+03  0.53646116397E+03  0.47000000000E+01 0. -1.
         -5    1    3    3    0  502  0.73029673319E+02  0.17310229271E+03  0.18648418358E+03  0.26475682740E+03  0.47000000000E+01 0.  1.
         13    1    5    5    0    0 -0.18424245152E+03 -0.27731917954E+03  0.48327419492E+03  0.58686042272E+03  0.00000000000E+00 0. -1.
        -13    1    5    5    0    0 -0.80467077681E+02 -0.27453568328E+03  0.43773986814E+03  0.52293497124E+03  0.00000000000E+00 0.  1.
          4    1    6    6  503    0  0.56239278123E+01 -0.68081789053E+01 -0.76412263338E+01  0.11677679732E+02  0.00000000000E+00 0. -1.
         -4    1    6    6    0  503 -0.24374049193E+02  0.13473695521E+03  0.18699084554E+03  0.23176220073E+03  0.00000000000E+00 0.  1.
<mgrwt>
<rscale>  0 0.64007820E+03</rscale>
<asrwt>0</asrwt>
<pdfrwt beam="1">  1        2 0.29740326E+00 0.64007820E+03</pdfrwt>
<pdfrwt beam="2">  1       -2 0.34051083E-01 0.64007820E+03</pdfrwt>
<totfact> 0.61211405E+01</totfact>
</mgrwt>
</event>
<event>
12    1  0.3147868E-008  0.1276715E+04  0.7818608E-02  0.9048237E-01
          2   -1    0    0  501    0  0.00000000000E+00  0.00000000000E+00  0.35649310944E+04  0.35649310944E+04  0.00000000000E+00 0. -1.
         -2   -1    0    0    0  501 -0.00000000000E+00 -0.00000000000E+00 -0.73930242718E+03  0.73930242718E+03  0.00000000000E+00 0.  1.
         23    2    1    2    0    0 -0.81413624148E+03  0.90731051397E+03  0.61170375350E+02  0.12239215012E+04  0.90619191838E+02 0.  0.
    5000000    2    1    2    0    0  0.81413624148E+03 -0.90731051397E+03  0.27644582919E+04  0.30803120203E+04  0.60005191997E+03 0.  0.
         23    2    4    4    0    0  0.23987434624E+03  0.17414696969E+02  0.70275820853E+03  0.74712170367E+03  0.80490786942E+02 0.  0.
         23    2    4    4    0    0  0.57426189524E+03 -0.92472521094E+03  0.20617000833E+04  0.23331903167E+04  0.90974612138E+02 0.  0.
          5    1    3    3  502    0 -0.78687734914E+02  0.72763384968E+02 -0.17818394924E+02  0.10874674715E+03  0.47000000000E+01 0. -1.
         -5    1    3    3    0  502 -0.73544850657E+03  0.83454712900E+03  0.78988770274E+02  0.11151747541E+04  0.47000000000E+01 0.  1.
         13    1    5    5    0    0  0.87899234943E+02  0.29387960629E+02  0.17820529865E+03  0.20086576662E+03  0.00000000000E+00 0. -1.
        -13    1    5    5    0    0  0.15197511130E+03 -0.11973263661E+02  0.52455290988E+03  0.54625593705E+03  0.00000000000E+00 0.  1.
          4    1    6    6  503    0  0.12314415217E+03 -0.18573768969E+03  0.50338057394E+03  0.55050429046E+03  0.00000000000E+00 0.  1.
         -4    1    6    6    0  503  0.45111774307E+03 -0.73898752124E+03  0.15583195094E+04  0.17826860262E+04  0.00000000000E+00 0. -1.
<mgrwt>
<rscale>  0 0.12767154E+04</rscale>
<asrwt>0</asrwt>
<pdfrwt beam="1">  1        2 0.54845093E+00 0.12767154E+04</pdfrwt>
<pdfrwt beam="2">  1       -2 0.11373884E+00 0.12767154E+04</pdfrwt>
<totfact> 0.43808190E-01</totfact>
</mgrwt>
</event>
<event>
12    1  0.3147868E-008  0.9962550E+03  0.7818608E-02  0.9312662E-01
          2   -1    0    0  501    0  0.00000000000E+00  0.00000000000E+00  0.14832305838E+04  0.14832305838E+04  0.00000000000E+00 0. -1.
         -2   -1    0    0    0  501 -0.00000000000E+00 -0.00000000000E+00 -0.10145355861E+04  0.10145355861E+04  0.00000000000E+00 0.  1.
         23    2    1    2    0    0  0.87902172323E+03 -0.37778487837E+03  0.87288343147E+03  0.12985590764E+04  0.94496484866E+02 0.  0.
    5000000    2    1    2    0    0 -0.87902172323E+03  0.37778487837E+03 -0.40418843381E+03  0.11992070935E+04  0.59944037131E+03 0.  0.
         23    2    4    4    0    0 -0.15634491190E+03  0.22751710268E+03 -0.34687783886E+03  0.45280651682E+03  0.92204897356E+02 0.  0.
         23    2    4    4    0    0 -0.72267681134E+03  0.15026777569E+03 -0.57310594952E+02  0.74640057665E+03  0.94800519353E+02 0.  0.
          5    1    3    3  502    0  0.59896552232E+03 -0.21299102027E+03  0.60113637309E+03  0.87493536944E+03  0.47000000000E+01 0. -1.
         -5    1    3    3    0  502  0.28005620091E+03 -0.16479385810E+03  0.27174705839E+03  0.42362370693E+03  0.47000000000E+01 0.  1.
         13    1    5    5    0    0 -0.92402041904E+01  0.75943277737E+02 -0.63830161810E+02  0.99634594211E+02  0.00000000000E+00 0.  1.
        -13    1    5    5    0    0 -0.14710470770E+03  0.15157382494E+03 -0.28304767705E+03  0.35317192261E+03  0.00000000000E+00 0. -1.
          1    1    6    6  503    0 -0.64883573522E+03  0.16337100232E+03 -0.55479771802E+02  0.67138357202E+03  0.00000000000E+00 0. -1.
         -1    1    6    6    0  503 -0.73841076116E+02 -0.13103226625E+02 -0.18308231506E+01  0.75017004628E+02  0.00000000000E+00 0.  1.
<mgrwt>
<rscale>  0 0.99625499E+03</rscale>
<asrwt>0</asrwt>
<pdfrwt beam="1">  1        2 0.22818932E+00 0.99625499E+03</pdfrwt>
<pdfrwt beam="2">  1       -2 0.15608240E+00 0.99625499E+03</pdfrwt>
<totfact> 0.34708041E+00</totfact>
</mgrwt>
</event>
<event>
12    1  0.3147868E-008  0.4720530E+03  0.7818608E-02  0.1021342E+00
         -1   -1    0    0    0  501 -0.00000000000E+00  0.00000000000E+00  0.33198011261E+03  0.33198011261E+03  0.00000000000E+00 0.  1.
          1   -1    0    0  501    0  0.00000000000E+00 -0.00000000000E+00 -0.83625952320E+03  0.83625952320E+03  0.00000000000E+00 0. -1.
         23    2    1    2    0    0 -0.65618720208E+01  0.29891749556E+03 -0.36957180741E+03  0.48441992699E+03  0.93191295264E+02 0.  0.
    5000000    2    1    2    0    0  0.65618720208E+01 -0.29891749556E+03 -0.13470760318E+03  0.68381970882E+03  0.60005710437E+03 0.  0.
         23    2    4    4    0    0  0.53756756613E+02  0.16100242034E+03  0.56176142352E+01  0.19221768772E+03  0.90025072322E+02 0.  0.
         23    2    4    4    0    0 -0.47194884592E+02 -0.45991991590E+03 -0.14032521741E+03  0.49160202110E+03  0.90706638898E+02 0.  0.
          5    1    3    3  502    0 -0.15748578106E+02  0.18211434766E+03 -0.28956611108E+03  0.34246791969E+03  0.47000000000E+01 0. -1.
         -5    1    3    3    0  502  0.91867060850E+01  0.11680314790E+03 -0.80005696333E+02  0.14195200729E+03  0.47000000000E+01 0.  1.
         11    1    5    5    0    0  0.39336356592E+02  0.41234710323E+02  0.36525065761E+02  0.67688482877E+02  0.00000000000E+00 0. -1.
        -11    1    5    5    0    0  0.14420400021E+02  0.11976771001E+03 -0.30907451526E+02  0.12452920484E+03  0.00000000000E+00 0.  1.
          3    1    6    6  503    0  0.59752579738E+01 -0.24150831503E+03 -0.10752720745E+03  0.26443159849E+03  0.00000000000E+00 0. -1.
         -3    1    6    6    0  503 -0.53170142566E+02 -0.21841160087E+03 -0.32798009963E+02  0.22717042262E+03  0.00000000000E+00 0.  1.
<mgrwt>
<rscale>  0 0.47205298E+03</rscale>
<asrwt>0</asrwt>
<pdfrwt beam="1">  1        1 0.12865531E+00 0.47205298E+03</pdfrwt>
<pdfrwt beam="2">  1       -1 0.51073864E-01 0.47205298E+03</pdfrwt>
<totfact> 0.83208641E+01</totfact>
</mgrwt>
</event>
<event>
12    1  0.3147868E-008  0.9231664E+03  0.7818608E-02  0.9397077E-01
          2   -1    0    0  501    0  0.00000000000E+00  0.00000000000E+00  0.13192911922E+04  0.13192911922E+04  0.00000000000E+00 0. -1.
         -2   -1    0    0    0  501 -0.00000000000E+00 -0.00000000000E+00 -0.15505997740E+04  0.15505997740E+04  0.00000000000E+00 0.  1.
         23    2    1    2    0    0  0.85566109847E+03  0.28486955439E+03 -0.11399143023E+04  0.14562278745E+04  0.88816819170E+02 0.  0.
    5000000    2    1    2    0    0 -0.85566109847E+03 -0.28486955439E+03  0.90860572056E+03  0.14136630917E+04  0.59964356336E+03 0.  0.
         23    2    4    4    0    0 -0.20545684414E+03  0.28119203082E+02 -0.26635335439E+02  0.22863692148E+03  0.92532137026E+02 0.  0.
         23    2    4    4    0    0 -0.65020425433E+03 -0.31298875747E+03  0.93524105600E+03  0.11850261703E+04  0.94253152415E+02 0.  0.
          5    1    3    3  502    0  0.48789298282E+03  0.15363881830E+03 -0.71475628871E+03  0.87894430507E+03  0.47000000000E+01 0. -1.
         -5    1    3    3    0  502  0.36776811565E+03  0.13123073609E+03 -0.42515801358E+03  0.57728356940E+03  0.47000000000E+01 0.  1.
         13    1    5    5    0    0 -0.12009976017E+03  0.48436687855E+02  0.17057871854E+02  0.13061790121E+03  0.00000000000E+00 0. -1.
        -13    1    5    5    0    0 -0.85357083971E+02 -0.20317484772E+02 -0.43693207293E+02  0.98019020272E+02  0.00000000000E+00 0.  1.
          2    1    6    6  503    0 -0.37961203991E+03 -0.23072538751E+03  0.54600460941E+03  0.70388957854E+03  0.00000000000E+00 0. -1.
         -2    1    6    6    0  503 -0.27059221441E+03 -0.82263369964E+02  0.38923644659E+03  0.48113659172E+03  0.00000000000E+00 0.  1.
<mgrwt>
<rscale>  0 0.92316642E+03</rscale>
<asrwt>0</asrwt>
<pdfrwt beam="1">  1        2 0.20296788E+00 0.92316642E+03</pdfrwt>
<pdfrwt beam="2">  1       -2 0.23855381E+00 0.92316642E+03</pdfrwt>
<totfact> 0.12266608E+00</totfact>
</mgrwt>
</event>
<event>
12    1  0.3147868E-008  0.7415503E+03  0.7818608E-02  0.9648701E-01
         -2   -1    0    0    0  501 -0.00000000000E+00  0.00000000000E+00  0.75095333696E+03  0.75095333696E+03  0.00000000000E+00 0.  1.
          2   -1    0    0  501    0  0.00000000000E+00 -0.00000000000E+00 -0.82579238859E+03  0.82579238859E+03  0.00000000000E+00 0. -1.
         23    2    1    2    0    0  0.47267903243E+03 -0.42425599581E+03  0.17999152638E+03  0.66633466005E+03  0.90478240107E+02 0.  0.
    5000000    2    1    2    0    0 -0.47267903243E+03  0.42425599581E+03 -0.25483057802E+03  0.91041106550E+03  0.60040908306E+03 0.  0.
         23    2    4    4    0    0 -0.73741311223E+02 -0.12262771568E+03  0.29202709378E+02  0.17074709623E+03  0.88467140799E+02 0.  0.
         23    2    4    4    0    0 -0.39893772121E+03  0.54688371149E+03 -0.28403328739E+03  0.73966396927E+03  0.90525023028E+02 0.  0.
          5    1    3    3  502    0  0.41423282740E+03 -0.34945285551E+03  0.12381838930E+03  0.55593094630E+03  0.47000000000E+01 0. -1.
         -5    1    3    3    0  502  0.58446205029E+02 -0.74803140292E+02  0.56173137078E+02  0.11040371375E+03  0.47000000000E+01 0.  1.
         11    1    5    5    0    0 -0.10482253827E+02 -0.96579476937E+02  0.21214077127E+01  0.97169817234E+02  0.00000000000E+00 0. -1.
        -11    1    5    5    0    0 -0.63259057397E+02 -0.26048238747E+02  0.27081301665E+02  0.73577278996E+02  0.00000000000E+00 0.  1.
          3    1    6    6  503    0 -0.23518564659E+03  0.37875877990E+03 -0.15615085686E+03  0.47239135451E+03  0.00000000000E+00 0. -1.
         -3    1    6    6    0  503 -0.16375207462E+03  0.16812493159E+03 -0.12788243054E+03  0.26727261476E+03  0.00000000000E+00 0.  1.
<mgrwt>
<rscale>  0 0.74155026E+03</rscale>
<asrwt>0</asrwt>
<pdfrwt beam="1">  1        2 0.12704498E+00 0.74155026E+03</pdfrwt>
<pdfrwt beam="2">  1       -2 0.11553128E+00 0.74155026E+03</pdfrwt>
<totfact> 0.19547784E+01</totfact>
</mgrwt>
</event>
<event>
12    1  0.3147868E-008  0.5162604E+03  0.7818608E-02  0.1009620E+00
          2   -1    0    0  501    0  0.00000000000E+00  0.00000000000E+00  0.13391291745E+04  0.13391291745E+04  0.00000000000E+00 0.  1.
         -2   -1    0    0    0  501 -0.00000000000E+00 -0.00000000000E+00 -0.32294989551E+03  0.32294989551E+03  0.00000000000E+00 0. -1.
         23    2    1    2    0    0 -0.21211558424E+03 -0.44635073366E+03  0.59198626571E+03  0.77650762546E+03  0.91073350020E+02 0.  0.
    5000000    2    1    2    0    0  0.21211558424E+03  0.44635073366E+03  0.42419301331E+03  0.88557144458E+03  0.60006255707E+03 0.  0.
         23    2    4    4    0    0  0.20152859611E+03  0.41817462309E+03  0.55098539556E+03  0.72625432475E+03  0.91524027714E+02 0.  0.
         23    2    4    4    0    0  0.10586988124E+02  0.28176110565E+02 -0.12679238225E+03  0.15931711983E+03  0.91649653306E+02 0.  0.
          5    1    3    3  502    0 -0.25502419470E+02 -0.63126340553E+02  0.40060585831E+02  0.79134371847E+02  0.47000000000E+01 0. -1.
         -5    1    3    3    0  502 -0.18661316477E+03 -0.38322439311E+03  0.55192567988E+03  0.69737325361E+03  0.47000000000E+01 0.  1.
         13    1    5    5    0    0  0.51692879395E+02  0.18999948894E+03  0.27350173791E+03  0.33700913966E+03  0.00000000000E+00 0. -1.
        -13    1    5    5    0    0  0.14983571672E+03  0.22817513416E+03  0.27748365765E+03  0.38924518509E+03  0.00000000000E+00 0.  1.
          3    1    6    6  503    0 -0.11493648876E+02 -0.15433695996E+02  0.40301413810E+01  0.19660747090E+02  0.00000000000E+00 0. -1.
         -3    1    6    6    0  503  0.22080637000E+02  0.43609806561E+02 -0.13082252363E+03  0.13965637274E+03  0.00000000000E+00 0.  1.
<mgrwt>
<rscale>  0 0.51626042E+03</rscale>
<asrwt>0</asrwt>
<pdfrwt beam="1">  1        2 0.20601987E+00 0.51626042E+03</pdfrwt>
<pdfrwt beam="2">  1       -2 0.49684600E-01 0.51626042E+03</pdfrwt>
<totfact> 0.62921726E+01</totfact>
</mgrwt>
</event>
<event>
12    1  0.3147868E-008  0.8404635E+03  0.7818608E-02  0.9503227E-01
          2   -1    0    0  501    0  0.00000000000E+00  0.00000000000E+00  0.12402887727E+04  0.12402887727E+04  0.00000000000E+00 0.  1.
         -2   -1    0    0    0  501 -0.00000000000E+00 -0.00000000000E+00 -0.76936176113E+03  0.76936176113E+03  0.00000000000E+00 0. -1.
         23    2    1    2    0    0 -0.42974552008E+03 -0.62074173470E+03 -0.25539292001E+03  0.80235675060E+03  0.92462416160E+02 0.  0.
    5000000    2    1    2    0    0  0.42974552008E+03  0.62074173470E+03  0.72631993155E+03  0.12072937832E+04  0.60001343547E+03 0.  0.
         23    2    4    4    0    0  0.43593882623E+03  0.17963643404E+03  0.21553241979E+03  0.52621451843E+03  0.90197487646E+02 0.  0.
         23    2    4    4    0    0 -0.61933061493E+01  0.44110530066E+03  0.51078751176E+03  0.68107926476E+03  0.91393869618E+02 0.  0.
          5    1    3    3  502    0 -0.33412373543E+03 -0.47882368343E+03 -0.15588051823E+03  0.60434395534E+03  0.47000000000E+01 0. -1.
         -5    1    3    3    0  502 -0.95621784653E+02 -0.14191805127E+03 -0.99512401781E+02  0.19801279526E+03  0.47000000000E+01 0.  1.
         11    1    5    5    0    0  0.37595282795E+03  0.17895267642E+03  0.20896614901E+03  0.46586633349E+03  0.00000000000E+00 0.  1.
        -11    1    5    5    0    0  0.59985998282E+02  0.68375762068E+00  0.65662707718E+01  0.60348184945E+02  0.00000000000E+00 0. -1.
          4    1    6    6  503    0 -0.45565023986E+02  0.27671705237E+03  0.29604249049E+03  0.40778628552E+03  0.00000000000E+00 0. -1.
         -4    1    6    6    0  503  0.39371717836E+02  0.16438824830E+03  0.21474502127E+03  0.27329297924E+03  0.00000000000E+00 0.  1.
<mgrwt>
<rscale>  0 0.84046347E+03</rscale>
<asrwt>0</asrwt>
<pdfrwt beam="1">  1        2 0.19081366E+00 0.84046347E+03</pdfrwt>
<pdfrwt beam="2">  1       -2 0.11836335E+00 0.84046347E+03</pdfrwt>
<totfact> 0.99396776E+00</totfact>
</mgrwt>
</event>
<event>
12    1  0.3147868E-008  0.1364227E+04  0.7818608E-02  0.8980128E-01
         -2   -1    0    0    0  501 -0.00000000000E+00  0.00000000000E+00  0.92036355933E+03  0.92036355933E+03  0.00000000000E+00 0. -1.
          2   -1    0    0  501    0  0.00000000000E+00 -0.00000000000E+00 -0.20962883287E+04  0.20962883287E+04  0.00000000000E+00 0.  1.
         23    2    1    2    0    0 -0.12932243694E+04  0.15301896677E+03 -0.81285453290E+03  0.15378804688E+04  0.92194202628E+02 0.  0.
    5000000    2    1    2    0    0  0.12932243694E+04 -0.15301896677E+03 -0.36307023652E+03  0.14787714193E+04  0.59925023157E+03 0.  0.
         23    2    4    4    0    0  0.10378770161E+03 -0.19414707361E+03 -0.32249263544E+02  0.24032090344E+03  0.90824822773E+02 0.  0.
         23    2    4    4    0    0  0.11894366678E+04  0.41128106836E+02 -0.33082097297E+03  0.12384505158E+04  0.88690789815E+02 0.  0.
          5    1    3    3  502    0 -0.21087520170E+03  0.55813164185E+02 -0.15360505745E+03  0.26683340058E+03  0.47000000000E+01 0. -1.
         -5    1    3    3    0  502 -0.10823491677E+04  0.97205802588E+02 -0.65924947544E+03  0.12710470682E+04  0.47000000000E+01 0.  1.
         13    1    5    5    0    0  0.12884029467E+02  0.28328177252E+01  0.13206338300E+02  0.18666291621E+02  0.00000000000E+00 0.  1.
        -13    1    5    5    0    0  0.90903672146E+02 -0.19697989133E+03 -0.45455601844E+02  0.22165461181E+03  0.00000000000E+00 0. -1.
          2    1    6    6  503    0  0.15783791079E+03 -0.24517906837E+02 -0.47345066173E+02  0.16659978730E+03  0.00000000000E+00 0. -1.
         -2    1    6    6    0  503  0.10315987570E+04  0.65646013673E+02 -0.28347590680E+03  0.10718507285E+04  0.00000000000E+00 0.  1.
<mgrwt>
<rscale>  0 0.13642271E+04</rscale>
<asrwt>0</asrwt>
<pdfrwt beam="1">  1        2 0.32250590E+00 0.13642271E+04</pdfrwt>
<pdfrwt beam="2">  1       -2 0.14159439E+00 0.13642271E+04</pdfrwt>
<totfact> 0.19721057E+00</totfact>
</mgrwt>
</event>
<event>
12    1  0.3147868E-008  0.4797777E+03  0.7818608E-02  0.1019196E+00
          2   -1    0    0  501    0  0.00000000000E+00  0.00000000000E+00  0.12249684956E+04  0.12249684956E+04  0.00000000000E+00 0.  1.
         -2   -1    0    0    0  501 -0.00000000000E+00 -0.00000000000E+00 -0.21573670716E+03  0.21573670716E+03  0.00000000000E+00 0. -1.
         23    2    1    2    0    0  0.13588463806E+03 -0.26764972287E+03  0.13966430409E+03  0.34238538562E+03  0.87296193714E+02 0.  0.
    5000000    2    1    2    0    0 -0.13588463806E+03  0.26764972287E+03  0.86956748438E+03  0.10983198172E+04  0.60004816631E+03 0.  0.
         23    2    4    4    0    0  0.63890313718E+01  0.42111273798E+03  0.66738655924E+03  0.79428078547E+03  0.90002160483E+02 0.  0.
         23    2    4    4    0    0 -0.14227366943E+03 -0.15346301511E+03  0.20218092513E+03  0.30403903170E+03  0.88147105984E+02 0.  0.
          5    1    3    3  502    0  0.12552691901E+03 -0.15716802500E+03  0.82297944656E+02  0.21737947735E+03  0.47000000000E+01 0. -1.
         -5    1    3    3    0  502  0.10357719050E+02 -0.11048169787E+03  0.57366359432E+02  0.12500590827E+03  0.47000000000E+01 0.  1.
         13    1    5    5    0    0 -0.14856507494E+02  0.52266426473E+02  0.14160842712E+03  0.15167544885E+03  0.00000000000E+00 0. -1.
        -13    1    5    5    0    0  0.21245538866E+02  0.36884631150E+03  0.52577813212E+03  0.64260533662E+03  0.00000000000E+00 0.  1.
          3    1    6    6  503    0 -0.61431395370E+02 -0.15120017649E+02  0.82905969542E+02  0.10428725261E+03  0.00000000000E+00 0. -1.
         -3    1    6    6    0  503 -0.80842274058E+02 -0.13834299746E+03  0.11927495559E+03  0.19975177910E+03  0.00000000000E+00 0.  1.
<mgrwt>
<rscale>  0 0.47977774E+03</rscale>
<asrwt>0</asrwt>
<pdfrwt beam="1">  1        2 0.18845669E+00 0.47977774E+03</pdfrwt>
<pdfrwt beam="2">  1       -2 0.33190263E-01 0.47977774E+03</pdfrwt>
<totfact> 0.16093834E+02</totfact>
</mgrwt>
</event>
<event>
12    1  0.3147868E-008  0.7896753E+03  0.7818608E-02  0.9575083E-01
          2   -1    0    0  501    0  0.00000000000E+00  0.00000000000E+00  0.17023740619E+04  0.17023740619E+04  0.00000000000E+00 0. -1.
         -2   -1    0    0    0  501 -0.00000000000E+00 -0.00000000000E+00 -0.38551455797E+03  0.38551455797E+03  0.00000000000E+00 0.  1.
         23    2    1    2    0    0 -0.50479290310E+03  0.45537684990E+03  0.37885879632E+03  0.78324699676E+03  0.88079055027E+02 0.  0.
    5000000    2    1    2    0    0  0.50479290310E+03 -0.45537684990E+03  0.93800070759E+03  0.13046416231E+04  0.60005040357E+03 0.  0.
         23    2    4    4    0    0  0.51989129601E+03 -0.55817399303E+03  0.81264472833E+03  0.11181812800E+04  0.89959737324E+02 0.  0.
         23    2    4    4    0    0 -0.15098392907E+02  0.10279714313E+03  0.12535597925E+03  0.18646034307E+03  0.90874220219E+02 0.  0.
          5    1    3    3  502    0 -0.34203221773E+03  0.34276495442E+03  0.30302217908E+03  0.57124284062E+03  0.47000000000E+01 0. -1.
         -5    1    3    3    0  502 -0.16276068537E+03  0.11261189548E+03  0.75836617247E+02  0.21200415614E+03  0.47000000000E+01 0.  1.
         11    1    5    5    0    0  0.28955458131E+02 -0.75554832028E+01  0.39559646839E+02  0.49603120265E+02  0.00000000000E+00 0. -1.
        -11    1    5    5    0    0  0.49093583788E+03 -0.55061850983E+03  0.77308508149E+03  0.10685781598E+04  0.00000000000E+00 0.  1.
          2    1    6    6  503    0  0.20041131862E+02 -0.85230383199E+00  0.11136095378E-01  0.20059250040E+02  0.00000000000E+00 0. -1.
         -2    1    6    6    0  503 -0.35139524769E+02  0.10364944696E+03  0.12534484316E+03  0.16640109303E+03  0.00000000000E+00 0.  1.
<mgrwt>
<rscale>  0 0.78967525E+03</rscale>
<asrwt>0</asrwt>
<pdfrwt beam="1">  1        2 0.26190370E+00 0.78967525E+03</pdfrwt>
<pdfrwt beam="2">  1       -2 0.59309933E-01 0.78967525E+03</pdfrwt>
<totfact> 0.26527192E+01</totfact>
</mgrwt>
</event>
<event>
12    1  0.3147868E-008  0.1672874E+04  0.7818608E-02  0.8776988E-01
         -2   -1    0    0    0  501 -0.00000000000E+00  0.00000000000E+00  0.27513181501E+04  0.27513181501E+04  0.00000000000E+00 0.  1.
          2   -1    0    0  501    0  0.00000000000E+00 -0.00000000000E+00 -0.10419328406E+04  0.10419328406E+04  0.00000000000E+00 0. -1.
         23    2    1    2    0    0  0.13341371721E+04 -0.94643904691E+03  0.93353792243E+03  0.18855732457E+04  0.90689298355E+02 0.  0.
    5000000    2    1    2    0    0 -0.13341371721E+04  0.94643904691E+03  0.77584738698E+03  0.19076777450E+04  0.60135376237E+03 0.  0.
         23    2    4    4    0    0 -0.13555591404E+04  0.90364408397E+03  0.77424578176E+03  0.18060869226E+04  0.91543584631E+02 0.  0.
         23    2    4    4    0    0  0.21421968291E+02  0.42794962946E+02  0.16016052124E+01  0.10159082242E+03  0.89598105345E+02 0.  0.
          5    1    3    3  502    0  0.11402228175E+04 -0.84090415484E+03  0.82570125520E+03  0.16398269799E+04  0.47000000000E+01 0. -1.
         -5    1    3    3    0  502  0.19391435452E+03 -0.10553489208E+03  0.10783666723E+03  0.24574626576E+03  0.47000000000E+01 0.  1.
         11    1    5    5    0    0 -0.17480795461E+03  0.13491985813E+03  0.75281466976E+02  0.23329913926E+03  0.00000000000E+00 0. -1.
        -11    1    5    5    0    0 -0.11807511857E+04  0.76872422584E+03  0.69896431479E+03  0.15727877833E+04  0.00000000000E+00 0.  1.
          2    1    6    6  503    0 -0.61215227745E+01 -0.13995633588E+02 -0.27985163062E+02  0.31882913170E+02  0.00000000000E+00 0. -1.
         -2    1    6    6    0  503  0.27543491066E+02  0.56790596534E+02  0.29586768274E+02  0.69707909248E+02  0.00000000000E+00 0.  1.
<mgrwt>
<rscale>  0 0.16728744E+04</rscale>
<asrwt>0</asrwt>
<pdfrwt beam="1">  1        2 0.16029736E+00 0.16728744E+04</pdfrwt>
<pdfrwt beam="2">  1       -2 0.42327971E+00 0.16728744E+04</pdfrwt>
<totfact> 0.11502055E-01</totfact>
</mgrwt>
</event>
<event>
12    1  0.3147868E-008  0.3429604E+03  0.7818608E-02  0.1065542E+00
          2   -1    0    0  501    0  0.00000000000E+00  0.00000000000E+00  0.92067385566E+03  0.92067385566E+03  0.00000000000E+00 0. -1.
         -2   -1    0    0    0  501 -0.00000000000E+00 -0.00000000000E+00 -0.17548900924E+03  0.17548900924E+03  0.00000000000E+00 0.  1.
         23    2    1    2    0    0  0.11598676254E+03 -0.70319244017E+02  0.28207906411E+03  0.32615863786E+03  0.91723134905E+02 0.  0.
    5000000    2    1    2    0    0 -0.11598676254E+03  0.70319244017E+02  0.46310578230E+03  0.77000422703E+03  0.60003484806E+03 0.  0.
         23    2    4    4    0    0 -0.27115724182E+03 -0.89150055415E+02  0.68977496870E+02  0.30827178969E+03  0.93806284825E+02 0.  0.
         23    2    4    4    0    0  0.15517047928E+03  0.15946929943E+03  0.39412828543E+03  0.46173243735E+03  0.91386012168E+02 0.  0.
          5    1    3    3  502    0  0.23130449003E+02  0.13879866824E+02  0.10912005477E+03  0.11250308763E+03  0.47000000000E+01 0. -1.
         -5    1    3    3    0  502  0.92856313539E+02 -0.84199110841E+02  0.17295900935E+03  0.21365555023E+03  0.47000000000E+01 0.  1.
         13    1    5    5    0    0 -0.14130639328E+03  0.84579108828E+00  0.19083736969E+02  0.14259172894E+03  0.00000000000E+00 0.  1.
        -13    1    5    5    0    0 -0.12985084854E+03 -0.89995846503E+02  0.49893759901E+02  0.16568006075E+03  0.00000000000E+00 0. -1.
          4    1    6    6  503    0  0.11481513737E+03  0.15544597251E+03  0.27674507935E+03  0.33754081987E+03  0.00000000000E+00 0. -1.
         -4    1    6    6    0  503  0.40355341903E+02  0.40233269271E+01  0.11738320609E+03  0.12419161747E+03  0.00000000000E+00 0.  1.
<mgrwt>
<rscale>  0 0.34296037E+03</rscale>
<asrwt>0</asrwt>
<pdfrwt beam="1">  1        2 0.14164213E+00 0.34296037E+03</pdfrwt>
<pdfrwt beam="2">  1       -2 0.26998310E-01 0.34296037E+03</pdfrwt>
<totfact> 0.36496812E+02</totfact>
</mgrwt>
</event>
<event>
12    1  0.3147868E-008  0.4254133E+03  0.7818608E-02  0.1035319E+00
          2   -1    0    0  501    0  0.00000000000E+00  0.00000000000E+00  0.15248825053E+04  0.15248825053E+04  0.00000000000E+00 0. -1.
         -2   -1    0    0    0  501 -0.00000000000E+00 -0.00000000000E+00 -0.14471011605E+03  0.14471011605E+03  0.00000000000E+00 0.  1.
         23    2    1    2    0    0  0.18439972750E+03  0.14920577228E+03  0.63431676825E+03  0.68352054809E+03  0.92611852355E+02 0.  0.
    5000000    2    1    2    0    0 -0.18439972750E+03 -0.14920577228E+03  0.74585562103E+03  0.98607207329E+03  0.59980989015E+03 0.  0.
         23    2    4    4    0    0  0.42021429336E+02  0.18105806462E+03  0.12664990290E+03  0.24301845169E+03  0.92032313179E+02 0.  0.
         23    2    4    4    0    0 -0.22642115684E+03 -0.33026383690E+03  0.61920571813E+03  0.74305362160E+03  0.91499841481E+02 0.  0.
          5    1    3    3  502    0  0.56903412580E+02  0.76728439693E+02  0.35926011578E+03  0.37177301222E+03  0.47000000000E+01 0. -1.
         -5    1    3    3    0  502  0.12749631492E+03  0.72477332591E+02  0.27505665247E+03  0.31174753588E+03  0.47000000000E+01 0.  1.
         13    1    5    5    0    0  0.19964327538E+02  0.18406400293E+03  0.11266919769E+03  0.21673135365E+03  0.00000000000E+00 0. -1.
        -13    1    5    5    0    0  0.22057101798E+02 -0.30059383112E+01  0.13980705214E+02  0.26287098036E+02  0.00000000000E+00 0.  1.
          3    1    6    6  503    0 -0.10030319607E+03 -0.16604161873E+03  0.38019884070E+03  0.42682749298E+03  0.00000000000E+00 0. -1.
         -3    1    6    6    0  503 -0.12611796077E+03 -0.16422221817E+03  0.23900687743E+03  0.31622612863E+03  0.00000000000E+00 0.  1.
<mgrwt>
<rscale>  0 0.42541326E+03</rscale>
<asrwt>0</asrwt>
<pdfrwt beam="1">  1        2 0.23459730E+00 0.42541326E+03</pdfrwt>
<pdfrwt beam="2">  1       -2 0.22263096E-01 0.42541326E+03</pdfrwt>
<totfact> 0.22711564E+02</totfact>
</mgrwt>
</event>
<event>
12    1  0.3147868E-008  0.6518849E+03  0.7818608E-02  0.9803249E-01
          2   -1    0    0  501    0  0.00000000000E+00  0.00000000000E+00  0.13573844426E+04  0.13573844426E+04  0.00000000000E+00 0. -1.
         -2   -1    0    0    0  501 -0.00000000000E+00 -0.00000000000E+00 -0.76196438072E+03  0.76196438072E+03  0.00000000000E+00 0.  1.
         23    2    1    2    0    0 -0.17303141048E+02 -0.60526538214E+03  0.10025663502E+04  0.11747505161E+04  0.90851015167E+02 0.  0.
    5000000    2    1    2    0    0  0.17303141048E+02  0.60526538214E+03 -0.40714628839E+03  0.94459830717E+03  0.59987688759E+03 0.  0.
         23    2    4    4    0    0 -0.14779759430E+03  0.35094415857E+03  0.43787906415E+02  0.39370381491E+03  0.89885381530E+02 0.  0.
         23    2    4    4    0    0  0.16510073535E+03  0.25432122357E+03 -0.45093419480E+03  0.55089449226E+03  0.90584524009E+02 0.  0.
          5    1    3    3  502    0  0.21802826094E+02 -0.48919947204E+03  0.79848269505E+03  0.93669001861E+03  0.47000000000E+01 0. -1.
         -5    1    3    3    0  502 -0.39105967142E+02 -0.11606591010E+03  0.20408365518E+03  0.23806049749E+03  0.47000000000E+01 0.  1.
         13    1    5    5    0    0 -0.93245199243E+02  0.15331201162E+03  0.56941439821E+02  0.18825930962E+03  0.00000000000E+00 0. -1.
        -13    1    5    5    0    0 -0.54552395059E+02  0.19763214695E+03 -0.13153533407E+02  0.20544450529E+03  0.00000000000E+00 0.  1.
          4    1    6    6  503    0  0.11053652735E+03  0.12613717089E+03 -0.31154891178E+03  0.35382429847E+03  0.00000000000E+00 0. -1.
         -4    1    6    6    0  503  0.54564208001E+02  0.12818405268E+03 -0.13938528302E+03  0.19707019379E+03  0.00000000000E+00 0.  1.
<mgrwt>
<rscale>  0 0.65188494E+03</rscale>
<asrwt>0</asrwt>
<pdfrwt beam="1">  1        2 0.20882838E+00 0.65188494E+03</pdfrwt>
<pdfrwt beam="2">  1       -2 0.11722529E+00 0.65188494E+03</pdfrwt>
<totfact> 0.89317521E+00</totfact>
</mgrwt>
</event>
<event>
12    1  0.3147868E-008  0.5085661E+03  0.7818608E-02  0.1011567E+00
          1   -1    0    0  501    0  0.00000000000E+00  0.00000000000E+00  0.10547580740E+04  0.10547580740E+04  0.00000000000E+00 0. -1.
         -1   -1    0    0    0  501 -0.00000000000E+00 -0.00000000000E+00 -0.33039487135E+03  0.33039487135E+03  0.00000000000E+00 0.  1.
         23    2    1    2    0    0  0.34742341881E+03 -0.18004631074E+03  0.48622355800E+03  0.63044299443E+03  0.89024237851E+02 0.  0.
    5000000    2    1    2    0    0 -0.34742341881E+03  0.18004631074E+03  0.23813964461E+03  0.75470995088E+03  0.59979739385E+03 0.  0.
         23    2    4    4    0    0 -0.33413990450E+03  0.31398578045E+03  0.23973529761E+01  0.46756225633E+03  0.91499563595E+02 0.  0.
         23    2    4    4    0    0 -0.13283514311E+02 -0.13393946971E+03  0.23574229163E+03  0.28714769455E+03  0.93611629213E+02 0.  0.
          5    1    3    3  502    0  0.26745686442E+03 -0.11209078099E+03  0.30436350441E+03  0.42042448825E+03  0.47000000000E+01 0. -1.
         -5    1    3    3    0  502  0.79966554394E+02 -0.67955529757E+02  0.18186005359E+03  0.21001850618E+03  0.47000000000E+01 0.  1.
         11    1    5    5    0    0 -0.28467216211E+03  0.26778501713E+03 -0.31053490234E+02  0.39206042205E+03  0.00000000000E+00 0.  1.
        -11    1    5    5    0    0 -0.49467742394E+02  0.46200763319E+02  0.33450843211E+02  0.75501834284E+02  0.00000000000E+00 0. -1.
          2    1    6    6  503    0 -0.52743517446E+02 -0.61273895413E+02  0.10636684934E+03  0.13360492330E+03  0.00000000000E+00 0. -1.
         -2    1    6    6    0  503  0.39460003134E+02 -0.72665574292E+02  0.12937544229E+03  0.15354277125E+03  0.00000000000E+00 0.  1.
<mgrwt>
<rscale>  0 0.50856608E+03</rscale>
<asrwt>0</asrwt>
<pdfrwt beam="1">  1        1 0.16227047E+00 0.50856608E+03</pdfrwt>
<pdfrwt beam="2">  1       -1 0.50829981E-01 0.50856608E+03</pdfrwt>
<totfact> 0.56225593E+01</totfact>
</mgrwt>
</event>
<event>
12    1  0.3147868E-008  0.1956918E+04  0.7818608E-02  0.8627032E-01
          2   -1    0    0  501    0  0.00000000000E+00  0.00000000000E+00  0.29951964077E+04  0.29951964077E+04  0.00000000000E+00 0.  1.
         -2   -1    0    0    0  501 -0.00000000000E+00 -0.00000000000E+00 -0.13094608510E+04  0.13094608510E+04  0.00000000000E+00 0. -1.
         23    2    1    2    0    0  0.16442192068E+04 -0.10162412001E+04  0.76092919864E+03  0.20793512290E+04  0.92115748859E+02 0.  0.
    5000000    2    1    2    0    0 -0.16442192068E+04  0.10162412001E+04  0.92480635808E+03  0.22253060298E+04  0.60043080307E+03 0.  0.
         23    2    4    4    0    0 -0.59902465388E+03  0.14675621084E+03  0.49675555789E+03  0.79716825439E+03  0.91341229100E+02 0.  0.
         23    2    4    4    0    0 -0.10451945530E+04  0.86948498929E+03  0.42805080019E+03  0.14281377754E+04  0.88961889817E+02 0.  0.
          5    1    3    3  502    0  0.70207825279E+03 -0.43940547081E+03  0.27770661844E+03  0.87357546711E+03  0.47000000000E+01 0. -1.
         -5    1    3    3    0  502  0.94214095404E+03 -0.57683572932E+03  0.48322258020E+03  0.12057757619E+04  0.47000000000E+01 0.  1.
         13    1    5    5    0    0 -0.42620800617E+03  0.13622565982E+03  0.39152202581E+03  0.59455882098E+03  0.00000000000E+00 0. -1.
        -13    1    5    5    0    0 -0.17281664771E+03  0.10530551029E+02  0.10523353208E+03  0.20260943341E+03  0.00000000000E+00 0.  1.
          2    1    6    6  503    0 -0.47383041393E+03  0.36587304551E+03  0.14818255889E+03  0.61671421044E+03  0.00000000000E+00 0. -1.
         -2    1    6    6    0  503 -0.57136413902E+03  0.50361194377E+03  0.27986824130E+03  0.81142356495E+03  0.00000000000E+00 0.  1.
<mgrwt>
<rscale>  0 0.19569184E+04</rscale>
<asrwt>0</asrwt>
<pdfrwt beam="1">  1        2 0.46079945E+00 0.19569184E+04</pdfrwt>
<pdfrwt beam="2">  1       -2 0.20145552E+00 0.19569184E+04</pdfrwt>
<totfact> 0.20468021E-01</totfact>
</mgrwt>
</event>
<event>
12    1  0.3147868E-008  0.1017034E+04  0.7818608E-02  0.9290057E-01
          1   -1    0    0  501    0  0.00000000000E+00  0.00000000000E+00  0.18594317003E+04  0.18594317003E+04  0.00000000000E+00 0. -1.
         -1   -1    0    0    0  501 -0.00000000000E+00 -0.00000000000E+00 -0.69375620675E+03  0.69375620675E+03  0.00000000000E+00 0.  1.
         23    2    1    2    0    0 -0.74358482514E+03 -0.62739434551E+03  0.10001274127E+04  0.13982430022E+04  0.91030734824E+02 0.  0.
    5000000    2    1    2    0    0  0.74358482514E+03  0.62739434551E+03  0.16554808079E+03  0.11549449048E+04  0.59995792273E+03 0.  0.
         23    2    4    4    0    0  0.14559755409E+03  0.38102261506E+03  0.26576474046E+03  0.49517051222E+03  0.90476836580E+02 0.  0.
         23    2    4    4    0    0  0.59798727105E+03  0.24637173045E+03 -0.10021665967E+03  0.65977439255E+03  0.83492899613E+02 0.  0.
          5    1    3    3  502    0 -0.39579407366E+03 -0.32584729577E+03  0.59081993461E+03  0.78225296039E+03  0.47000000000E+01 0. -1.
         -5    1    3    3    0  502 -0.34779075147E+03 -0.30154704975E+03  0.40930747810E+03  0.61599004184E+03  0.47000000000E+01 0.  1.
         13    1    5    5    0    0  0.53286888687E+02  0.94016951411E+02  0.11598782442E+03  0.15853029702E+03  0.00000000000E+00 0. -1.
        -13    1    5    5    0    0  0.92310665399E+02  0.28700566365E+03  0.14977691604E+03  0.33664021520E+03  0.00000000000E+00 0.  1.
          2    1    6    6  503    0  0.66197984208E+02  0.19777318295E+01 -0.14737990541E+01  0.66243917607E+02  0.00000000000E+00 0. -1.
         -2    1    6    6    0  503  0.53178928684E+03  0.24439399862E+03 -0.98742860617E+02  0.59353047494E+03  0.00000000000E+00 0.  1.
<mgrwt>
<rscale>  0 0.10170343E+04</rscale>
<asrwt>0</asrwt>
<pdfrwt beam="1">  1        1 0.28606641E+00 0.10170343E+04</pdfrwt>
<pdfrwt beam="2">  1       -1 0.10673172E+00 0.10170343E+04</pdfrwt>
<totfact> 0.30631066E+00</totfact>
</mgrwt>
</event>
<event>
12    1  0.3147868E-008  0.7783875E+03  0.7818608E-02  0.9591838E-01
          1   -1    0    0  501    0  0.00000000000E+00  0.00000000000E+00  0.48266943529E+03  0.48266943529E+03  0.00000000000E+00 0. -1.
         -1   -1    0    0    0  501 -0.00000000000E+00 -0.00000000000E+00 -0.21198747128E+04  0.21198747128E+04  0.00000000000E+00 0.  1.
         23    2    1    2    0    0 -0.18083190721E+03  0.74071179243E+03 -0.14108130235E+04  0.16062234229E+04  0.90587852825E+02 0.  0.
    5000000    2    1    2    0    0  0.18083190721E+03 -0.74071179243E+03 -0.22639225409E+03  0.99632072521E+03  0.60003949592E+03 0.  0.
         23    2    4    4    0    0  0.13318935893E+03 -0.18611508295E+03  0.17644131951E+03  0.30349700125E+03  0.92739749300E+02 0.  0.
         23    2    4    4    0    0  0.47642548278E+02 -0.55459670947E+03 -0.40283357360E+03  0.69282372396E+03  0.88783455090E+02 0.  0.
          5    1    3    3  502    0 -0.96937775782E+02  0.47216034776E+03 -0.80574191063E+03  0.93892195784E+03  0.47000000000E+01 0. -1.
         -5    1    3    3    0  502 -0.83894131426E+02  0.26855144467E+03 -0.60507111282E+03  0.66730146508E+03  0.47000000000E+01 0.  1.
         13    1    5    5    0    0 -0.14247037417E+01 -0.89734154354E+01  0.43241599523E+02  0.44185833642E+02  0.00000000000E+00 0. -1.
        -13    1    5    5    0    0  0.13461406267E+03 -0.17714166752E+03  0.13319971999E+03  0.25931116761E+03  0.00000000000E+00 0.  1.
          1    1    6    6  503    0  0.84575639531E+01 -0.45010277520E+03 -0.29931312272E+03  0.54060372183E+03  0.00000000000E+00 0. -1.
         -1    1    6    6    0  503  0.39184984325E+02 -0.10449393428E+03 -0.10352045088E+03  0.15222000213E+03  0.00000000000E+00 0.  1.
<mgrwt>
<rscale>  0 0.77838752E+03</rscale>
<asrwt>0</asrwt>
<pdfrwt beam="1">  1        1 0.74256836E-01 0.77838752E+03</pdfrwt>
<pdfrwt beam="2">  1       -1 0.32613457E+00 0.77838752E+03</pdfrwt>
<totfact> 0.10939107E+00</totfact>
</mgrwt>
</event>
<event>
12    1  0.3147868E-008  0.7459752E+03  0.7818608E-02  0.9641686E-01
         -2   -1    0    0    0  501 -0.00000000000E+00  0.00000000000E+00  0.84739054049E+03  0.84739054049E+03  0.00000000000E+00 0.  1.
          2   -1    0    0  501    0  0.00000000000E+00 -0.00000000000E+00 -0.70395414502E+03  0.70395414502E+03  0.00000000000E+00 0. -1.
         23    2    1    2    0    0  0.58908890034E+03  0.25327796139E+03 -0.58352316934E+02  0.65024788034E+03  0.90784661454E+02 0.  0.
    5000000    2    1    2    0    0 -0.58908890034E+03 -0.25327796139E+03  0.20178871240E+03  0.90109680517E+03  0.60006775418E+03 0.  0.
         23    2    4    4    0    0 -0.15777873732E+03  0.17258509006E+03 -0.15408610213E+02  0.25100982909E+03  0.89937565939E+02 0.  0.
         23    2    4    4    0    0 -0.43131016302E+03 -0.42586305146E+03  0.21719732261E+03  0.65008697608E+03  0.89725159251E+02 0.  0.
          5    1    3    3  502    0  0.59080244929E+02  0.27565652605E+02  0.21148982529E+02  0.68700145607E+02  0.47000000000E+01 0. -1.
         -5    1    3    3    0  502  0.53000865541E+03  0.22571230879E+03 -0.79501299463E+02  0.58154773473E+03  0.47000000000E+01 0.  1.
         13    1    5    5    0    0 -0.14393238375E+02  0.56690203980E+02  0.22711556446E+02  0.62743599948E+02  0.00000000000E+00 0. -1.
        -13    1    5    5    0    0 -0.14338549895E+03  0.11589488608E+03 -0.38120166659E+02  0.18826622914E+03  0.00000000000E+00 0.  1.
          1    1    6    6  503    0 -0.27231300479E+03 -0.23928439472E+03  0.17025236727E+03  0.40049627051E+03  0.00000000000E+00 0. -1.
         -1    1    6    6    0  503 -0.15899715823E+03 -0.18657865673E+03  0.46944955344E+02  0.24959070557E+03  0.00000000000E+00 0.  1.
<mgrwt>
<rscale>  0 0.74597516E+03</rscale>
<asrwt>0</asrwt>
<pdfrwt beam="1">  1        2 0.10830064E+00 0.74597516E+03</pdfrwt>
<pdfrwt beam="2">  1       -2 0.13036778E+00 0.74597516E+03</pdfrwt>
<totfact> 0.17797316E+01</totfact>
</mgrwt>
</event>
<event>
12    1  0.3147868E-008  0.1028180E+04  0.7818608E-02  0.9278166E-01
          2   -1    0    0  501    0  0.00000000000E+00  0.00000000000E+00  0.23123282727E+04  0.23123282727E+04  0.00000000000E+00 0. -1.
         -2   -1    0    0    0  501 -0.00000000000E+00 -0.00000000000E+00 -0.50041243933E+03  0.50041243933E+03  0.00000000000E+00 0.  1.
         23    2    1    2    0    0  0.71957386875E+02 -0.95016211276E+03  0.11858289212E+04  0.15239082430E+04  0.90112133627E+02 0.  0.
    5000000    2    1    2    0    0 -0.71957386875E+02  0.95016211276E+03  0.62608691216E+03  0.12888324690E+04  0.60093128193E+03 0.  0.
         23    2    4    4    0    0  0.16469070224E+03  0.75619801647E+02  0.43631865331E+02  0.20799084266E+03  0.92277132331E+02 0.  0.
         23    2    4    4    0    0 -0.23664808911E+03  0.87454231112E+03  0.58245504683E+03  0.10808416264E+04  0.90211793696E+02 0.  0.
          5    1    3    3  502    0  0.43948461702E+02 -0.19889139169E+03  0.21804842041E+03  0.29842328431E+03  0.47000000000E+01 0. -1.
         -5    1    3    3    0  502  0.28008925172E+02 -0.75127072107E+03  0.96778050079E+03  0.12254849587E+04  0.47000000000E+01 0.  1.
         11    1    5    5    0    0  0.14428204350E+03  0.88395993592E+02  0.13965164254E+02  0.16978275994E+03  0.00000000000E+00 0. -1.
        -11    1    5    5    0    0  0.20408658740E+02 -0.12776191946E+02  0.29666701077E+02  0.38208082718E+02  0.00000000000E+00 0.  1.
          1    1    6    6  503    0 -0.10711132978E+03  0.49596160056E+03  0.28226111895E+03  0.58062215379E+03  0.00000000000E+00 0. -1.
         -1    1    6    6    0  503 -0.12953675933E+03  0.37858071055E+03  0.30019392788E+03  0.50021947259E+03  0.00000000000E+00 0.  1.
<mgrwt>
<rscale>  0 0.10281805E+04</rscale>
<asrwt>0</asrwt>
<pdfrwt beam="1">  1        2 0.35574281E+00 0.10281805E+04</pdfrwt>
<pdfrwt beam="2">  1       -2 0.76986530E-01 0.10281805E+04</pdfrwt>
<totfact> 0.67452844E+00</totfact>
</mgrwt>
</event>
<event>
12    1  0.3147868E-008  0.5697768E+03  0.7818608E-02  0.9970173E-01
         -2   -1    0    0    0  501 -0.00000000000E+00  0.00000000000E+00  0.88556524387E+03  0.88556524387E+03  0.00000000000E+00 0.  1.
          2   -1    0    0  501    0  0.00000000000E+00 -0.00000000000E+00 -0.17671488475E+04  0.17671488475E+04  0.00000000000E+00 0. -1.
         23    2    1    2    0    0  0.36536848022E+01 -0.42201437360E+03  0.74891440587E+03  0.86479464553E+03  0.94273594884E+02 0.  0.
    5000000    2    1    2    0    0 -0.36536848022E+01  0.42201437360E+03 -0.16304980095E+04  0.17879194458E+04  0.60001892044E+03 0.  0.
         23    2    4    4    0    0  0.26729795295E+03  0.30895106223E+03 -0.10643645285E+04  0.11439781348E+04  0.94420171696E+02 0.  0.
         23    2    4    4    0    0 -0.27095163775E+03  0.11306331136E+03 -0.56613348096E+03  0.64394131102E+03  0.89191879652E+02 0.  0.
          5    1    3    3  502    0  0.23420357921E+02 -0.29117224073E+03  0.43394974783E+03  0.52312929623E+03  0.47000000000E+01 0. -1.
         -5    1    3    3    0  502 -0.19766673119E+02 -0.13084213287E+03  0.31496465804E+03  0.34166534930E+03  0.47000000000E+01 0.  1.
         13    1    5    5    0    0  0.59682636863E+02  0.94087323443E+02 -0.19351224533E+03  0.22329673233E+03  0.00000000000E+00 0. -1.
        -13    1    5    5    0    0  0.20761531609E+03  0.21486373879E+03 -0.87085228322E+03  0.92068140250E+03  0.00000000000E+00 0.  1.
          1    1    6    6  503    0 -0.17578780350E+03  0.11419013156E+03 -0.35344123155E+03  0.41092753883E+03  0.00000000000E+00 0. -1.
         -1    1    6    6    0  503 -0.95163834255E+02 -0.11268201949E+01 -0.21269224941E+03  0.23301377219E+03  0.00000000000E+00 0.  1.
<mgrwt>
<rscale>  0 0.56977677E+03</rscale>
<asrwt>0</asrwt>
<pdfrwt beam="1">  1        2 0.27186905E+00 0.56977677E+03</pdfrwt>
<pdfrwt beam="2">  1       -2 0.13624081E+00 0.56977677E+03</pdfrwt>
<totfact> 0.37023466E+00</totfact>
</mgrwt>
</event>
<event>
12    1  0.3147868E-008  0.7015234E+03  0.7818608E-02  0.9714631E-01
          1   -1    0    0  501    0  0.00000000000E+00  0.00000000000E+00  0.23805548754E+03  0.23805548754E+03  0.00000000000E+00 0. -1.
         -1   -1    0    0    0  501 -0.00000000000E+00 -0.00000000000E+00 -0.21112939825E+04  0.21112939825E+04  0.00000000000E+00 0.  1.
         23    2    1    2    0    0 -0.21080661100E+03  0.53322323405E+03 -0.86881927073E+03  0.10461779210E+04  0.10428265781E+03 0.  0.
    5000000    2    1    2    0    0  0.21080661100E+03 -0.53322323405E+03 -0.10044192242E+04  0.13031715490E+04  0.60052615557E+03 0.  0.
         23    2    4    4    0    0  0.37262424416E+03 -0.16758996474E+03 -0.46294736149E+03  0.62393750095E+03  0.89680109063E+02 0.  0.
         23    2    4    4    0    0 -0.16181763316E+03 -0.36563326931E+03 -0.54147186274E+03  0.67923404804E+03  0.91074035017E+02 0.  0.
          5    1    3    3  502    0 -0.21089595238E+03  0.49164724791E+03 -0.75850284978E+03  0.92819328926E+03  0.47000000000E+01 0. -1.
         -5    1    3    3    0  502  0.89341387496E-01  0.41575986141E+02 -0.11031642095E+03  0.11798463178E+03  0.47000000000E+01 0.  1.
         11    1    5    5    0    0  0.13769229682E+03 -0.10516034451E+03 -0.22276654716E+03  0.28221056181E+03  0.00000000000E+00 0. -1.
        -11    1    5    5    0    0  0.23493194734E+03 -0.62429620226E+02 -0.24018081433E+03  0.34172693914E+03  0.00000000000E+00 0.  1.
          1    1    6    6  503    0 -0.30537032358E+02 -0.17962343488E+03 -0.22993684616E+03  0.29337355355E+03  0.00000000000E+00 0. -1.
         -1    1    6    6    0  503 -0.13128060080E+03 -0.18600983443E+03 -0.31153501658E+03  0.38586049449E+03  0.00000000000E+00 0.  1.
<mgrwt>
<rscale>  0 0.70152336E+03</rscale>
<asrwt>0</asrwt>
<pdfrwt beam="1">  1        1 0.36623922E-01 0.70152336E+03</pdfrwt>
<pdfrwt beam="2">  1       -1 0.32481445E+00 0.70152336E+03</pdfrwt>
<totfact> 0.28601543E+00</totfact>
</mgrwt>
</event>
<event>
12    1  0.3147868E-008  0.1175873E+04  0.7818608E-02  0.9134241E-01
         -2   -1    0    0    0  501 -0.00000000000E+00  0.00000000000E+00  0.55067428406E+03  0.55067428406E+03  0.00000000000E+00 0.  1.
          2   -1    0    0  501    0  0.00000000000E+00 -0.00000000000E+00 -0.27648118481E+04  0.27648118481E+04  0.00000000000E+00 0. -1.
         23    2    1    2    0    0  0.76902431743E+03  0.86767620911E+03 -0.10157053040E+04  0.15433644377E+04  0.77821065483E+02 0.  0.
    5000000    2    1    2    0    0 -0.76902431743E+03 -0.86767620911E+03 -0.11984322600E+04  0.17721216945E+04  0.59992917376E+03 0.  0.
         23    2    4    4    0    0 -0.65699703724E+03 -0.61181167633E+03 -0.11691981796E+04  0.14768403778E+04  0.89858132642E+02 0.  0.
         23    2    4    4    0    0 -0.11202728019E+03 -0.25586453278E+03 -0.29234080397E+02  0.29528131669E+03  0.91212136739E+02 0.  0.
          5    1    3    3  502    0  0.46290048595E+03  0.53034361793E+03 -0.56659146968E+03  0.90365325014E+03  0.47000000000E+01 0. -1.
         -5    1    3    3    0  502  0.30612383148E+03  0.33733259118E+03 -0.44911383434E+03  0.63971118754E+03  0.47000000000E+01 0.  1.
         11    1    5    5    0    0 -0.55817307110E+03 -0.49493368499E+03 -0.10141247710E+04  0.12589541616E+04  0.00000000000E+00 0. -1.
        -11    1    5    5    0    0 -0.98823966142E+02 -0.11687799134E+03 -0.15507340854E+03  0.21788621613E+03  0.00000000000E+00 0.  1.
          3    1    6    6  503    0 -0.21161285262E+02 -0.15883909309E+03 -0.61445458819E+01  0.16036025983E+03  0.00000000000E+00 0. -1.
         -3    1    6    6    0  503 -0.90865994927E+02 -0.97025439690E+02 -0.23089534515E+02  0.13492105686E+03  0.00000000000E+00 0.  1.
<mgrwt>
<rscale>  0 0.11758726E+04</rscale>
<asrwt>0</asrwt>
<pdfrwt beam="1">  1        2 0.42535566E+00 0.11758726E+04</pdfrwt>
<pdfrwt beam="2">  1       -2 0.84719122E-01 0.11758726E+04</pdfrwt>
<totfact> 0.29244284E+00</totfact>
</mgrwt>
</event>
<event>
12    1  0.3147868E-008  0.4320298E+03  0.7818608E-02  0.1033221E+00
          2   -1    0    0  501    0  0.00000000000E+00  0.00000000000E+00  0.90320605042E+03  0.90320605042E+03  0.00000000000E+00 0.  1.
         -2   -1    0    0    0  501 -0.00000000000E+00 -0.00000000000E+00 -0.54855921258E+03  0.54855921258E+03  0.00000000000E+00 0. -1.
         23    2    1    2    0    0  0.26273721236E+02 -0.26180486838E+03 -0.37781966690E+03  0.46914245533E+03  0.90082435381E+02 0.  0.
    5000000    2    1    2    0    0 -0.26273721236E+02  0.26180486838E+03  0.73246650474E+03  0.98262280767E+03  0.59984023209E+03 0.  0.
         23    2    4    4    0    0 -0.25441782885E+03  0.30387378177E+02  0.15771272677E+03  0.31602059826E+03  0.96663798537E+02 0.  0.
         23    2    4    4    0    0  0.22814410762E+03  0.23141749020E+03  0.57475377797E+03  0.66660220940E+03  0.91721380719E+02 0.  0.
          5    1    3    3  502    0  0.46500486562E+02 -0.72335603556E+02 -0.13998822604E+03  0.16435792717E+03  0.47000000000E+01 0. -1.
         -5    1    3    3    0  502 -0.20226765326E+02 -0.18946926482E+03 -0.23783144086E+03  0.30478452817E+03  0.47000000000E+01 0.  1.
         13    1    5    5    0    0 -0.13577631816E+03  0.18376999632E+02  0.28042288906E+02  0.13985454106E+03  0.00000000000E+00 0. -1.
        -13    1    5    5    0    0 -0.11864151070E+03  0.12010378545E+02  0.12967043787E+03  0.17616605720E+03  0.00000000000E+00 0.  1.
          2    1    6    6  503    0  0.13413364825E+03  0.17821320145E+03  0.32175317811E+03  0.39150592382E+03  0.00000000000E+00 0. -1.
         -2    1    6    6    0  503  0.94010459371E+02  0.53204288752E+02  0.25300059986E+03  0.27509628558E+03  0.00000000000E+00 0.  1.
<mgrwt>
<rscale>  0 0.43202983E+03</rscale>
<asrwt>0</asrwt>
<pdfrwt beam="1">  1        2 0.13895478E+00 0.43202983E+03</pdfrwt>
<pdfrwt beam="2">  1       -2 0.84393725E-01 0.43202983E+03</pdfrwt>
<totfact> 0.37629101E+01</totfact>
</mgrwt>
</event>
<event>
12    1  0.3147868E-008  0.7677162E+03  0.7818608E-02  0.9607959E-01
          2   -1    0    0  501    0  0.00000000000E+00  0.00000000000E+00  0.67802340065E+03  0.67802340065E+03  0.00000000000E+00 0. -1.
         -2   -1    0    0    0  501 -0.00000000000E+00 -0.00000000000E+00 -0.89438240789E+03  0.89438240789E+03  0.00000000000E+00 0.  1.
         23    2    1    2    0    0 -0.33894040566E+00  0.65877007265E+03 -0.59226010021E+02  0.66763267388E+03  0.90815986901E+02 0.  0.
    5000000    2    1    2    0    0  0.33894040566E+00 -0.65877007265E+03 -0.15713299722E+03  0.90477313466E+03  0.59995460069E+03 0.  0.
         23    2    4    4    0    0 -0.21471711711E+03 -0.55676584057E+02 -0.80581528873E+02  0.25342481447E+03  0.92344092406E+02 0.  0.
         23    2    4    4    0    0  0.21505605752E+03 -0.60309348859E+03 -0.76551468345E+02  0.65134832018E+03  0.91780406647E+02 0.  0.
          5    1    3    3  502    0  0.30376194504E+02  0.17867939233E+03  0.10014788882E+02  0.18158035255E+03  0.47000000000E+01 0. -1.
         -5    1    3    3    0  502 -0.30715134910E+02  0.48009068032E+03 -0.69240798903E+02  0.48605232133E+03  0.47000000000E+01 0.  1.
         13    1    5    5    0    0 -0.17445389400E+03 -0.67490870488E+02 -0.94034636699E+02  0.20936019591E+03  0.00000000000E+00 0. -1.
        -13    1    5    5    0    0 -0.40263223110E+02  0.11814286431E+02  0.13453107826E+02  0.44064618565E+02  0.00000000000E+00 0.  1.
          1    1    6    6  503    0  0.14330035445E+03 -0.48601302067E+03 -0.84956389007E+02  0.51377157948E+03  0.00000000000E+00 0. -1.
         -1    1    6    6    0  503  0.71755703073E+02 -0.11708046792E+03  0.84049206624E+01  0.13757674070E+03  0.00000000000E+00 0.  1.
<mgrwt>
<rscale>  0 0.76771619E+03</rscale>
<asrwt>0</asrwt>
<pdfrwt beam="1">  1        2 0.10431129E+00 0.76771619E+03</pdfrwt>
<pdfrwt beam="2">  1       -2 0.13759729E+00 0.76771619E+03</pdfrwt>
<totfact> 0.16225324E+01</totfact>
</mgrwt>
</event>
<event>
12    1  0.3147868E-008  0.5435641E+03  0.7818608E-02  0.1002995E+00
          2   -1    0    0  501    0  0.00000000000E+00  0.00000000000E+00  0.69162135280E+03  0.69162135280E+03  0.00000000000E+00 0. -1.
         -2   -1    0    0    0  501 -0.00000000000E+00 -0.00000000000E+00 -0.46165833098E+03  0.46165833098E+03  0.00000000000E+00 0.  1.
         23    2    1    2    0    0  0.30030598955E+03  0.23191237328E+03  0.21012100786E+03  0.44317766985E+03  0.91041599645E+02 0.  0.
    5000000    2    1    2    0    0 -0.30030598955E+03 -0.23191237328E+03  0.19842013953E+02  0.71010201393E+03  0.59990343259E+03 0.  0.
         23    2    4    4    0    0 -0.36914839626E+03 -0.37040287446E+03  0.21019084322E+02  0.53130744061E+03  0.91525770545E+02 0.  0.
         23    2    4    4    0    0  0.68842406704E+02  0.13849050118E+03 -0.11770703694E+01  0.17879457332E+03  0.89706287841E+02 0.  0.
          5    1    3    3  502    0  0.13389958611E+03  0.15922952888E+03  0.12281703730E+03  0.24163869036E+03  0.47000000000E+01 0. -1.
         -5    1    3    3    0  502  0.16640640345E+03  0.72682844396E+02  0.87303970559E+02  0.20153897949E+03  0.47000000000E+01 0.  1.
         11    1    5    5    0    0 -0.30700182332E+03 -0.29882295448E+03  0.52030700018E+02  0.43156977581E+03  0.00000000000E+00 0.  1.
        -11    1    5    5    0    0 -0.62146572937E+02 -0.71579919974E+02 -0.31011615696E+02  0.99737664798E+02  0.00000000000E+00 0. -1.
          1    1    6    6  503    0  0.81667966939E+02  0.80135044094E+02 -0.19998946858E+02  0.11615179719E+03  0.00000000000E+00 0. -1.
         -1    1    6    6    0  503 -0.12825560235E+02  0.58355457084E+02  0.18821876488E+02  0.62642776131E+02  0.00000000000E+00 0.  1.
<mgrwt>
<rscale>  0 0.54356409E+03</rscale>
<asrwt>0</asrwt>
<pdfrwt beam="1">  1        2 0.10640329E+00 0.54356409E+03</pdfrwt>
<pdfrwt beam="2">  1       -2 0.71024358E-01 0.54356409E+03</pdfrwt>
<totfact> 0.77063779E+01</totfact>
</mgrwt>
</event>
<event>
12    1  0.3147868E-008  0.3780923E+03  0.7818608E-02  0.1051641E+00
          2   -1    0    0  501    0  0.00000000000E+00  0.00000000000E+00  0.15949750449E+03  0.15949750449E+03  0.00000000000E+00 0. -1.
         -2   -1    0    0    0  501 -0.00000000000E+00 -0.00000000000E+00 -0.14743677390E+04  0.14743677390E+04  0.00000000000E+00 0.  1.
         23    2    1    2    0    0  0.65604529036E+01 -0.15857712281E+03 -0.66808370195E+01  0.18592641937E+03  0.96613955598E+02 0.  0.
    5000000    2    1    2    0    0 -0.65604529036E+01  0.15857712281E+03 -0.13081893975E+04  0.14479388241E+04  0.59998132909E+03 0.  0.
         23    2    4    4    0    0 -0.15501366462E+03  0.31310928455E+03 -0.58218675705E+03  0.68535484271E+03  0.93290835847E+02 0.  0.
         23    2    4    4    0    0  0.14845321172E+03 -0.15453216174E+03 -0.72600264040E+03  0.76258398137E+03  0.92390203408E+02 0.  0.
          5    1    3    3  502    0  0.45787975761E+02 -0.65783618151E+02 -0.23552480263E+02  0.83670977453E+02  0.47000000000E+01 0. -1.
         -5    1    3    3    0  502 -0.39227522858E+02 -0.92793504656E+02  0.16871643243E+02  0.10225544192E+03  0.47000000000E+01 0.  1.
         11    1    5    5    0    0 -0.11393717823E+03  0.18417565209E+03 -0.43168644152E+03  0.48296535611E+03  0.00000000000E+00 0. -1.
        -11    1    5    5    0    0 -0.41076486392E+02  0.12893363246E+03 -0.15050031553E+03  0.20238948661E+03  0.00000000000E+00 0.  1.
          1    1    6    6  503    0  0.89156538805E+02 -0.13290006893E+03 -0.40574373315E+03  0.43616429671E+03  0.00000000000E+00 0. -1.
         -1    1    6    6    0  503  0.59296672916E+02 -0.21632092811E+02 -0.32025890726E+03  0.32641968466E+03  0.00000000000E+00 0.  1.
<mgrwt>
<rscale>  0 0.37809227E+03</rscale>
<asrwt>0</asrwt>
<pdfrwt beam="1">  1        2 0.24538079E-01 0.37809227E+03</pdfrwt>
<pdfrwt beam="2">  1       -2 0.22682579E+00 0.37809227E+03</pdfrwt>
<totfact> 0.21326840E+01</totfact>
</mgrwt>
</event>
<event>
12    1  0.3147868E-008  0.7072755E+03  0.7818608E-02  0.9704870E-01
         -2   -1    0    0    0  501 -0.00000000000E+00  0.00000000000E+00  0.36679913636E+03  0.36679913636E+03  0.00000000000E+00 0.  1.
          2   -1    0    0  501    0  0.00000000000E+00 -0.00000000000E+00 -0.16987816735E+04  0.16987816735E+04  0.00000000000E+00 0. -1.
         23    2    1    2    0    0 -0.35856401037E+03  0.52193239622E+03 -0.27963203447E+03  0.69866335168E+03  0.94629955716E+02 0.  0.
    5000000    2    1    2    0    0  0.35856401037E+03 -0.52193239622E+03 -0.10523505027E+04  0.13669174582E+04  0.60003348346E+03 0.  0.
         23    2    4    4    0    0  0.18809961380E+03  0.39212344647E+02 -0.54992898699E+03  0.58958372407E+03  0.90928566851E+02 0.  0.
         23    2    4    4    0    0  0.17046439658E+03 -0.56114474086E+03 -0.50242151572E+03  0.77733373415E+03  0.88762740449E+02 0.  0.
          5    1    3    3  502    0 -0.15738731732E+03  0.23727979764E+03 -0.75161736563E+02  0.29452308342E+03  0.47000000000E+01 0. -1.
         -5    1    3    3    0  502 -0.20117669305E+03  0.28465259858E+03 -0.20447029790E+03  0.40414026826E+03  0.47000000000E+01 0.  1.
         13    1    5    5    0    0  0.12747717728E+03  0.41290614849E+02 -0.25065081581E+03  0.28422029672E+03  0.00000000000E+00 0.  1.
        -13    1    5    5    0    0  0.60622436523E+02 -0.20782702015E+01 -0.29927817119E+03  0.30536342735E+03  0.00000000000E+00 0. -1.
          2    1    6    6  503    0  0.79788173582E+02 -0.24831200456E+03 -0.28158895995E+03  0.38381941928E+03  0.00000000000E+00 0. -1.
         -2    1    6    6    0  503  0.90676222994E+02 -0.31283273630E+03 -0.22083255577E+03  0.39351431487E+03  0.00000000000E+00 0.  1.
<mgrwt>
<rscale>  0 0.70727546E+03</rscale>
<asrwt>0</asrwt>
<pdfrwt beam="1">  1        2 0.26135103E+00 0.70727546E+03</pdfrwt>
<pdfrwt beam="2">  1       -2 0.56430636E-01 0.70727546E+03</pdfrwt>
<totfact> 0.29877186E+01</totfact>
</mgrwt>
</event>
<event>
12    1  0.3147868E-008  0.6191033E+03  0.7818608E-02  0.9866547E-01
         -2   -1    0    0    0  501 -0.00000000000E+00  0.00000000000E+00  0.28040315045E+03  0.28040315045E+03  0.00000000000E+00 0.  1.
          2   -1    0    0  501    0  0.00000000000E+00 -0.00000000000E+00 -0.15025980633E+04  0.15025980633E+04  0.00000000000E+00 0. -1.
         23    2    1    2    0    0  0.27482210619E+03 -0.38919182025E+03 -0.71592280004E+03  0.86474017835E+03  0.90733992716E+02 0.  0.
    5000000    2    1    2    0    0 -0.27482210619E+03  0.38919182025E+03 -0.50627211283E+03  0.91826103542E+03  0.59991200517E+03 0.  0.
         23    2    4    4    0    0  0.11004430248E+02  0.44241002286E+03 -0.37173239456E+03  0.58489284338E+03  0.89816141443E+02 0.  0.
         23    2    4    4    0    0 -0.28582653644E+03 -0.53218202619E+02 -0.13453971827E+03  0.33336819204E+03  0.92219464575E+02 0.  0.
          5    1    3    3  502    0  0.14603807763E+03 -0.13036480585E+03 -0.29542098824E+03  0.35442594856E+03  0.47000000000E+01 0. -1.
         -5    1    3    3    0  502  0.12878402856E+03 -0.25882701439E+03 -0.42050181180E+03  0.51031422978E+03  0.47000000000E+01 0.  1.
         11    1    5    5    0    0 -0.29696813168E+02  0.25257062876E+03 -0.24438799997E+03  0.35270287461E+03  0.00000000000E+00 0.  1.
        -11    1    5    5    0    0  0.40701243417E+02  0.18983939410E+03 -0.12734439458E+03  0.23218996878E+03  0.00000000000E+00 0. -1.
          3    1    6    6  503    0 -0.14868409463E+03  0.18835985352E+02 -0.59793481715E+02  0.16135989215E+03  0.00000000000E+00 0. -1.
         -3    1    6    6    0  503 -0.13714244181E+03 -0.72054187971E+02 -0.74746236558E+02  0.17200829989E+03  0.00000000000E+00 0.  1.
<mgrwt>
<rscale>  0 0.61910335E+03</rscale>
<asrwt>0</asrwt>
<pdfrwt beam="1">  1        2 0.23116893E+00 0.61910335E+03</pdfrwt>
<pdfrwt beam="2">  1       -2 0.43138946E-01 0.61910335E+03</pdfrwt>
<totfact> 0.66725059E+01</totfact>
</mgrwt>
</event>
<event>
12    1  0.3147868E-008  0.7211716E+03  0.7818608E-02  0.9681696E-01
          1   -1    0    0  501    0  0.00000000000E+00  0.00000000000E+00  0.87673814648E+03  0.87673814648E+03  0.00000000000E+00 0. -1.
         -1   -1    0    0    0  501 -0.00000000000E+00 -0.00000000000E+00 -0.72235544088E+03  0.72235544088E+03  0.00000000000E+00 0.  1.
         23    2    1    2    0    0  0.31787467625E+03 -0.57569194808E+03  0.23660965897E+03  0.70511344204E+03  0.93462861801E+02 0.  0.
    5000000    2    1    2    0    0 -0.31787467625E+03  0.57569194808E+03 -0.82226953366E+02  0.89398014532E+03  0.59997808250E+03 0.  0.
         23    2    4    4    0    0 -0.35009911586E+03  0.20887071469E+03 -0.24162904752E+03  0.48252528390E+03  0.90827785468E+02 0.  0.
         23    2    4    4    0    0  0.32224439617E+02  0.36682123339E+03  0.15940209416E+03  0.41145486142E+03  0.91048578173E+02 0.  0.
          5    1    3    3  502    0  0.67306338182E+02 -0.14704679865E+03  0.99750487807E+02  0.19006618313E+03  0.47000000000E+01 0. -1.
         -5    1    3    3    0  502  0.25056833807E+03 -0.42864514944E+03  0.13685917116E+03  0.51504725891E+03  0.47000000000E+01 0.  1.
         11    1    5    5    0    0 -0.21773762195E+03  0.85312666762E+02 -0.10859701530E+03  0.25783955254E+03  0.00000000000E+00 0. -1.
        -11    1    5    5    0    0 -0.13236149391E+03  0.12355804793E+03 -0.13303203222E+03  0.22468573136E+03  0.00000000000E+00 0.  1.
          1    1    6    6  503    0 -0.20759025816E+00  0.13727827507E+03  0.10631190321E+03  0.17363060981E+03  0.00000000000E+00 0. -1.
         -1    1    6    6    0  503  0.32432029875E+02  0.22954295833E+03  0.53090190951E+02  0.23782425161E+03  0.00000000000E+00 0.  1.
<mgrwt>
<rscale>  0 0.72117164E+03</rscale>
<asrwt>0</asrwt>
<pdfrwt beam="1">  1        1 0.13488279E+00 0.72117164E+03</pdfrwt>
<pdfrwt beam="2">  1       -1 0.11113161E+00 0.72117164E+03</pdfrwt>
<totfact> 0.14641744E+01</totfact>
</mgrwt>
</event>
<event>
12    1  0.3147868E-008  0.5893055E+03  0.7818608E-02  0.9927845E-01
         -2   -1    0    0    0  501 -0.00000000000E+00  0.00000000000E+00  0.39756674975E+03  0.39756674975E+03  0.00000000000E+00 0.  1.
          2   -1    0    0  501    0  0.00000000000E+00 -0.00000000000E+00 -0.17022783149E+04  0.17022783149E+04  0.00000000000E+00 0. -1.
         23    2    1    2    0    0 -0.57649712541E+03 -0.34692246139E+02 -0.10937528961E+04  0.12402338985E+04  0.91281092043E+02 0.  0.
    5000000    2    1    2    0    0  0.57649712541E+03  0.34692246139E+02 -0.21095866908E+03  0.85961116616E+03  0.60072898164E+03 0.  0.
         23    2    4    4    0    0  0.37271415823E+03  0.45636816471E+02  0.16677880561E+03  0.42076335078E+03  0.90708679805E+02 0.  0.
         23    2    4    4    0    0  0.20378296718E+03 -0.10944570332E+02 -0.37773747469E+03  0.43884781539E+03  0.90854410750E+02 0.  0.
          5    1    3    3  502    0 -0.43853473931E+03 -0.32420164584E+02 -0.74441106127E+03  0.86460031390E+03  0.47000000000E+01 0. -1.
         -5    1    3    3    0  502 -0.13796238610E+03 -0.22720815550E+01 -0.34934183484E+03  0.37563358463E+03  0.47000000000E+01 0.  1.
         11    1    5    5    0    0  0.30835315657E+03  0.57954422618E+01  0.11545763851E+03  0.32931098161E+03  0.00000000000E+00 0.  1.
        -11    1    5    5    0    0  0.64361001658E+02  0.39841374209E+02  0.51321167100E+02  0.91452369164E+02  0.00000000000E+00 0. -1.
          3    1    6    6  503    0  0.92059103618E+02 -0.41326949915E+02 -0.22987478151E+03  0.25104822350E+03  0.00000000000E+00 0.  1.
         -3    1    6    6    0  503  0.11172386356E+03  0.30382379584E+02 -0.14786269317E+03  0.18779959188E+03  0.00000000000E+00 0. -1.
<mgrwt>
<rscale>  0 0.58930555E+03</rscale>
<asrwt>0</asrwt>
<pdfrwt beam="1">  1        2 0.26188897E+00 0.58930555E+03</pdfrwt>
<pdfrwt beam="2">  1       -2 0.61164116E-01 0.58930555E+03</pdfrwt>
<totfact> 0.25549410E+01</totfact>
</mgrwt>
</event>
<event>
12    1  0.3147868E-008  0.7590317E+03  0.7818608E-02  0.9621287E-01
          1   -1    0    0  501    0  0.00000000000E+00  0.00000000000E+00  0.63181135789E+03  0.63181135789E+03  0.00000000000E+00 0. -1.
         -1   -1    0    0    0  501 -0.00000000000E+00 -0.00000000000E+00 -0.13075432678E+04  0.13075432678E+04  0.00000000000E+00 0.  1.
         23    2    1    2    0    0 -0.32983737614E+03  0.64362353741E+03  0.79760355403E+02  0.73358663924E+03  0.93507702206E+02 0.  0.
    5000000    2    1    2    0    0  0.32983737614E+03 -0.64362353741E+03 -0.75549226535E+03  0.12057679865E+04  0.60005326566E+03 0.  0.
         23    2    4    4    0    0  0.14923455988E+03 -0.58534282604E+03 -0.25448995868E+03  0.66170140957E+03  0.90478939488E+02 0.  0.
         23    2    4    4    0    0  0.18060281625E+03 -0.58280711369E+02 -0.50100230668E+03  0.54406657692E+03  0.94821465252E+02 0.  0.
          5    1    3    3  502    0 -0.87764157768E+02  0.20581120592E+03  0.65109454084E+02  0.23307108547E+03  0.47000000000E+01 0. -1.
         -5    1    3    3    0  502 -0.24207321837E+03  0.43781233149E+03  0.14650901319E+02  0.50051555377E+03  0.47000000000E+01 0.  1.
         13    1    5    5    0    0  0.12703001463E+03 -0.50989936754E+03 -0.25257823047E+03  0.58303494934E+03  0.00000000000E+00 0.  1.
        -13    1    5    5    0    0  0.22204545256E+02 -0.75443458498E+02 -0.19117282014E+01  0.78666460229E+02  0.00000000000E+00 0. -1.
          1    1    6    6  503    0  0.79321699785E+02 -0.22933574313E+02 -0.34498684980E+03  0.35473061247E+03  0.00000000000E+00 0. -1.
         -1    1    6    6    0  503  0.10128111647E+03 -0.35347137056E+02 -0.15601545687E+03  0.18933596445E+03  0.00000000000E+00 0.  1.
<mgrwt>
<rscale>  0 0.75903169E+03</rscale>
<asrwt>0</asrwt>
<pdfrwt beam="1">  1        1 0.97201748E-01 0.75903169E+03</pdfrwt>
<pdfrwt beam="2">  1       -1 0.20116050E+00 0.75903169E+03</pdfrwt>
<totfact> 0.48575249E+00</totfact>
</mgrwt>
</event>
<event>
12    1  0.3147868E-008  0.1848781E+04  0.7818608E-02  0.8680780E-01
          2   -1    0    0  501    0  0.00000000000E+00  0.00000000000E+00  0.53246268038E+04  0.53246268038E+04  0.00000000000E+00 0.  1.
         -2   -1    0    0    0  501 -0.00000000000E+00 -0.00000000000E+00 -0.65702454939E+03  0.65702454939E+03  0.00000000000E+00 0. -1.
         23    2    1    2    0    0 -0.12395397766E+04 -0.13169695059E+04  0.19334649534E+04  0.26490362711E+04  0.90768397178E+02 0.  0.
    5000000    2    1    2    0    0  0.12395397766E+04  0.13169695059E+04  0.27341373010E+04  0.33326150821E+04  0.59995747147E+03 0.  0.
         23    2    4    4    0    0  0.65466805988E+03  0.31357871776E+03  0.90405229776E+03  0.11630706896E+04  0.92200819717E+02 0.  0.
         23    2    4    4    0    0  0.58487171674E+03  0.10033907882E+04  0.18300850032E+04  0.21695443925E+04  0.94041230794E+02 0.  0.
          5    1    3    3  502    0 -0.56839957516E+03 -0.58405889843E+03  0.93401689642E+03  0.12396017613E+04  0.47000000000E+01 0. -1.
         -5    1    3    3    0  502 -0.67114020147E+03 -0.73291060749E+03  0.99944805699E+03  0.14094345097E+04  0.47000000000E+01 0.  1.
         11    1    5    5    0    0  0.63623902812E+03  0.29890350723E+03  0.89447073992E+03  0.11376384804E+04  0.00000000000E+00 0. -1.
        -11    1    5    5    0    0  0.18429031765E+02  0.14675210530E+02  0.95815578434E+01  0.25432209235E+02  0.00000000000E+00 0.  1.
          3    1    6    6  503    0  0.54225408205E+03  0.90462358821E+03  0.17018291237E+04  0.20021502671E+04  0.00000000000E+00 0. -1.
         -3    1    6    6    0  503  0.42617634691E+02  0.98767199947E+02  0.12825587955E+03  0.16739412537E+03  0.00000000000E+00 0.  1.
<mgrwt>
<rscale>  0 0.18487812E+04</rscale>
<asrwt>0</asrwt>
<pdfrwt beam="1">  1        2 0.81917333E+00 0.18487812E+04</pdfrwt>
<pdfrwt beam="2">  1       -2 0.10108070E+00 0.18487812E+04</pdfrwt>
<totfact> 0.91583157E-03</totfact>
</mgrwt>
</event>
<event>
12    1  0.3147868E-008  0.1299379E+04  0.7818608E-02  0.9030058E-01
         -2   -1    0    0    0  501 -0.00000000000E+00  0.00000000000E+00  0.14594116967E+04  0.14594116967E+04  0.00000000000E+00 0.  1.
          2   -1    0    0  501    0  0.00000000000E+00 -0.00000000000E+00 -0.12249621097E+04  0.12249621097E+04  0.00000000000E+00 0. -1.
         23    2    1    2    0    0  0.70334334358E+03  0.10272205567E+04  0.35296570572E+03  0.12972839639E+04  0.92124710931E+02 0.  0.
    5000000    2    1    2    0    0 -0.70334334358E+03 -0.10272205567E+04 -0.11851611868E+03  0.13870898425E+04  0.60008185248E+03 0.  0.
         23    2    4    4    0    0 -0.11601105540E+03  0.20879978208E+02  0.76204846636E+02  0.16651644899E+03  0.89588005153E+02 0.  0.
         23    2    4    4    0    0 -0.58733228818E+03 -0.10481005349E+04 -0.19472096532E+03  0.12205733935E+04  0.91701726103E+02 0.  0.
          5    1    3    3  502    0  0.39980125808E+03  0.52057942259E+03  0.15612473779E+03  0.67471549926E+03  0.47000000000E+01 0. -1.
         -5    1    3    3    0  502  0.30354208550E+03  0.50664113412E+03  0.19684096793E+03  0.62256846460E+03  0.47000000000E+01 0.  1.
         13    1    5    5    0    0 -0.53082560223E+02  0.54674488714E+02  0.45614479509E+02  0.88812941945E+02  0.00000000000E+00 0. -1.
        -13    1    5    5    0    0 -0.62928495182E+02 -0.33794510506E+02  0.30590367127E+02  0.77703507045E+02  0.00000000000E+00 0.  1.
          2    1    6    6  503    0 -0.40059944532E+03 -0.78696044855E+03 -0.16302680048E+03  0.89797795121E+03  0.00000000000E+00 0. -1.
         -2    1    6    6    0  503 -0.18673284286E+03 -0.26114008637E+03 -0.31694164843E+02  0.32259544230E+03  0.00000000000E+00 0.  1.
<mgrwt>
<rscale>  0 0.12993789E+04</rscale>
<asrwt>0</asrwt>
<pdfrwt beam="1">  1        2 0.18845571E+00 0.12993789E+04</pdfrwt>
<pdfrwt beam="2">  1       -2 0.22452488E+00 0.12993789E+04</pdfrwt>
<totfact> 0.16285954E+00</totfact>
</mgrwt>
</event>
<event>
12    1  0.3147868E-008  0.3723591E+03  0.7818608E-02  0.1053795E+00
          1   -1    0    0  501    0  0.00000000000E+00  0.00000000000E+00  0.75723899380E+03  0.75723899380E+03  0.00000000000E+00 0. -1.
         -1   -1    0    0    0  501 -0.00000000000E+00 -0.00000000000E+00 -0.28035273989E+03  0.28035273989E+03  0.00000000000E+00 0.  1.
         23    2    1    2    0    0 -0.16020276255E+03 -0.30972685115E+02  0.35911666324E+03  0.40474671971E+03  0.90724290841E+02 0.  0.
    5000000    2    1    2    0    0  0.16020276255E+03  0.30972685115E+02  0.11776959066E+03  0.63284501398E+03  0.59999908573E+03 0.  0.
         23    2    4    4    0    0  0.67491120835E+02  0.27732975635E+03  0.17623461248E+03  0.34803629731E+03  0.92756565596E+02 0.  0.
         23    2    4    4    0    0  0.92711641717E+02 -0.24635707124E+03 -0.58465021814E+02  0.28480871667E+03  0.91709275727E+02 0.  0.
          5    1    3    3  502    0 -0.58378073467E+02  0.96709588175E+01  0.53082800719E+02  0.79632911779E+02  0.47000000000E+01 0. -1.
         -5    1    3    3    0  502 -0.10182468908E+03 -0.40643643932E+02  0.30603386252E+03  0.32511380794E+03  0.47000000000E+01 0.  1.
         11    1    5    5    0    0  0.12648957562E+02  0.22148388901E+03  0.13074247740E+03  0.25750476620E+03  0.00000000000E+00 0. -1.
        -11    1    5    5    0    0  0.54842163273E+02  0.55845867342E+02  0.45492135074E+02  0.90531531111E+02  0.00000000000E+00 0.  1.
          1    1    6    6  503    0  0.84030366694E+02 -0.10782929160E+03 -0.73707677389E+01  0.13690356778E+03  0.00000000000E+00 0. -1.
         -1    1    6    6    0  503  0.86812750232E+01 -0.13852777964E+03 -0.51094254075E+02  0.14790514889E+03  0.00000000000E+00 0.  1.
<mgrwt>
<rscale>  0 0.37235905E+03</rscale>
<asrwt>0</asrwt>
<pdfrwt beam="1">  1        1 0.11649831E+00 0.37235905E+03</pdfrwt>
<pdfrwt beam="2">  1       -1 0.43131191E-01 0.37235905E+03</pdfrwt>
<totfact> 0.13463279E+02</totfact>
</mgrwt>
</event>
<event>
12    1  0.3147868E-008  0.7175513E+03  0.7818608E-02  0.9687679E-01
         -2   -1    0    0    0  501 -0.00000000000E+00  0.00000000000E+00  0.31189024634E+03  0.31189024634E+03  0.00000000000E+00 0.  1.
          2   -1    0    0  501    0  0.00000000000E+00 -0.00000000000E+00 -0.16881235774E+04  0.16881235774E+04  0.00000000000E+00 0. -1.
         23    2    1    2    0    0 -0.43687378785E+03 -0.40289643606E+03 -0.48474758042E+03  0.77198057135E+03  0.88258377030E+02 0.  0.
    5000000    2    1    2    0    0  0.43687378785E+03  0.40289643606E+03 -0.89148575062E+03  0.12280332524E+04  0.60011214005E+03 0.  0.
         23    2    4    4    0    0  0.41092784367E+03 -0.93488280155E+01 -0.47302548206E+03  0.63327997163E+03  0.91330840906E+02 0.  0.
         23    2    4    4    0    0  0.25945944185E+02  0.41224526408E+03 -0.41846026856E+03  0.59475328074E+03  0.89460152053E+02 0.  0.
          5    1    3    3  502    0 -0.39208558067E+03 -0.38128255000E+03 -0.46631973171E+03  0.71873755132E+03  0.47000000000E+01 0. -1.
         -5    1    3    3    0  502 -0.44788207183E+02 -0.21613886062E+02 -0.18427848712E+02  0.53243020026E+02  0.47000000000E+01 0.  1.
         11    1    5    5    0    0  0.30864967186E+02 -0.19426976678E+02 -0.19105496493E+02  0.41171271762E+02  0.00000000000E+00 0. -1.
        -11    1    5    5    0    0  0.38006287648E+03  0.10078148663E+02 -0.45391998557E+03  0.59210869986E+03  0.00000000000E+00 0.  1.
          4    1    6    6  503    0  0.56967219130E+02  0.27741826343E+03 -0.30072661728E+03  0.41308916142E+03  0.00000000000E+00 0. -1.
         -4    1    6    6    0  503 -0.31021274945E+02  0.13482700065E+03 -0.11773365128E+03  0.18166411932E+03  0.00000000000E+00 0.  1.
<mgrwt>
<rscale>  0 0.71755135E+03</rscale>
<asrwt>0</asrwt>
<pdfrwt beam="1">  1        2 0.25971131E+00 0.71755135E+03</pdfrwt>
<pdfrwt beam="2">  1       -2 0.47983117E-01 0.71755135E+03</pdfrwt>
<totfact> 0.42171948E+01</totfact>
</mgrwt>
</event>
<event>
12    1  0.3147868E-008  0.6528731E+03  0.7818608E-02  0.9801403E-01
          1   -1    0    0  501    0  0.00000000000E+00  0.00000000000E+00  0.14596365971E+04  0.14596365971E+04  0.00000000000E+00 0. -1.
         -1   -1    0    0    0  501 -0.00000000000E+00 -0.00000000000E+00 -0.32417404663E+03  0.32417404663E+03  0.00000000000E+00 0.  1.
         23    2    1    2    0    0  0.52127236956E+03  0.39527669609E+02  0.22968183036E+03  0.57812560599E+03  0.90488414566E+02 0.  0.
    5000000    2    1    2    0    0 -0.52127236956E+03 -0.39527669609E+02  0.90578072011E+03  0.12056850377E+04  0.59995864640E+03 0.  0.
         23    2    4    4    0    0  0.10945302507E+03 -0.54067838536E+02  0.12198910693E+03  0.19540763777E+03  0.91648823386E+02 0.  0.
         23    2    4    4    0    0 -0.63072539463E+03  0.14540168927E+02  0.78379161318E+03  0.10102774000E+04  0.91132826546E+02 0.  0.
          5    1    3    3  502    0  0.18865838741E+03 -0.12822034715E+02  0.11985150297E+03  0.22392602457E+03  0.47000000000E+01 0. -1.
         -5    1    3    3    0  502  0.33261398215E+03  0.52349704324E+02  0.10983032739E+03  0.35419958142E+03  0.47000000000E+01 0.  1.
         13    1    5    5    0    0  0.83000674388E+02 -0.87528085449E+00  0.35031712937E+02  0.90094944235E+02  0.00000000000E+00 0.  1.
        -13    1    5    5    0    0  0.26452350681E+02 -0.53192557681E+02  0.86957393992E+02  0.10531269353E+03  0.00000000000E+00 0. -1.
          2    1    6    6  503    0 -0.35196261500E+03 -0.37179401419E+02  0.43555595704E+03  0.56122097426E+03  0.00000000000E+00 0. -1.
         -2    1    6    6    0  503 -0.27876277963E+03  0.51719570345E+02  0.34823565614E+03  0.44905642571E+03  0.00000000000E+00 0.  1.
<mgrwt>
<rscale>  0 0.65287313E+03</rscale>
<asrwt>0</asrwt>
<pdfrwt beam="1">  1        1 0.22455947E+00 0.65287313E+03</pdfrwt>
<pdfrwt beam="2">  1       -1 0.49872931E-01 0.65287313E+03</pdfrwt>
<totfact> 0.29410927E+01</totfact>
</mgrwt>
</event>
<event>
12    1  0.3147868E-008  0.2090678E+04  0.7818608E-02  0.8565361E-01
         -2   -1    0    0    0  501 -0.00000000000E+00  0.00000000000E+00  0.24874893563E+04  0.24874893563E+04  0.00000000000E+00 0.  1.
          2   -1    0    0  501    0  0.00000000000E+00 -0.00000000000E+00 -0.18247651101E+04  0.18247651101E+04  0.00000000000E+00 0. -1.
         23    2    1    2    0    0 -0.13747730195E+04  0.15540911334E+04  0.94992801688E+02  0.20789658689E+04  0.88743144376E+02 0.  0.
    5000000    2    1    2    0    0  0.13747730195E+04 -0.15540911334E+04  0.56773144452E+03  0.22332885976E+04  0.60004904874E+03 0.  0.
         23    2    4    4    0    0  0.12612458748E+04 -0.12395802160E+04  0.30209014468E+03  0.17964439223E+04  0.93016352860E+02 0.  0.
         23    2    4    4    0    0  0.11352714468E+03 -0.31451091741E+03  0.26564129984E+03  0.43684467526E+03  0.91991523357E+02 0.  0.
          5    1    3    3  502    0 -0.56973595730E+03  0.70898107337E+03  0.33503232561E+02  0.91016360070E+03  0.47000000000E+01 0. -1.
         -5    1    3    3    0  502 -0.80503706220E+03  0.84511006001E+03  0.61489569127E+02  0.11688022682E+04  0.47000000000E+01 0.  1.
         11    1    5    5    0    0  0.60506899519E+03 -0.54018262673E+03  0.16404691567E+03  0.82753679659E+03  0.00000000000E+00 0. -1.
        -11    1    5    5    0    0  0.65617687963E+03 -0.69939758924E+03  0.13804322901E+03  0.96890712572E+03  0.00000000000E+00 0.  1.
          3    1    6    6  503    0  0.68694138524E+02 -0.17745931994E+03  0.92686417483E+02  0.21166357005E+03  0.00000000000E+00 0.  1.
         -3    1    6    6    0  503  0.44833006161E+02 -0.13705159747E+03  0.17295488236E+03  0.22518110521E+03  0.00000000000E+00 0. -1.
<mgrwt>
<rscale>  0 0.20906783E+04</rscale>
<asrwt>0</asrwt>
<pdfrwt beam="1">  1        2 0.28073309E+00 0.20906783E+04</pdfrwt>
<pdfrwt beam="2">  1       -2 0.38269067E+00 0.20906783E+04</pdfrwt>
<totfact> 0.70916604E-02</totfact>
</mgrwt>
</event>
<event>
12    1  0.3147868E-008  0.4750542E+03  0.7818608E-02  0.1020503E+00
          1   -1    0    0  501    0  0.00000000000E+00  0.00000000000E+00  0.58478632343E+03  0.58478632343E+03  0.00000000000E+00 0. -1.
         -1   -1    0    0    0  501 -0.00000000000E+00 -0.00000000000E+00 -0.68034412568E+03  0.68034412568E+03  0.00000000000E+00 0.  1.
         23    2    1    2    0    0 -0.44663999742E+03 -0.11042006155E+03  0.10792060596E+03  0.48202999845E+03  0.95006236256E+02 0.  0.
    5000000    2    1    2    0    0  0.44663999742E+03  0.11042006155E+03 -0.20347840820E+03  0.78310045066E+03  0.60013579790E+03 0.  0.
         23    2    4    4    0    0  0.17056211009E+03  0.87054610410E+02  0.19505672512E+03  0.28924465961E+03  0.94580169724E+02 0.  0.
         23    2    4    4    0    0  0.27607788733E+03  0.23365451145E+02 -0.39853513333E+03  0.49385579105E+03  0.91095256060E+02 0.  0.
          5    1    3    3  502    0 -0.10300689875E+03 -0.67948371280E+02  0.30564873381E+02  0.12721518712E+03  0.47000000000E+01 0. -1.
         -5    1    3    3    0  502 -0.34363309867E+03 -0.42471690275E+02  0.77355732576E+02  0.35481481133E+03  0.47000000000E+01 0.  1.
         11    1    5    5    0    0  0.17251449327E+02  0.89490704172E+01  0.79839097763E+02  0.82170432011E+02  0.00000000000E+00 0.  1.
        -11    1    5    5    0    0  0.15331066076E+03  0.78105539993E+02  0.11521762736E+03  0.20707422760E+03  0.00000000000E+00 0. -1.
          4    1    6    6  503    0  0.18329960905E+03  0.54087207237E+02 -0.23005477458E+03  0.29908087864E+03  0.00000000000E+00 0. -1.
         -4    1    6    6    0  503  0.92778278279E+02 -0.30721756092E+02 -0.16848035875E+03  0.19477491240E+03  0.00000000000E+00 0.  1.
<mgrwt>
<rscale>  0 0.47505422E+03</rscale>
<asrwt>0</asrwt>
<pdfrwt beam="1">  1        1 0.89967127E-01 0.47505422E+03</pdfrwt>
<pdfrwt beam="2">  1       -1 0.10466833E+00 0.47505422E+03</pdfrwt>
<totfact> 0.32290033E+01</totfact>
</mgrwt>
</event>
<event>
12    1  0.3147868E-008  0.1411600E+04  0.7818608E-02  0.8945465E-01
          1   -1    0    0  501    0  0.00000000000E+00  0.00000000000E+00  0.18083763258E+04  0.18083763258E+04  0.00000000000E+00 0.  1.
         -1   -1    0    0    0  501 -0.00000000000E+00 -0.00000000000E+00 -0.12592662525E+04  0.12592662525E+04  0.00000000000E+00 0. -1.
         23    2    1    2    0    0 -0.11060558912E+04 -0.79810052675E+03 -0.23015465241E+03  0.13861231064E+04  0.89677293476E+02 0.  0.
    5000000    2    1    2    0    0  0.11060558912E+04  0.79810052675E+03  0.77926472572E+03  0.16815194719E+04  0.59994177771E+03 0.  0.
         23    2    4    4    0    0  0.16516211681E+02  0.21861876805E+03  0.21909474769E+03  0.32258020540E+03  0.89378573839E+02 0.  0.
         23    2    4    4    0    0  0.10895396795E+04  0.57948175870E+03  0.56016997803E+03  0.13589392665E+04  0.10014841020E+03 0.  0.
          5    1    3    3  502    0 -0.18929122076E+03 -0.11162406053E+03 -0.11301152650E+02  0.22009294218E+03  0.47000000000E+01 0. -1.
         -5    1    3    3    0  502 -0.91676467039E+03 -0.68647646622E+03 -0.21885349976E+03  0.11660301642E+04  0.47000000000E+01 0.  1.
         11    1    5    5    0    0  0.11863921589E+02  0.10489652922E+02  0.55779158135E+02  0.57983617826E+02  0.00000000000E+00 0. -1.
        -11    1    5    5    0    0  0.46522900925E+01  0.20812911512E+03  0.16331558955E+03  0.26459658758E+03  0.00000000000E+00 0.  1.
          1    1    6    6  503    0  0.98640957208E+03  0.52261199092E+03  0.47279844926E+03  0.12122976163E+04  0.00000000000E+00 0. -1.
         -1    1    6    6    0  503  0.10313010739E+03  0.56869767784E+02  0.87371528764E+02  0.14664165021E+03  0.00000000000E+00 0.  1.
<mgrwt>
<rscale>  0 0.14115995E+04</rscale>
<asrwt>0</asrwt>
<pdfrwt beam="1">  1        1 0.27821174E+00 0.14115995E+04</pdfrwt>
<pdfrwt beam="2">  1       -1 0.19373327E+00 0.14115995E+04</pdfrwt>
<totfact> 0.63929093E-01</totfact>
</mgrwt>
</event>
<event>
12    1  0.3147868E-008  0.7145464E+03  0.7818608E-02  0.9692674E-01
          2   -1    0    0  501    0  0.00000000000E+00  0.00000000000E+00  0.10903336817E+04  0.10903336817E+04  0.00000000000E+00 0.  1.
         -2   -1    0    0    0  501 -0.00000000000E+00 -0.00000000000E+00 -0.65686972991E+03  0.65686972991E+03  0.00000000000E+00 0. -1.
         23    2    1    2    0    0 -0.22183777679E+03  0.55793197141E+03  0.63116070619E+03  0.87565070200E+03  0.88883243287E+02 0.  0.
    5000000    2    1    2    0    0  0.22183777679E+03 -0.55793197141E+03 -0.19769675437E+03  0.87155270964E+03  0.60001669566E+03 0.  0.
         23    2    4    4    0    0 -0.14767204123E+03 -0.36808491940E+03 -0.15939391317E+02  0.40752487462E+03  0.92352149851E+02 0.  0.
         23    2    4    4    0    0  0.36950981802E+03 -0.18984705201E+03 -0.18175736305E+03  0.46402783503E+03  0.98522504488E+02 0.  0.
          5    1    3    3  502    0 -0.24107479489E+02  0.13705213609E+03  0.11221035611E+03  0.17882313215E+03  0.47000000000E+01 0. -1.
         -5    1    3    3    0  502 -0.19773029730E+03  0.42087983532E+03  0.51895035008E+03  0.69682756985E+03  0.47000000000E+01 0.  1.
         11    1    5    5    0    0 -0.64494649863E+02 -0.24255033466E+03  0.22857639712E+02  0.25201725416E+03  0.00000000000E+00 0.  1.
        -11    1    5    5    0    0 -0.83177391367E+02 -0.12553458475E+03 -0.38797031029E+02  0.15550762046E+03  0.00000000000E+00 0. -1.
          4    1    6    6  503    0  0.15612884421E+03 -0.12568794549E+03 -0.55726181946E+02  0.20803625402E+03  0.00000000000E+00 0.  1.
         -4    1    6    6    0  503  0.21338097381E+03 -0.64159106518E+02 -0.12603118111E+03  0.25599158100E+03  0.00000000000E+00 0. -1.
<mgrwt>
<rscale>  0 0.71454637E+03</rscale>
<asrwt>0</asrwt>
<pdfrwt beam="1">  1        2 0.16774364E+00 0.71454637E+03</pdfrwt>
<pdfrwt beam="2">  1       -2 0.10105688E+00 0.71454637E+03</pdfrwt>
<totfact> 0.18181802E+01</totfact>
</mgrwt>
</event>
<event>
12    1  0.3147868E-008  0.5707838E+03  0.7818608E-02  0.9967946E-01
         -2   -1    0    0    0  501 -0.00000000000E+00  0.00000000000E+00  0.24016273974E+03  0.24016273974E+03  0.00000000000E+00 0.  1.
          2   -1    0    0  501    0  0.00000000000E+00 -0.00000000000E+00 -0.15391950491E+04  0.15391950491E+04  0.00000000000E+00 0. -1.
         23    2    1    2    0    0  0.28506933477E+03  0.32641151408E+03 -0.69525835090E+03  0.82417977603E+03  0.89883961726E+02 0.  0.
    5000000    2    1    2    0    0 -0.28506933477E+03 -0.32641151408E+03 -0.60377395845E+03  0.95517801281E+03  0.60001086749E+03 0.  0.
         23    2    4    4    0    0  0.79797641671E+02  0.97366702266E+02 -0.22377507753E+03  0.27274647553E+03  0.92018564795E+02 0.  0.
         23    2    4    4    0    0 -0.36486697644E+03 -0.42377821634E+03 -0.37999888093E+03  0.68243153728E+03  0.92724141568E+02 0.  0.
          5    1    3    3  502    0  0.24110041618E+03  0.22279157797E+03 -0.54716444329E+03  0.63810384414E+03  0.47000000000E+01 0. -1.
         -5    1    3    3    0  502  0.43968918582E+02  0.10361993610E+03 -0.14809390761E+03  0.18607593189E+03  0.47000000000E+01 0.  1.
         11    1    5    5    0    0  0.54093249921E+02  0.10000355383E+03 -0.21859200501E+03  0.24639248187E+03  0.00000000000E+00 0. -1.
        -11    1    5    5    0    0  0.25704391750E+02 -0.26368515642E+01 -0.51830725147E+01  0.26353993665E+02  0.00000000000E+00 0.  1.
          3    1    6    6  503    0 -0.27798560087E+03 -0.29148356242E+03 -0.31498591091E+03  0.51132649602E+03  0.00000000000E+00 0. -1.
         -3    1    6    6    0  503 -0.86881375565E+02 -0.13229465392E+03 -0.65012970010E+02  0.17110504126E+03  0.00000000000E+00 0.  1.
<mgrwt>
<rscale>  0 0.57078380E+03</rscale>
<asrwt>0</asrwt>
<pdfrwt beam="1">  1        2 0.23679925E+00 0.57078380E+03</pdfrwt>
<pdfrwt beam="2">  1       -2 0.36948113E-01 0.57078380E+03</pdfrwt>
<totfact> 0.86575077E+01</totfact>
</mgrwt>
</event>
<event>
12    1  0.3147868E-008  0.8735479E+03  0.7818608E-02  0.9459266E-01
          1   -1    0    0  501    0  0.00000000000E+00  0.00000000000E+00  0.20038887078E+04  0.20038887078E+04  0.00000000000E+00 0. -1.
         -1   -1    0    0    0  501 -0.00000000000E+00 -0.00000000000E+00 -0.48324880492E+03  0.48324880492E+03  0.00000000000E+00 0.  1.
         23    2    1    2    0    0 -0.39193777018E+03  0.70198367864E+03  0.20837547962E+03  0.83532950606E+03  0.89211784072E+02 0.  0.
    5000000    2    1    2    0    0  0.39193777018E+03 -0.70198367864E+03  0.13122644233E+04  0.16518080067E+04  0.60002956058E+03 0.  0.
         23    2    4    4    0    0  0.33080397715E+03 -0.76785505490E+03  0.95524162791E+03  0.12726710175E+04  0.90400742974E+02 0.  0.
         23    2    4    4    0    0  0.61133793036E+02  0.65871376265E+02  0.35702279538E+03  0.37913698924E+03  0.90571526035E+02 0.  0.
          5    1    3    3  502    0 -0.35209127390E+03  0.56125658885E+03  0.17275293954E+03  0.68472103210E+03  0.47000000000E+01 0. -1.
         -5    1    3    3    0  502 -0.39846496286E+02  0.14072708979E+03  0.35622540079E+02  0.15060847396E+03  0.47000000000E+01 0.  1.
         13    1    5    5    0    0  0.17171982127E+03 -0.48241823378E+03  0.62653990841E+03  0.80917693129E+03  0.00000000000E+00 0.  1.
        -13    1    5    5    0    0  0.15908415588E+03 -0.28543682112E+03  0.32870171950E+03  0.46349408617E+03  0.00000000000E+00 0. -1.
          2    1    6    6  503    0 -0.33855459036E+01 -0.33192115881E+01 -0.38262758817E+01  0.60925752974E+01  0.00000000000E+00 0. -1.
         -2    1    6    6    0  503  0.64519338940E+02  0.69190587853E+02  0.36084907126E+03  0.37304441394E+03  0.00000000000E+00 0.  1.
<mgrwt>
<rscale>  0 0.87354791E+03</rscale>
<asrwt>0</asrwt>
<pdfrwt beam="1">  1        1 0.30829057E+00 0.87354791E+03</pdfrwt>
<pdfrwt beam="2">  1       -1 0.74345971E-01 0.87354791E+03</pdfrwt>
<totfact> 0.55495801E+00</totfact>
</mgrwt>
</event>
<event>
12    1  0.3147868E-008  0.4058084E+03  0.7818608E-02  0.1041787E+00
          2   -1    0    0  501    0  0.00000000000E+00  0.00000000000E+00  0.95447526492E+03  0.95447526492E+03  0.00000000000E+00 0. -1.
         -2   -1    0    0    0  501 -0.00000000000E+00 -0.00000000000E+00 -0.30173250477E+03  0.30173250477E+03  0.00000000000E+00 0.  1.
         23    2    1    2    0    0 -0.21190297691E+03  0.29164779033E+03  0.25619620025E+03  0.45132935180E+03  0.90002141885E+02 0.  0.
    5000000    2    1    2    0    0  0.21190297691E+03 -0.29164779033E+03  0.39654655990E+03  0.80487841788E+03  0.60051543542E+03 0.  0.
         23    2    4    4    0    0  0.17829341337E+03 -0.30515601993E+03  0.52321128260E+03  0.63772001668E+03  0.89599306245E+02 0.  0.
         23    2    4    4    0    0  0.33609563543E+02  0.13508229599E+02 -0.12666472270E+03  0.16715840120E+03  0.10288782284E+03 0.  0.
          5    1    3    3  502    0 -0.12984164760E+03  0.10331520225E+03  0.11918973899E+03  0.20435549503E+03  0.47000000000E+01 0. -1.
         -5    1    3    3    0  502 -0.82061329313E+02  0.18833258808E+03  0.13700646126E+03  0.24697385677E+03  0.47000000000E+01 0. -1.
         13    1    5    5    0    0  0.14577216274E+03 -0.21622336528E+03  0.31461952362E+03  0.40864105492E+03  0.00000000000E+00 0. -1.
        -13    1    5    5    0    0  0.32521250635E+02 -0.88932654650E+02  0.20859175898E+03  0.22907896176E+03  0.00000000000E+00 0.  1.
          4    1    6    6  503    0  0.45650344299E+02 -0.19418053066E+02 -0.12211323375E+03  0.13180537385E+03  0.00000000000E+00 0. -1.
         -4    1    6    6    0  503 -0.12040780756E+02  0.32926282665E+02 -0.45514889523E+01  0.35353027353E+02  0.00000000000E+00 0.  1.
<mgrwt>
<rscale>  0 0.40580839E+03</rscale>
<asrwt>0</asrwt>
<pdfrwt beam="1">  1        2 0.14684235E+00 0.40580839E+03</pdfrwt>
<pdfrwt beam="2">  1       -2 0.46420386E-01 0.40580839E+03</pdfrwt>
<totfact> 0.12390395E+02</totfact>
</mgrwt>
</event>
<event>
12    1  0.3147868E-008  0.1026440E+04  0.7818608E-02  0.9280012E-01
         -2   -1    0    0    0  501 -0.00000000000E+00  0.00000000000E+00  0.46359191024E+03  0.46359191024E+03  0.00000000000E+00 0. -1.
          2   -1    0    0  501    0  0.00000000000E+00 -0.00000000000E+00 -0.28222446966E+04  0.28222446966E+04  0.00000000000E+00 0.  1.
         23    2    1    2    0    0  0.13853679745E+03  0.99392762817E+03 -0.16036858657E+04  0.18939907170E+04  0.91147714369E+02 0.  0.
    5000000    2    1    2    0    0 -0.13853679745E+03 -0.99392762817E+03 -0.75496692065E+03  0.13918458899E+04  0.60014611185E+03 0.  0.
         23    2    4    4    0    0 -0.22150546682E+03 -0.80185670328E+03 -0.80139762446E+03  0.11587830904E+04  0.92202243794E+02 0.  0.
         23    2    4    4    0    0  0.82968669367E+02 -0.19207092489E+03  0.46430703811E+02  0.23306279943E+03  0.91582847395E+02 0.  0.
          5    1    3    3  502    0  0.90148071334E+02  0.65606170867E+03 -0.11368424681E+04  0.13156658115E+04  0.47000000000E+01 0. -1.
         -5    1    3    3    0  502  0.48388726116E+02  0.33786591950E+03 -0.46684339765E+03  0.57832490548E+03  0.47000000000E+01 0.  1.
         13    1    5    5    0    0 -0.15401746713E+03 -0.49802147242E+03 -0.44297403581E+03  0.68408534816E+03  0.00000000000E+00 0. -1.
        -13    1    5    5    0    0 -0.67487999683E+02 -0.30383523086E+03 -0.35842358865E+03  0.47469774227E+03  0.00000000000E+00 0.  1.
          3    1    6    6  503    0  0.36651111475E+02 -0.27578112513E+02 -0.19573455194E+02  0.49869594047E+02  0.00000000000E+00 0. -1.
         -3    1    6    6    0  503  0.46317557892E+02 -0.16449281237E+03  0.66004159005E+02  0.18319320538E+03  0.00000000000E+00 0.  1.
<mgrwt>
<rscale>  0 0.10264398E+04</rscale>
<asrwt>0</asrwt>
<pdfrwt beam="1">  1        2 0.43419150E+00 0.10264398E+04</pdfrwt>
<pdfrwt beam="2">  1       -2 0.71321831E-01 0.10264398E+04</pdfrwt>
<totfact> 0.40554870E+00</totfact>
</mgrwt>
</event>
<event>
12    1  0.3147868E-008  0.8796216E+03  0.7818608E-02  0.9451420E-01
          2   -1    0    0  501    0  0.00000000000E+00  0.00000000000E+00  0.10988727595E+04  0.10988727595E+04  0.00000000000E+00 0. -1.
         -2   -1    0    0    0  501 -0.00000000000E+00 -0.00000000000E+00 -0.75294846810E+03  0.75294846810E+03  0.00000000000E+00 0.  1.
         23    2    1    2    0    0  0.12711835279E+03 -0.79544449142E+03  0.21974125241E+03  0.83954379170E+03  0.87501689261E+02 0.  0.
    5000000    2    1    2    0    0 -0.12711835279E+03  0.79544449142E+03  0.12618303904E+03  0.10122774360E+04  0.59991035451E+03 0.  0.
         23    2    4    4    0    0 -0.48565916248E+02  0.82520816330E+03 -0.10278995024E+01  0.83186714591E+03  0.93138235309E+02 0.  0.
         23    2    4    4    0    0 -0.78552436547E+02 -0.29763671874E+02  0.12721093854E+03  0.18041029004E+03  0.96482580905E+02 0.  0.
          5    1    3    3  502    0  0.43790671010E+02 -0.44037626567E+03  0.15605477678E+03  0.46928036566E+03  0.47000000000E+01 0. -1.
         -5    1    3    3    0  502  0.83327681785E+02 -0.35506822575E+03  0.63686475629E+02  0.37026342604E+03  0.47000000000E+01 0.  1.
         11    1    5    5    0    0  0.12756350040E+02  0.36795622768E+03  0.30546933205E+02  0.36944231631E+03  0.00000000000E+00 0. -1.
        -11    1    5    5    0    0 -0.61322266288E+02  0.45725193562E+03 -0.31574832707E+02  0.46242482960E+03  0.00000000000E+00 0.  1.
          1    1    6    6  503    0 -0.40035426407E+02  0.30879623305E+02  0.27624117328E+02  0.57614914399E+02  0.00000000000E+00 0. -1.
         -1    1    6    6    0  503 -0.38517010141E+02 -0.60643295179E+02  0.99586821213E+02  0.12279537564E+03  0.00000000000E+00 0.  1.
<mgrwt>
<rscale>  0 0.87962158E+03</rscale>
<asrwt>0</asrwt>
<pdfrwt beam="1">  1        2 0.16905735E+00 0.87962158E+03</pdfrwt>
<pdfrwt beam="2">  1       -2 0.11583823E+00 0.87962158E+03</pdfrwt>
<totfact> 0.12691045E+01</totfact>
</mgrwt>
</event>
<event>
12    1  0.3147868E-008  0.3927020E+03  0.7818608E-02  0.1046336E+00
         -2   -1    0    0    0  501 -0.00000000000E+00  0.00000000000E+00  0.21374342571E+03  0.21374342571E+03  0.00000000000E+00 0.  1.
          2   -1    0    0  501    0  0.00000000000E+00 -0.00000000000E+00 -0.10749933663E+04  0.10749933663E+04  0.00000000000E+00 0. -1.
         23    2    1    2    0    0  0.12498163444E+03 -0.21155599538E+03 -0.81604913087E+02  0.27465598635E+03  0.91652609746E+02 0.  0.
    5000000    2    1    2    0    0 -0.12498163444E+03  0.21155599538E+03 -0.77964502750E+03  0.10140808057E+04  0.60011429192E+03 0.  0.
         23    2    4    4    0    0 -0.37820816086E+01  0.33233882304E+03 -0.73879327133E+03  0.81511485381E+03  0.90184974877E+02 0.  0.
         23    2    4    4    0    0 -0.12119955283E+03 -0.12078282766E+03 -0.40851756164E+02  0.19896595184E+03  0.92955693460E+02 0.  0.
          5    1    3    3  502    0  0.10125243515E+03 -0.10774808461E+03 -0.14358519947E+02  0.14862692373E+03  0.47000000000E+01 0. -1.
         -5    1    3    3    0  502  0.23729199287E+02 -0.10380791077E+03 -0.67246393140E+02  0.12602906263E+03  0.47000000000E+01 0.  1.
         11    1    5    5    0    0 -0.23208007671E+02  0.27638812992E+03 -0.53138060227E+03  0.59941167360E+03  0.00000000000E+00 0. -1.
        -11    1    5    5    0    0  0.19425926063E+02  0.55950693118E+02 -0.20741266906E+03  0.21570318021E+03  0.00000000000E+00 0.  1.
          2    1    6    6  503    0 -0.13664977115E+03 -0.10642184413E+03 -0.40479315121E+02  0.17786889502E+03  0.00000000000E+00 0. -1.
         -2    1    6    6    0  503  0.15450218321E+02 -0.14360983535E+02 -0.37244104250E+00  0.21097056822E+02  0.00000000000E+00 0.  1.
<mgrwt>
<rscale>  0 0.39270202E+03</rscale>
<asrwt>0</asrwt>
<pdfrwt beam="1">  1        2 0.16538359E+00 0.39270202E+03</pdfrwt>
<pdfrwt beam="2">  1       -2 0.32883604E-01 0.39270202E+03</pdfrwt>
<totfact> 0.20274611E+02</totfact>
</mgrwt>
</event>
<event>
12    1  0.3147868E-008  0.8885712E+03  0.7818608E-02  0.9439982E-01
          1   -1    0    0  501    0  0.00000000000E+00  0.00000000000E+00  0.52095776602E+03  0.52095776602E+03  0.00000000000E+00 0. -1.
         -1   -1    0    0    0  501 -0.00000000000E+00 -0.00000000000E+00 -0.15715475944E+04  0.15715475944E+04  0.00000000000E+00 0.  1.
         23    2    1    2    0    0  0.44589723681E+03  0.64876423703E+03 -0.28828129352E+03  0.84323997213E+03  0.90709235219E+02 0.  0.
    5000000    2    1    2    0    0 -0.44589723681E+03 -0.64876423703E+03 -0.76230853488E+03  0.12492653883E+04  0.59985858920E+03 0.  0.
         23    2    4    4    0    0 -0.41416087604E+03 -0.74139520014E+03 -0.68676337520E+03  0.10957074339E+04  0.87947558668E+02 0.  0.
         23    2    4    4    0    0 -0.31736360769E+02  0.92630963103E+02 -0.75545159684E+02  0.15355795445E+03  0.91023526099E+02 0.  0.
          5    1    3    3  502    0  0.15520629521E+03  0.29812992877E+03 -0.10371227158E+03  0.35177943910E+03  0.47000000000E+01 0. -1.
         -5    1    3    3    0  502  0.29069094160E+03  0.35063430826E+03 -0.18456902194E+03  0.49146053302E+03  0.47000000000E+01 0.  1.
         13    1    5    5    0    0 -0.38020447383E+03 -0.62029623826E+03 -0.57253873367E+03  0.92580962766E+03  0.00000000000E+00 0.  1.
        -13    1    5    5    0    0 -0.33956402209E+02 -0.12109896188E+03 -0.11422464152E+03  0.16989780620E+03  0.00000000000E+00 0. -1.
          3    1    6    6  503    0  0.27953704263E+01 -0.17014436959E+02 -0.26645649969E+01  0.17447208013E+02  0.00000000000E+00 0. -1.
         -3    1    6    6    0  503 -0.34531731195E+02  0.10964540006E+03 -0.72880594687E+02  0.13611074644E+03  0.00000000000E+00 0.  1.
<mgrwt>
<rscale>  0 0.88857120E+03</rscale>
<asrwt>0</asrwt>
<pdfrwt beam="1">  1        1 0.80147349E-01 0.88857120E+03</pdfrwt>
<pdfrwt beam="2">  1       -1 0.24177655E+00 0.88857120E+03</pdfrwt>
<totfact> 0.33745214E+00</totfact>
</mgrwt>
</event>
<event>
12    1  0.3147868E-008  0.1011732E+04  0.7818608E-02  0.9295770E-01
          2   -1    0    0  501    0  0.00000000000E+00  0.00000000000E+00  0.25705364851E+04  0.25705364851E+04  0.00000000000E+00 0. -1.
         -2   -1    0    0    0  501 -0.00000000000E+00 -0.00000000000E+00 -0.47047944759E+03  0.47047944759E+03  0.00000000000E+00 0.  1.
         23    2    1    2    0    0 -0.37827873021E+03  0.84852735115E+03  0.40508920783E+03  0.10171830356E+04  0.86432622896E+02 0.  0.
    5000000    2    1    2    0    0  0.37827873021E+03 -0.84852735115E+03  0.16949678297E+04  0.20238328970E+04  0.59990848314E+03 0.  0.
         23    2    4    4    0    0  0.36262621655E+02 -0.71410290502E+03  0.10021313366E+04  0.12344013906E+04  0.90673263036E+02 0.  0.
         23    2    4    4    0    0  0.34201610856E+03 -0.13442444612E+03  0.69283649308E+03  0.78943150645E+03  0.90192832303E+02 0.  0.
          5    1    3    3  502    0 -0.30557032907E+03  0.59054271998E+03  0.29245950268E+03  0.72640799888E+03  0.47000000000E+01 0. -1.
         -5    1    3    3    0  502 -0.72708401139E+02  0.25798463117E+03  0.11262970515E+03  0.29077503676E+03  0.47000000000E+01 0.  1.
         13    1    5    5    0    0  0.39878876273E+02 -0.38275985585E+03  0.46891476736E+03  0.60661065855E+03  0.00000000000E+00 0.  1.
        -13    1    5    5    0    0 -0.36162546177E+01 -0.33134304918E+03  0.53321656922E+03  0.62779073203E+03  0.00000000000E+00 0. -1.
          3    1    6    6  503    0  0.27295661110E+01  0.63633436147E+01  0.23468312610E+01  0.73109705294E+01  0.00000000000E+00 0. -1.
         -3    1    6    6    0  503  0.33928654245E+03 -0.14078778974E+03  0.69048966182E+03  0.78212053592E+03  0.00000000000E+00 0.  1.
<mgrwt>
<rscale>  0 0.10117323E+04</rscale>
<asrwt>0</asrwt>
<pdfrwt beam="1">  1        2 0.39546715E+00 0.10117323E+04</pdfrwt>
<pdfrwt beam="2">  1       -2 0.72381455E-01 0.10117323E+04</pdfrwt>
<totfact> 0.55286248E+00</totfact>
</mgrwt>
</event>
<event>
12    1  0.3400362E-008  0.6766988E+03  0.7818608E-02  0.9757931E-01
          1   -1    0    0  501    0  0.00000000000E+00  0.00000000000E+00  0.17578023927E+04  0.17578023927E+04  0.00000000000E+00 0. -1.
         -1   -1    0    0    0  501 -0.00000000000E+00 -0.00000000000E+00 -0.70176141448E+03  0.70176141448E+03  0.00000000000E+00 0.  1.
         23    2    1    2    0    0  0.61631425386E+03 -0.13555410841E+03  0.13883625641E+04  0.15275811557E+04  0.87951133990E+02 0.  0.
    5000000    2    1    2    0    0 -0.61631425386E+03  0.13555410841E+03 -0.33232158590E+03  0.93198265148E+03  0.59994653960E+03 0.  0.
         23    2    4    4    0    0 -0.57664601363E+03  0.13007966667E+02 -0.44747452662E+03  0.73574721611E+03  0.91655233399E+02 0.  0.
         23    2    4    4    0    0 -0.39668240225E+02  0.12254614174E+03  0.11515294072E+03  0.19623543536E+03  0.93043109345E+02 0.  0.
          5    1    3    3  502    0  0.30747434234E+03 -0.75483996453E+02  0.79951674087E+03  0.85993454045E+03  0.47000000000E+01 0. -1.
         -5    1    3    3    0  502  0.30883991151E+03 -0.60070111958E+02  0.58884582323E+03  0.66764661523E+03  0.47000000000E+01 0.  1.
         13    1    5    5    0    0 -0.14135373314E+03 -0.34505067711E+02 -0.96862015241E+02  0.17479624586E+03  0.00000000000E+00 0.  1.
        -13    1    5    5    0    0 -0.43529228049E+03  0.47513034377E+02 -0.35061251138E+03  0.56095097026E+03  0.00000000000E+00 0. -1.
          1    1    6    6  503    0 -0.13449902671E+02  0.10779467238E+03  0.40821935968E+02  0.11604749774E+03  0.00000000000E+00 0. -1.
         -1    1    6    6    0  503 -0.26218337555E+02  0.14751469360E+02  0.74331004750E+02  0.80187937619E+02  0.00000000000E+00 0.  1.
<mgrwt>
<rscale>  0 0.67669882E+03</rscale>
<asrwt>0</asrwt>
<pdfrwt beam="1">  1        1 0.27043114E+00 0.67669882E+03</pdfrwt>
<pdfrwt beam="2">  1       -1 0.10796330E+00 0.67669882E+03</pdfrwt>
<totfact> 0.36871146E+00</totfact>
</mgrwt>
</event>
<event>
12    1  0.3147868E-008  0.7741923E+03  0.7818608E-02  0.9598143E-01
          2   -1    0    0  501    0  0.00000000000E+00  0.00000000000E+00  0.13309971378E+04  0.13309971378E+04  0.00000000000E+00 0.  1.
         -2   -1    0    0    0  501 -0.00000000000E+00 -0.00000000000E+00 -0.21987881991E+04  0.21987881991E+04  0.00000000000E+00 0. -1.
         23    2    1    2    0    0  0.61092326791E+03 -0.45243630399E+03 -0.19396369359E+04  0.20852372259E+04  0.89983315346E+02 0.  0.
    5000000    2    1    2    0    0 -0.61092326791E+03  0.45243630399E+03  0.10718458746E+04  0.14445481110E+04  0.59994984585E+03 0.  0.
         23    2    4    4    0    0 -0.11051678395E+03  0.19026093222E+03  0.75216305917E+03  0.78891744312E+03  0.90709881618E+02 0.  0.
         23    2    4    4    0    0 -0.50040648396E+03  0.26217537177E+03  0.31968281545E+03  0.65563066785E+03  0.92259933770E+02 0.  0.
          5    1    3    3  502    0  0.23837866965E+03 -0.21181328617E+03 -0.72044520478E+03  0.78787857023E+03  0.47000000000E+01 0. -1.
         -5    1    3    3    0  502  0.37254459826E+03 -0.24062301782E+03 -0.12191917311E+04  0.12973586557E+04  0.47000000000E+01 0.  1.
         13    1    5    5    0    0 -0.46737635288E+02  0.67547108017E+02  0.14939357373E+03  0.17048594729E+03  0.00000000000E+00 0. -1.
        -13    1    5    5    0    0 -0.63779148664E+02  0.12271382420E+03  0.60276948544E+03  0.61843149583E+03  0.00000000000E+00 0.  1.
          4    1    6    6  503    0 -0.35858069203E+03  0.20069894633E+03  0.18516041991E+03  0.45071560973E+03  0.00000000000E+00 0. -1.
         -4    1    6    6    0  503 -0.14182579193E+03  0.61476425438E+02  0.13452239554E+03  0.20491505812E+03  0.00000000000E+00 0.  1.
<mgrwt>
<rscale>  0 0.77419227E+03</rscale>
<asrwt>0</asrwt>
<pdfrwt beam="1">  1        2 0.20476879E+00 0.77419227E+03</pdfrwt>
<pdfrwt beam="2">  1       -2 0.33827510E+00 0.77419227E+03</pdfrwt>
<totfact> 0.30858786E-01</totfact>
</mgrwt>
</event>
<event>
12    1  0.3147868E-008  0.8239340E+03  0.7818608E-02  0.9526005E-01
          2   -1    0    0  501    0  0.00000000000E+00  0.00000000000E+00  0.52103924743E+03  0.52103924743E+03  0.00000000000E+00 0.  1.
         -2   -1    0    0    0  501 -0.00000000000E+00 -0.00000000000E+00 -0.17474833219E+04  0.17474833219E+04  0.00000000000E+00 0. -1.
         23    2    1    2    0    0 -0.38221313551E+03  0.62576765708E+03 -0.10818244084E+04  0.13101983152E+04  0.92755231639E+02 0.  0.
    5000000    2    1    2    0    0  0.38221313551E+03 -0.62576765708E+03 -0.14461966608E+03  0.95832425412E+03  0.59983204868E+03 0.  0.
         23    2    4    4    0    0  0.45140996785E+03 -0.23406741313E+03 -0.18363885060E+03  0.54834890532E+03  0.91677595655E+02 0.  0.
         23    2    4    4    0    0 -0.69196832340E+02 -0.39170024395E+03  0.39019184527E+02  0.40997534881E+03  0.91323639613E+02 0.  0.
          5    1    3    3  502    0 -0.21559686068E+03  0.32896726901E+03 -0.50087922727E+03  0.63687012862E+03  0.47000000000E+01 0. -1.
         -5    1    3    3    0  502 -0.16661627484E+03  0.29680038806E+03 -0.58094518115E+03  0.67332818662E+03  0.47000000000E+01 0.  1.
         11    1    5    5    0    0  0.76380800824E+02 -0.78739628488E+02 -0.24887970074E+02  0.11248718542E+03  0.00000000000E+00 0. -1.
        -11    1    5    5    0    0  0.37502916703E+03 -0.15532778464E+03 -0.15875088053E+03  0.43586171990E+03  0.00000000000E+00 0.  1.
          1    1    6    6  503    0 -0.44973336513E+02 -0.31106152173E+03 -0.62924027631E+01  0.31435881669E+03  0.00000000000E+00 0. -1.
         -1    1    6    6    0  503 -0.24223495827E+02 -0.80638722216E+02  0.45311587290E+02  0.95616532114E+02  0.00000000000E+00 0.  1.
<mgrwt>
<rscale>  0 0.82393401E+03</rscale>
<asrwt>0</asrwt>
<pdfrwt beam="1">  1        2 0.80159885E-01 0.82393401E+03</pdfrwt>
<pdfrwt beam="2">  1       -2 0.26884359E+00 0.82393401E+03</pdfrwt>
<totfact> 0.29582914E+00</totfact>
</mgrwt>
</event>
<event>
12    1  0.3147868E-008  0.6914878E+03  0.7818608E-02  0.9731901E-01
          2   -1    0    0  501    0  0.00000000000E+00  0.00000000000E+00  0.90464848824E+03  0.90464848824E+03  0.00000000000E+00 0. -1.
         -2   -1    0    0    0  501 -0.00000000000E+00 -0.00000000000E+00 -0.76668746796E+03  0.76668746796E+03  0.00000000000E+00 0.  1.
         23    2    1    2    0    0  0.55173990202E+03  0.32203552445E+03  0.39679985127E+03  0.75756571020E+03  0.91279158701E+02 0.  0.
    5000000    2    1    2    0    0 -0.55173990202E+03 -0.32203552445E+03 -0.25883883099E+03  0.91377024600E+03  0.59987892407E+03 0.  0.
         23    2    4    4    0    0 -0.29479528257E+03 -0.35910038250E+03  0.76524776261E+02  0.48047434582E+03  0.95614916585E+02 0.  0.
         23    2    4    4    0    0 -0.25694461946E+03  0.37064858048E+02 -0.33536360725E+03  0.43329590017E+03  0.88782018864E+02 0.  0.
          5    1    3    3  502    0  0.24463812828E+03  0.10034806231E+03  0.13341135863E+03  0.29620639431E+03  0.47000000000E+01 0.  1.
         -5    1    3    3    0  502  0.30710177374E+03  0.22168746215E+03  0.26338849263E+03  0.46135931589E+03  0.47000000000E+01 0. -1.
         13    1    5    5    0    0 -0.12449055077E+03 -0.22584359659E+03  0.34400202334E+02  0.26016648760E+03  0.00000000000E+00 0.  1.
        -13    1    5    5    0    0 -0.17030473180E+03 -0.13325678592E+03  0.42124573927E+02  0.22030785822E+03  0.00000000000E+00 0. -1.
          3    1    6    6  503    0 -0.25480282358E+03  0.28055584888E+02 -0.33747925900E+03  0.42379693840E+03  0.00000000000E+00 0. -1.
         -3    1    6    6    0  503 -0.21417958791E+01  0.90092731594E+01  0.21156517493E+01  0.94989617734E+01  0.00000000000E+00 0.  1.
<mgrwt>
<rscale>  0 0.69148776E+03</rscale>
<asrwt>0</asrwt>
<pdfrwt beam="1">  1        2 0.13917669E+00 0.69148776E+03</pdfrwt>
<pdfrwt beam="2">  1       -2 0.11795192E+00 0.69148776E+03</pdfrwt>
<totfact> 0.16490272E+01</totfact>
</mgrwt>
</event>
<event>
12    1  0.3147868E-008  0.1017585E+04  0.7818608E-02  0.9289465E-01
         -2   -1    0    0    0  501 -0.00000000000E+00  0.00000000000E+00  0.87784866201E+03  0.87784866201E+03  0.00000000000E+00 0.  1.
          2   -1    0    0  501    0  0.00000000000E+00 -0.00000000000E+00 -0.14756274902E+04  0.14756274902E+04  0.00000000000E+00 0. -1.
         23    2    1    2    0    0 -0.86449160624E+03  0.51568275231E+03 -0.61175227814E+03  0.11815647743E+04  0.92628438957E+02 0.  0.
    5000000    2    1    2    0    0  0.86449160624E+03 -0.51568275231E+03  0.13973449987E+02  0.11719113779E+04  0.59992214663E+03 0.  0.
         23    2    4    4    0    0  0.45883271536E+03 -0.35360076434E+03  0.28418877764E+03  0.65138156412E+03  0.89295685839E+02 0.  0.
         23    2    4    4    0    0  0.40565889088E+03 -0.16208198797E+03 -0.27021532765E+03  0.52052981377E+03  0.84292687385E+02 0.  0.
          5    1    3    3  502    0 -0.50621000975E+03  0.26015111127E+03 -0.37789615549E+03  0.68319453232E+03  0.47000000000E+01 0. -1.
         -5    1    3    3    0  502 -0.35828159650E+03  0.25553164105E+03 -0.23385612264E+03  0.49837024195E+03  0.47000000000E+01 0.  1.
         11    1    5    5    0    0  0.37668214708E+03 -0.32298999713E+03  0.22029979998E+03  0.54290328793E+03  0.00000000000E+00 0.  1.
        -11    1    5    5    0    0  0.82150568287E+02 -0.30610767207E+02  0.63888977657E+02  0.10847827619E+03  0.00000000000E+00 0. -1.
          3    1    6    6  503    0  0.24792447150E+03 -0.63115617507E+02 -0.18519350354E+03  0.31582710222E+03  0.00000000000E+00 0. -1.
         -3    1    6    6    0  503  0.15773441938E+03 -0.98966370468E+02 -0.85021824118E+02  0.20470271155E+03  0.00000000000E+00 0.  1.
<mgrwt>
<rscale>  0 0.10175850E+04</rscale>
<asrwt>0</asrwt>
<pdfrwt beam="1">  1        2 0.22701961E+00 0.10175850E+04</pdfrwt>
<pdfrwt beam="2">  1       -2 0.13505364E+00 0.10175850E+04</pdfrwt>
<totfact> 0.51184803E+00</totfact>
</mgrwt>
</event>
<event>
12    1  0.3147868E-008  0.1696790E+03  0.7818608E-02  0.1178183E+00
          2   -1    0    0  501    0  0.00000000000E+00  0.00000000000E+00  0.53879780084E+03  0.53879780084E+03  0.00000000000E+00 0. -1.
         -2   -1    0    0    0  501 -0.00000000000E+00 -0.00000000000E+00 -0.31059599886E+03  0.31059599886E+03  0.00000000000E+00 0.  1.
         23    2    1    2    0    0  0.10945685459E+03 -0.92798292224E+02  0.14997816586E+03  0.22744412776E+03  0.92978787704E+02 0.  0.
    5000000    2    1    2    0    0 -0.10945685459E+03  0.92798292224E+02  0.78223636127E+02  0.62194967194E+03  0.60009176892E+03 0.  0.
         23    2    4    4    0    0 -0.10593788965E+03  0.47713924443E+02  0.32363426240E+03  0.35580144558E+03  0.91411584786E+02 0.  0.
         23    2    4    4    0    0 -0.35189649382E+01  0.45084367782E+02 -0.24541062627E+03  0.26614822636E+03  0.92539286646E+02 0.  0.
          5    1    3    3  502    0  0.72087822991E+02 -0.87054543963E+02  0.15178339008E+03  0.18930249695E+03  0.47000000000E+01 0. -1.
         -5    1    3    3    0  502  0.37369031595E+02 -0.57437482617E+01 -0.18052242185E+01  0.38141630811E+02  0.47000000000E+01 0.  1.
         13    1    5    5    0    0 -0.91825425158E+02 -0.13744232488E+01  0.24871098925E+03  0.26512441215E+03  0.00000000000E+00 0. -1.
        -13    1    5    5    0    0 -0.14112464489E+02  0.49088347691E+02  0.74923273151E+02  0.90677033436E+02  0.00000000000E+00 0.  1.
          4    1    6    6  503    0 -0.23898397157E+01  0.31657880601E+02 -0.14599105637E+02  0.34943763727E+02  0.00000000000E+00 0. -1.
         -4    1    6    6    0  503 -0.11291252226E+01  0.13426487181E+02 -0.23081152064E+03  0.23120446263E+03  0.00000000000E+00 0.  1.
<mgrwt>
<rscale>  0 0.16967900E+03</rscale>
<asrwt>0</asrwt>
<pdfrwt beam="1">  1        2 0.82891970E-01 0.16967900E+03</pdfrwt>
<pdfrwt beam="2">  1       -2 0.47784000E-01 0.16967900E+03</pdfrwt>
<totfact> 0.24494198E+02</totfact>
</mgrwt>
</event>
<event>
12    1  0.3147868E-008  0.3432866E+03  0.7818608E-02  0.1065405E+00
         -1   -1    0    0    0  501 -0.00000000000E+00  0.00000000000E+00  0.29311462238E+03  0.29311462238E+03  0.00000000000E+00 0.  1.
          1   -1    0    0  501    0  0.00000000000E+00 -0.00000000000E+00 -0.60284352129E+03  0.60284352129E+03  0.00000000000E+00 0. -1.
         23    2    1    2    0    0  0.16344921618E+02 -0.14504360609E+03 -0.20901910272E+03  0.27044418026E+03  0.90256662921E+02 0.  0.
    5000000    2    1    2    0    0 -0.16344921618E+02  0.14504360609E+03 -0.10070979619E+03  0.62551396341E+03  0.59985035737E+03 0.  0.
         23    2    4    4    0    0 -0.11196302193E+03  0.29523721581E+03 -0.21621883804E+03  0.39345724590E+03  0.91418195956E+02 0.  0.
         23    2    4    4    0    0  0.95618100310E+02 -0.15019360972E+03  0.11550904185E+03  0.23205671750E+03  0.93845830398E+02 0.  0.
          5    1    3    3  502    0 -0.36251480889E+02 -0.68324247526E+02 -0.10946821131E+03  0.13411842511E+03  0.47000000000E+01 0. -1.
         -5    1    3    3    0  502  0.52596402507E+02 -0.76719358568E+02 -0.99550891407E+02  0.13632575514E+03  0.47000000000E+01 0.  1.
         11    1    5    5    0    0 -0.11635869447E+03  0.21832708366E+03 -0.19049251741E+03  0.31223942805E+03  0.00000000000E+00 0. -1.
        -11    1    5    5    0    0  0.43956725413E+01  0.76910132146E+02 -0.25726320633E+02  0.81217817855E+02  0.00000000000E+00 0.  1.
          1    1    6    6  503    0 -0.37022677825E+01 -0.51033334955E+02  0.65388407223E+02  0.83028620743E+02  0.00000000000E+00 0. -1.
         -1    1    6    6    0  503  0.99320368092E+02 -0.99160274761E+02  0.50120634628E+02  0.14902809676E+03  0.00000000000E+00 0.  1.
<mgrwt>
<rscale>  0 0.34328665E+03</rscale>
<asrwt>0</asrwt>
<pdfrwt beam="1">  1        1 0.92745156E-01 0.34328665E+03</pdfrwt>
<pdfrwt beam="2">  1       -1 0.45094558E-01 0.34328665E+03</pdfrwt>
<totfact> 0.17389819E+02</totfact>
</mgrwt>
</event>
<event>
12    1  0.3147868E-008  0.7120919E+03  0.7818608E-02  0.9696774E-01
         -2   -1    0    0    0  501 -0.00000000000E+00  0.00000000000E+00  0.42181064799E+03  0.42181064799E+03  0.00000000000E+00 0.  1.
          2   -1    0    0  501    0  0.00000000000E+00 -0.00000000000E+00 -0.14367959836E+04  0.14367959836E+04  0.00000000000E+00 0. -1.
         23    2    1    2    0    0  0.60644849844E+03  0.25864967033E+03 -0.42854624587E+03  0.79163598346E+03  0.91412319857E+02 0.  0.
    5000000    2    1    2    0    0 -0.60644849844E+03 -0.25864967033E+03 -0.58643908972E+03  0.10669706481E+04  0.59986342176E+03 0.  0.
         23    2    4    4    0    0 -0.15654964320E+03 -0.24239615370E+03  0.21732095041E+02  0.30496239812E+03  0.96260553722E+02 0.  0.
         23    2    4    4    0    0 -0.44989885525E+03 -0.16253516637E+02 -0.60817118476E+03  0.76200824999E+03  0.90062346884E+02 0.  0.
          5    1    3    3  502    0  0.44513885992E+03  0.23211947752E+03 -0.32066816706E+03  0.59571655996E+03  0.47000000000E+01 0. -1.
         -5    1    3    3    0  502  0.16130963853E+03  0.26530192816E+02 -0.10787807882E+03  0.19591942349E+03  0.47000000000E+01 0.  1.
         11    1    5    5    0    0 -0.86675429281E+01 -0.94775165160E+02  0.97049756671E+01  0.95664229387E+02  0.00000000000E+00 0. -1.
        -11    1    5    5    0    0 -0.14788210027E+03 -0.14762098854E+03  0.12027119374E+02  0.20929816874E+03  0.00000000000E+00 0.  1.
          1    1    6    6  503    0 -0.32301175286E+03  0.16471422950E+02 -0.38115625495E+03  0.49988797840E+03  0.00000000000E+00 0. -1.
         -1    1    6    6    0  503 -0.12688710239E+03 -0.32724939586E+02 -0.22701492982E+03  0.26212027160E+03  0.00000000000E+00 0.  1.
<mgrwt>
<rscale>  0 0.71209193E+03</rscale>
<asrwt>0</asrwt>
<pdfrwt beam="1">  1        2 0.22104553E+00 0.71209193E+03</pdfrwt>
<pdfrwt beam="2">  1       -2 0.64893946E-01 0.71209193E+03</pdfrwt>
<totfact> 0.31008307E+01</totfact>
</mgrwt>
</event>
<event>
12    1  0.3147868E-008  0.1294827E+04  0.7818608E-02  0.9033678E-01
          2   -1    0    0  501    0  0.00000000000E+00  0.00000000000E+00  0.12179934483E+04  0.12179934483E+04  0.00000000000E+00 0. -1.
         -2   -1    0    0    0  501 -0.00000000000E+00 -0.00000000000E+00 -0.15906464754E+04  0.15906464754E+04  0.00000000000E+00 0.  1.
         23    2    1    2    0    0 -0.32250705683E+03  0.12299645835E+04 -0.55601700100E+03  0.13908016188E+04  0.91381393110E+02 0.  0.
    5000000    2    1    2    0    0  0.32250705683E+03 -0.12299645835E+04  0.18336397389E+03  0.14178383049E+04  0.59984950903E+03 0.  0.
         23    2    4    4    0    0  0.30412716642E+03 -0.58778605245E+03  0.33871757623E+03  0.75043879966E+03  0.10219108950E+03 0.  0.
         23    2    4    4    0    0  0.18379890415E+02 -0.64217853110E+03 -0.15535360234E+03  0.66739950526E+03  0.92500117230E+02 0.  0.
          5    1    3    3  502    0 -0.12409318704E+03  0.33578630908E+03 -0.17952222521E+03  0.40050203967E+03  0.47000000000E+01 0. -1.
         -5    1    3    3    0  502 -0.19841386980E+03  0.89417827447E+03 -0.37649477578E+03  0.99029957915E+03  0.47000000000E+01 0.  1.
         11    1    5    5    0    0 -0.79489162182E+01 -0.12335646473E+02  0.11155531059E+02  0.18433646307E+02  0.00000000000E+00 0.  1.
        -11    1    5    5    0    0  0.31207608263E+03 -0.57545040598E+03  0.32756204518E+03  0.73200515335E+03  0.00000000000E+00 0. -1.
          1    1    6    6  503    0  0.24909364311E+02 -0.63834043171E+03 -0.14588082742E+03  0.65527108818E+03  0.00000000000E+00 0. -1.
         -1    1    6    6    0  503 -0.65294738965E+01 -0.38380993854E+01 -0.94727749248E+01  0.12128417087E+02  0.00000000000E+00 0.  1.
<mgrwt>
<rscale>  0 0.12948268E+04</rscale>
<asrwt>0</asrwt>
<pdfrwt beam="1">  1        2 0.18738361E+00 0.12948268E+04</pdfrwt>
<pdfrwt beam="2">  1       -2 0.24471484E+00 0.12948268E+04</pdfrwt>
<totfact> 0.12318591E+00</totfact>
</mgrwt>
</event>
<event>
12    1  0.3147868E-008  0.4819191E+03  0.7818608E-02  0.1018609E+00
          1   -1    0    0  501    0  0.00000000000E+00  0.00000000000E+00  0.51859435846E+03  0.51859435846E+03  0.00000000000E+00 0. -1.
         -1   -1    0    0    0  501 -0.00000000000E+00 -0.00000000000E+00 -0.64985313853E+03  0.64985313853E+03  0.00000000000E+00 0.  1.
         23    2    1    2    0    0  0.23741274623E+03  0.34510230365E+03 -0.28086967087E+02  0.42953536778E+03  0.90836899972E+02 0.  0.
    5000000    2    1    2    0    0 -0.23741274623E+03 -0.34510230365E+03 -0.10317181299E+03  0.73891212921E+03  0.59990524222E+03 0.  0.
         23    2    4    4    0    0 -0.17171599122E+00  0.54059115657E+02  0.16376560381E+03  0.19498209905E+03  0.90974878329E+02 0.  0.
         23    2    4    4    0    0 -0.23724103024E+03 -0.39916141930E+03 -0.26693741680E+03  0.54393003016E+03  0.94821664849E+02 0.  0.
          5    1    3    3  502    0  0.15960796832E+03  0.16863827192E+03  0.11809375879E+02  0.23254058069E+03  0.47000000000E+01 0. -1.
         -5    1    3    3    0  502  0.77804777912E+02  0.17646403172E+03 -0.39896342966E+02  0.19699478709E+03  0.47000000000E+01 0.  1.
         11    1    5    5    0    0  0.78777514362E+00 -0.10079404059E+02  0.11226799398E+03  0.11272230235E+03  0.00000000000E+00 0.  1.
        -11    1    5    5    0    0 -0.95949113484E+00  0.64138519716E+02  0.51497609837E+02  0.82259796702E+02  0.00000000000E+00 0. -1.
          2    1    6    6  503    0 -0.78416391550E+02 -0.12372381706E+03 -0.35649563155E+02  0.15075677340E+03  0.00000000000E+00 0. -1.
         -2    1    6    6    0  503 -0.15882463869E+03 -0.27543760224E+03 -0.23128785365E+03  0.39317325676E+03  0.00000000000E+00 0.  1.
<mgrwt>
<rscale>  0 0.48191914E+03</rscale>
<asrwt>0</asrwt>
<pdfrwt beam="1">  1        1 0.79783748E-01 0.48191914E+03</pdfrwt>
<pdfrwt beam="2">  1       -1 0.99977405E-01 0.48191914E+03</pdfrwt>
<totfact> 0.42314691E+01</totfact>
</mgrwt>
</event>
<event>
12    1  0.3147868E-008  0.6423193E+03  0.7818608E-02  0.9821299E-01
         -2   -1    0    0    0  501 -0.00000000000E+00  0.00000000000E+00  0.90443343162E+03  0.90443343162E+03  0.00000000000E+00 0. -1.
          2   -1    0    0  501    0  0.00000000000E+00 -0.00000000000E+00 -0.84099561760E+03  0.84099561760E+03  0.00000000000E+00 0.  1.
         23    2    1    2    0    0  0.41214826111E+03  0.29546735721E+03  0.60213190497E+03  0.79246302622E+03  0.90926721171E+02 0.  0.
    5000000    2    1    2    0    0 -0.41214826111E+03 -0.29546735721E+03 -0.53869409094E+03  0.95296602300E+03  0.60065445063E+03 0.  0.
         23    2    4    4    0    0 -0.48866311443E+03 -0.37894919338E+02 -0.33162379861E+03  0.60010500997E+03  0.99619349860E+02 0.  0.
         23    2    4    4    0    0  0.76514853315E+02 -0.25757243787E+03 -0.20707029234E+03  0.35286101304E+03  0.97132409739E+02 0.  0.
          5    1    3    3  502    0  0.18479629972E+03  0.16518090738E+03  0.23662601734E+03  0.34270740674E+03  0.47000000000E+01 0. -1.
         -5    1    3    3    0  502  0.22735196140E+03  0.13028644983E+03  0.36550588763E+03  0.44975561948E+03  0.47000000000E+01 0.  1.
         13    1    5    5    0    0 -0.33147704949E+03 -0.39841759495E+02 -0.17003886812E+03  0.37467001055E+03  0.00000000000E+00 0. -1.
        -13    1    5    5    0    0 -0.15718606494E+03  0.19468401575E+01 -0.16158493049E+03  0.22543499941E+03  0.00000000000E+00 0.  1.
          1    1    6    6  503    0  0.48087462157E+02 -0.35656182756E+02 -0.27020407672E+02  0.65680056457E+02  0.00000000000E+00 0. -1.
         -1    1    6    6    0  503  0.28427391159E+02 -0.22191625512E+03 -0.18004988466E+03  0.28718095658E+03  0.00000000000E+00 0.  1.
<mgrwt>
<rscale>  0 0.64231933E+03</rscale>
<asrwt>0</asrwt>
<pdfrwt beam="1">  1        2 0.12938394E+00 0.64231933E+03</pdfrwt>
<pdfrwt beam="2">  1       -2 0.13914361E+00 0.64231933E+03</pdfrwt>
<totfact> 0.12093214E+01</totfact>
</mgrwt>
</event>
<event>
12    1  0.3147868E-008  0.5502291E+03  0.7818608E-02  0.1001441E+00
          1   -1    0    0  501    0  0.00000000000E+00  0.00000000000E+00  0.10103070455E+04  0.10103070455E+04  0.00000000000E+00 0. -1.
         -1   -1    0    0    0  501 -0.00000000000E+00 -0.00000000000E+00 -0.33900583525E+03  0.33900583525E+03  0.00000000000E+00 0.  1.
         23    2    1    2    0    0 -0.18512485987E+03  0.35525868679E+03  0.84450330093E+02  0.41941095058E+03  0.91069967219E+02 0.  0.
    5000000    2    1    2    0    0  0.18512485987E+03 -0.35525868679E+03  0.58685088020E+03  0.92990193021E+03  0.59986973248E+03 0.  0.
         23    2    4    4    0    0 -0.45143412973E+02  0.12350379781E+03  0.54215744795E+02  0.17215246825E+03  0.96984583989E+02 0.  0.
         23    2    4    4    0    0  0.23026827284E+03 -0.47876248460E+03  0.53263513540E+03  0.75774946196E+03  0.90813355293E+02 0.  0.
          5    1    3    3  502    0 -0.46088716989E+02  0.15466282076E+03  0.66585085679E+02  0.17464369898E+03  0.47000000000E+01 0. -1.
         -5    1    3    3    0  502 -0.13903614288E+03  0.20059586603E+03  0.17865244415E+02  0.24476725160E+03  0.47000000000E+01 0.  1.
         11    1    5    5    0    0 -0.40950331108E+02  0.17349875975E+01  0.75277881688E+01  0.41672621642E+02  0.00000000000E+00 0. -1.
        -11    1    5    5    0    0 -0.41930818657E+01  0.12176881021E+03  0.46687956626E+02  0.13047984661E+03  0.00000000000E+00 0.  1.
          1    1    6    6  503    0  0.10649541816E+03 -0.25511524474E+03  0.33687824338E+03  0.43578895471E+03  0.00000000000E+00 0. -1.
         -1    1    6    6    0  503  0.12377285469E+03 -0.22364723986E+03  0.19575689203E+03  0.32196050725E+03  0.00000000000E+00 0.  1.
<mgrwt>
<rscale>  0 0.55022910E+03</rscale>
<asrwt>0</asrwt>
<pdfrwt beam="1">  1        1 0.15543185E+00 0.55022910E+03</pdfrwt>
<pdfrwt beam="2">  1       -1 0.52154744E-01 0.55022910E+03</pdfrwt>
<totfact> 0.57539478E+01</totfact>
</mgrwt>
</event>
<event>
12    1  0.3147868E-008  0.5307415E+03  0.7818608E-02  0.1006052E+00
         -2   -1    0    0    0  501 -0.00000000000E+00  0.00000000000E+00  0.34716733729E+03  0.34716733729E+03  0.00000000000E+00 0. -1.
          2   -1    0    0  501    0  0.00000000000E+00 -0.00000000000E+00 -0.83936435048E+03  0.83936435048E+03  0.00000000000E+00 0.  1.
         23    2    1    2    0    0  0.36016056344E+03  0.21863948722E+01 -0.23773755059E+03  0.44189705133E+03  0.95044459246E+02 0.  0.
    5000000    2    1    2    0    0 -0.36016056344E+03 -0.21863948722E+01 -0.25445946259E+03  0.74463463643E+03  0.60000892651E+03 0.  0.
         23    2    4    4    0    0  0.10909216659E+03  0.13746856948E+03 -0.10908541652E+03  0.22581021626E+03  0.91059965211E+02 0.  0.
         23    2    4    4    0    0 -0.46925273003E+03 -0.13965496435E+03 -0.14537404608E+03  0.51882442018E+03  0.91342936189E+02 0.  0.
          5    1    3    3  502    0  0.32793500136E+03 -0.24890900031E+02 -0.22148348358E+03  0.39653240160E+03  0.47000000000E+01 0. -1.
         -5    1    3    3    0  502  0.32225562082E+02  0.27077294903E+02 -0.16254067012E+02  0.45364649731E+02  0.47000000000E+01 0.  1.
         13    1    5    5    0    0  0.30646276355E+02  0.10215019449E+03 -0.85266371871E+02  0.13654380491E+03  0.00000000000E+00 0. -1.
        -13    1    5    5    0    0  0.78445890234E+02  0.35318374993E+02 -0.23819044647E+02  0.89266411347E+02  0.00000000000E+00 0.  1.
          2    1    6    6  503    0 -0.32521216629E+03 -0.53169368890E+02 -0.10724277882E+03  0.34654140950E+03  0.00000000000E+00 0.  1.
         -2    1    6    6    0  503 -0.14404056374E+03 -0.86485595460E+02 -0.38131267261E+02  0.17228301067E+03  0.00000000000E+00 0. -1.
<mgrwt>
<rscale>  0 0.53074147E+03</rscale>
<asrwt>0</asrwt>
<pdfrwt beam="1">  1        2 0.12913298E+00 0.53074147E+03</pdfrwt>
<pdfrwt beam="2">  1       -2 0.53410360E-01 0.53074147E+03</pdfrwt>
<totfact> 0.10984199E+02</totfact>
</mgrwt>
</event>
<event>
12    1  0.3147868E-008  0.9439947E+03  0.7818608E-02  0.9372197E-01
         -4   -1    0    0    0  501 -0.00000000000E+00  0.00000000000E+00  0.73661097639E+03  0.73661097639E+03  0.00000000000E+00 0.  1.
          4   -1    0    0  501    0  0.00000000000E+00 -0.00000000000E+00 -0.13483960304E+04  0.13483960304E+04  0.00000000000E+00 0. -1.
         23    2    1    2    0    0 -0.49342320261E+00 -0.85252004351E+03 -0.59289666398E+03  0.10423406481E+04  0.90315582093E+02 0.  0.
    5000000    2    1    2    0    0  0.49342320261E+00  0.85252004351E+03 -0.18888390000E+02  0.10426663587E+04  0.60000474685E+03 0.  0.
         23    2    4    4    0    0  0.86056756424E+02 -0.45648682606E+02 -0.14221981681E+02  0.13557215161E+03  0.93209312728E+02 0.  0.
         23    2    4    4    0    0 -0.85563333222E+02  0.89816872611E+03 -0.46664083186E+01  0.90709420709E+03  0.93648174662E+02 0.  0.
          5    1    3    3  502    0  0.29674458632E+02 -0.51905890350E+03 -0.39914861846E+03  0.65547267557E+03  0.47000000000E+01 0. -1.
         -5    1    3    3    0  502 -0.30167881834E+02 -0.33346114001E+03 -0.19374804553E+03  0.38686797248E+03  0.47000000000E+01 0.  1.
         13    1    5    5    0    0  0.75845848715E+01 -0.51211372713E+02  0.11064280156E+02  0.52939105756E+02  0.00000000000E+00 0.  1.
        -13    1    5    5    0    0  0.78472171553E+02  0.55626901075E+01 -0.25286261837E+02  0.82633045854E+02  0.00000000000E+00 0. -1.
          2    1    6    6  503    0 -0.82919019096E+02  0.74922510356E+03 -0.36813208811E+02  0.75469797394E+03  0.00000000000E+00 0. -1.
         -2    1    6    6    0  503 -0.26443141252E+01  0.14894362256E+03  0.32146800492E+02  0.15239623315E+03  0.00000000000E+00 0.  1.
<mgrwt>
<rscale>  0 0.94399471E+03</rscale>
<asrwt>0</asrwt>
<pdfrwt beam="1">  1        4 0.20744554E+00 0.94399471E+03</pdfrwt>
<pdfrwt beam="2">  1       -4 0.11332477E+00 0.94399471E+03</pdfrwt>
<totfact> 0.13883851E-01</totfact>
</mgrwt>
</event>
<event>
12    1  0.3147868E-008  0.4092999E+03  0.7818608E-02  0.1040606E+00
         -2   -1    0    0    0  501 -0.00000000000E+00  0.00000000000E+00  0.20274744742E+03  0.20274744742E+03  0.00000000000E+00 0.  1.
          2   -1    0    0  501    0  0.00000000000E+00 -0.00000000000E+00 -0.10152754701E+04  0.10152754701E+04  0.00000000000E+00 0. -1.
         23    2    1    2    0    0  0.79715834772E+02  0.18980397175E+03 -0.53187660641E+02  0.22857800418E+03  0.83897644458E+02 0.  0.
    5000000    2    1    2    0    0 -0.79715834772E+02 -0.18980397175E+03 -0.75934036201E+03  0.98944491332E+03  0.60001940727E+03 0.  0.
         23    2    4    4    0    0  0.30988819682E+02 -0.37104355328E+03 -0.58986167437E+03  0.70341480263E+03  0.90675047782E+02 0.  0.
         23    2    4    4    0    0 -0.11070465445E+03  0.18123958154E+03 -0.16947868764E+03  0.28603011068E+03  0.89369414342E+02 0.  0.
          5    1    3    3  502    0  0.24441678649E+02  0.10386119593E+03 -0.65904866552E+02  0.12549934307E+03  0.47000000000E+01 0. -1.
         -5    1    3    3    0  502  0.55274156123E+02  0.85942775813E+02  0.12717205911E+02  0.10307866111E+03  0.47000000000E+01 0.  1.
         11    1    5    5    0    0 -0.13671191230E+02 -0.24542311789E+03 -0.33157827947E+03  0.41275121282E+03  0.00000000000E+00 0. -1.
        -11    1    5    5    0    0  0.44660010912E+02 -0.12562043540E+03 -0.25828339490E+03  0.29066358982E+03  0.00000000000E+00 0.  1.
          2    1    6    6  503    0 -0.38914773400E+02  0.14467068029E+03 -0.11250444945E+03  0.18735318645E+03  0.00000000000E+00 0. -1.
         -2    1    6    6    0  503 -0.71789881053E+02  0.36568901247E+02 -0.56974238186E+02  0.98676924238E+02  0.00000000000E+00 0.  1.
<mgrwt>
<rscale>  0 0.40929993E+03</rscale>
<asrwt>0</asrwt>
<pdfrwt beam="1">  1        2 0.15619623E+00 0.40929993E+03</pdfrwt>
<pdfrwt beam="2">  1       -2 0.31191915E-01 0.40929993E+03</pdfrwt>
<totfact> 0.24283405E+02</totfact>
</mgrwt>
</event>
<event>
12    1  0.3147868E-008  0.4948858E+03  0.7818608E-02  0.1015122E+00
          1   -1    0    0  501    0  0.00000000000E+00  0.00000000000E+00  0.10707508697E+04  0.10707508697E+04  0.00000000000E+00 0. -1.
         -1   -1    0    0    0  501 -0.00000000000E+00 -0.00000000000E+00 -0.31607025144E+03  0.31607025144E+03  0.00000000000E+00 0.  1.
         23    2    1    2    0    0  0.28118474654E+03  0.15608655262E+03  0.60026759702E+03  0.68774642975E+03  0.96156591060E+02 0.  0.
    5000000    2    1    2    0    0 -0.28118474654E+03 -0.15608655262E+03  0.15441302124E+03  0.69907469140E+03  0.60119395325E+03 0.  0.
         23    2    4    4    0    0 -0.44149835775E+03 -0.79019162298E+02  0.18251070280E+02  0.45744702831E+03  0.88090034842E+02 0.  0.
         23    2    4    4    0    0  0.16031361121E+03 -0.77067390318E+02  0.13616195096E+03  0.24162766308E+03  0.90576012767E+02 0.  0.
          5    1    3    3  502    0  0.85792742643E+02  0.29446447563E+01  0.12815155468E+03  0.15431777795E+03  0.47000000000E+01 0. -1.
         -5    1    3    3    0  502  0.19539200390E+03  0.15314190786E+03  0.47211604234E+03  0.53342865180E+03  0.47000000000E+01 0.  1.
         13    1    5    5    0    0 -0.30331872314E+03 -0.93445327161E+02  0.24864129293E+02  0.31835907699E+03  0.00000000000E+00 0. -1.
        -13    1    5    5    0    0 -0.13817963461E+03  0.14426164864E+02 -0.66130590131E+01  0.13908795133E+03  0.00000000000E+00 0.  1.
          1    1    6    6  503    0  0.84382190412E+02  0.84691823771E+01  0.50213479006E+02  0.98556961108E+02  0.00000000000E+00 0. -1.
         -1    1    6    6    0  503  0.75931420796E+02 -0.85536572695E+02  0.85948471952E+02  0.14307070197E+03  0.00000000000E+00 0.  1.
<mgrwt>
<rscale>  0 0.49488578E+03</rscale>
<asrwt>0</asrwt>
<pdfrwt beam="1">  1        1 0.16473090E+00 0.49488578E+03</pdfrwt>
<pdfrwt beam="2">  1       -1 0.48626193E-01 0.49488578E+03</pdfrwt>
<totfact> 0.59564260E+01</totfact>
</mgrwt>
</event>
<event>
12    1  0.3147868E-008  0.6682617E+03  0.7818608E-02  0.9773103E-01
          1   -1    0    0  501    0  0.00000000000E+00  0.00000000000E+00  0.95234754534E+03  0.95234754534E+03  0.00000000000E+00 0. -1.
         -1   -1    0    0    0  501 -0.00000000000E+00 -0.00000000000E+00 -0.77504793015E+03  0.77504793015E+03  0.00000000000E+00 0.  1.
         23    2    1    2    0    0  0.54218262773E+03 -0.32874351094E+03 -0.32695032591E+03  0.71930132762E+03  0.91997752731E+02 0.  0.
    5000000    2    1    2    0    0 -0.54218262773E+03  0.32874351094E+03  0.50424994110E+03  0.10080941479E+04  0.59995959038E+03 0.  0.
         23    2    4    4    0    0 -0.42245341120E+03  0.10020568782E+03  0.10663264885E+02  0.44383112774E+03  0.91456548270E+02 0.  0.
         23    2    4    4    0    0 -0.11972921652E+03  0.22853782312E+03  0.49358667621E+03  0.56426302014E+03  0.90555657321E+02 0.  0.
          5    1    3    3  502    0  0.20364738770E+03 -0.73128484835E+02 -0.10641814882E+03  0.24117824572E+03  0.47000000000E+01 0. -1.
         -5    1    3    3    0  502  0.33853524003E+03 -0.25561502610E+03 -0.22053217709E+03  0.47812308190E+03  0.47000000000E+01 0.  1.
         13    1    5    5    0    0 -0.28039806572E+03  0.74770016023E+02  0.49488054439E+02  0.29438528851E+03  0.00000000000E+00 0.  1.
        -13    1    5    5    0    0 -0.14205534548E+03  0.25435671799E+02 -0.38824789553E+02  0.14944583923E+03  0.00000000000E+00 0. -1.
          2    1    6    6  503    0 -0.30558512978E+02  0.10254610987E+03  0.28760406639E+03  0.30686418228E+03  0.00000000000E+00 0. -1.
         -2    1    6    6    0  503 -0.89170703547E+02  0.12599171325E+03  0.20598260982E+03  0.25739883785E+03  0.00000000000E+00 0.  1.
<mgrwt>
<rscale>  0 0.66826165E+03</rscale>
<asrwt>0</asrwt>
<pdfrwt beam="1">  1        1 0.14651501E+00 0.66826165E+03</pdfrwt>
<pdfrwt beam="2">  1       -1 0.11923814E+00 0.66826165E+03</pdfrwt>
<totfact> 0.10834235E+01</totfact>
</mgrwt>
</event>
<event>
12    1  0.3147868E-008  0.1492011E+04  0.7818608E-02  0.8889783E-01
          4   -1    0    0  501    0  0.00000000000E+00  0.00000000000E+00  0.26141513531E+04  0.26141513531E+04  0.00000000000E+00 0. -1.
         -4   -1    0    0    0  501 -0.00000000000E+00 -0.00000000000E+00 -0.13549320980E+04  0.13549320980E+04  0.00000000000E+00 0.  1.
         23    2    1    2    0    0  0.10859485101E+04 -0.97159228726E+03 -0.55867023256E+03  0.15631795329E+04  0.90233498225E+02 0.  0.
    5000000    2    1    2    0    0 -0.10859485101E+04  0.97159228726E+03  0.18178894877E+04  0.24059039182E+04  0.60031303088E+03 0.  0.
         23    2    4    4    0    0 -0.10484385803E+04  0.75261249673E+03  0.17067765796E+04  0.21417542385E+04  0.91519934860E+02 0.  0.
         23    2    4    4    0    0 -0.37509929787E+02  0.21897979053E+03  0.11111290810E+03  0.26414967975E+03  0.89832240725E+02 0.  0.
          5    1    3    3  502    0  0.39619639101E+03 -0.30270911963E+03 -0.21009723875E+03  0.54107978255E+03  0.47000000000E+01 0. -1.
         -5    1    3    3    0  502  0.68975211908E+03 -0.66888316763E+03 -0.34857299381E+03  0.10220997504E+04  0.47000000000E+01 0.  1.
         13    1    5    5    0    0 -0.25154082398E+03  0.14963850547E+03  0.43586250628E+03  0.52501485011E+03  0.00000000000E+00 0. -1.
        -13    1    5    5    0    0 -0.79689775632E+03  0.60297399126E+03  0.12709140733E+04  0.16167393884E+04  0.00000000000E+00 0.  1.
          1    1    6    6  503    0 -0.32975490129E+02  0.33380147698E+02 -0.16178599768E+01  0.46949277742E+02  0.00000000000E+00 0. -1.
         -1    1    6    6    0  503 -0.45344396581E+01  0.18559964283E+03  0.11273076808E+03  0.21720040201E+03  0.00000000000E+00 0.  1.
<mgrwt>
<rscale>  0 0.14920113E+04</rscale>
<asrwt>0</asrwt>
<pdfrwt beam="1">  1        4 0.40217713E+00 0.14920113E+04</pdfrwt>
<pdfrwt beam="2">  1       -4 0.20845109E+00 0.14920113E+04</pdfrwt>
<totfact> 0.13971993E-03</totfact>
</mgrwt>
</event>
<event>
12    1  0.3147868E-008  0.8692552E+03  0.7818608E-02  0.9464852E-01
          2   -1    0    0  501    0  0.00000000000E+00  0.00000000000E+00  0.24939515015E+04  0.24939515015E+04  0.00000000000E+00 0. -1.
         -2   -1    0    0    0  501 -0.00000000000E+00 -0.00000000000E+00 -0.11326178816E+04  0.11326178816E+04  0.00000000000E+00 0.  1.
         23    2    1    2    0    0  0.55882811160E+03 -0.64671447678E+03  0.21516711839E+04  0.23169171594E+04  0.88813101788E+02 0.  0.
    5000000    2    1    2    0    0 -0.55882811160E+03  0.64671447678E+03 -0.79033756399E+03  0.13096522237E+04  0.60002250728E+03 0.  0.
         23    2    4    4    0    0 -0.10144598852E+03  0.11004398232E+03 -0.52282038440E+03  0.55079686752E+03  0.87378877836E+02 0.  0.
         23    2    4    4    0    0 -0.45738212308E+03  0.53667049446E+03 -0.26751717959E+03  0.75885535620E+03  0.84156901771E+02 0.  0.
          5    1    3    3  502    0  0.29268109482E+03 -0.31172341218E+03  0.96637568463E+03  0.10567581383E+04  0.47000000000E+01 0.  1.
         -5    1    3    3    0  502  0.26614701678E+03 -0.33499106460E+03  0.11852954993E+04  0.12601590211E+04  0.47000000000E+01 0. -1.
         13    1    5    5    0    0 -0.13490550164E+02  0.78784738762E+02 -0.24650770531E+03  0.25914296978E+03  0.00000000000E+00 0. -1.
        -13    1    5    5    0    0 -0.87955438352E+02  0.31259243556E+02 -0.27631267909E+03  0.29165389774E+03  0.00000000000E+00 0.  1.
          2    1    6    6  503    0 -0.22325272500E+03  0.20045230124E+03 -0.12559223933E+03  0.32526345456E+03  0.00000000000E+00 0. -1.
         -2    1    6    6    0  503 -0.23412939808E+03  0.33621819322E+03 -0.14192494026E+03  0.43359190164E+03  0.00000000000E+00 0.  1.
<mgrwt>
<rscale>  0 0.86925519E+03</rscale>
<asrwt>0</asrwt>
<pdfrwt beam="1">  1        2 0.38368485E+00 0.86925519E+03</pdfrwt>
<pdfrwt beam="2">  1       -2 0.17424891E+00 0.86925519E+03</pdfrwt>
<totfact> 0.71815869E-01</totfact>
</mgrwt>
</event>
<event>
12    1  0.3147868E-008  0.7023317E+03  0.7818608E-02  0.9713253E-01
         -2   -1    0    0    0  501 -0.00000000000E+00  0.00000000000E+00  0.75209629343E+03  0.75209629343E+03  0.00000000000E+00 0.  1.
          2   -1    0    0  501    0  0.00000000000E+00 -0.00000000000E+00 -0.89511718839E+03  0.89511718839E+03  0.00000000000E+00 0. -1.
         23    2    1    2    0    0  0.24424075716E+03  0.59968960883E+03 -0.34814995777E+03  0.74092604747E+03  0.92096907241E+02 0.  0.
    5000000    2    1    2    0    0 -0.24424075716E+03 -0.59968960883E+03  0.20512906280E+03  0.90628743435E+03  0.59999817239E+03 0.  0.
         23    2    4    4    0    0 -0.29187718712E+03 -0.23988406955E+03 -0.12440992867E+03  0.40810797969E+03  0.91310643130E+02 0.  0.
         23    2    4    4    0    0  0.47636429962E+02 -0.35980553928E+03  0.32953899147E+03  0.49817945466E+03  0.88642916212E+02 0.  0.
          5    1    3    3  502    0  0.14416688836E+03  0.42387421149E+03 -0.27660640236E+03  0.52629519349E+03  0.47000000000E+01 0. -1.
         -5    1    3    3    0  502  0.10007386879E+03  0.17581539734E+03 -0.71543555415E+02  0.21463085398E+03  0.47000000000E+01 0.  1.
         13    1    5    5    0    0 -0.15578824310E+03 -0.96231263297E+02 -0.19528272836E+02  0.18415153044E+03  0.00000000000E+00 0.  1.
        -13    1    5    5    0    0 -0.13608894402E+03 -0.14365280626E+03 -0.10488165583E+03  0.22395644925E+03  0.00000000000E+00 0. -1.
          2    1    6    6  503    0  0.66630435019E+02 -0.16655938753E+03  0.15445597370E+03  0.23672408466E+03  0.00000000000E+00 0. -1.
         -2    1    6    6    0  503 -0.18994005057E+02 -0.19324615174E+03  0.17508301778E+03  0.26145537001E+03  0.00000000000E+00 0.  1.
<mgrwt>
<rscale>  0 0.70233171E+03</rscale>
<asrwt>0</asrwt>
<pdfrwt beam="1">  1        2 0.13771034E+00 0.70233171E+03</pdfrwt>
<pdfrwt beam="2">  1       -2 0.11570712E+00 0.70233171E+03</pdfrwt>
<totfact> 0.17519004E+01</totfact>
</mgrwt>
</event>
<event>
12    1  0.3147868E-008  0.4014282E+03  0.7818608E-02  0.1043286E+00
         -2   -1    0    0    0  501 -0.00000000000E+00  0.00000000000E+00  0.54364897077E+03  0.54364897077E+03  0.00000000000E+00 0.  1.
          2   -1    0    0  501    0  0.00000000000E+00 -0.00000000000E+00 -0.34120867679E+03  0.34120867679E+03  0.00000000000E+00 0. -1.
         23    2    1    2    0    0  0.85636274294E+02 -0.16800980169E+03 -0.34404479324E+02  0.21242030407E+03  0.91530609325E+02 0.  0.
    5000000    2    1    2    0    0 -0.85636274294E+02  0.16800980169E+03  0.23684477331E+03  0.67243734349E+03  0.60042957067E+03 0.  0.
         23    2    4    4    0    0 -0.17007992276E+03 -0.16363800185E+03  0.13005938777E+02  0.25343685675E+03  0.91413949382E+02 0.  0.
         23    2    4    4    0    0  0.84443648462E+02  0.33164780354E+03  0.22383883453E+03  0.41900048675E+03  0.91304921513E+02 0.  0.
          5    1    3    3  502    0  0.86459086824E+02 -0.70607983863E+02 -0.12066126117E+02  0.11237589812E+03  0.47000000000E+01 0. -1.
         -5    1    3    3    0  502 -0.82281253053E+00 -0.97401817826E+02 -0.22338353207E+02  0.10004440594E+03  0.47000000000E+01 0.  1.
         13    1    5    5    0    0 -0.97089819948E+02 -0.34487883028E+02 -0.91675729236E+01  0.10344028039E+03  0.00000000000E+00 0. -1.
        -13    1    5    5    0    0 -0.72990102807E+02 -0.12915011882E+03  0.22173511700E+02  0.14999657636E+03  0.00000000000E+00 0.  1.
          2    1    6    6  503    0  0.29681904088E+01  0.12022796037E+02  0.38948380700E+02  0.40869721531E+02  0.00000000000E+00 0. -1.
         -2    1    6    6    0  503  0.81475458053E+02  0.31962500750E+03  0.18489045383E+03  0.37813076521E+03  0.00000000000E+00 0.  1.
<mgrwt>
<rscale>  0 0.40142824E+03</rscale>
<asrwt>0</asrwt>
<pdfrwt beam="1">  1        2 0.52493643E-01 0.40142824E+03</pdfrwt>
<pdfrwt beam="2">  1       -2 0.83638303E-01 0.40142824E+03</pdfrwt>
<totfact> 0.12234174E+02</totfact>
</mgrwt>
</event>
<event>
12    1  0.3147868E-008  0.4577794E+03  0.7818608E-02  0.1025427E+00
         -1   -1    0    0    0  501 -0.00000000000E+00  0.00000000000E+00  0.71188726549E+03  0.71188726549E+03  0.00000000000E+00 0.  1.
          1   -1    0    0  501    0  0.00000000000E+00 -0.00000000000E+00 -0.36542790379E+03  0.36542790379E+03  0.00000000000E+00 0. -1.
         23    2    1    2    0    0 -0.56477948024E+02  0.31657488064E+03  0.68440863816E+02  0.34199049184E+03  0.94148451939E+02 0.  0.
    5000000    2    1    2    0    0  0.56477948024E+02 -0.31657488064E+03  0.27801849788E+03  0.73532467744E+03  0.59999890202E+03 0.  0.
         23    2    4    4    0    0 -0.11668973077E+03 -0.37186781323E+03  0.11922392631E+02  0.40036014895E+03  0.90796154318E+02 0.  0.
         23    2    4    4    0    0  0.17316767879E+03  0.55292932589E+02  0.26609610525E+03  0.33496452849E+03  0.91376937701E+02 0.  0.
          5    1    3    3  502    0 -0.46482625283E+01  0.25210187439E+03  0.53395292497E+02  0.25777918589E+03  0.47000000000E+01 0. -1.
         -5    1    3    3    0  502 -0.51829685496E+02  0.64473006243E+02  0.15045571319E+02  0.84211305944E+02  0.47000000000E+01 0.  1.
         11    1    5    5    0    0  0.12042674714E+02 -0.58959337029E+02  0.14894830210E+02  0.61992623788E+02  0.00000000000E+00 0.  1.
        -11    1    5    5    0    0 -0.12873240548E+03 -0.31290847620E+03 -0.29724375789E+01  0.33836752516E+03  0.00000000000E+00 0. -1.
          1    1    6    6  503    0  0.12563301956E+03  0.44097690459E+02  0.11420810896E+03  0.17541879620E+03  0.00000000000E+00 0. -1.
         -1    1    6    6    0  503  0.47534659229E+02  0.11195242130E+02  0.15188799629E+03  0.15954573229E+03  0.00000000000E+00 0.  1.
<mgrwt>
<rscale>  0 0.45777936E+03</rscale>
<asrwt>0</asrwt>
<pdfrwt beam="1">  1        1 0.56219678E-01 0.45777936E+03</pdfrwt>
<pdfrwt beam="2">  1       -1 0.10952112E+00 0.45777936E+03</pdfrwt>
<totfact> 0.54788298E+01</totfact>
</mgrwt>
</event>
<event>
12    1  0.3147868E-008  0.1331577E+04  0.7818608E-02  0.9004893E-01
          3   -1    0    0  501    0  0.00000000000E+00  0.00000000000E+00  0.21137585372E+04  0.21137585372E+04  0.00000000000E+00 0. -1.
         -3   -1    0    0    0  501 -0.00000000000E+00 -0.00000000000E+00 -0.14639691518E+04  0.14639691518E+04  0.00000000000E+00 0.  1.
         23    2    1    2    0    0 -0.36369657328E+03  0.12287637968E+04 -0.83066208235E+03  0.15298328278E+04  0.90847785918E+02 0.  0.
    5000000    2    1    2    0    0  0.36369657328E+03 -0.12287637968E+04  0.14804514677E+04  0.20478948612E+04  0.60000095707E+03 0.  0.
         23    2    4    4    0    0  0.43319292525E+03 -0.56148754588E+03  0.57630226629E+03  0.91832980003E+03  0.90999696888E+02 0.  0.
         23    2    4    4    0    0 -0.69496351969E+02 -0.66727625094E+03  0.90414920145E+03  0.11295650612E+04  0.91346105369E+02 0.  0.
          5    1    3    3  502    0 -0.73615618498E+02  0.26219930000E+03 -0.13399184742E+03  0.30355170462E+03  0.47000000000E+01 0. -1.
         -5    1    3    3    0  502 -0.29008095478E+03  0.96656449682E+03 -0.69667023494E+03  0.12262811232E+04  0.47000000000E+01 0.  1.
         11    1    5    5    0    0  0.29256965892E+03 -0.37975898813E+03  0.33316689116E+03  0.58379283291E+03  0.00000000000E+00 0.  1.
        -11    1    5    5    0    0  0.14062326633E+03 -0.18172855774E+03  0.24313537513E+03  0.33453696713E+03  0.00000000000E+00 0. -1.
          2    1    6    6  503    0 -0.53740183542E+02 -0.29677533760E+03  0.47181261762E+03  0.55997388732E+03  0.00000000000E+00 0. -1.
         -2    1    6    6    0  503 -0.15756168428E+02 -0.37050091334E+03  0.43233658383E+03  0.56959117387E+03  0.00000000000E+00 0.  1.
<mgrwt>
<rscale>  0 0.13315768E+04</rscale>
<asrwt>0</asrwt>
<pdfrwt beam="1">  1        3 0.32519362E+00 0.13315768E+04</pdfrwt>
<pdfrwt beam="2">  1       -3 0.22522602E+00 0.13315768E+04</pdfrwt>
<totfact> 0.70135215E-03</totfact>
</mgrwt>
</event>
<event>
12    1  0.3147868E-008  0.6894435E+03  0.7818608E-02  0.9735457E-01
          2   -1    0    0  501    0  0.00000000000E+00  0.00000000000E+00  0.11570306619E+04  0.11570306619E+04  0.00000000000E+00 0. -1.
         -2   -1    0    0    0  501 -0.00000000000E+00 -0.00000000000E+00 -0.62791696384E+03  0.62791696384E+03  0.00000000000E+00 0.  1.
         23    2    1    2    0    0  0.34566759212E+03 -0.53671358551E+03 -0.16566964400E+03  0.66694745057E+03  0.99120703037E+02 0.  0.
    5000000    2    1    2    0    0 -0.34566759212E+03  0.53671358551E+03  0.69478334207E+03  0.11180001752E+04  0.59971071539E+03 0.  0.
         23    2    4    4    0    0 -0.23044367932E+03  0.53702077755E+03  0.23647622162E+03  0.63667187642E+03  0.89075641884E+02 0.  0.
         23    2    4    4    0    0 -0.11522391280E+03 -0.30719203659E+00  0.45830712045E+03  0.48132829875E+03  0.91404978413E+02 0.  0.
          5    1    3    3  502    0  0.14710289844E+03 -0.30622010587E+03 -0.11371719903E+03  0.35827881228E+03  0.47000000000E+01 0.  1.
         -5    1    3    3    0  502  0.19856469367E+03 -0.23049347964E+03 -0.51952444973E+02  0.30866863830E+03  0.47000000000E+01 0. -1.
         13    1    5    5    0    0 -0.47305725116E+02  0.19618248577E+03  0.10855676334E+03  0.22915054052E+03  0.00000000000E+00 0. -1.
        -13    1    5    5    0    0 -0.18313795420E+03  0.34083829178E+03  0.12791945829E+03  0.40752133591E+03  0.00000000000E+00 0.  1.
          4    1    6    6  503    0 -0.10695170800E+03  0.32915707888E+02  0.32635562532E+03  0.34500739970E+03  0.00000000000E+00 0. -1.
         -4    1    6    6    0  503 -0.82722047962E+01 -0.33222899925E+02  0.13195149513E+03  0.13632089905E+03  0.00000000000E+00 0.  1.
<mgrwt>
<rscale>  0 0.68944354E+03</rscale>
<asrwt>0</asrwt>
<pdfrwt beam="1">  1        2 0.17800472E+00 0.68944354E+03</pdfrwt>
<pdfrwt beam="2">  1       -2 0.96602610E-01 0.68944354E+03</pdfrwt>
<totfact> 0.18481735E+01</totfact>
</mgrwt>
</event>
<event>
12    1  0.3147868E-008  0.9979492E+03  0.7818608E-02  0.9310797E-01
          2   -1    0    0  501    0  0.00000000000E+00  0.00000000000E+00  0.23916326874E+04  0.23916326874E+04  0.00000000000E+00 0.  1.
         -2   -1    0    0    0  501 -0.00000000000E+00 -0.00000000000E+00 -0.49302308202E+03  0.49302308202E+03  0.00000000000E+00 0. -1.
         23    2    1    2    0    0  0.98397439073E+03  0.46171662786E+02  0.11133967326E+04  0.14892958106E+04  0.89511470653E+02 0.  0.
    5000000    2    1    2    0    0 -0.98397439073E+03 -0.46171662786E+02  0.78521287284E+03  0.13953599588E+04  0.60011060230E+03 0.  0.
         23    2    4    4    0    0 -0.32802004212E+03  0.43330312562E+02  0.61780188832E+03  0.70683335482E+03  0.91975835145E+02 0.  0.
         23    2    4    4    0    0 -0.65595434862E+03 -0.89501975348E+02  0.16741098451E+03  0.68852660402E+03  0.88066654568E+02 0.  0.
          5    1    3    3  502    0  0.68157328469E+03 -0.81164456178E+01  0.78143715930E+03  0.10369542627E+04  0.47000000000E+01 0. -1.
         -5    1    3    3    0  502  0.30240110604E+03  0.54288108404E+02  0.33195957329E+03  0.45234154789E+03  0.47000000000E+01 0.  1.
         11    1    5    5    0    0 -0.29591122324E+03  0.12002922548E+02  0.50492288456E+03  0.58536709981E+03  0.00000000000E+00 0.  1.
        -11    1    5    5    0    0 -0.32108818875E+02  0.31327390014E+02  0.11287900376E+03  0.12146625500E+03  0.00000000000E+00 0. -1.
          3    1    6    6  503    0 -0.36904199651E+03 -0.86514677231E+02  0.69591458066E+02  0.38538260936E+03  0.00000000000E+00 0. -1.
         -3    1    6    6    0  503 -0.28691235211E+03 -0.29872981172E+01  0.97819526447E+02  0.30314399466E+03  0.00000000000E+00 0.  1.
<mgrwt>
<rscale>  0 0.99794923E+03</rscale>
<asrwt>0</asrwt>
<pdfrwt beam="1">  1        2 0.36794348E+00 0.99794923E+03</pdfrwt>
<pdfrwt beam="2">  1       -2 0.75849706E-01 0.99794923E+03</pdfrwt>
<totfact> 0.63154517E+00</totfact>
</mgrwt>
</event>
<event>
12    1  0.3147868E-008  0.5361324E+03  0.7818608E-02  0.1004756E+00
         -2   -1    0    0    0  501 -0.00000000000E+00  0.00000000000E+00  0.13059422433E+03  0.13059422433E+03  0.00000000000E+00 0.  1.
          2   -1    0    0  501    0  0.00000000000E+00 -0.00000000000E+00 -0.34212313522E+04  0.34212313522E+04  0.00000000000E+00 0. -1.
         23    2    1    2    0    0 -0.12030839250E+03 -0.51403493298E+03 -0.12312377580E+04  0.13427882772E+04  0.91803698012E+02 0.  0.
    5000000    2    1    2    0    0  0.12030839250E+03  0.51403493298E+03 -0.20593993699E+04  0.22090372994E+04  0.60001166964E+03 0.  0.
         23    2    4    4    0    0  0.45239258267E+02  0.98533822473E+02 -0.14786831679E+04  0.14854923182E+04  0.91804203885E+02 0.  0.
         23    2    4    4    0    0  0.75069134229E+02  0.41550111051E+03 -0.58071620201E+03  0.72354498116E+03  0.89495724689E+02 0.  0.
          5    1    3    3  502    0 -0.12136612045E+03 -0.35886883671E+03 -0.82252640460E+03  0.90558729751E+03  0.47000000000E+01 0. -1.
         -5    1    3    3    0  502  0.10577279520E+01 -0.15516609627E+03 -0.40871135339E+03  0.43720097965E+03  0.47000000000E+01 0.  1.
         13    1    5    5    0    0  0.32841814132E+01  0.15329436020E+02 -0.30307331880E+02  0.34122013744E+02  0.00000000000E+00 0. -1.
        -13    1    5    5    0    0  0.41955076854E+02  0.83204386453E+02 -0.14483758360E+04  0.14513703045E+04  0.00000000000E+00 0.  1.
          3    1    6    6  503    0  0.24347982090E+02  0.22870878226E+02 -0.68098674442E+02  0.75850713665E+02  0.00000000000E+00 0. -1.
         -3    1    6    6    0  503  0.50721152139E+02  0.39263023228E+03 -0.51261752757E+03  0.64769426750E+03  0.00000000000E+00 0.  1.
<mgrwt>
<rscale>  0 0.53613238E+03</rscale>
<asrwt>0</asrwt>
<pdfrwt beam="1">  1        2 0.52634325E+00 0.53613238E+03</pdfrwt>
<pdfrwt beam="2">  1       -2 0.20091421E-01 0.53613238E+03</pdfrwt>
<totfact> 0.21897851E+01</totfact>
</mgrwt>
</event>
<event>
12    1  0.3147868E-008  0.6966468E+03  0.7818608E-02  0.9722984E-01
         -1   -1    0    0    0  501 -0.00000000000E+00  0.00000000000E+00  0.43638205417E+03  0.43638205417E+03  0.00000000000E+00 0.  1.
          1   -1    0    0  501    0  0.00000000000E+00 -0.00000000000E+00 -0.12820630056E+04  0.12820630056E+04  0.00000000000E+00 0. -1.
         23    2    1    2    0    0  0.35214998401E+03  0.49028057050E+03 -0.17614896179E+03  0.63556906105E+03  0.92384660962E+02 0.  0.
    5000000    2    1    2    0    0 -0.35214998401E+03 -0.49028057050E+03 -0.66953198961E+03  0.10828759987E+04  0.59996891116E+03 0.  0.
         23    2    4    4    0    0  0.11203867515E+03 -0.24622611987E+02 -0.26236742148E+03  0.30406148991E+03  0.10226332696E+03 0.  0.
         23    2    4    4    0    0 -0.46418865916E+03 -0.46565795852E+03 -0.40716456813E+03  0.77881450877E+03  0.91981562869E+02 0.  0.
          5    1    3    3  502    0  0.14488712150E+03  0.18656891078E+03 -0.23545878395E+02  0.23743785468E+03  0.47000000000E+01 0. -1.
         -5    1    3    3    0  502  0.20726286250E+03  0.30371165973E+03 -0.15260308340E+03  0.39813120637E+03  0.47000000000E+01 0.  1.
         11    1    5    5    0    0  0.57945970917E+02  0.20375057121E+02 -0.20271337866E+03  0.21181499565E+03  0.00000000000E+00 0.  1.
        -11    1    5    5    0    0  0.54092704237E+02 -0.44997669108E+02 -0.59654042822E+02  0.92246494252E+02  0.00000000000E+00 0. -1.
          3    1    6    6  503    0 -0.42916575481E+03 -0.43216634137E+03 -0.34496346423E+03  0.69996484438E+03  0.00000000000E+00 0. -1.
         -3    1    6    6    0  503 -0.35022904348E+02 -0.33491617150E+02 -0.62201103897E+02  0.78849664389E+02  0.00000000000E+00 0.  1.
<mgrwt>
<rscale>  0 0.69664682E+03</rscale>
<asrwt>0</asrwt>
<pdfrwt beam="1">  1        1 0.19724046E+00 0.69664682E+03</pdfrwt>
<pdfrwt beam="2">  1       -1 0.67135700E-01 0.69664682E+03</pdfrwt>
<totfact> 0.21752712E+01</totfact>
</mgrwt>
</event>
<event>
12    1  0.3147868E-008  0.6014511E+03  0.7818608E-02  0.9902400E-01
          1   -1    0    0  501    0  0.00000000000E+00  0.00000000000E+00  0.13746200424E+04  0.13746200424E+04  0.00000000000E+00 0. -1.
         -1   -1    0    0    0  501 -0.00000000000E+00 -0.00000000000E+00 -0.30427333393E+03  0.30427333393E+03  0.00000000000E+00 0.  1.
         23    2    1    2    0    0  0.47903593097E+03  0.11054662931E+03  0.55818119556E+03  0.74934403376E+03  0.90852922059E+02 0.  0.
    5000000    2    1    2    0    0 -0.47903593097E+03 -0.11054662931E+03  0.51216551290E+03  0.92954934255E+03  0.60004373776E+03 0.  0.
         23    2    4    4    0    0 -0.47311220625E+03 -0.26994477621E+03  0.50144558326E+03  0.74616345261E+03  0.92773288860E+02 0.  0.
         23    2    4    4    0    0 -0.59237247243E+01  0.15939814690E+03  0.10719929639E+02  0.18338588995E+03  0.89847693288E+02 0.  0.
          5    1    3    3  502    0  0.45264575314E+03  0.10075211642E+03  0.48615044502E+03  0.67186569491E+03  0.47000000000E+01 0. -1.
         -5    1    3    3    0  502  0.26390177831E+02  0.97945128913E+01  0.72030750538E+02  0.77478338856E+02  0.47000000000E+01 0.  1.
         13    1    5    5    0    0 -0.30394026031E+03 -0.12621578110E+03  0.32579916546E+03  0.46309308076E+03  0.00000000000E+00 0. -1.
        -13    1    5    5    0    0 -0.16917194594E+03 -0.14372899511E+03  0.17564641781E+03  0.28307037185E+03  0.00000000000E+00 0.  1.
          1    1    6    6  503    0  0.67627692034E-01  0.19812500223E+02  0.36294696174E+02  0.41350268548E+02  0.00000000000E+00 0. -1.
         -1    1    6    6    0  503 -0.59913524164E+01  0.13958564668E+03 -0.25574766535E+02  0.14203562140E+03  0.00000000000E+00 0.  1.
<mgrwt>
<rscale>  0 0.60145110E+03</rscale>
<asrwt>0</asrwt>
<pdfrwt beam="1">  1        1 0.21148000E+00 0.60145110E+03</pdfrwt>
<pdfrwt beam="2">  1       -1 0.46811283E-01 0.60145110E+03</pdfrwt>
<totfact> 0.38180208E+01</totfact>
</mgrwt>
</event>
<event>
12    1  0.3147868E-008  0.1602119E+04  0.7818608E-02  0.8819247E-01
         -2   -1    0    0    0  501 -0.00000000000E+00  0.00000000000E+00  0.15273201229E+04  0.15273201229E+04  0.00000000000E+00 0. -1.
          2   -1    0    0  501    0  0.00000000000E+00 -0.00000000000E+00 -0.31134442890E+04  0.31134442890E+04  0.00000000000E+00 0.  1.
         23    2    1    2    0    0 -0.15326198748E+04 -0.32151657414E+03  0.77101829115E+03  0.17479314882E+04  0.92188363241E+02 0.  0.
    5000000    2    1    2    0    0  0.15326198748E+04  0.32151657414E+03 -0.23571424573E+04  0.28928329237E+04  0.60005430802E+03 0.  0.
         23    2    4    4    0    0  0.28658768867E+03 -0.12518359003E+03 -0.28897536088E+03  0.43562250584E+03  0.91960719260E+02 0.  0.
         23    2    4    4    0    0  0.12460321861E+04  0.44670016417E+03 -0.20681670964E+04  0.24572104179E+04  0.91818590538E+02 0.  0.
          5    1    3    3  502    0 -0.55013960580E+03 -0.11126349195E+03  0.32549552089E+03  0.64884711191E+03  0.47000000000E+01 0. -1.
         -5    1    3    3    0  502 -0.98248026897E+03 -0.21025308218E+03  0.44552277026E+03  0.10990843763E+04  0.47000000000E+01 0.  1.
         11    1    5    5    0    0  0.27621734175E+02 -0.16745378566E+02  0.57890944215E+00  0.32306393149E+02  0.00000000000E+00 0. -1.
        -11    1    5    5    0    0  0.25896595450E+03 -0.10843821147E+03 -0.28955427032E+03  0.40331611269E+03  0.00000000000E+00 0.  1.
          3    1    6    6  503    0  0.61529422601E+03  0.18749044260E+03 -0.94155902357E+03  0.11402951572E+04  0.00000000000E+00 0. -1.
         -3    1    6    6    0  503  0.63073796009E+03  0.25920972157E+03 -0.11266080728E+04  0.13169152607E+04  0.00000000000E+00 0.  1.
<mgrwt>
<rscale>  0 0.16021192E+04</rscale>
<asrwt>0</asrwt>
<pdfrwt beam="1">  1        2 0.47899142E+00 0.16021192E+04</pdfrwt>
<pdfrwt beam="2">  1       -2 0.23497233E+00 0.16021192E+04</pdfrwt>
<totfact> 0.10916452E-01</totfact>
</mgrwt>
</event>
<event>
12    1  0.3147868E-008  0.1242903E+04  0.7818608E-02  0.9076111E-01
          2   -1    0    0  501    0  0.00000000000E+00  0.00000000000E+00  0.95307678823E+03  0.95307678823E+03  0.00000000000E+00 0. -1.
         -2   -1    0    0    0  501 -0.00000000000E+00 -0.00000000000E+00 -0.17595908323E+04  0.17595908323E+04  0.00000000000E+00 0.  1.
         23    2    1    2    0    0  0.62358118027E+03 -0.10320732041E+04 -0.60045993749E+03  0.13501653682E+04  0.91464735499E+02 0.  0.
    5000000    2    1    2    0    0 -0.62358118027E+03  0.10320732041E+04 -0.20605410653E+03  0.13625022523E+04  0.59993791823E+03 0.  0.
         23    2    4    4    0    0 -0.17400384405E+03  0.68906605319E+03 -0.30905931326E+03  0.78028639816E+03  0.90773567925E+02 0.  0.
         23    2    4    4    0    0 -0.44957733622E+03  0.34300715092E+03  0.10300520673E+03  0.58221585416E+03  0.92690568030E+02 0.  0.
          5    1    3    3  502    0  0.14682117148E+03 -0.31646514361E+03 -0.15573973069E+03  0.38207799888E+03  0.47000000000E+01 0. -1.
         -5    1    3    3    0  502  0.47676000878E+03 -0.71560806050E+03 -0.44472020680E+03  0.96808736928E+03  0.47000000000E+01 0.  1.
         11    1    5    5    0    0 -0.86033692915E+02  0.40615487503E+03 -0.22550364776E+03  0.47245684880E+03  0.00000000000E+00 0. -1.
        -11    1    5    5    0    0 -0.87970151134E+02  0.28291117816E+03 -0.83555665497E+02  0.30782954936E+03  0.00000000000E+00 0.  1.
          1    1    6    6  503    0 -0.35555310519E+03  0.26603920198E+03  0.11880257486E+03  0.45968349915E+03  0.00000000000E+00 0. -1.
         -1    1    6    6    0  503 -0.94024231028E+02  0.76967948941E+02 -0.15797368129E+02  0.12253235501E+03  0.00000000000E+00 0.  1.
<mgrwt>
<rscale>  0 0.12429029E+04</rscale>
<asrwt>0</asrwt>
<pdfrwt beam="1">  1        2 0.14662720E+00 0.12429029E+04</pdfrwt>
<pdfrwt beam="2">  1       -2 0.27070628E+00 0.12429029E+04</pdfrwt>
<totfact> 0.12600877E+00</totfact>
</mgrwt>
</event>
<event>
12    1  0.3147868E-008  0.1031766E+04  0.7818608E-02  0.9274374E-01
         -1   -1    0    0    0  501 -0.00000000000E+00  0.00000000000E+00  0.15547375879E+04  0.15547375879E+04  0.00000000000E+00 0.  1.
          1   -1    0    0  501    0  0.00000000000E+00 -0.00000000000E+00 -0.15396371778E+04  0.15396371778E+04  0.00000000000E+00 0. -1.
         23    2    1    2    0    0  0.82024633522E+03  0.60926340470E+03  0.10883620483E+04  0.14956535089E+04  0.91877764865E+02 0.  0.
    5000000    2    1    2    0    0 -0.82024633522E+03 -0.60926340470E+03 -0.10732616383E+04  0.15987212568E+04  0.60001097147E+03 0.  0.
         23    2    4    4    0    0 -0.54331103279E+03 -0.46693463346E+03 -0.10488890684E+04  0.12734841802E+04  0.91536054184E+02 0.  0.
         23    2    4    4    0    0 -0.27693530242E+03 -0.14232877124E+03 -0.24372569864E+02  0.32523707652E+03  0.90744106860E+02 0.  0.
          5    1    3    3  502    0  0.53813040927E+03  0.45239908288E+03  0.74194756345E+03  0.10221338193E+04  0.47000000000E+01 0. -1.
         -5    1    3    3    0  502  0.28211592595E+03  0.15686432182E+03  0.34641448490E+03  0.47351968964E+03  0.47000000000E+01 0.  1.
         11    1    5    5    0    0 -0.13498063027E+02 -0.12430852114E+02 -0.62098603384E+02  0.64753071989E+02  0.00000000000E+00 0.  1.
        -11    1    5    5    0    0 -0.52981296977E+03 -0.45450378135E+03 -0.98679046503E+03  0.12087311083E+04  0.00000000000E+00 0. -1.
          3    1    6    6  503    0 -0.30834606702E+02 -0.49328076131E+02  0.12723953218E+02  0.59547720785E+02  0.00000000000E+00 0. -1.
         -3    1    6    6    0  503 -0.24610069572E+03 -0.93000695112E+02 -0.37096523082E+02  0.26568935573E+03  0.00000000000E+00 0.  1.
<mgrwt>
<rscale>  0 0.10317664E+04</rscale>
<asrwt>0</asrwt>
<pdfrwt beam="1">  1        1 0.23686726E+00 0.10317664E+04</pdfrwt>
<pdfrwt beam="2">  1       -1 0.23919040E+00 0.10317664E+04</pdfrwt>
<totfact> 0.50666481E-01</totfact>
</mgrwt>
</event>
<event>
12    1  0.3147868E-008  0.5667952E+03  0.7818608E-02  0.9976795E-01
         -2   -1    0    0    0  501 -0.00000000000E+00  0.00000000000E+00  0.66115989274E+03  0.66115989274E+03  0.00000000000E+00 0.  1.
          2   -1    0    0  501    0  0.00000000000E+00 -0.00000000000E+00 -0.70926245862E+03  0.70926245862E+03  0.00000000000E+00 0. -1.
         23    2    1    2    0    0 -0.46407695067E+03  0.16167267582E+03 -0.26419885146E+03  0.56531988829E+03  0.90994904977E+02 0.  0.
    5000000    2    1    2    0    0  0.46407695067E+03 -0.16167267582E+03  0.21609628558E+03  0.80510246306E+03  0.59998908418E+03 0.  0.
         23    2    4    4    0    0 -0.24803333050E+02  0.44352199138E+02 -0.13152587141E+03  0.16511262944E+03  0.85911597881E+02 0.  0.
         23    2    4    4    0    0  0.48888028372E+03 -0.20602487496E+03  0.34762215700E+03  0.63998983363E+03  0.85414531510E+02 0.  0.
          5    1    3    3  502    0 -0.19126913131E+03  0.11134942175E+03 -0.13475385118E+03  0.25915876355E+03  0.47000000000E+01 0. -1.
         -5    1    3    3    0  502 -0.27280781937E+03  0.50323254073E+02 -0.12944500028E+03  0.30616112475E+03  0.47000000000E+01 0.  1.
         13    1    5    5    0    0 -0.21238323153E+02  0.70350732605E+02 -0.93827902864E+02  0.11918039815E+03  0.00000000000E+00 0. -1.
        -13    1    5    5    0    0 -0.35650098964E+01 -0.25998533467E+02 -0.37697968550E+02  0.45932231285E+02  0.00000000000E+00 0.  1.
          3    1    6    6  503    0  0.10606350480E+03 -0.14701245995E+02  0.94232182741E+02  0.14263694455E+03  0.00000000000E+00 0. -1.
         -3    1    6    6    0  503  0.38281677892E+03 -0.19132362897E+03  0.25338997425E+03  0.49735288908E+03  0.00000000000E+00 0.  1.
<mgrwt>
<rscale>  0 0.56679524E+03</rscale>
<asrwt>0</asrwt>
<pdfrwt beam="1">  1        2 0.10911730E+00 0.56679524E+03</pdfrwt>
<pdfrwt beam="2">  1       -2 0.10171691E+00 0.56679524E+03</pdfrwt>
<totfact> 0.32964773E+01</totfact>
</mgrwt>
</event>
<event>
12    1  0.3147868E-008  0.9259317E+03  0.7818608E-02  0.9393734E-01
          2   -1    0    0  501    0  0.00000000000E+00  0.00000000000E+00  0.19514025720E+04  0.19514025720E+04  0.00000000000E+00 0. -1.
         -2   -1    0    0    0  501 -0.00000000000E+00 -0.00000000000E+00 -0.50071953968E+03  0.50071953968E+03  0.00000000000E+00 0.  1.
         23    2    1    2    0    0  0.58169436615E+03  0.59502243786E+03  0.10684537638E+04  0.13573350596E+04  0.91350869635E+02 0.  0.
    5000000    2    1    2    0    0 -0.58169436615E+03 -0.59502243786E+03  0.38222926848E+03  0.10947870521E+04  0.60003286455E+03 0.  0.
         23    2    4    4    0    0 -0.64406598992E+03 -0.63068024444E+03  0.34591327852E+03  0.97042367122E+03  0.97403979989E+02 0.  0.
         23    2    4    4    0    0  0.62371623769E+02  0.35657806582E+02  0.36315989962E+02  0.12436338085E+03  0.94792936175E+02 0.  0.
          5    1    3    3  502    0  0.36937396787E+03  0.39365519186E+03  0.62307743202E+03  0.82440834209E+03  0.47000000000E+01 0. -1.
         -5    1    3    3    0  502  0.21232039828E+03  0.20136724600E+03  0.44537633180E+03  0.53292671748E+03  0.47000000000E+01 0.  1.
         11    1    5    5    0    0 -0.42457955881E+03 -0.38070705444E+03  0.17553325016E+03  0.59667209166E+03  0.00000000000E+00 0. -1.
        -11    1    5    5    0    0 -0.21948643111E+03 -0.24997319001E+03  0.17038002835E+03  0.37375157956E+03  0.00000000000E+00 0.  1.
          1    1    6    6  503    0  0.16954633762E+01 -0.28258754002E+02 -0.17501544522E+01  0.28363617795E+02  0.00000000000E+00 0. -1.
         -1    1    6    6    0  503  0.60676160392E+02  0.63916560584E+02  0.38066144414E+02  0.95999763059E+02  0.00000000000E+00 0.  1.
<mgrwt>
<rscale>  0 0.92593168E+03</rscale>
<asrwt>0</asrwt>
<pdfrwt beam="1">  1        2 0.30021578E+00 0.92593168E+03</pdfrwt>
<pdfrwt beam="2">  1       -2 0.77033776E-01 0.92593168E+03</pdfrwt>
<totfact> 0.10807318E+01</totfact>
</mgrwt>
</event>
<event>
12    1  0.3147868E-008  0.1029228E+04  0.7818608E-02  0.9277057E-01
         -1   -1    0    0    0  501 -0.00000000000E+00  0.00000000000E+00  0.88276328996E+03  0.88276328996E+03  0.00000000000E+00 0.  1.
          1   -1    0    0  501    0  0.00000000000E+00 -0.00000000000E+00 -0.14695075725E+04  0.14695075725E+04  0.00000000000E+00 0. -1.
         23    2    1    2    0    0  0.79773230024E+03  0.51841081747E+03  0.20421227770E+03  0.97725064175E+03  0.90496209552E+02 0.  0.
    5000000    2    1    2    0    0 -0.79773230024E+03 -0.51841081747E+03 -0.79095656022E+03  0.13750202207E+04  0.59995143857E+03 0.  0.
         23    2    4    4    0    0 -0.83751253977E+03 -0.34025281178E+03 -0.55997421610E+03  0.10669878882E+04  0.87708612649E+02 0.  0.
         23    2    4    4    0    0  0.39780239535E+02 -0.17815800569E+03 -0.23098234412E+03  0.30803233246E+03  0.90599846008E+02 0.  0.
          5    1    3    3  502    0  0.46015345338E+03  0.26214912743E+03  0.14641346606E+03  0.54947462062E+03  0.47000000000E+01 0. -1.
         -5    1    3    3    0  502  0.33757884686E+03  0.25626169004E+03  0.57798811633E+02  0.42777602113E+03  0.47000000000E+01 0.  1.
         13    1    5    5    0    0 -0.42289308420E+03 -0.21291382133E+03 -0.31766693825E+03  0.57016062617E+03  0.00000000000E+00 0. -1.
        -13    1    5    5    0    0 -0.41461945557E+03 -0.12733899045E+03 -0.24230727786E+03  0.49682726206E+03  0.00000000000E+00 0.  1.
          3    1    6    6  503    0  0.42864725280E+02 -0.37068642735E+02 -0.10279812741E+03  0.11738366132E+03  0.00000000000E+00 0. -1.
         -3    1    6    6    0  503 -0.30844857451E+01 -0.14108936296E+03 -0.12818421671E+03  0.19064867114E+03  0.00000000000E+00 0.  1.
<mgrwt>
<rscale>  0 0.10292275E+04</rscale>
<asrwt>0</asrwt>
<pdfrwt beam="1">  1        1 0.22607809E+00 0.10292275E+04</pdfrwt>
<pdfrwt beam="2">  1       -1 0.13580974E+00 0.10292275E+04</pdfrwt>
<totfact> 0.31201080E+00</totfact>
</mgrwt>
</event>
<event>
12    1  0.3147868E-008  0.8660639E+03  0.7818608E-02  0.9469027E-01
          1   -1    0    0  501    0  0.00000000000E+00  0.00000000000E+00  0.19619575842E+04  0.19619575842E+04  0.00000000000E+00 0. -1.
         -1   -1    0    0    0  501 -0.00000000000E+00 -0.00000000000E+00 -0.43066137044E+03  0.43066137044E+03  0.00000000000E+00 0.  1.
         23    2    1    2    0    0  0.11979668871E+02  0.77097988943E+03  0.32690033669E+03  0.84177694540E+03  0.84682308129E+02 0.  0.
    5000000    2    1    2    0    0 -0.11979668871E+02 -0.77097988943E+03  0.12043958770E+04  0.15508420092E+04  0.59999000535E+03 0.  0.
         23    2    4    4    0    0 -0.28804894757E+03 -0.35401134414E+03  0.64766267237E+03  0.79747840808E+03  0.90601579436E+02 0.  0.
         23    2    4    4    0    0  0.27606927870E+03 -0.41696854529E+03  0.55673320466E+03  0.75336360112E+03  0.86763125336E+02 0.  0.
          5    1    3    3  502    0  0.42646108630E+02  0.59974246231E+03  0.24202649784E+03  0.64815787224E+03  0.47000000000E+01 0. -1.
         -5    1    3    3    0  502 -0.30666439759E+02  0.17123742712E+03  0.84873838847E+02  0.19361907317E+03  0.47000000000E+01 0.  1.
         11    1    5    5    0    0 -0.70088688443E+02 -0.89297308360E+02  0.23470194129E+03  0.26071331914E+03  0.00000000000E+00 0. -1.
        -11    1    5    5    0    0 -0.21796025913E+03 -0.26471403578E+03  0.41296073107E+03  0.53676508894E+03  0.00000000000E+00 0.  1.
          2    1    6    6  503    0  0.48388996723E+02 -0.86231512832E+02  0.16525022619E+03  0.19257467659E+03  0.00000000000E+00 0. -1.
         -2    1    6    6    0  503  0.22768028198E+03 -0.33073703246E+03  0.39148297847E+03  0.56078892453E+03  0.00000000000E+00 0.  1.
<mgrwt>
<rscale>  0 0.86606388E+03</rscale>
<asrwt>0</asrwt>
<pdfrwt beam="1">  1        1 0.30183962E+00 0.86606388E+03</pdfrwt>
<pdfrwt beam="2">  1       -1 0.66255597E-01 0.86606388E+03</pdfrwt>
<totfact> 0.75096270E+00</totfact>
</mgrwt>
</event>
<event>
12    1  0.3147868E-008  0.2279353E+03  0.7818608E-02  0.1128101E+00
         -2   -1    0    0    0  501 -0.00000000000E+00  0.00000000000E+00  0.35538712638E+03  0.35538712638E+03  0.00000000000E+00 0. -1.
          2   -1    0    0  501    0  0.00000000000E+00 -0.00000000000E+00 -0.46856501781E+03  0.46856501781E+03  0.00000000000E+00 0.  1.
         23    2    1    2    0    0 -0.91707179570E+02  0.13316535189E+03 -0.80300923111E+02  0.20184776820E+03  0.90283251757E+02 0.  0.
    5000000    2    1    2    0    0  0.91707179570E+02 -0.13316535189E+03 -0.32876968319E+02  0.62210437599E+03  0.59982475929E+03 0.  0.
         23    2    4    4    0    0  0.18324397670E+02  0.30506835463E+02  0.25399995651E+03  0.27228732346E+03  0.91421868563E+02 0.  0.
         23    2    4    4    0    0  0.73382781900E+02 -0.16367218735E+03 -0.28687692483E+03  0.34981705253E+03  0.88881846590E+02 0.  0.
          5    1    3    3  502    0 -0.60434798533E+01  0.60266884389E+01  0.17438087886E+02  0.19975523307E+02  0.47000000000E+01 0. -1.
         -5    1    3    3    0  502 -0.85663699716E+02  0.12713866345E+03 -0.97739010997E+02  0.18187224489E+03  0.47000000000E+01 0.  1.
         11    1    5    5    0    0  0.11092614315E+02  0.63253339645E+02  0.15566677266E+03  0.16839291903E+03  0.00000000000E+00 0. -1.
        -11    1    5    5    0    0  0.72317833546E+01 -0.32746504182E+02  0.98333183850E+02  0.10389440443E+03  0.00000000000E+00 0.  1.
          4    1    6    6  503    0 -0.11605502976E+02 -0.59168682026E+02 -0.54778986644E+02  0.81463844801E+02  0.00000000000E+00 0.  1.
         -4    1    6    6    0  503  0.84988284876E+02 -0.10450350532E+03 -0.23209793818E+03  0.26835320773E+03  0.00000000000E+00 0. -1.
<mgrwt>
<rscale>  0 0.22793532E+03</rscale>
<asrwt>0</asrwt>
<pdfrwt beam="1">  1        2 0.72086925E-01 0.22793532E+03</pdfrwt>
<pdfrwt beam="2">  1       -2 0.54674943E-01 0.22793532E+03</pdfrwt>
<totfact> 0.21728717E+02</totfact>
</mgrwt>
</event>
<event>
12    1  0.3147868E-008  0.1028471E+04  0.7818608E-02  0.9277858E-01
         -2   -1    0    0    0  501 -0.00000000000E+00  0.00000000000E+00  0.39954973884E+03  0.39954973884E+03  0.00000000000E+00 0. -1.
          2   -1    0    0  501    0  0.00000000000E+00 -0.00000000000E+00 -0.37251807102E+04  0.37251807102E+04  0.00000000000E+00 0.  1.
         23    2    1    2    0    0 -0.72389374131E+03  0.61809312466E+03 -0.49167782291E+03  0.10755609118E+04  0.94989125334E+02 0.  0.
    5000000    2    1    2    0    0  0.72389374131E+03 -0.61809312466E+03 -0.28339531484E+04  0.30491695372E+04  0.60006929590E+03 0.  0.
         23    2    4    4    0    0  0.30768799338E+03 -0.59772042582E+03 -0.14463525786E+04  0.15974448677E+04  0.89177996118E+02 0.  0.
         23    2    4    4    0    0  0.41620574793E+03 -0.20372698838E+02 -0.13876005699E+04  0.14517246696E+04  0.91798166082E+02 0.  0.
          5    1    3    3  502    0 -0.45941452215E+03  0.33884406176E+03 -0.31870462622E+03  0.65381322266E+03  0.47000000000E+01 0. -1.
         -5    1    3    3    0  502 -0.26447921916E+03  0.27924906289E+03 -0.17297319669E+03  0.42174768911E+03  0.47000000000E+01 0.  1.
         13    1    5    5    0    0  0.27041626490E+03 -0.44684059728E+03 -0.11384966840E+04  0.12525837997E+04  0.00000000000E+00 0.  1.
        -13    1    5    5    0    0  0.37271728482E+02 -0.15087982853E+03 -0.30785589452E+03  0.34486106796E+03  0.00000000000E+00 0. -1.
          1    1    6    6  503    0  0.50440390713E+02  0.22900768432E+02 -0.24680956998E+03  0.25294988050E+03  0.00000000000E+00 0. -1.
         -1    1    6    6    0  503  0.36576535722E+03 -0.43273467270E+02 -0.11407909999E+04  0.11987747891E+04  0.00000000000E+00 0.  1.
<mgrwt>
<rscale>  0 0.10284709E+04</rscale>
<asrwt>0</asrwt>
<pdfrwt beam="1">  1        2 0.57310472E+00 0.10284709E+04</pdfrwt>
<pdfrwt beam="2">  1       -2 0.61469191E-01 0.10284709E+04</pdfrwt>
<totfact> 0.14292461E+00</totfact>
</mgrwt>
</event>
<event>
12    1  0.3147868E-008  0.4569427E+03  0.7818608E-02  0.1025672E+00
         -1   -1    0    0    0  501 -0.00000000000E+00  0.00000000000E+00  0.15871816429E+03  0.15871816429E+03  0.00000000000E+00 0.  1.
          1   -1    0    0  501    0  0.00000000000E+00 -0.00000000000E+00 -0.23050586309E+04  0.23050586309E+04  0.00000000000E+00 0. -1.
         23    2    1    2    0    0  0.32874281710E+03 -0.71264404282E+02 -0.14249783591E+04  0.14670002542E+04  0.91520308682E+02 0.  0.
    5000000    2    1    2    0    0 -0.32874281710E+03  0.71264404282E+02 -0.72136210752E+03  0.99677654097E+03  0.60004143802E+03 0.  0.
         23    2    4    4    0    0 -0.41846202734E+03 -0.66605776264E+01 -0.23813987184E+03  0.49042272599E+03  0.93000107432E+02 0.  0.
         23    2    4    4    0    0  0.89719210236E+02  0.77924981909E+02 -0.48322223568E+03  0.50635381498E+03  0.93640895972E+02 0.  0.
          5    1    3    3  502    0  0.11493658564E+03 -0.23062311675E+02 -0.69435173409E+03  0.70419365914E+03  0.47000000000E+01 0. -1.
         -5    1    3    3    0  502  0.21380623147E+03 -0.48202092607E+02 -0.73062662503E+03  0.76280659511E+03  0.47000000000E+01 0.  1.
         11    1    5    5    0    0 -0.20576831587E+03  0.39520943751E+02 -0.13761569687E+03  0.25068024421E+03  0.00000000000E+00 0.  1.
        -11    1    5    5    0    0 -0.21269371147E+03 -0.46181521378E+02 -0.10052417498E+03  0.23974248178E+03  0.00000000000E+00 0. -1.
          3    1    6    6  503    0  0.21335352602E+02 -0.20977322765E+02 -0.73635539868E+02  0.79482312955E+02  0.00000000000E+00 0. -1.
         -3    1    6    6    0  503  0.68383857634E+02  0.98902304674E+02 -0.40958669582E+03  0.42687150203E+03  0.00000000000E+00 0.  1.
<mgrwt>
<rscale>  0 0.45694274E+03</rscale>
<asrwt>0</asrwt>
<pdfrwt beam="1">  1        1 0.35462440E+00 0.45694274E+03</pdfrwt>
<pdfrwt beam="2">  1       -1 0.24418179E-01 0.45694274E+03</pdfrwt>
<totfact> 0.29526794E+01</totfact>
</mgrwt>
</event>
<event>
12    1  0.3147868E-008  0.8807213E+03  0.7818608E-02  0.9450007E-01
          1   -1    0    0  501    0  0.00000000000E+00  0.00000000000E+00  0.10088916515E+04  0.10088916515E+04  0.00000000000E+00 0. -1.
         -1   -1    0    0    0  501 -0.00000000000E+00 -0.00000000000E+00 -0.90698843926E+03  0.90698843926E+03  0.00000000000E+00 0.  1.
         23    2    1    2    0    0  0.58313677362E+03  0.53630211202E+03  0.38052037553E+03  0.88366505956E+03  0.91650036503E+02 0.  0.
    5000000    2    1    2    0    0 -0.58313677362E+03 -0.53630211202E+03 -0.27861716325E+03  0.10322150312E+04  0.60014322869E+03 0.  0.
         23    2    4    4    0    0 -0.49691091473E+02  0.11297384052E+03 -0.47905247742E+02  0.15687236057E+03  0.84153024520E+02 0.  0.
         23    2    4    4    0    0 -0.53344568214E+03 -0.64927595254E+03 -0.23071191551E+03  0.87534267066E+03  0.82905034715E+02 0.  0.
          5    1    3    3  502    0  0.45466332031E+03  0.39987006117E+03  0.32965491854E+03  0.68942675896E+03  0.47000000000E+01 0. -1.
         -5    1    3    3    0  502  0.12847345331E+03  0.13643205086E+03  0.50865456989E+02  0.19423830060E+03  0.47000000000E+01 0.  1.
         11    1    5    5    0    0 -0.36818886252E+02  0.53380363622E+02 -0.66745966742E+02  0.93059753285E+02  0.00000000000E+00 0.  1.
        -11    1    5    5    0    0 -0.12872205221E+02  0.59593476896E+02  0.18840719000E+02  0.63812607283E+02  0.00000000000E+00 0. -1.
          1    1    6    6  503    0 -0.38970871761E+03 -0.42841124679E+03 -0.18434904963E+03  0.60777763455E+03  0.00000000000E+00 0. -1.
         -1    1    6    6    0  503 -0.14373696454E+03 -0.22086470575E+03 -0.46362865883E+02  0.26756503612E+03  0.00000000000E+00 0.  1.
<mgrwt>
<rscale>  0 0.88072134E+03</rscale>
<asrwt>0</asrwt>
<pdfrwt beam="1">  1        1 0.15521410E+00 0.88072134E+03</pdfrwt>
<pdfrwt beam="2">  1       -1 0.13953668E+00 0.88072134E+03</pdfrwt>
<totfact> 0.64008975E+00</totfact>
</mgrwt>
</event>
<event>
12    1  0.3147868E-008  0.3581162E+03  0.7818608E-02  0.1059332E+00
         -2   -1    0    0    0  501 -0.00000000000E+00  0.00000000000E+00  0.56402691712E+03  0.56402691712E+03  0.00000000000E+00 0.  1.
          2   -1    0    0  501    0  0.00000000000E+00 -0.00000000000E+00 -0.24726957558E+03  0.24726957558E+03  0.00000000000E+00 0. -1.
         23    2    1    2    0    0  0.10383402068E+03 -0.68788668498E+01  0.57580958423E+02  0.14943999479E+03  0.90487140579E+02 0.  0.
    5000000    2    1    2    0    0 -0.10383402068E+03  0.68788668498E+01  0.25917638312E+03  0.66185649791E+03  0.60004400138E+03 0.  0.
         23    2    4    4    0    0  0.16492098652E+03 -0.18316756927E+03  0.14751548349E+03  0.30229780636E+03  0.94201144527E+02 0.  0.
         23    2    4    4    0    0 -0.26875500720E+03  0.19004643612E+03  0.11166089962E+03  0.35955869155E+03  0.92018445901E+02 0.  0.
          5    1    3    3  502    0  0.46590698427E+02 -0.48072621747E+02  0.31029573593E+02  0.73936422547E+02  0.47000000000E+01 0. -1.
         -5    1    3    3    0  502  0.57243322254E+02  0.41193754898E+02  0.26551384830E+02  0.75503572244E+02  0.47000000000E+01 0.  1.
         13    1    5    5    0    0  0.44690366831E+02 -0.70456226315E+02  0.10110683042E+03  0.13108737495E+03  0.00000000000E+00 0. -1.
        -13    1    5    5    0    0  0.12023061969E+03 -0.11271134296E+03  0.46408653074E+02  0.17121043141E+03  0.00000000000E+00 0.  1.
          3    1    6    6  503    0 -0.30314177754E+02  0.32358886211E+02  0.50536477651E+02  0.67230814833E+02  0.00000000000E+00 0. -1.
         -3    1    6    6    0  503 -0.23844082945E+03  0.15768754991E+03  0.61124421970E+02  0.29232787672E+03  0.00000000000E+00 0.  1.
<mgrwt>
<rscale>  0 0.35811619E+03</rscale>
<asrwt>0</asrwt>
<pdfrwt beam="1">  1        2 0.38041473E-01 0.35811619E+03</pdfrwt>
<pdfrwt beam="2">  1       -2 0.86773372E-01 0.35811619E+03</pdfrwt>
<totfact> 0.16060049E+02</totfact>
</mgrwt>
</event>
<event>
12    1  0.3147868E-008  0.6958106E+03  0.7818608E-02  0.9724423E-01
          1   -1    0    0  501    0  0.00000000000E+00  0.00000000000E+00  0.11461548410E+04  0.11461548410E+04  0.00000000000E+00 0. -1.
         -1   -1    0    0    0  501 -0.00000000000E+00 -0.00000000000E+00 -0.53038012478E+03  0.53038012478E+03  0.00000000000E+00 0.  1.
         23    2    1    2    0    0  0.40998651969E+03 -0.51647144061E+03  0.22090755096E+03  0.70149617930E+03  0.92005696619E+02 0.  0.
    5000000    2    1    2    0    0 -0.40998651969E+03  0.51647144061E+03  0.39486716523E+03  0.97503878645E+03  0.59995738316E+03 0.  0.
         23    2    4    4    0    0 -0.25472333660E+03  0.93665701774E+02  0.42738584930E+03  0.51484013395E+03  0.93511803784E+02 0.  0.
         23    2    4    4    0    0 -0.15526318309E+03  0.42280573883E+03 -0.32518684061E+02  0.46019865250E+03  0.88622717959E+02 0.  0.
          5    1    3    3  502    0  0.32104171684E+03 -0.33809642917E+03  0.16194188894E+03  0.49358306775E+03  0.47000000000E+01 0. -1.
         -5    1    3    3    0  502  0.88944802849E+02 -0.17837501144E+03  0.58965662019E+02  0.20791311156E+03  0.47000000000E+01 0.  1.
         13    1    5    5    0    0 -0.22850030544E+03  0.73480714351E+02  0.30533623001E+03  0.38838385436E+03  0.00000000000E+00 0. -1.
        -13    1    5    5    0    0 -0.26223031163E+02  0.20184987424E+02  0.12204961929E+03  0.12645627959E+03  0.00000000000E+00 0.  1.
          3    1    6    6  503    0 -0.14454937521E+03  0.34112480299E+03 -0.55623560846E+02  0.37463933804E+03  0.00000000000E+00 0. -1.
         -3    1    6    6    0  503 -0.10713807883E+02  0.81680935845E+02  0.23104876785E+02  0.85559314462E+02  0.00000000000E+00 0.  1.
<mgrwt>
<rscale>  0 0.69581064E+03</rscale>
<asrwt>0</asrwt>
<pdfrwt beam="1">  1        1 0.17633151E+00 0.69581064E+03</pdfrwt>
<pdfrwt beam="2">  1       -1 0.81596942E-01 0.69581064E+03</pdfrwt>
<totfact> 0.18182678E+01</totfact>
</mgrwt>
</event>
<event>
12    1  0.3147868E-008  0.9185688E+03  0.7818608E-02  0.9402663E-01
         -1   -1    0    0    0  501 -0.00000000000E+00  0.00000000000E+00  0.51924079913E+03  0.51924079913E+03  0.00000000000E+00 0.  1.
          1   -1    0    0  501    0  0.00000000000E+00 -0.00000000000E+00 -0.16585956379E+04  0.16585956379E+04  0.00000000000E+00 0. -1.
         23    2    1    2    0    0  0.81246718592E+03 -0.12513532382E+03 -0.62868622551E+03  0.10391545109E+04  0.93989094754E+02 0.  0.
    5000000    2    1    2    0    0 -0.81246718592E+03  0.12513532382E+03 -0.51066861325E+03  0.11386819261E+04  0.60004359744E+03 0.  0.
         23    2    4    4    0    0 -0.18340660216E+03 -0.21398368794E+03 -0.17652445981E+03  0.34493022967E+03  0.91591364259E+02 0.  0.
         23    2    4    4    0    0 -0.62906058375E+03  0.33911901177E+03 -0.33414415344E+03  0.79375169644E+03  0.87581494310E+02 0.  0.
          5    1    3    3  502    0  0.24102579949E+03 -0.78181918480E+02 -0.21087747813E+03  0.32969265867E+03  0.47000000000E+01 0. -1.
         -5    1    3    3    0  502  0.57144138643E+03 -0.46953405340E+02 -0.41780874738E+03  0.70946185224E+03  0.47000000000E+01 0.  1.
         11    1    5    5    0    0 -0.18709964398E+03 -0.17786305068E+03 -0.16677180969E+03  0.30733430996E+03  0.00000000000E+00 0.  1.
        -11    1    5    5    0    0  0.36930418131E+01 -0.36120637270E+02 -0.97526501201E+01  0.37595919712E+02  0.00000000000E+00 0. -1.
          1    1    6    6  503    0 -0.91050135904E+02  0.66293576790E+02 -0.22802920711E+02  0.11491274414E+03  0.00000000000E+00 0. -1.
         -1    1    6    6    0  503 -0.53801044785E+03  0.27282543497E+03 -0.31134123273E+03  0.67883895230E+03  0.00000000000E+00 0.  1.
<mgrwt>
<rscale>  0 0.91856877E+03</rscale>
<asrwt>0</asrwt>
<pdfrwt beam="1">  1        1 0.25516856E+00 0.91856877E+03</pdfrwt>
<pdfrwt beam="2">  1       -1 0.79883198E-01 0.91856877E+03</pdfrwt>
<totfact> 0.80977915E+00</totfact>
</mgrwt>
</event>
<event>
12    1  0.3147868E-008  0.7710165E+03  0.7818608E-02  0.9602944E-01
          2   -1    0    0  501    0  0.00000000000E+00  0.00000000000E+00  0.14649174233E+04  0.14649174233E+04  0.00000000000E+00 0. -1.
         -2   -1    0    0    0  501 -0.00000000000E+00 -0.00000000000E+00 -0.78656442873E+03  0.78656442873E+03  0.00000000000E+00 0.  1.
         23    2    1    2    0    0 -0.49681201067E+02  0.71242916800E+03 -0.40167842524E+03  0.82446219467E+03  0.91481211120E+02 0.  0.
    5000000    2    1    2    0    0  0.49681201067E+02 -0.71242916800E+03  0.10800314199E+04  0.14270196574E+04  0.59991140479E+03 0.  0.
         23    2    4    4    0    0 -0.81691675460E+02 -0.41732356865E+01 -0.46638157924E+01  0.12175818331E+03  0.90068631003E+02 0.  0.
         23    2    4    4    0    0  0.13137287653E+03 -0.70825593231E+03  0.10846952356E+04  0.13052614741E+04  0.90876086896E+02 0.  0.
          5    1    3    3  502    0 -0.73130935812E+02  0.43031161342E+03 -0.25630660649E+03  0.50619303131E+03  0.47000000000E+01 0. -1.
         -5    1    3    3    0  502  0.23449734745E+02  0.28211755457E+03 -0.14537181874E+03  0.31826916336E+03  0.47000000000E+01 0.  1.
         11    1    5    5    0    0 -0.61217649017E+02  0.24726042412E+02  0.29713513971E+02  0.72400764064E+02  0.00000000000E+00 0. -1.
        -11    1    5    5    0    0 -0.20474026443E+02 -0.28899278099E+02 -0.34377329763E+02  0.49357419251E+02  0.00000000000E+00 0.  1.
          1    1    6    6  503    0  0.27690290341E+02 -0.22542944316E+03  0.41626122026E+03  0.47419256586E+03  0.00000000000E+00 0. -1.
         -1    1    6    6    0  503  0.10368258619E+03 -0.48282648915E+03  0.66843401539E+03  0.83106890823E+03  0.00000000000E+00 0.  1.
<mgrwt>
<rscale>  0 0.77101651E+03</rscale>
<asrwt>0</asrwt>
<pdfrwt beam="1">  1        2 0.22537191E+00 0.77101651E+03</pdfrwt>
<pdfrwt beam="2">  1       -2 0.12100991E+00 0.77101651E+03</pdfrwt>
<totfact> 0.70584594E+00</totfact>
</mgrwt>
</event>
<event>
12    1  0.3147868E-008  0.1045596E+04  0.7818608E-02  0.9259902E-01
          1   -1    0    0  501    0  0.00000000000E+00  0.00000000000E+00  0.31485186246E+04  0.31485186246E+04  0.00000000000E+00 0. -1.
         -1   -1    0    0    0  501 -0.00000000000E+00 -0.00000000000E+00 -0.35456264765E+03  0.35456264765E+03  0.00000000000E+00 0.  1.
         23    2    1    2    0    0  0.81463652072E+03 -0.51805492362E+03  0.14263118515E+04  0.17247063136E+04  0.90734809465E+02 0.  0.
    5000000    2    1    2    0    0 -0.81463652072E+03  0.51805492362E+03  0.13676441255E+04  0.17783749587E+04  0.60012788217E+03 0.  0.
         23    2    4    4    0    0  0.47985982862E+02  0.14863792658E+03  0.13274856251E+03  0.22462090780E+03  0.91850332619E+02 0.  0.
         23    2    4    4    0    0 -0.86262250359E+03  0.36941699704E+03  0.12348955630E+04  0.15537540509E+04  0.92725928541E+02 0.  0.
          5    1    3    3  502    0  0.62778580452E+03 -0.42816566751E+03  0.11678491197E+04  0.13933178071E+04  0.47000000000E+01 0. -1.
         -5    1    3    3    0  502  0.18685071621E+03 -0.89889256113E+02  0.25846273179E+03  0.33138850649E+03  0.47000000000E+01 0.  1.
         11    1    5    5    0    0  0.68024062874E+02  0.61275494427E+02  0.68423167516E+02  0.11429649688E+03  0.00000000000E+00 0. -1.
        -11    1    5    5    0    0 -0.20038080012E+02  0.87362432155E+02  0.64325394992E+02  0.11032441091E+03  0.00000000000E+00 0.  1.
          2    1    6    6  503    0 -0.23631726490E+03  0.58435468072E+02  0.30282753117E+03  0.38854223356E+03  0.00000000000E+00 0. -1.
         -2    1    6    6    0  503 -0.62630523868E+03  0.31098152897E+03  0.93206803181E+03  0.11652118173E+04  0.00000000000E+00 0.  1.
<mgrwt>
<rscale>  0 0.10455963E+04</rscale>
<asrwt>0</asrwt>
<pdfrwt beam="1">  1        1 0.48438746E+00 0.10455963E+04</pdfrwt>
<pdfrwt beam="2">  1       -1 0.54548102E-01 0.10455963E+04</pdfrwt>
<totfact> 0.16147309E+00</totfact>
</mgrwt>
</event>
<event>
12    1  0.3147868E-008  0.2413552E+04  0.7818608E-02  0.8434447E-01
         -1   -1    0    0    0  501 -0.00000000000E+00  0.00000000000E+00  0.15220971440E+04  0.15220971440E+04  0.00000000000E+00 0.  1.
          1   -1    0    0  501    0  0.00000000000E+00 -0.00000000000E+00 -0.38875163486E+04  0.38875163486E+04  0.00000000000E+00 0. -1.
         23    2    1    2    0    0  0.23166515054E+04 -0.56619095254E+03 -0.92300287983E+03  0.25586450716E+04  0.85345731814E+02 0.  0.
    5000000    2    1    2    0    0 -0.23166515054E+04  0.56619095254E+03 -0.14424163248E+04  0.28509684210E+04  0.60000807592E+03 0.  0.
         23    2    4    4    0    0 -0.47068478073E+03 -0.76635335399E+02 -0.16794218482E+03  0.51530437863E+03  0.99583571708E+02 0.  0.
         23    2    4    4    0    0 -0.18459667247E+04  0.64282628794E+03 -0.12744741400E+04  0.23356640424E+04  0.10111083120E+03 0.  0.
          5    1    3    3  502    0  0.77114459109E+03 -0.14780970695E+03 -0.30915171092E+03  0.84386525003E+03  0.47000000000E+01 0. -1.
         -5    1    3    3    0  502  0.15455069143E+04 -0.41838124558E+03 -0.61385116891E+03  0.17147798216E+04  0.47000000000E+01 0.  1.
         13    1    5    5    0    0 -0.34791205096E+03 -0.13889689384E+02 -0.13576877202E+03  0.37372299653E+03  0.00000000000E+00 0.  1.
        -13    1    5    5    0    0 -0.12277272977E+03 -0.62745646015E+02 -0.32173412801E+02  0.14158138211E+03  0.00000000000E+00 0. -1.
          1    1    6    6  503    0 -0.95450079725E+03  0.32974902585E+03 -0.71859588599E+03  0.12394298041E+04  0.00000000000E+00 0. -1.
         -1    1    6    6    0  503 -0.89146592745E+03  0.31307726208E+03 -0.55587825402E+03  0.10962342383E+04  0.00000000000E+00 0.  1.
<mgrwt>
<rscale>  0 0.24135517E+04</rscale>
<asrwt>0</asrwt>
<pdfrwt beam="1">  1        1 0.59807943E+00 0.24135517E+04</pdfrwt>
<pdfrwt beam="2">  1       -1 0.23416879E+00 0.24135517E+04</pdfrwt>
<totfact> 0.90768166E-03</totfact>
</mgrwt>
</event>
<event>
12    1  0.3147868E-008  0.8955335E+03  0.7818608E-02  0.9431182E-01
         -2   -1    0    0    0  501 -0.00000000000E+00  0.00000000000E+00  0.55270552075E+03  0.55270552075E+03  0.00000000000E+00 0.  1.
          2   -1    0    0  501    0  0.00000000000E+00 -0.00000000000E+00 -0.16941202100E+04  0.16941202100E+04  0.00000000000E+00 0. -1.
         23    2    1    2    0    0 -0.23203673492E+03  0.82309331678E+03 -0.71504093401E+03  0.11184527726E+04  0.91265616136E+02 0.  0.
    5000000    2    1    2    0    0  0.23203673492E+03 -0.82309331678E+03 -0.42637375528E+03  0.11283729582E+04  0.60008940927E+03 0.  0.
         23    2    4    4    0    0  0.16421798232E+03 -0.10985318264E+03  0.94994318123E+02  0.23764861849E+03  0.91747904288E+02 0.  0.
         23    2    4    4    0    0  0.67818752601E+02 -0.71324013415E+03 -0.52136807340E+03  0.89072433971E+03  0.90853229030E+02 0.  0.
          5    1    3    3  502    0 -0.52007563192E+02  0.20958018968E+03 -0.23297315597E+03  0.31769045302E+03  0.47000000000E+01 0. -1.
         -5    1    3    3    0  502 -0.18002917173E+03  0.61351312711E+03 -0.48206777804E+03  0.80076231956E+03  0.47000000000E+01 0.  1.
         13    1    5    5    0    0  0.38954159603E+02  0.10652848081E+02  0.35973845298E+02  0.54083521225E+02  0.00000000000E+00 0. -1.
        -13    1    5    5    0    0  0.12526382272E+03 -0.12050603072E+03  0.59020472826E+02  0.18356509727E+03  0.00000000000E+00 0.  1.
          3    1    6    6  503    0  0.70957580646E+02 -0.30194167362E+03 -0.24385602929E+03  0.39454976307E+03  0.00000000000E+00 0. -1.
         -3    1    6    6    0  503 -0.31388280451E+01 -0.41129846053E+03 -0.27751204411E+03  0.49617457664E+03  0.00000000000E+00 0.  1.
<mgrwt>
<rscale>  0 0.89553353E+03</rscale>
<asrwt>0</asrwt>
<pdfrwt beam="1">  1        2 0.26063388E+00 0.89553353E+03</pdfrwt>
<pdfrwt beam="2">  1       -2 0.85031619E-01 0.89553353E+03</pdfrwt>
<totfact> 0.12010254E+01</totfact>
</mgrwt>
</event>
<event>
12    1  0.3147868E-008  0.1130721E+04  0.7818608E-02  0.9175755E-01
          1   -1    0    0  501    0  0.00000000000E+00  0.00000000000E+00  0.17656579840E+04  0.17656579840E+04  0.00000000000E+00 0. -1.
         -1   -1    0    0    0  501 -0.00000000000E+00 -0.00000000000E+00 -0.76863105900E+03  0.76863105900E+03  0.00000000000E+00 0.  1.
         23    2    1    2    0    0 -0.25571909727E+03  0.10534761027E+04  0.52753508307E+03  0.12092728818E+04  0.94039795349E+02 0.  0.
    5000000    2    1    2    0    0  0.25571909727E+03 -0.10534761027E+04  0.46949184197E+03  0.13250161613E+04  0.60003423425E+03 0.  0.
         23    2    4    4    0    0  0.33980211832E+03 -0.48307131703E+03  0.36563181529E+02  0.59888160228E+03  0.92189643436E+02 0.  0.
         23    2    4    4    0    0 -0.84083021052E+02 -0.57040478566E+03  0.43292866044E+03  0.72613455898E+03  0.86096450414E+02 0.  0.
          5    1    3    3  502    0 -0.23282044588E+03  0.93186860863E+03  0.49807888517E+03  0.10819838860E+04  0.47000000000E+01 0. -1.
         -5    1    3    3    0  502 -0.22898651383E+02  0.12160749406E+03  0.29456197902E+02  0.12728899576E+03  0.47000000000E+01 0.  1.
         11    1    5    5    0    0  0.11012686958E+03 -0.10727578825E+03 -0.19229793302E+02  0.15493807504E+03  0.00000000000E+00 0. -1.
        -11    1    5    5    0    0  0.22967524874E+03 -0.37579552878E+03  0.55792974831E+02  0.44394352724E+03  0.00000000000E+00 0.  1.
          2    1    6    6  503    0 -0.51918561149E+02 -0.11265865518E+03  0.95642367889E+02  0.15663643291E+03  0.00000000000E+00 0. -1.
         -2    1    6    6    0  503 -0.32164459903E+02 -0.45774613049E+03  0.33728629256E+03  0.56949812607E+03  0.00000000000E+00 0.  1.
<mgrwt>
<rscale>  0 0.11307215E+04</rscale>
<asrwt>0</asrwt>
<pdfrwt beam="1">  1        1 0.27163969E+00 0.11307215E+04</pdfrwt>
<pdfrwt beam="2">  1       -1 0.11825093E+00 0.11307215E+04</pdfrwt>
<totfact> 0.27354713E+00</totfact>
</mgrwt>
</event>
<event>
12    1  0.3147868E-008  0.1227742E+04  0.7818608E-02  0.9088914E-01
          1   -1    0    0  501    0  0.00000000000E+00  0.00000000000E+00  0.28741200775E+04  0.28741200775E+04  0.00000000000E+00 0. -1.
         -1   -1    0    0    0  501 -0.00000000000E+00 -0.00000000000E+00 -0.59243629317E+03  0.59243629317E+03  0.00000000000E+00 0.  1.
         23    2    1    2    0    0  0.11132753377E+04 -0.34431975296E+03  0.16217956571E+04  0.19990852420E+04  0.90457623060E+02 0.  0.
    5000000    2    1    2    0    0 -0.11132753377E+04  0.34431975296E+03  0.65988812721E+03  0.14674711286E+04  0.60006758206E+03 0.  0.
         23    2    4    4    0    0 -0.11806262924E+03 -0.13571333058E+03  0.89873027241E+02  0.22089494587E+03  0.91435898661E+02 0.  0.
         23    2    4    4    0    0 -0.99521270850E+03  0.48003308354E+03  0.57001509997E+03  0.12465761828E+04  0.90304312213E+02 0.  0.
          5    1    3    3  502    0  0.24698044717E+03 -0.10651836479E+03  0.41670098953E+03  0.49599123783E+03  0.47000000000E+01 0. -1.
         -5    1    3    3    0  502  0.86629489057E+03 -0.23780138817E+03  0.12050946676E+04  0.15030940042E+04  0.47000000000E+01 0.  1.
         11    1    5    5    0    0 -0.31511771606E+02 -0.26652890621E+02 -0.17740936113E+02  0.44923369668E+02  0.00000000000E+00 0. -1.
        -11    1    5    5    0    0 -0.86550857637E+02 -0.10906043996E+03  0.10761396335E+03  0.17597157620E+03  0.00000000000E+00 0.  1.
          4    1    6    6  503    0 -0.40811005420E+03  0.15505919276E+03  0.19888956195E+03  0.47974391862E+03  0.00000000000E+00 0. -1.
         -4    1    6    6    0  503 -0.58710265430E+03  0.32497389077E+03  0.37112553802E+03  0.76683226415E+03  0.00000000000E+00 0.  1.
<mgrwt>
<rscale>  0 0.12277423E+04</rscale>
<asrwt>0</asrwt>
<pdfrwt beam="1">  1        1 0.44217231E+00 0.12277423E+04</pdfrwt>
<pdfrwt beam="2">  1       -1 0.91144047E-01 0.12277423E+04</pdfrwt>
<totfact> 0.85888414E-01</totfact>
</mgrwt>
</event>
<event>
12    1  0.3147868E-008  0.5968101E+03  0.7818608E-02  0.9912046E-01
          2   -1    0    0  501    0  0.00000000000E+00  0.00000000000E+00  0.18376097842E+04  0.18376097842E+04  0.00000000000E+00 0. -1.
         -2   -1    0    0    0  501 -0.00000000000E+00 -0.00000000000E+00 -0.20375634218E+03  0.20375634218E+03  0.00000000000E+00 0.  1.
         23    2    1    2    0    0  0.35270707236E+03  0.27807105918E+03  0.78418067694E+03  0.90835033690E+03  0.91843386389E+02 0.  0.
    5000000    2    1    2    0    0 -0.35270707236E+03 -0.27807105918E+03  0.84967276513E+03  0.11330157895E+04  0.60004598046E+03 0.  0.
         23    2    4    4    0    0 -0.30656543260E+03  0.11677842439E+03  0.41544267146E+03  0.53725717737E+03  0.91831892582E+02 0.  0.
         23    2    4    4    0    0 -0.46141639750E+02 -0.39484948357E+03  0.43423009367E+03  0.59575861215E+03  0.91309277251E+02 0.  0.
          5    1    3    3  502    0  0.22357246768E+03  0.13401641899E+03  0.38828439925E+03  0.46768783774E+03  0.47000000000E+01 0. -1.
         -5    1    3    3    0  502  0.12913460467E+03  0.14405464019E+03  0.39589627768E+03  0.44066249916E+03  0.47000000000E+01 0.  1.
         13    1    5    5    0    0 -0.15323511963E+03  0.98740239891E+02  0.26536571586E+03  0.32194657944E+03  0.00000000000E+00 0. -1.
        -13    1    5    5    0    0 -0.15333031298E+03  0.18038184502E+02  0.15007695560E+03  0.21531059793E+03  0.00000000000E+00 0.  1.
          4    1    6    6  503    0  0.16154583568E+02 -0.10609397368E+03  0.16022934755E+03  0.19284798583E+03  0.00000000000E+00 0. -1.
         -4    1    6    6    0  503 -0.62296223318E+02 -0.28875550989E+03  0.27400074612E+03  0.40291062632E+03  0.00000000000E+00 0.  1.
<mgrwt>
<rscale>  0 0.59681012E+03</rscale>
<asrwt>0</asrwt>
<pdfrwt beam="1">  1        2 0.28270919E+00 0.59681012E+03</pdfrwt>
<pdfrwt beam="2">  1       -2 0.31347131E-01 0.59681012E+03</pdfrwt>
<totfact> 0.80996274E+01</totfact>
</mgrwt>
</event>
<event>
12    1  0.3147868E-008  0.7660565E+03  0.7818608E-02  0.9610492E-01
          2   -1    0    0  501    0  0.00000000000E+00  0.00000000000E+00  0.22794094808E+04  0.22794094808E+04  0.00000000000E+00 0. -1.
         -2   -1    0    0    0  501 -0.00000000000E+00 -0.00000000000E+00 -0.31476312297E+03  0.31476312297E+03  0.00000000000E+00 0.  1.
         23    2    1    2    0    0 -0.66050986615E+03  0.42384537142E+02  0.13604872609E+04  0.15157778591E+04  0.92667140232E+02 0.  0.
    5000000    2    1    2    0    0  0.66050986615E+03 -0.42384537142E+02  0.60415909699E+03  0.10783947447E+04  0.59988105374E+03 0.  0.
         23    2    4    4    0    0  0.58015941921E+02  0.20209330813E+03  0.21918530654E+03  0.31742814258E+03  0.92254389565E+02 0.  0.
         23    2    4    4    0    0  0.60249392423E+03 -0.24447784527E+03  0.38497379045E+03  0.76096660211E+03  0.89983357517E+02 0.  0.
          5    1    3    3  502    0 -0.17451126679E+03  0.37458874673E+02  0.43999748006E+03  0.47484441872E+03  0.47000000000E+01 0. -1.
         -5    1    3    3    0  502 -0.48599859936E+03  0.49256624690E+01  0.92048978083E+03  0.10409334404E+04  0.47000000000E+01 0.  1.
         13    1    5    5    0    0  0.37741474026E+02  0.83902891464E+02  0.15792768156E+03  0.18277107720E+03  0.00000000000E+00 0.  1.
        -13    1    5    5    0    0  0.20274467895E+02  0.11819041667E+03  0.61257624980E+02  0.13465706539E+03  0.00000000000E+00 0. -1.
          3    1    6    6  503    0  0.86500607105E+02 -0.47292831968E+01  0.38461465765E+02  0.94783993891E+02  0.00000000000E+00 0. -1.
         -3    1    6    6    0  503  0.51599331713E+03 -0.23974856208E+03  0.34651232469E+03  0.66618260822E+03  0.00000000000E+00 0.  1.
<mgrwt>
<rscale>  0 0.76605651E+03</rscale>
<asrwt>0</asrwt>
<pdfrwt beam="1">  1        2 0.35067837E+00 0.76605651E+03</pdfrwt>
<pdfrwt beam="2">  1       -2 0.48425097E-01 0.76605651E+03</pdfrwt>
<totfact> 0.19527426E+01</totfact>
</mgrwt>
</event>
<event>
12    1  0.3147868E-008  0.2772668E+03  0.7818608E-02  0.1097191E+00
         -2   -1    0    0    0  501 -0.00000000000E+00  0.00000000000E+00  0.15990211534E+04  0.15990211534E+04  0.00000000000E+00 0.  1.
          2   -1    0    0  501    0  0.00000000000E+00 -0.00000000000E+00 -0.16377801681E+03  0.16377801681E+03  0.00000000000E+00 0. -1.
         23    2    1    2    0    0 -0.16902790917E+03  0.32638130414E+02 -0.29759602277E+01  0.19493277613E+03  0.91401582229E+02 0.  0.
    5000000    2    1    2    0    0  0.16902790917E+03 -0.32638130414E+02  0.14382190968E+04  0.15678663940E+04  0.60007930943E+03 0.  0.
         23    2    4    4    0    0  0.89722767969E+02  0.11784769717E+03  0.13400543796E+04  0.13513071835E+04  0.91362515290E+02 0.  0.
         23    2    4    4    0    0  0.79305141201E+02 -0.15048582759E+03  0.98164717208E+02  0.21655921053E+03  0.91248508125E+02 0.  0.
          5    1    3    3  502    0 -0.62736245520E+02 -0.31111619072E+02 -0.89714976890E+01  0.70755544758E+02  0.47000000000E+01 0. -1.
         -5    1    3    3    0  502 -0.10629166365E+03  0.63749749486E+02  0.59955374613E+01  0.12417723137E+03  0.47000000000E+01 0.  1.
         13    1    5    5    0    0  0.56957727714E+02  0.12616693929E+02  0.31608854758E+03  0.32142702691E+03  0.00000000000E+00 0. -1.
        -13    1    5    5    0    0  0.32765040255E+02  0.10523100324E+03  0.10239658320E+04  0.10298801566E+04  0.00000000000E+00 0.  1.
          3    1    6    6  503    0  0.96524318644E+02 -0.10255737587E+03  0.82758584519E+02  0.16335220460E+03  0.00000000000E+00 0. -1.
         -3    1    6    6    0  503 -0.17219177443E+02 -0.47928451718E+02  0.15406132688E+02  0.53207005933E+02  0.00000000000E+00 0.  1.
<mgrwt>
<rscale>  0 0.27726678E+03</rscale>
<asrwt>0</asrwt>
<pdfrwt beam="1">  1        2 0.25196619E-01 0.27726678E+03</pdfrwt>
<pdfrwt beam="2">  1       -2 0.24600324E+00 0.27726678E+03</pdfrwt>
<totfact> 0.16193906E+01</totfact>
</mgrwt>
</event>
<event>
12    1  0.3147868E-008  0.5752061E+03  0.7818608E-02  0.9958224E-01
          2   -1    0    0  501    0  0.00000000000E+00  0.00000000000E+00  0.87223593403E+03  0.87223593403E+03  0.00000000000E+00 0. -1.
         -2   -1    0    0    0  501 -0.00000000000E+00 -0.00000000000E+00 -0.83434831890E+03  0.83434831890E+03  0.00000000000E+00 0.  1.
         23    2    1    2    0    0 -0.17732547865E+03  0.53308339704E+03 -0.47056927553E+03  0.74008494419E+03  0.10328624288E+03 0.  0.
    5000000    2    1    2    0    0  0.17732547865E+03 -0.53308339704E+03  0.50845689067E+03  0.96649930874E+03  0.59997522495E+03 0.  0.
         23    2    4    4    0    0  0.31468131145E+02 -0.16910660636E+03  0.52818366159E+03  0.56317869369E+03  0.92762994047E+02 0.  0.
         23    2    4    4    0    0  0.14585734750E+03 -0.36397679068E+03 -0.19726770920E+02  0.40332061505E+03  0.92330401598E+02 0.  0.
          5    1    3    3  502    0 -0.76981402646E+02  0.38252386390E+03 -0.32059170708E+03  0.50502650966E+03  0.47000000000E+01 0. -1.
         -5    1    3    3    0  502 -0.10034407600E+03  0.15055953314E+03 -0.14997756845E+03  0.23505843454E+03  0.47000000000E+01 0.  1.
         11    1    5    5    0    0  0.53738372599E+02 -0.89794278321E+02  0.37403754135E+03  0.38840044728E+03  0.00000000000E+00 0. -1.
        -11    1    5    5    0    0 -0.22270241454E+02 -0.79312328036E+02  0.15414612024E+03  0.17477824641E+03  0.00000000000E+00 0.  1.
          2    1    6    6  503    0  0.58349783259E+02 -0.13697184289E+03 -0.52430871606E+02  0.15784479481E+03  0.00000000000E+00 0. -1.
         -2    1    6    6    0  503  0.87507564243E+02 -0.22700494779E+03  0.32704100687E+02  0.24547582024E+03  0.00000000000E+00 0.  1.
<mgrwt>
<rscale>  0 0.57520612E+03</rscale>
<asrwt>0</asrwt>
<pdfrwt beam="1">  1        2 0.13419014E+00 0.57520612E+03</pdfrwt>
<pdfrwt beam="2">  1       -2 0.12836128E+00 0.57520612E+03</pdfrwt>
<totfact> 0.14256225E+01</totfact>
</mgrwt>
</event>
<event>
12    1  0.3147868E-008  0.8840862E+03  0.7818608E-02  0.9445696E-01
         -1   -1    0    0    0  501 -0.00000000000E+00  0.00000000000E+00  0.12733903288E+04  0.12733903288E+04  0.00000000000E+00 0.  1.
          1   -1    0    0  501    0  0.00000000000E+00 -0.00000000000E+00 -0.73934040245E+03  0.73934040245E+03  0.00000000000E+00 0. -1.
         23    2    1    2    0    0 -0.77393970948E+03 -0.40614728861E+03  0.28443427449E+03  0.92356125260E+03  0.90134548539E+02 0.  0.
    5000000    2    1    2    0    0  0.77393970948E+03  0.40614728861E+03  0.24961565185E+03  0.10891694786E+04  0.60003657021E+03 0.  0.
         23    2    4    4    0    0  0.47858948134E+03  0.25996610657E+03  0.43252633839E+03  0.70146925526E+03  0.91377319173E+02 0.  0.
         23    2    4    4    0    0  0.29535022814E+03  0.14618118204E+03 -0.18291068654E+03  0.38770022338E+03  0.90853996672E+02 0.  0.
          5    1    3    3  502    0 -0.20811963803E+03 -0.65658972355E+02  0.72039412829E+02  0.22986224436E+03  0.47000000000E+01 0. -1.
         -5    1    3    3    0  502 -0.56582007146E+03 -0.34048831626E+03  0.21239486166E+03  0.69369900824E+03  0.47000000000E+01 0.  1.
         11    1    5    5    0    0  0.38873091192E+03  0.17505934539E+03  0.36101197717E+03  0.55864760265E+03  0.00000000000E+00 0.  1.
        -11    1    5    5    0    0  0.89858569425E+02  0.84906761183E+02  0.71514361217E+02  0.14282165261E+03  0.00000000000E+00 0. -1.
          4    1    6    6  503    0  0.46372243369E+02  0.60528478829E+02 -0.22992140399E+02  0.79641196780E+02  0.00000000000E+00 0. -1.
         -4    1    6    6    0  503  0.24897798477E+03  0.85652703208E+02 -0.15991854614E+03  0.30805902660E+03  0.00000000000E+00 0.  1.
<mgrwt>
<rscale>  0 0.88408625E+03</rscale>
<asrwt>0</asrwt>
<pdfrwt beam="1">  1        1 0.11374468E+00 0.88408625E+03</pdfrwt>
<pdfrwt beam="2">  1       -1 0.19590620E+00 0.88408625E+03</pdfrwt>
<totfact> 0.40964259E+00</totfact>
</mgrwt>
</event>
<event>
12    1  0.3147868E-008  0.5513213E+03  0.7818608E-02  0.1001189E+00
         -2   -1    0    0    0  501 -0.00000000000E+00  0.00000000000E+00  0.78584154778E+03  0.78584154778E+03  0.00000000000E+00 0.  1.
          2   -1    0    0  501    0  0.00000000000E+00 -0.00000000000E+00 -0.78599108999E+03  0.78599108999E+03  0.00000000000E+00 0. -1.
         23    2    1    2    0    0 -0.49877735730E+03 -0.18988936393E+03 -0.40082039027E+03  0.67434696618E+03  0.96177039121E+02 0.  0.
    5000000    2    1    2    0    0  0.49877735730E+03  0.18988936393E+03  0.40067084805E+03  0.89748567159E+03  0.60008880972E+03 0.  0.
         23    2    4    4    0    0  0.35121273901E+03  0.10342121328E+03  0.53944984158E+03  0.65810620008E+03  0.89729056607E+02 0.  0.
         23    2    4    4    0    0  0.14756461829E+03  0.86468150644E+02 -0.13877899353E+03  0.23937947152E+03  0.93759611200E+02 0.  0.
          5    1    3    3  502    0 -0.12274999565E+03 -0.32637562580E+02 -0.14628930299E+03  0.19379221370E+03  0.47000000000E+01 0. -1.
         -5    1    3    3    0  502 -0.37602736165E+03 -0.15725180135E+03 -0.25453108728E+03  0.48055475248E+03  0.47000000000E+01 0.  1.
         13    1    5    5    0    0  0.10542587471E+03  0.71190848853E+02  0.15290468244E+03  0.19890347893E+03  0.00000000000E+00 0. -1.
        -13    1    5    5    0    0  0.24578686430E+03  0.32230364430E+02  0.38654515914E+03  0.45920272114E+03  0.00000000000E+00 0.  1.
          3    1    6    6  503    0  0.12625962035E+02  0.52062161471E+02 -0.55424851490E+02  0.77083057393E+02  0.00000000000E+00 0. -1.
         -3    1    6    6    0  503  0.13493865625E+03  0.34405989173E+02 -0.83354142037E+02  0.16229641412E+03  0.00000000000E+00 0.  1.
<mgrwt>
<rscale>  0 0.55132130E+03</rscale>
<asrwt>0</asrwt>
<pdfrwt beam="1">  1        2 0.12092171E+00 0.55132130E+03</pdfrwt>
<pdfrwt beam="2">  1       -2 0.12089870E+00 0.55132130E+03</pdfrwt>
<totfact> 0.19076931E+01</totfact>
</mgrwt>
</event>
<event>
12    1  0.3147868E-008  0.4499099E+03  0.7818608E-02  0.1027749E+00
         -2   -1    0    0    0  501 -0.00000000000E+00  0.00000000000E+00  0.10928403634E+03  0.10928403634E+03  0.00000000000E+00 0.  1.
          2   -1    0    0  501    0  0.00000000000E+00 -0.00000000000E+00 -0.23107803110E+04  0.23107803110E+04  0.00000000000E+00 0. -1.
         23    2    1    2    0    0  0.24023917080E+03  0.19227148577E+03 -0.55927845463E+03  0.64479040501E+03  0.90989522193E+02 0.  0.
    5000000    2    1    2    0    0 -0.24023917080E+03 -0.19227148577E+03 -0.16422178200E+04  0.17752739423E+04  0.60002918136E+03 0.  0.
         23    2    4    4    0    0  0.93654039218E+02  0.83435648323E+02 -0.88017345998E+03  0.89384494957E+03  0.92308654820E+02 0.  0.
         23    2    4    4    0    0 -0.33389321001E+03 -0.27570713409E+03 -0.76204436006E+03  0.88142899277E+03  0.93307894164E+02 0.  0.
          5    1    3    3  502    0  0.21671303766E+03  0.15566932253E+03 -0.40978601742E+03  0.48902366890E+03  0.47000000000E+01 0. -1.
         -5    1    3    3    0  502  0.23526133131E+02  0.36602163234E+02 -0.14949243721E+03  0.15576673610E+03  0.47000000000E+01 0.  1.
         13    1    5    5    0    0  0.11462689013E+02  0.66749406547E+02 -0.29386374288E+03  0.30156719963E+03  0.00000000000E+00 0.  1.
        -13    1    5    5    0    0  0.82191350205E+02  0.16686241776E+02 -0.58630971709E+03  0.59227774994E+03  0.00000000000E+00 0. -1.
          2    1    6    6  503    0 -0.90357741113E+02 -0.11308637175E+03 -0.19076207003E+03  0.23946443622E+03  0.00000000000E+00 0. -1.
         -2    1    6    6    0  503 -0.24353546890E+03 -0.16262076234E+03 -0.57128229003E+03  0.64196455655E+03  0.00000000000E+00 0.  1.
<mgrwt>
<rscale>  0 0.44990988E+03</rscale>
<asrwt>0</asrwt>
<pdfrwt beam="1">  1        2 0.35550464E+00 0.44990988E+03</pdfrwt>
<pdfrwt beam="2">  1       -2 0.16812930E-01 0.44990988E+03</pdfrwt>
<totfact> 0.13866964E+02</totfact>
</mgrwt>
</event>
<event>
12    1  0.3147868E-008  0.4911737E+03  0.7818608E-02  0.1016109E+00
         -2   -1    0    0    0  501 -0.00000000000E+00  0.00000000000E+00  0.31264838145E+03  0.31264838145E+03  0.00000000000E+00 0.  1.
          2   -1    0    0  501    0  0.00000000000E+00 -0.00000000000E+00 -0.15331895264E+04  0.15331895264E+04  0.00000000000E+00 0. -1.
         23    2    1    2    0    0 -0.66240330222E+02  0.43886121488E+03 -0.94870546661E+03  0.10513276101E+04  0.90888581152E+02 0.  0.
    5000000    2    1    2    0    0  0.66240330222E+02 -0.43886121488E+03 -0.27183567833E+03  0.79451029772E+03  0.60030411451E+03 0.  0.
         23    2    4    4    0    0 -0.11025853532E+02  0.14720010123E+02  0.14137222298E+03  0.16914213192E+03  0.91020367045E+02 0.  0.
         23    2    4    4    0    0  0.77266183754E+02 -0.45358122500E+03 -0.41320790131E+03  0.62536816580E+03  0.92943973805E+02 0.  0.
          5    1    3    3  502    0 -0.87232459763E+01  0.32216770642E+03 -0.65206474453E+03  0.72737792594E+03  0.47000000000E+01 0. -1.
         -5    1    3    3    0  502 -0.57517084246E+02  0.11669350846E+03 -0.29664072208E+03  0.32394968420E+03  0.47000000000E+01 0.  1.
         11    1    5    5    0    0  0.26942336371E+02  0.15064052213E+02  0.12327369398E+03  0.12707957658E+03  0.00000000000E+00 0. -1.
        -11    1    5    5    0    0 -0.37968189903E+02 -0.34404208997E+00  0.18098529000E+02  0.42062555336E+02  0.00000000000E+00 0.  1.
          4    1    6    6  503    0  0.67181623935E+02 -0.31631885016E+03 -0.23280348804E+03  0.39845758821E+03  0.00000000000E+00 0. -1.
         -4    1    6    6    0  503  0.10084559819E+02 -0.13726237484E+03 -0.18040441327E+03  0.22691057759E+03  0.00000000000E+00 0.  1.
<mgrwt>
<rscale>  0 0.49117373E+03</rscale>
<asrwt>0</asrwt>
<pdfrwt beam="1">  1        2 0.23587531E+00 0.49117373E+03</pdfrwt>
<pdfrwt beam="2">  1       -2 0.48099751E-01 0.49117373E+03</pdfrwt>
<totfact> 0.52621336E+01</totfact>
</mgrwt>
</event>
<event>
12    1  0.3147868E-008  0.4451010E+03  0.7818608E-02  0.1029193E+00
         -1   -1    0    0    0  501 -0.00000000000E+00  0.00000000000E+00  0.60322116110E+03  0.60322116110E+03  0.00000000000E+00 0.  1.
          1   -1    0    0  501    0  0.00000000000E+00 -0.00000000000E+00 -0.62299373556E+03  0.62299373556E+03  0.00000000000E+00 0. -1.
         23    2    1    2    0    0 -0.22927049114E+03  0.36076079519E+03  0.16409887738E+03  0.46682492879E+03  0.91015180715E+02 0.  0.
    5000000    2    1    2    0    0  0.22927049114E+03 -0.36076079519E+03 -0.18387145184E+03  0.75938996787E+03  0.60012590599E+03 0.  0.
         23    2    4    4    0    0  0.78724481962E+02 -0.15086240144E+03 -0.37717221403E+03  0.42422589987E+03  0.93550664645E+02 0.  0.
         23    2    4    4    0    0  0.15054600918E+03 -0.20989839375E+03  0.19330076219E+03  0.33516406800E+03  0.90820323886E+02 0.  0.
          5    1    3    3  502    0 -0.19056389922E+03  0.34657884813E+03  0.14853036545E+03  0.42251018581E+03  0.47000000000E+01 0. -1.
         -5    1    3    3    0  502 -0.38706591928E+02  0.14181947068E+02  0.15568511928E+02  0.44314742975E+02  0.47000000000E+01 0.  1.
         11    1    5    5    0    0  0.56099815559E+01  0.12253012735E+02 -0.13919681026E+02  0.19374357641E+02  0.00000000000E+00 0. -1.
        -11    1    5    5    0    0  0.73114500406E+02 -0.16311541417E+03 -0.36325253301E+03  0.40485154223E+03  0.00000000000E+00 0.  1.
          1    1    6    6  503    0  0.26182429834E+02 -0.16305376683E+02  0.64439548291E+02  0.71441166877E+02  0.00000000000E+00 0. -1.
         -1    1    6    6    0  503  0.12436357935E+03 -0.19359301707E+03  0.12886121390E+03  0.26372290112E+03  0.00000000000E+00 0.  1.
<mgrwt>
<rscale>  0 0.44510098E+03</rscale>
<asrwt>0</asrwt>
<pdfrwt beam="1">  1        1 0.95845190E-01 0.44510098E+03</pdfrwt>
<pdfrwt beam="2">  1       -1 0.92803255E-01 0.44510098E+03</pdfrwt>
<totfact> 0.38862903E+01</totfact>
</mgrwt>
</event>
<event>
12    1  0.3147868E-008  0.6644799E+03  0.7818608E-02  0.9779982E-01
         -3   -1    0    0    0  501 -0.00000000000E+00  0.00000000000E+00  0.10964812407E+04  0.10964812407E+04  0.00000000000E+00 0.  1.
          3   -1    0    0  501    0  0.00000000000E+00 -0.00000000000E+00 -0.47639624213E+03  0.47639624213E+03  0.00000000000E+00 0. -1.
         23    2    1    2    0    0 -0.36131936094E+03  0.47014745784E+03  0.22057445449E+03  0.63946690867E+03  0.93137127976E+02 0.  0.
    5000000    2    1    2    0    0  0.36131936094E+03 -0.47014745784E+03  0.39951054405E+03  0.93341057413E+03  0.60004692516E+03 0.  0.
         23    2    4    4    0    0 -0.45482967709E+02  0.36249857454E+02  0.23363922486E+03  0.25681587873E+03  0.89355221772E+02 0.  0.
         23    2    4    4    0    0  0.40680232864E+03 -0.50639731529E+03  0.16587131919E+03  0.67659469540E+03  0.91327497420E+02 0.  0.
          5    1    3    3  502    0 -0.98706424331E+02  0.18467683656E+03  0.10735720237E+03  0.23536386950E+03  0.47000000000E+01 0. -1.
         -5    1    3    3    0  502 -0.26261293660E+03  0.28547062127E+03  0.11321725212E+03  0.40410303916E+03  0.47000000000E+01 0.  1.
         11    1    5    5    0    0 -0.24802043055E+02 -0.97875869336E+01  0.18435958017E+03  0.18627773082E+03  0.00000000000E+00 0. -1.
        -11    1    5    5    0    0 -0.20680924654E+02  0.46037444388E+02  0.49279644688E+02  0.70538147912E+02  0.00000000000E+00 0.  1.
          1    1    6    6  503    0  0.50130541370E+02 -0.11195496180E+03  0.13498307550E+02  0.12340660014E+03  0.00000000000E+00 0. -1.
         -1    1    6    6    0  503  0.35667178727E+03 -0.39444235349E+03  0.15237301164E+03  0.55318809526E+03  0.00000000000E+00 0.  1.
<mgrwt>
<rscale>  0 0.66447993E+03</rscale>
<asrwt>0</asrwt>
<pdfrwt beam="1">  1        3 0.73291730E-01 0.66447993E+03</pdfrwt>
<pdfrwt beam="2">  1       -3 0.16868942E+00 0.66447993E+03</pdfrwt>
<totfact> 0.10899466E+00</totfact>
</mgrwt>
</event>
<event>
12    1  0.3147868E-008  0.6886889E+03  0.7818608E-02  0.9736774E-01
         -1   -1    0    0    0  501 -0.00000000000E+00  0.00000000000E+00  0.32350262192E+03  0.32350262192E+03  0.00000000000E+00 0.  1.
          1   -1    0    0  501    0  0.00000000000E+00 -0.00000000000E+00 -0.16605330265E+04  0.16605330265E+04  0.00000000000E+00 0. -1.
         23    2    1    2    0    0 -0.51636047844E+03  0.31574457346E+03 -0.54104830121E+03  0.81726290170E+03  0.94141419585E+02 0.  0.
    5000000    2    1    2    0    0  0.51636047844E+03 -0.31574457346E+03 -0.79598210333E+03  0.11667727467E+04  0.60120575031E+03 0.  0.
         23    2    4    4    0    0  0.15587755051E+03  0.11509715439E+03 -0.45619163083E+03  0.50399741743E+03  0.91418964286E+02 0.  0.
         23    2    4    4    0    0  0.36048292793E+03 -0.43084172785E+03 -0.33979047249E+03  0.66277532925E+03  0.90780152464E+02 0.  0.
          5    1    3    3  502    0 -0.19942092327E+03  0.15506461030E+03 -0.27419007482E+03  0.37284852841E+03  0.47000000000E+01 0. -1.
         -5    1    3    3    0  502 -0.31693955518E+03  0.16067996316E+03 -0.26685822639E+03  0.44441437329E+03  0.47000000000E+01 0.  1.
         13    1    5    5    0    0  0.27732824273E+02 -0.59199097098E+00 -0.18115805211E+02  0.33130686590E+02  0.00000000000E+00 0. -1.
        -13    1    5    5    0    0  0.12814472624E+03  0.11568914536E+03 -0.43807582562E+03  0.47086673084E+03  0.00000000000E+00 0.  1.
          3    1    6    6  503    0  0.16117797878E+02  0.15586715793E+01 -0.11574094086E+02  0.19904082984E+02  0.00000000000E+00 0. -1.
         -3    1    6    6    0  503  0.34436513005E+03 -0.43240039942E+03 -0.32821637841E+03  0.64287124626E+03  0.00000000000E+00 0.  1.
<mgrwt>
<rscale>  0 0.68868888E+03</rscale>
<asrwt>0</asrwt>
<pdfrwt beam="1">  1        1 0.25546662E+00 0.68868888E+03</pdfrwt>
<pdfrwt beam="2">  1       -1 0.49769635E-01 0.68868888E+03</pdfrwt>
<totfact> 0.21460835E+01</totfact>
</mgrwt>
</event>
<event>
12    1  0.3147868E-008  0.4609360E+03  0.7818608E-02  0.1024510E+00
          2   -1    0    0  501    0  0.00000000000E+00  0.00000000000E+00  0.44001938109E+03  0.44001938109E+03  0.00000000000E+00 0. -1.
         -2   -1    0    0    0  501 -0.00000000000E+00 -0.00000000000E+00 -0.57459616392E+03  0.57459616392E+03  0.00000000000E+00 0.  1.
         23    2    1    2    0    0  0.24075051023E+03 -0.17741968042E+03 -0.14331689651E+03  0.34406955742E+03  0.91681930271E+02 0.  0.
    5000000    2    1    2    0    0 -0.24075051023E+03  0.17741968042E+03  0.87401136746E+01  0.67054598760E+03  0.60009747601E+03 0.  0.
         23    2    4    4    0    0 -0.32327894489E+03  0.31532503194E+03 -0.76319415405E+02  0.46696019861E+03  0.91038573905E+02 0.  0.
         23    2    4    4    0    0  0.82528434659E+02 -0.13790535152E+03  0.85059529080E+02  0.20358578899E+03  0.91559933844E+02 0.  0.
          5    1    3    3  502    0  0.77300544653E+02 -0.73428191432E+02 -0.98371441159E+02  0.14514166850E+03  0.47000000000E+01 0. -1.
         -5    1    3    3    0  502  0.16344996558E+03 -0.10399148899E+03 -0.44945455346E+02  0.19892788891E+03  0.47000000000E+01 0.  1.
         13    1    5    5    0    0 -0.27596556821E+03  0.22289754513E+03 -0.40137481411E+02  0.35700326031E+03  0.00000000000E+00 0.  1.
        -13    1    5    5    0    0 -0.47313376683E+02  0.92427486813E+02 -0.36181933994E+02  0.10995693830E+03  0.00000000000E+00 0. -1.
          4    1    6    6  503    0  0.26085239916E+02 -0.68731748837E+02 -0.88075900780E+01  0.74040979752E+02  0.00000000000E+00 0. -1.
         -4    1    6    6    0  503  0.56443194743E+02 -0.69173602681E+02  0.93867119158E+02  0.12954480924E+03  0.00000000000E+00 0.  1.
<mgrwt>
<rscale>  0 0.46093597E+03</rscale>
<asrwt>0</asrwt>
<pdfrwt beam="1">  1        2 0.67695290E-01 0.46093597E+03</pdfrwt>
<pdfrwt beam="2">  1       -2 0.88399409E-01 0.46093597E+03</pdfrwt>
<totfact> 0.81038606E+01</totfact>
</mgrwt>
</event>
<event>
12    1  0.3147868E-008  0.4578457E+03  0.7818608E-02  0.1025408E+00
         -3   -1    0    0    0  501 -0.00000000000E+00  0.00000000000E+00  0.19418897301E+03  0.19418897301E+03  0.00000000000E+00 0.  1.
          3   -1    0    0  501    0  0.00000000000E+00 -0.00000000000E+00 -0.11752231777E+04  0.11752231777E+04  0.00000000000E+00 0. -1.
         23    2    1    2    0    0 -0.25154359429E+03  0.10995404425E+03 -0.23203679174E+03  0.37121935526E+03  0.92728988565E+02 0.  0.
    5000000    2    1    2    0    0  0.25154359429E+03 -0.10995404425E+03 -0.74899741297E+03  0.99819279547E+03  0.60002305008E+03 0.  0.
         23    2    4    4    0    0  0.40494106215E+03 -0.19560000458E+03 -0.54146772235E+03  0.70962113002E+03  0.90212129049E+02 0.  0.
         23    2    4    4    0    0 -0.15339746786E+03  0.85645960335E+02 -0.20752969062E+03  0.28857166545E+03  0.96638604840E+02 0.  0.
          5    1    3    3  502    0 -0.73343682898E+02  0.52589700974E+02 -0.12892327708E+03  0.15744292250E+03  0.47000000000E+01 0. -1.
         -5    1    3    3    0  502 -0.17819991139E+03  0.57364343271E+02 -0.10311351466E+03  0.21377643276E+03  0.47000000000E+01 0.  1.
         11    1    5    5    0    0  0.36404425667E+03 -0.16985672494E+03 -0.43176376919E+03  0.58974526722E+03  0.00000000000E+00 0. -1.
        -11    1    5    5    0    0  0.40896805478E+02 -0.25743279641E+02 -0.10970395316E+03  0.11987586281E+03  0.00000000000E+00 0.  1.
          3    1    6    6  503    0 -0.14904486197E+03  0.95652181841E+02 -0.15634274059E+03  0.23623455146E+03  0.00000000000E+00 0. -1.
         -3    1    6    6    0  503 -0.43526058870E+01 -0.10006221506E+02 -0.51186950034E+02  0.52337113988E+02  0.00000000000E+00 0.  1.
<mgrwt>
<rscale>  0 0.45784572E+03</rscale>
<asrwt>0</asrwt>
<pdfrwt beam="1">  1        3 0.18080357E+00 0.45784572E+03</pdfrwt>
<pdfrwt beam="2">  1       -3 0.29875226E-01 0.45784572E+03</pdfrwt>
<totfact> 0.56586042E+00</totfact>
</mgrwt>
</event>
<event>
12    1  0.3147868E-008  0.1130729E+04  0.7818608E-02  0.9175748E-01
          2   -1    0    0  501    0  0.00000000000E+00  0.00000000000E+00  0.20753910522E+04  0.20753910522E+04  0.00000000000E+00 0. -1.
         -2   -1    0    0    0  501 -0.00000000000E+00 -0.00000000000E+00 -0.70643771391E+03  0.70643771391E+03  0.00000000000E+00 0.  1.
         23    2    1    2    0    0  0.94068814603E+03  0.48348570831E+03  0.17189593672E+03  0.10756000576E+04  0.93352303289E+02 0.  0.
    5000000    2    1    2    0    0 -0.94068814603E+03 -0.48348570831E+03  0.11970574015E+04  0.17062287085E+04  0.59968105271E+03 0.  0.
         23    2    4    4    0    0 -0.91113024954E+03 -0.57705686700E+03  0.10559498931E+04  0.15123304578E+04  0.94658741816E+02 0.  0.
         23    2    4    4    0    0 -0.29557896494E+02  0.93571158690E+02  0.14110750847E+03  0.19389825077E+03  0.89755065156E+02 0.  0.
          5    1    3    3  502    0  0.57266402768E+03  0.26949685500E+03  0.14300737940E+03  0.64888045433E+03  0.47000000000E+01 0. -1.
         -5    1    3    3    0  502  0.36802411835E+03  0.21398885331E+03  0.28888557315E+02  0.42671960322E+03  0.47000000000E+01 0.  1.
         11    1    5    5    0    0 -0.58483406026E+03 -0.35822396075E+03  0.73231890907E+03  0.10033176310E+04  0.00000000000E+00 0. -1.
        -11    1    5    5    0    0 -0.32629618928E+03 -0.21883290625E+03  0.32363098400E+03  0.50901282675E+03  0.00000000000E+00 0.  1.
          3    1    6    6  503    0  0.12092479518E+02  0.79058801489E+02  0.54730992625E+02  0.96912350645E+02  0.00000000000E+00 0. -1.
         -3    1    6    6    0  503 -0.41650376013E+02  0.14512357201E+02  0.86376515843E+02  0.96985900123E+02  0.00000000000E+00 0.  1.
<mgrwt>
<rscale>  0 0.11307291E+04</rscale>
<asrwt>0</asrwt>
<pdfrwt beam="1">  1        2 0.31929093E+00 0.11307291E+04</pdfrwt>
<pdfrwt beam="2">  1       -2 0.10868273E+00 0.11307291E+04</pdfrwt>
<totfact> 0.40434362E+00</totfact>
</mgrwt>
</event>
<event>
12    1  0.3147868E-008  0.2278680E+04  0.7818608E-02  0.8486375E-01
          2   -1    0    0  501    0  0.00000000000E+00  0.00000000000E+00  0.31122201545E+04  0.31122201545E+04  0.00000000000E+00 0. -1.
         -2   -1    0    0    0  501 -0.00000000000E+00 -0.00000000000E+00 -0.21797237403E+04  0.21797237403E+04  0.00000000000E+00 0.  1.
         23    2    1    2    0    0  0.16659701929E+04 -0.15455311647E+04 -0.75720635275E+03  0.23972639605E+04  0.96900829734E+02 0.  0.
    5000000    2    1    2    0    0 -0.16659701929E+04  0.15455311647E+04  0.16897027669E+04  0.28946799343E+04  0.59996101273E+03 0.  0.
         23    2    4    4    0    0 -0.30454067770E+01  0.36800535239E+02  0.63850798820E+02  0.12095492935E+03  0.95862487589E+02 0.  0.
         23    2    4    4    0    0 -0.16629247862E+04  0.15087306295E+04  0.16258519680E+04  0.27737250050E+04  0.92567944454E+02 0.  0.
          5    1    3    3  502    0  0.49515130546E+03 -0.42243850814E+03 -0.18101747398E+03  0.67558754010E+03  0.47000000000E+01 0. -1.
         -5    1    3    3    0  502  0.11708188875E+04 -0.11230926566E+04 -0.57618887877E+03  0.17216764204E+04  0.47000000000E+01 0.  1.
         13    1    5    5    0    0 -0.29149340867E+01  0.21040212452E+02 -0.23798911646E+02  0.31899460439E+02  0.00000000000E+00 0.  1.
        -13    1    5    5    0    0 -0.13047269033E+00  0.15760322787E+02  0.87649710465E+02  0.89055468906E+02  0.00000000000E+00 0. -1.
          4    1    6    6  503    0 -0.10013651052E+04  0.84989879847E+03  0.96758753001E+03  0.16313447428E+04  0.00000000000E+00 0. -1.
         -4    1    6    6    0  503 -0.66155968094E+03  0.65883183102E+03  0.65826443804E+03  0.11423802622E+04  0.00000000000E+00 0.  1.
<mgrwt>
<rscale>  0 0.22786802E+04</rscale>
<asrwt>0</asrwt>
<pdfrwt beam="1">  1        2 0.47880310E+00 0.22786802E+04</pdfrwt>
<pdfrwt beam="2">  1       -2 0.33534212E+00 0.22786802E+04</pdfrwt>
<totfact> 0.24353472E-02</totfact>
</mgrwt>
</event>
<event>
12    1  0.3147868E-008  0.6348227E+03  0.7818608E-02  0.9835683E-01
          2   -1    0    0  501    0  0.00000000000E+00  0.00000000000E+00  0.18122827901E+04  0.18122827901E+04  0.00000000000E+00 0. -1.
         -2   -1    0    0    0  501 -0.00000000000E+00 -0.00000000000E+00 -0.27262424817E+03  0.27262424817E+03  0.00000000000E+00 0.  1.
         23    2    1    2    0    0 -0.39332874001E+01  0.56333263541E+03  0.49546950355E+03  0.75542936687E+03  0.88455471959E+02 0.  0.
    5000000    2    1    2    0    0  0.39332874001E+01 -0.56333263541E+03  0.10441890384E+04  0.13294776714E+04  0.59985081647E+03 0.  0.
         23    2    4    4    0    0 -0.19421354305E+03 -0.37690889082E+03  0.91982911322E+03  0.10164054164E+04  0.84942102205E+02 0.  0.
         23    2    4    4    0    0  0.19814683045E+03 -0.18642374459E+03  0.12435992519E+03  0.31307225500E+03  0.92373518357E+02 0.  0.
          5    1    3    3  502    0 -0.79035145490E+01  0.29069169443E+03  0.19781075960E+03  0.35173187710E+03  0.47000000000E+01 0. -1.
         -5    1    3    3    0  502  0.39702271489E+01  0.27264094098E+03  0.29765874395E+03  0.40369748977E+03  0.47000000000E+01 0.  1.
         11    1    5    5    0    0 -0.93754167977E+01 -0.61565560189E+02  0.19372594400E+03  0.20348945432E+03  0.00000000000E+00 0.  1.
        -11    1    5    5    0    0 -0.18483812626E+03 -0.31534333063E+03  0.72610316922E+03  0.81291596211E+03  0.00000000000E+00 0. -1.
          1    1    6    6  503    0  0.13589872772E+03 -0.16194764642E+03  0.58856844836E+02  0.21945303042E+03  0.00000000000E+00 0. -1.
         -1    1    6    6    0  503  0.62248102732E+02 -0.24476098168E+02  0.65503080352E+02  0.93619224579E+02  0.00000000000E+00 0.  1.
<mgrwt>
<rscale>  0 0.63482272E+03</rscale>
<asrwt>0</asrwt>
<pdfrwt beam="1">  1        2 0.27881273E+00 0.63482272E+03</pdfrwt>
<pdfrwt beam="2">  1       -2 0.41942193E-01 0.63482272E+03</pdfrwt>
<totfact> 0.47678552E+01</totfact>
</mgrwt>
</event>
<event>
12    1  0.3147868E-008  0.1140994E+04  0.7818608E-02  0.9166133E-01
         -2   -1    0    0    0  501 -0.00000000000E+00  0.00000000000E+00  0.15827958742E+04  0.15827958742E+04  0.00000000000E+00 0.  1.
          2   -1    0    0  501    0  0.00000000000E+00 -0.00000000000E+00 -0.11980864125E+04  0.11980864125E+04  0.00000000000E+00 0. -1.
         23    2    1    2    0    0  0.98154781743E+03 -0.51242347631E+03 -0.52330926781E+03  0.12281425170E+04  0.92019102823E+02 0.  0.
    5000000    2    1    2    0    0 -0.98154781743E+03  0.51242347631E+03  0.90801872951E+03  0.15527397698E+04  0.60040723058E+03 0.  0.
         23    2    4    4    0    0 -0.74547991457E+03  0.55417490287E+03  0.47057469999E+03  0.10453862273E+04  0.92421263976E+02 0.  0.
         23    2    4    4    0    0 -0.23606790285E+03 -0.41751426563E+02  0.43744402952E+03  0.50735354244E+03  0.92623440231E+02 0.  0.
          5    1    3    3  502    0  0.27155023448E+03 -0.11178425428E+03 -0.17260375710E+03  0.34066023589E+03  0.47000000000E+01 0. -1.
         -5    1    3    3    0  502  0.70999758295E+03 -0.40063922203E+03 -0.35070551071E+03  0.88748228110E+03  0.47000000000E+01 0.  1.
         13    1    5    5    0    0 -0.91886980303E+02  0.10499581585E+03  0.87081568148E+02  0.16447047761E+03  0.00000000000E+00 0. -1.
        -13    1    5    5    0    0 -0.65359293427E+03  0.44917908702E+03  0.38349313184E+03  0.88091574973E+03  0.00000000000E+00 0.  1.
          3    1    6    6  503    0 -0.27084106086E+02  0.11743443323E+01  0.13214039370E+03  0.13489259258E+03  0.00000000000E+00 0. -1.
         -3    1    6    6    0  503 -0.20898379677E+03 -0.42925770895E+02  0.30530363583E+03  0.37246094986E+03  0.00000000000E+00 0.  1.
<mgrwt>
<rscale>  0 0.11409937E+04</rscale>
<asrwt>0</asrwt>
<pdfrwt beam="1">  1        2 0.18432099E+00 0.11409937E+04</pdfrwt>
<pdfrwt beam="2">  1       -2 0.24350706E+00 0.11409937E+04</pdfrwt>
<totfact> 0.13098990E+00</totfact>
</mgrwt>
</event>
<event>
12    1  0.3147868E-008  0.3941074E+03  0.7818608E-02  0.1045839E+00
         -2   -1    0    0    0  501 -0.00000000000E+00  0.00000000000E+00  0.67906606673E+03  0.67906606673E+03  0.00000000000E+00 0.  1.
          2   -1    0    0  501    0  0.00000000000E+00 -0.00000000000E+00 -0.56120453446E+03  0.56120453446E+03  0.00000000000E+00 0. -1.
         23    2    1    2    0    0 -0.84300871751E+01  0.24577692096E+03  0.44301126124E+03  0.51488985657E+03  0.91516258515E+02 0.  0.
    5000000    2    1    2    0    0  0.84300871751E+01 -0.24577692096E+03 -0.32514972897E+03  0.72538074461E+03  0.59998126401E+03 0.  0.
         23    2    4    4    0    0  0.14565280438E+03 -0.33344096462E+03 -0.32366175861E+02  0.37814150084E+03  0.97702656072E+02 0.  0.
         23    2    4    4    0    0 -0.13722271720E+03  0.87664043670E+02 -0.29278355311E+03  0.34723924378E+03  0.91311690249E+02 0.  0.
          5    1    3    3  502    0 -0.21592683359E+02  0.13764651470E+03  0.16349422903E+03  0.21486102464E+03  0.47000000000E+01 0. -1.
         -5    1    3    3    0  502  0.13162596184E+02  0.10813040625E+03  0.27951703221E+03  0.30002883193E+03  0.47000000000E+01 0.  1.
         13    1    5    5    0    0  0.28269513887E+02 -0.18652688379E+03 -0.13209079550E+02  0.18911880809E+03  0.00000000000E+00 0.  1.
        -13    1    5    5    0    0  0.11738329049E+03 -0.14691408084E+03 -0.19157096311E+02  0.18902269275E+03  0.00000000000E+00 0. -1.
          2    1    6    6  503    0 -0.89104287776E+02  0.51918928333E+02 -0.25820632480E+03  0.27803894581E+03  0.00000000000E+00 0. -1.
         -2    1    6    6    0  503 -0.48118429429E+02  0.35745115337E+02 -0.34577228310E+02  0.69200297967E+02  0.00000000000E+00 0.  1.
<mgrwt>
<rscale>  0 0.39410736E+03</rscale>
<asrwt>0</asrwt>
<pdfrwt beam="1">  1        2 0.86339159E-01 0.39410736E+03</pdfrwt>
<pdfrwt beam="2">  1       -2 0.10447170E+00 0.39410736E+03</pdfrwt>
<totfact> 0.41927977E+01</totfact>
</mgrwt>
</event>
<event>
12    1  0.3147868E-008  0.2361585E+03  0.7818608E-02  0.1122379E+00
         -1   -1    0    0    0  501 -0.00000000000E+00  0.00000000000E+00  0.94188164284E+03  0.94188164284E+03  0.00000000000E+00 0.  1.
          1   -1    0    0  501    0  0.00000000000E+00 -0.00000000000E+00 -0.18519604205E+03  0.18519604205E+03  0.00000000000E+00 0. -1.
         23    2    1    2    0    0  0.17709918366E+03 -0.52848323701E+02  0.16285487857E+03  0.26288367925E+03  0.91809864216E+02 0.  0.
    5000000    2    1    2    0    0 -0.17709918366E+03  0.52848323701E+02  0.59383072222E+03  0.86419400564E+03  0.60003273791E+03 0.  0.
         23    2    4    4    0    0 -0.73097302135E+02 -0.50214611595E+02  0.66310614541E+03  0.67509984853E+03  0.90472772775E+02 0.  0.
         23    2    4    4    0    0 -0.10400188153E+03  0.10306293530E+03 -0.69275423191E+02  0.18909415711E+03  0.97566162172E+02 0.  0.
          5    1    3    3  502    0 -0.58801243711E+01 -0.17455896341E+01 -0.51029220205E+01  0.92602785562E+01  0.47000000000E+01 0. -1.
         -5    1    3    3    0  502  0.18297930803E+03 -0.51102734067E+02  0.16795780059E+03  0.25362340069E+03  0.47000000000E+01 0.  1.
         13    1    5    5    0    0 -0.41508193062E+02 -0.73356580060E+02  0.51754749725E+03  0.52436583588E+03  0.00000000000E+00 0.  1.
        -13    1    5    5    0    0 -0.31589109073E+02  0.23141968465E+02  0.14555864816E+03  0.15073401265E+03  0.00000000000E+00 0. -1.
          1    1    6    6  503    0 -0.59417374902E+02  0.83342291258E+02  0.24332877016E+01  0.10238302028E+03  0.00000000000E+00 0. -1.
         -1    1    6    6    0  503 -0.44584506625E+02  0.19720644038E+02 -0.71708710893E+02  0.86711136829E+02  0.00000000000E+00 0.  1.
<mgrwt>
<rscale>  0 0.23615855E+03</rscale>
<asrwt>0</asrwt>
<pdfrwt beam="1">  1        1 0.28491699E-01 0.23615855E+03</pdfrwt>
<pdfrwt beam="2">  1       -1 0.14490487E+00 0.23615855E+03</pdfrwt>
<totfact> 0.67918067E+01</totfact>
</mgrwt>
</event>
<event>
12    1  0.3147868E-008  0.1574098E+04  0.7818608E-02  0.8836620E-01
          2   -1    0    0  501    0  0.00000000000E+00  0.00000000000E+00  0.11485148302E+04  0.11485148302E+04  0.00000000000E+00 0. -1.
         -2   -1    0    0    0  501 -0.00000000000E+00 -0.00000000000E+00 -0.22368416584E+04  0.22368416584E+04  0.00000000000E+00 0.  1.
         23    2    1    2    0    0  0.39495768323E+03 -0.14716856771E+04 -0.25400609936E+03  0.15474352868E+04  0.90479636312E+02 0.  0.
    5000000    2    1    2    0    0 -0.39495768323E+03  0.14716856771E+04 -0.83432072876E+03  0.18379212018E+04  0.60001080136E+03 0.  0.
         23    2    4    4    0    0  0.11401888207E+03  0.58234360031E+03 -0.39843412406E+03  0.72050410155E+03  0.90840711373E+02 0.  0.
         23    2    4    4    0    0 -0.50897656530E+03  0.88934207682E+03 -0.43588660470E+03  0.11174171002E+04  0.92937452786E+02 0.  0.
          5    1    3    3  502    0  0.14972902170E+03 -0.49174860227E+03 -0.46339983974E+02  0.51614431305E+03  0.47000000000E+01 0. -1.
         -5    1    3    3    0  502  0.24522866153E+03 -0.97993707485E+03 -0.20766611539E+03  0.10312909738E+04  0.47000000000E+01 0.  1.
         11    1    5    5    0    0  0.30250788496E+02  0.38574975612E+02 -0.21163784732E+02  0.53395175177E+02  0.00000000000E+00 0. -1.
        -11    1    5    5    0    0  0.83768093574E+02  0.54376862470E+03 -0.37727033933E+03  0.66710892637E+03  0.00000000000E+00 0.  1.
          2    1    6    6  503    0 -0.32992932649E+02  0.51651942623E+02 -0.51646587264E+02  0.80148778889E+02  0.00000000000E+00 0. -1.
         -2    1    6    6    0  503 -0.47598363265E+03  0.83769013419E+03 -0.38424001743E+03  0.10372683214E+04  0.00000000000E+00 0.  1.
<mgrwt>
<rscale>  0 0.15740983E+04</rscale>
<asrwt>0</asrwt>
<pdfrwt beam="1">  1        2 0.17669459E+00 0.15740983E+04</pdfrwt>
<pdfrwt beam="2">  1       -2 0.34412949E+00 0.15740983E+04</pdfrwt>
<totfact> 0.32371492E-01</totfact>
</mgrwt>
</event>
<event>
12    1  0.3147868E-008  0.7827394E+03  0.7818608E-02  0.9585343E-01
         -1   -1    0    0    0  501 -0.00000000000E+00  0.00000000000E+00  0.47723299503E+03  0.47723299503E+03  0.00000000000E+00 0.  1.
          1   -1    0    0  501    0  0.00000000000E+00 -0.00000000000E+00 -0.21356080866E+04  0.21356080866E+04  0.00000000000E+00 0. -1.
         23    2    1    2    0    0 -0.55042765685E+03 -0.51623291322E+03 -0.81252610995E+02  0.76438168767E+03  0.90610990117E+02 0.  0.
    5000000    2    1    2    0    0  0.55042765685E+03  0.51623291322E+03 -0.15771224805E+04  0.18484593939E+04  0.60001648832E+03 0.  0.
         23    2    4    4    0    0  0.35263148051E+02  0.19514451858E+03 -0.84789046370E+02  0.23475776564E+03  0.92720835840E+02 0.  0.
         23    2    4    4    0    0  0.51516450880E+03  0.32108839464E+03 -0.14923334342E+04  0.16137016283E+04  0.92095809449E+02 0.  0.
          5    1    3    3  502    0 -0.33000340371E+03 -0.25844498326E+03 -0.19837460890E+02  0.41965661044E+03  0.47000000000E+01 0. -1.
         -5    1    3    3    0  502 -0.22042425314E+03 -0.25778792996E+03 -0.61415150105E+02  0.34472507723E+03  0.47000000000E+01 0.  1.
         11    1    5    5    0    0 -0.29987315186E+01  0.44972304428E+02  0.18284792637E+02  0.48639841674E+02  0.00000000000E+00 0. -1.
        -11    1    5    5    0    0  0.38261879570E+02  0.15017221415E+03 -0.10307383901E+03  0.18611792396E+03  0.00000000000E+00 0.  1.
          4    1    6    6  503    0  0.42191335309E+03  0.26389442381E+03 -0.11189372098E+04  0.12246108051E+04  0.00000000000E+00 0. -1.
         -4    1    6    6    0  503  0.93251155706E+02  0.57193970830E+02 -0.37339622431E+03  0.38909082316E+03  0.00000000000E+00 0.  1.
<mgrwt>
<rscale>  0 0.78273940E+03</rscale>
<asrwt>0</asrwt>
<pdfrwt beam="1">  1        1 0.32855509E+00 0.78273940E+03</pdfrwt>
<pdfrwt beam="2">  1       -1 0.73420460E-01 0.78273940E+03</pdfrwt>
<totfact> 0.47149421E+00</totfact>
</mgrwt>
</event>
<event>
12    1  0.3147868E-008  0.3840649E+03  0.7818608E-02  0.1049442E+00
          2   -1    0    0  501    0  0.00000000000E+00  0.00000000000E+00  0.38458084016E+03  0.38458084016E+03  0.00000000000E+00 0. -1.
         -2   -1    0    0    0  501 -0.00000000000E+00 -0.00000000000E+00 -0.71659472332E+03  0.71659472332E+03  0.00000000000E+00 0.  1.
         23    2    1    2    0    0  0.16721988439E+03  0.60326981289E+02 -0.42372267875E+03  0.46878090713E+03  0.92805150723E+02 0.  0.
    5000000    2    1    2    0    0 -0.16721988439E+03 -0.60326981289E+02  0.91708795585E+02  0.63239465635E+03  0.59992554854E+03 0.  0.
         23    2    4    4    0    0 -0.36411811844E+03 -0.27860680151E+02  0.15235809529E+03  0.40485729547E+03  0.85663404195E+02 0.  0.
         23    2    4    4    0    0  0.19689823406E+03 -0.32466301139E+02 -0.60649299706E+02  0.22753736088E+03  0.90950193837E+02 0.  0.
          5    1    3    3  502    0  0.91860007178E+02  0.32515672000E+01 -0.12371060031E+03  0.15419220550E+03  0.47000000000E+01 0. -1.
         -5    1    3    3    0  502  0.75359877209E+02  0.57075414090E+02 -0.30001207843E+03  0.31458870163E+03  0.47000000000E+01 0.  1.
         11    1    5    5    0    0 -0.15696474408E+03 -0.28910762249E+02  0.24643954534E+02  0.16149640106E+03  0.00000000000E+00 0. -1.
        -11    1    5    5    0    0 -0.20715337436E+03  0.10500820977E+01  0.12771414076E+03  0.24336089441E+03  0.00000000000E+00 0.  1.
          2    1    6    6  503    0  0.10812014017E+03 -0.57474344978E+02 -0.57435370600E+02  0.13524824153E+03  0.00000000000E+00 0. -1.
         -2    1    6    6    0  503  0.88778093887E+02  0.25008043840E+02 -0.32139291067E+01  0.92289119354E+02  0.00000000000E+00 0.  1.
<mgrwt>
<rscale>  0 0.38406488E+03</rscale>
<asrwt>0</asrwt>
<pdfrwt beam="1">  1        2 0.59166284E-01 0.38406488E+03</pdfrwt>
<pdfrwt beam="2">  1       -2 0.11024534E+00 0.38406488E+03</pdfrwt>
<totfact> 0.56558468E+01</totfact>
</mgrwt>
</event>
<event>
12    1  0.3147868E-008  0.5573979E+03  0.7818608E-02  0.9997960E-01
         -2   -1    0    0    0  501 -0.00000000000E+00  0.00000000000E+00  0.11621764047E+04  0.11621764047E+04  0.00000000000E+00 0. -1.
          2   -1    0    0  501    0  0.00000000000E+00 -0.00000000000E+00 -0.29784357382E+03  0.29784357382E+03  0.00000000000E+00 0.  1.
         23    2    1    2    0    0  0.64995497779E+02 -0.40008494005E+03  0.49727514762E+03  0.64722547484E+03  0.85591289657E+02 0.  0.
    5000000    2    1    2    0    0 -0.64995497779E+02  0.40008494005E+03  0.36705768328E+03  0.81279450370E+03  0.60134115809E+03 0.  0.
         23    2    4    4    0    0 -0.41600019423E+02 -0.14038692064E+03  0.12817855516E+03  0.21453629268E+03  0.90316276313E+02 0.  0.
         23    2    4    4    0    0 -0.23395478356E+02  0.54047186069E+03  0.23887912812E+03  0.59825821103E+03  0.90512256645E+02 0.  0.
          5    1    3    3  502    0  0.50304020003E+02 -0.13823990482E+03  0.22746341793E+03  0.27092888773E+03  0.47000000000E+01 0. -1.
         -5    1    3    3    0  502  0.14691477776E+02 -0.26184503523E+03  0.26981172969E+03  0.37629658711E+03  0.47000000000E+01 0.  1.
         13    1    5    5    0    0  0.10226763286E+02 -0.64856885009E+02  0.98250108665E+02  0.11816973417E+03  0.00000000000E+00 0. -1.
        -13    1    5    5    0    0 -0.51826782709E+02 -0.75530035635E+02  0.29928446499E+02  0.96366558509E+02  0.00000000000E+00 0.  1.
          2    1    6    6  503    0  0.31573002166E+02  0.28451572900E+03  0.13677676385E+03  0.31726004734E+03  0.00000000000E+00 0. -1.
         -2    1    6    6    0  503 -0.54968480522E+02  0.25595613169E+03  0.10210236427E+03  0.28099816368E+03  0.00000000000E+00 0.  1.
<mgrwt>
<rscale>  0 0.55739792E+03</rscale>
<asrwt>0</asrwt>
<pdfrwt beam="1">  1        2 0.45822089E-01 0.55739792E+03</pdfrwt>
<pdfrwt beam="2">  1       -2 0.17879637E+00 0.55739792E+03</pdfrwt>
<totfact> 0.21129003E+01</totfact>
</mgrwt>
</event>
<event>
12    1  0.3147868E-008  0.9037283E+03  0.7818608E-02  0.9420933E-01
         -1   -1    0    0    0  501 -0.00000000000E+00  0.00000000000E+00  0.90114483525E+03  0.90114483525E+03  0.00000000000E+00 0.  1.
          1   -1    0    0  501    0  0.00000000000E+00 -0.00000000000E+00 -0.10935789955E+04  0.10935789955E+04  0.00000000000E+00 0. -1.
         23    2    1    2    0    0 -0.68590519941E+03  0.49301833861E+03  0.22324610270E+03  0.87834208138E+03  0.90071997676E+02 0.  0.
    5000000    2    1    2    0    0  0.68590519941E+03 -0.49301833861E+03 -0.41568026297E+03  0.11163817494E+04  0.59998758700E+03 0.  0.
         23    2    4    4    0    0 -0.28056440822E+02 -0.17764092418E+01 -0.19557643031E+03  0.21772396849E+03  0.91450898637E+02 0.  0.
         23    2    4    4    0    0  0.71396164023E+03 -0.49124192937E+03 -0.22010383267E+03  0.89865778090E+03  0.89890228195E+02 0.  0.
          5    1    3    3  502    0 -0.39195892184E+03  0.30886422197E+03  0.92084329056E+02  0.50747464733E+03  0.47000000000E+01 0. -1.
         -5    1    3    3    0  502 -0.29394627757E+03  0.18415411663E+03  0.13116177365E+03  0.37086743404E+03  0.47000000000E+01 0.  1.
         11    1    5    5    0    0 -0.20355740697E+02  0.43531711459E+02 -0.12008519018E+03  0.12934380148E+03  0.00000000000E+00 0.  1.
        -11    1    5    5    0    0 -0.77007001244E+01 -0.45308120701E+02 -0.75491240131E+02  0.88380167008E+02  0.00000000000E+00 0. -1.
          1    1    6    6  503    0  0.57365588000E+03 -0.37567766431E+03 -0.20759365793E+03  0.71645649061E+03  0.00000000000E+00 0. -1.
         -1    1    6    6    0  503  0.14030576023E+03 -0.11556426506E+03 -0.12510174740E+02  0.18220129029E+03  0.00000000000E+00 0.  1.
<mgrwt>
<rscale>  0 0.90372834E+03</rscale>
<asrwt>0</asrwt>
<pdfrwt beam="1">  1        1 0.16824292E+00 0.90372834E+03</pdfrwt>
<pdfrwt beam="2">  1       -1 0.13863767E+00 0.90372834E+03</pdfrwt>
<totfact> 0.55929435E+00</totfact>
</mgrwt>
</event>
<event>
12    1  0.3147868E-008  0.7439882E+03  0.7818608E-02  0.9644829E-01
          2   -1    0    0  501    0  0.00000000000E+00  0.00000000000E+00  0.25089665538E+04  0.25089665538E+04  0.00000000000E+00 0. -1.
         -2   -1    0    0    0  501 -0.00000000000E+00 -0.00000000000E+00 -0.27647285069E+03  0.27647285069E+03  0.00000000000E+00 0.  1.
         23    2    1    2    0    0 -0.72005612453E+03  0.30281295357E+02  0.98598848328E+03  0.12257503946E+04  0.10436935098E+03 0.  0.
    5000000    2    1    2    0    0  0.72005612453E+03 -0.30281295357E+02  0.12465052198E+04  0.15596890098E+04  0.59954713335E+03 0.  0.
         23    2    4    4    0    0  0.57640704890E+02  0.44031431281E+01  0.66390426771E+03  0.67203774951E+03  0.86741117980E+02 0.  0.
         23    2    4    4    0    0  0.66241541964E+03 -0.34684438485E+02  0.58260095210E+03  0.88765126034E+03  0.92215465898E+02 0.  0.
          5    1    3    3  502    0 -0.13789298679E+03  0.33781864024E+02  0.14573273388E+03  0.20350874641E+03  0.47000000000E+01 0. -1.
         -5    1    3    3    0  502 -0.58216313774E+03 -0.35005686674E+01  0.84025574940E+03  0.10222416482E+04  0.47000000000E+01 0.  1.
         13    1    5    5    0    0  0.73569905251E+02  0.19455699828E+02  0.59190360999E+03  0.59677545085E+03  0.00000000000E+00 0.  1.
        -13    1    5    5    0    0 -0.15929200361E+02 -0.15052556700E+02  0.72000657720E+02  0.75262298659E+02  0.00000000000E+00 0. -1.
          3    1    6    6  503    0  0.16618647905E+03 -0.33296351175E+02  0.10783770512E+03  0.20088694200E+03  0.00000000000E+00 0. -1.
         -3    1    6    6    0  503  0.49622894058E+03 -0.13880873099E+01  0.47476324698E+03  0.68676431834E+03  0.00000000000E+00 0.  1.
<mgrwt>
<rscale>  0 0.74398820E+03</rscale>
<asrwt>0</asrwt>
<pdfrwt beam="1">  1        2 0.38599484E+00 0.74398820E+03</pdfrwt>
<pdfrwt beam="2">  1       -2 0.42534286E-01 0.74398820E+03</pdfrwt>
<totfact> 0.18874109E+01</totfact>
</mgrwt>
</event>
<event>
12    1  0.3147868E-008  0.4245091E+03  0.7818608E-02  0.1035609E+00
          2   -1    0    0  501    0  0.00000000000E+00  0.00000000000E+00  0.37714482667E+04  0.37714482667E+04  0.00000000000E+00 0. -1.
         -2   -1    0    0    0  501 -0.00000000000E+00 -0.00000000000E+00 -0.10370214868E+03  0.10370214868E+03  0.00000000000E+00 0.  1.
         23    2    1    2    0    0  0.27791979064E+03  0.27644909853E+02  0.22878798095E+03  0.37307093904E+03  0.93991139256E+02 0.  0.
    5000000    2    1    2    0    0 -0.27791979064E+03 -0.27644909853E+02  0.34389581371E+04  0.35020794764E+04  0.60010327365E+03 0.  0.
         23    2    4    4    0    0 -0.88426358354E+02  0.21957084151E+03  0.71040087664E+03  0.75430229192E+03  0.90950353322E+02 0.  0.
         23    2    4    4    0    0 -0.18949343229E+03 -0.24721575137E+03  0.27285572605E+04  0.27477771845E+04  0.90726750182E+02 0.  0.
          5    1    3    3  502    0  0.40769335713E+02 -0.28898567274E+02  0.30078115589E+02  0.58515373726E+02  0.47000000000E+01 0. -1.
         -5    1    3    3    0  502  0.23715045493E+03  0.56543477127E+02  0.19870986537E+03  0.31455556532E+03  0.47000000000E+01 0.  1.
         11    1    5    5    0    0 -0.25696701045E+02  0.39895363989E+02  0.27589236912E+03  0.27994385125E+03  0.00000000000E+00 0.  1.
        -11    1    5    5    0    0 -0.62729657309E+02  0.17967547752E+03  0.43450850752E+03  0.47435844067E+03  0.00000000000E+00 0. -1.
          2    1    6    6  503    0 -0.12865202582E+03 -0.11878862127E+03  0.12133233863E+04  0.12258938453E+04  0.00000000000E+00 0. -1.
         -2    1    6    6    0  503 -0.60841406474E+02 -0.12842713009E+03  0.15152338742E+04  0.15218833391E+04  0.00000000000E+00 0.  1.
<mgrwt>
<rscale>  0 0.42450908E+03</rscale>
<asrwt>0</asrwt>
<pdfrwt beam="1">  1        2 0.58022270E+00 0.42450908E+03</pdfrwt>
<pdfrwt beam="2">  1       -2 0.15954180E-01 0.42450908E+03</pdfrwt>
<totfact> 0.19213396E+01</totfact>
</mgrwt>
</event>
<event>
12    1  0.3147868E-008  0.1084662E+04  0.7818608E-02  0.9220271E-01
         -1   -1    0    0    0  501 -0.00000000000E+00  0.00000000000E+00  0.60199009742E+03  0.60199009742E+03  0.00000000000E+00 0.  1.
          1   -1    0    0  501    0  0.00000000000E+00 -0.00000000000E+00 -0.20451066144E+04  0.20451066144E+04  0.00000000000E+00 0. -1.
         23    2    1    2    0    0 -0.66971628425E+03  0.77115992379E+03 -0.55075225939E+03  0.11639950921E+04  0.91372828691E+02 0.  0.
    5000000    2    1    2    0    0  0.66971628425E+03 -0.77115992379E+03 -0.89236425757E+03  0.14831016197E+04  0.60005742777E+03 0.  0.
         23    2    4    4    0    0  0.21692949967E+03 -0.63798466059E+03 -0.66615409525E+03  0.95205770954E+03  0.92573045220E+02 0.  0.
         23    2    4    4    0    0  0.45278678458E+03 -0.13317526320E+03 -0.22621016232E+03  0.53104391013E+03  0.89917039136E+02 0.  0.
          5    1    3    3  502    0 -0.23178304887E+03  0.26675359789E+03 -0.14215922482E+03  0.38093595122E+03  0.47000000000E+01 0. -1.
         -5    1    3    3    0  502 -0.43793323539E+03  0.50440632590E+03 -0.40859303457E+03  0.78305914091E+03  0.47000000000E+01 0.  1.
         13    1    5    5    0    0  0.12664221215E+03 -0.36620775213E+03 -0.44613296379E+03  0.59091538226E+03  0.00000000000E+00 0. -1.
        -13    1    5    5    0    0  0.90287287523E+02 -0.27177690846E+03 -0.22002113146E+03  0.36114232728E+03  0.00000000000E+00 0.  1.
          3    1    6    6  503    0  0.36087462154E+03 -0.87188957286E+02 -0.21134739139E+03  0.42720033543E+03  0.00000000000E+00 0. -1.
         -3    1    6    6    0  503  0.91912163046E+02 -0.45986305910E+02 -0.14862770933E+02  0.10384357470E+03  0.00000000000E+00 0.  1.
<mgrwt>
<rscale>  0 0.10846622E+04</rscale>
<asrwt>0</asrwt>
<pdfrwt beam="1">  1        1 0.31463179E+00 0.10846622E+04</pdfrwt>
<pdfrwt beam="2">  1       -1 0.92613860E-01 0.10846622E+04</pdfrwt>
<totfact> 0.31500814E+00</totfact>
</mgrwt>
</event>
<event>
12    1  0.3147868E-008  0.6015574E+03  0.7818608E-02  0.9902180E-01
          1   -1    0    0  501    0  0.00000000000E+00  0.00000000000E+00  0.91465239327E+03  0.91465239327E+03  0.00000000000E+00 0. -1.
         -1   -1    0    0    0  501 -0.00000000000E+00 -0.00000000000E+00 -0.46767884643E+03  0.46767884643E+03  0.00000000000E+00 0.  1.
         23    2    1    2    0    0  0.16875911655E+03 -0.47445670916E+03  0.82372164014E+02  0.51810558387E+03  0.89774241008E+02 0.  0.
    5000000    2    1    2    0    0 -0.16875911655E+03  0.47445670916E+03  0.36460138283E+03  0.86422565583E+03  0.60030243006E+03 0.  0.
         23    2    4    4    0    0 -0.14942317451E+03  0.55365182252E+03  0.43483738839E+03  0.72572442743E+03  0.93459962354E+02 0.  0.
         23    2    4    4    0    0 -0.19335942039E+02 -0.79195113365E+02 -0.70236005561E+02  0.13850122839E+03  0.87199479089E+02 0.  0.
          5    1    3    3  502    0  0.11995673766E+03 -0.31400143991E+03  0.12617431444E+02  0.33640424009E+03  0.47000000000E+01 0. -1.
         -5    1    3    3    0  502  0.48802378893E+02 -0.16045526925E+03  0.69754732570E+02  0.18170134378E+03  0.47000000000E+01 0.  1.
         11    1    5    5    0    0 -0.13466506649E+03  0.32455225745E+03  0.25743652944E+03  0.43559432347E+03  0.00000000000E+00 0.  1.
        -11    1    5    5    0    0 -0.14758108027E+02  0.22909956507E+03  0.17740085895E+03  0.29013010396E+03  0.00000000000E+00 0. -1.
          2    1    6    6  503    0  0.41672845916E+01 -0.91560604649E+02 -0.46016857210E+02  0.10255857708E+03  0.00000000000E+00 0. -1.
         -2    1    6    6    0  503 -0.23503226631E+02  0.12365491283E+02 -0.24219148352E+02  0.35942651316E+02  0.00000000000E+00 0.  1.
<mgrwt>
<rscale>  0 0.60155745E+03</rscale>
<asrwt>0</asrwt>
<pdfrwt beam="1">  1        1 0.14071575E+00 0.60155745E+03</pdfrwt>
<pdfrwt beam="2">  1       -1 0.71950592E-01 0.60155745E+03</pdfrwt>
<totfact> 0.36003795E+01</totfact>
</mgrwt>
</event>
<event>
12    1  0.3147868E-008  0.1623237E+04  0.7818608E-02  0.8806399E-01
         -2   -1    0    0    0  501 -0.00000000000E+00  0.00000000000E+00  0.24158306233E+04  0.24158306233E+04  0.00000000000E+00 0.  1.
          2   -1    0    0  501    0  0.00000000000E+00 -0.00000000000E+00 -0.12127062963E+04  0.12127062963E+04  0.00000000000E+00 0. -1.
         23    2    1    2    0    0  0.21019133374E+03 -0.15836762980E+04  0.11428011990E+03  0.16042088063E+04  0.90636277864E+02 0.  0.
    5000000    2    1    2    0    0 -0.21019133374E+03  0.15836762980E+04  0.10888442071E+04  0.20243281132E+04  0.60009298354E+03 0.  0.
         23    2    4    4    0    0 -0.31989352129E+03  0.13624926051E+04  0.73442373765E+03  0.15830573504E+04  0.89299408043E+02 0.  0.
         23    2    4    4    0    0  0.10970218755E+03  0.22118369290E+03  0.35442046949E+03  0.44127076282E+03  0.90273035692E+02 0.  0.
          5    1    3    3  502    0  0.79932029348E+02 -0.45814614929E+03  0.69659463402E+02  0.47027816691E+03  0.47000000000E+01 0. -1.
         -5    1    3    3    0  502  0.13025930439E+03 -0.11255301487E+04  0.44620656502E+02  0.11339306394E+04  0.47000000000E+01 0.  1.
         11    1    5    5    0    0 -0.10016705211E+03  0.54320017602E+03  0.32885247899E+03  0.64284043315E+03  0.00000000000E+00 0.  1.
        -11    1    5    5    0    0 -0.21972646918E+03  0.81929242908E+03  0.40557125866E+03  0.94021691724E+03  0.00000000000E+00 0. -1.
          4    1    6    6  503    0  0.58970145796E+02  0.96145676473E+02  0.89577172326E+02  0.14403311773E+03  0.00000000000E+00 0.  1.
         -4    1    6    6    0  503  0.50732041755E+02  0.12503801642E+03  0.26484329716E+03  0.29723764510E+03  0.00000000000E+00 0. -1.
<mgrwt>
<rscale>  0 0.16232369E+04</rscale>
<asrwt>0</asrwt>
<pdfrwt beam="1">  1        2 0.18657020E+00 0.16232369E+04</pdfrwt>
<pdfrwt beam="2">  1       -2 0.37166625E+00 0.16232369E+04</pdfrwt>
<totfact> 0.19684966E-01</totfact>
</mgrwt>
</event>
<event>
12    1  0.3147868E-008  0.6950801E+03  0.7818608E-02  0.9725683E-01
          2   -1    0    0  501    0  0.00000000000E+00  0.00000000000E+00  0.56348219054E+03  0.56348219054E+03  0.00000000000E+00 0.  1.
         -2   -1    0    0    0  501 -0.00000000000E+00 -0.00000000000E+00 -0.96260223765E+03  0.96260223765E+03  0.00000000000E+00 0. -1.
         23    2    1    2    0    0  0.54541204630E+03 -0.25364543220E+03 -0.27394775520E+03  0.66728194333E+03  0.91692495835E+02 0.  0.
    5000000    2    1    2    0    0 -0.54541204630E+03  0.25364543220E+03 -0.12517229191E+03  0.85880248485E+03  0.60005274751E+03 0.  0.
         23    2    4    4    0    0 -0.46933819600E+03  0.38709957645E+03 -0.22238752921E+03  0.65415387075E+03  0.91305252613E+02 0.  0.
         23    2    4    4    0    0 -0.76073850304E+02 -0.13345414426E+03  0.97215237302E+02  0.20464861410E+03  0.93984113394E+02 0.  0.
          5    1    3    3  502    0  0.36285303436E+03 -0.15007923122E+03 -0.13381275592E+03  0.41486629633E+03  0.47000000000E+01 0. -1.
         -5    1    3    3    0  502  0.18255901194E+03 -0.10356620098E+03 -0.14013499928E+03  0.25241564700E+03  0.47000000000E+01 0.  1.
         13    1    5    5    0    0 -0.38230148422E+03  0.35613980510E+03 -0.18125250233E+03  0.55303024801E+03  0.00000000000E+00 0. -1.
        -13    1    5    5    0    0 -0.87036711777E+02  0.30959771353E+02 -0.41135026877E+02  0.10112362274E+03  0.00000000000E+00 0.  1.
          4    1    6    6  503    0 -0.82535625047E+02 -0.68143271816E+02  0.87618815456E+02  0.13832097353E+03  0.00000000000E+00 0. -1.
         -4    1    6    6    0  503  0.64617747428E+01 -0.65310872441E+02  0.95964218454E+01  0.66327640573E+02  0.00000000000E+00 0.  1.
<mgrwt>
<rscale>  0 0.69508013E+03</rscale>
<asrwt>0</asrwt>
<pdfrwt beam="1">  1        2 0.86689568E-01 0.69508013E+03</pdfrwt>
<pdfrwt beam="2">  1       -2 0.14809265E+00 0.69508013E+03</pdfrwt>
<totfact> 0.16900052E+01</totfact>
</mgrwt>
</event>
<event>
12    1  0.3147868E-008  0.1598659E+04  0.7818608E-02  0.8821372E-01
         -2   -1    0    0    0  501 -0.00000000000E+00  0.00000000000E+00  0.73905563216E+03  0.73905563216E+03  0.00000000000E+00 0.  1.
          2   -1    0    0  501    0  0.00000000000E+00 -0.00000000000E+00 -0.36540319137E+04  0.36540319137E+04  0.00000000000E+00 0. -1.
         23    2    1    2    0    0  0.10572786497E+04 -0.11324534076E+04 -0.94873377807E+03  0.18189159971E+04  0.89837404359E+02 0.  0.
    5000000    2    1    2    0    0 -0.10572786497E+04  0.11324534076E+04 -0.19662425035E+04  0.25741715488E+04  0.59996726291E+03 0.  0.
         23    2    4    4    0    0 -0.11002360466E+04  0.10579954662E+04 -0.18166300310E+04  0.23744665288E+04  0.89849105664E+02 0.  0.
         23    2    4    4    0    0  0.42957396922E+02  0.74457941433E+02 -0.14961247242E+03  0.19970502001E+03  0.10054292676E+03 0.  0.
          5    1    3    3  502    0  0.30225114377E+03 -0.32324103267E+03 -0.31893824673E+03  0.54551279943E+03  0.47000000000E+01 0. -1.
         -5    1    3    3    0  502  0.75502750595E+03 -0.80921237494E+03 -0.62979553134E+03  0.12734031976E+04  0.47000000000E+01 0.  1.
         13    1    5    5    0    0 -0.67059946560E+03  0.68575460869E+03 -0.11897073355E+04  0.15281906199E+04  0.00000000000E+00 0. -1.
        -13    1    5    5    0    0 -0.42963658103E+03  0.37224085749E+03 -0.62692269553E+03  0.84627590886E+03  0.00000000000E+00 0.  1.
          3    1    6    6  503    0  0.14318875712E+02  0.87680323629E+02 -0.14159474995E+03  0.16715843552E+03  0.00000000000E+00 0. -1.
         -3    1    6    6    0  503  0.28638521210E+02 -0.13222382196E+02 -0.80177224678E+01  0.32546584484E+02  0.00000000000E+00 0.  1.
<mgrwt>
<rscale>  0 0.15986588E+04</rscale>
<asrwt>0</asrwt>
<pdfrwt beam="1">  1        2 0.56215875E+00 0.15986588E+04</pdfrwt>
<pdfrwt beam="2">  1       -2 0.11370087E+00 0.15986588E+04</pdfrwt>
<totfact> 0.36342478E-01</totfact>
</mgrwt>
</event>
<event>
12    1  0.3147868E-008  0.1424375E+04  0.7818608E-02  0.8936362E-01
         -2   -1    0    0    0  501 -0.00000000000E+00  0.00000000000E+00  0.29111480796E+04  0.29111480796E+04  0.00000000000E+00 0.  1.
          2   -1    0    0  501    0  0.00000000000E+00 -0.00000000000E+00 -0.86604955380E+03  0.86604955380E+03  0.00000000000E+00 0. -1.
         23    2    1    2    0    0  0.40592882357E+03  0.13063506685E+04  0.17269952501E+03  0.13819377905E+04  0.92718131990E+02 0.  0.
    5000000    2    1    2    0    0 -0.40592882357E+03 -0.13063506685E+04  0.18723990008E+04  0.23952598429E+04  0.60005117937E+03 0.  0.
         23    2    4    4    0    0  0.13991783621E+03 -0.26856224033E+03  0.36725295259E+03  0.48515474081E+03  0.93796127449E+02 0.  0.
         23    2    4    4    0    0 -0.54584665978E+03 -0.10377884282E+04  0.15051460482E+04  0.19101051021E+04  0.89908158175E+02 0.  0.
          5    1    3    3  502    0  0.30224920812E+03  0.10522206580E+04  0.10944300830E+03  0.11002375920E+04  0.47000000000E+01 0. -1.
         -5    1    3    3    0  502  0.10367961545E+03  0.25413001053E+03  0.63256516705E+02  0.28170019847E+03  0.47000000000E+01 0.  1.
         13    1    5    5    0    0  0.98734591440E+01 -0.26445067733E+01  0.50866274788E+02  0.51883104401E+02  0.00000000000E+00 0. -1.
        -13    1    5    5    0    0  0.13004437707E+03 -0.26591773355E+03  0.31638667781E+03  0.43327163641E+03  0.00000000000E+00 0.  1.
          4    1    6    6  503    0 -0.36247165406E+03 -0.72764382476E+03  0.11023064886E+04  0.13696462428E+04  0.00000000000E+00 0. -1.
         -4    1    6    6    0  503 -0.18337500572E+03 -0.31014460342E+03  0.40283955964E+03  0.54045885927E+03  0.00000000000E+00 0.  1.
<mgrwt>
<rscale>  0 0.14243745E+04</rscale>
<asrwt>0</asrwt>
<pdfrwt beam="1">  1        2 0.13323839E+00 0.14243745E+04</pdfrwt>
<pdfrwt beam="2">  1       -2 0.44786893E+00 0.14243745E+04</pdfrwt>
<totfact> 0.10635640E-01</totfact>
</mgrwt>
</event>
<event>
12    1  0.3147868E-008  0.5870283E+03  0.7818608E-02  0.9932690E-01
         -2   -1    0    0    0  501 -0.00000000000E+00  0.00000000000E+00  0.16077308433E+03  0.16077308433E+03  0.00000000000E+00 0. -1.
          2   -1    0    0  501    0  0.00000000000E+00 -0.00000000000E+00 -0.23291477173E+04  0.23291477173E+04  0.00000000000E+00 0.  1.
         23    2    1    2    0    0 -0.37808160741E+03  0.24386301172E+03 -0.10166040468E+04  0.11154594286E+04  0.91384234876E+02 0.  0.
    5000000    2    1    2    0    0  0.37808160741E+03 -0.24386301172E+03 -0.11517705861E+04  0.13744613730E+04  0.60012808015E+03 0.  0.
         23    2    4    4    0    0  0.71912452634E+02 -0.37274555061E+03 -0.74853015356E+03  0.84414106587E+03  0.90366486836E+02 0.  0.
         23    2    4    4    0    0  0.30616915478E+03  0.12888253889E+03 -0.40324043256E+03  0.53032030718E+03  0.91030333345E+02 0.  0.
          5    1    3    3  502    0 -0.80990352974E+02  0.27114180879E+02 -0.13020669044E+03  0.15578988515E+03  0.47000000000E+01 0. -1.
         -5    1    3    3    0  502 -0.29709125444E+03  0.21674883084E+03 -0.88639735638E+03  0.95966954340E+03  0.47000000000E+01 0.  1.
         13    1    5    5    0    0  0.41672006664E+02 -0.27504351464E+03 -0.62252723709E+03  0.68185456807E+03  0.00000000000E+00 0. -1.
        -13    1    5    5    0    0  0.30240445970E+02 -0.97702035975E+02 -0.12600291647E+03  0.16228649779E+03  0.00000000000E+00 0.  1.
          1    1    6    6  503    0  0.57025416075E+02  0.57790308260E+02 -0.13392400453E+03  0.15661180286E+03  0.00000000000E+00 0. -1.
         -1    1    6    6    0  503  0.24914373870E+03  0.71092230630E+02 -0.26931642803E+03  0.37370850431E+03  0.00000000000E+00 0.  1.
<mgrwt>
<rscale>  0 0.58702830E+03</rscale>
<asrwt>0</asrwt>
<pdfrwt beam="1">  1        2 0.35833037E+00 0.58702830E+03</pdfrwt>
<pdfrwt beam="2">  1       -2 0.24734324E-01 0.58702830E+03</pdfrwt>
<totfact> 0.67533061E+01</totfact>
</mgrwt>
</event>
<event>
12    1  0.3147868E-008  0.8424448E+03  0.7818608E-02  0.9500534E-01
         -2   -1    0    0    0  501 -0.00000000000E+00  0.00000000000E+00  0.46362603601E+03  0.46362603601E+03  0.00000000000E+00 0.  1.
          2   -1    0    0  501    0  0.00000000000E+00 -0.00000000000E+00 -0.22667494526E+04  0.22667494526E+04  0.00000000000E+00 0. -1.
         23    2    1    2    0    0  0.68207246631E+03 -0.31604436547E+03 -0.15668736153E+04  0.17401525225E+04  0.89056077324E+02 0.  0.
    5000000    2    1    2    0    0 -0.68207246631E+03  0.31604436547E+03 -0.23624980132E+03  0.99022296616E+03  0.59968380321E+03 0.  0.
         23    2    4    4    0    0  0.88393597957E+02  0.63134665510E+02 -0.79690300800E+02  0.15981899181E+03  0.85977624725E+02 0.  0.
         23    2    4    4    0    0 -0.77046606427E+03  0.25290969996E+03 -0.15655950052E+03  0.83040397434E+03  0.86478962070E+02 0.  0.
          5    1    3    3  502    0  0.99608226560E+02 -0.80690780540E+02 -0.24303344676E+03  0.27480929225E+03  0.47000000000E+01 0. -1.
         -5    1    3    3    0  502  0.58246423975E+03 -0.23535358493E+03 -0.13238401686E+04  0.14653432302E+04  0.47000000000E+01 0.  1.
         13    1    5    5    0    0 -0.30897028143E+01  0.23978208756E+01 -0.44263692280E+02  0.44436136901E+02  0.00000000000E+00 0. -1.
        -13    1    5    5    0    0  0.91483300771E+02  0.60736844634E+02 -0.35426608520E+02  0.11538285491E+03  0.00000000000E+00 0.  1.
          4    1    6    6  503    0 -0.32702690008E+03  0.14811259217E+03 -0.87872377391E+02  0.36960179659E+03  0.00000000000E+00 0. -1.
         -4    1    6    6    0  503 -0.44343916419E+03  0.10479710779E+03 -0.68687123127E+02  0.46080217775E+03  0.00000000000E+00 0.  1.
<mgrwt>
<rscale>  0 0.84244477E+03</rscale>
<asrwt>0</asrwt>
<pdfrwt beam="1">  1        2 0.34873068E+00 0.84244477E+03</pdfrwt>
<pdfrwt beam="2">  1       -2 0.71327083E-01 0.84244477E+03</pdfrwt>
<totfact> 0.86813978E+00</totfact>
</mgrwt>
</event>
<event>
12    1  0.3147868E-008  0.1074030E+04  0.7818608E-02  0.9230880E-01
          2   -1    0    0  501    0  0.00000000000E+00  0.00000000000E+00  0.15062434305E+04  0.15062434305E+04  0.00000000000E+00 0. -1.
         -2   -1    0    0    0  501 -0.00000000000E+00 -0.00000000000E+00 -0.10032869398E+04  0.10032869398E+04  0.00000000000E+00 0.  1.
         23    2    1    2    0    0 -0.98505860264E+03  0.26151750670E+03 -0.31614137432E+03  0.10709114958E+04  0.90411317563E+02 0.  0.
    5000000    2    1    2    0    0  0.98505860264E+03 -0.26151750670E+03  0.81909786503E+03  0.14386188745E+04  0.59997591337E+03 0.  0.
         23    2    4    4    0    0  0.88146108869E+03 -0.37072659974E+03  0.81885720867E+03  0.12620728448E+04  0.88819337190E+02 0.  0.
         23    2    4    4    0    0  0.10359751395E+03  0.10920909304E+03  0.24065635697E+00  0.17654602974E+03  0.92246256302E+02 0.  0.
          5    1    3    3  502    0 -0.79318151404E+03  0.23045971149E+03 -0.22447656288E+03  0.85595584589E+03  0.47000000000E+01 0. -1.
         -5    1    3    3    0  502 -0.19187708861E+03  0.31057795217E+02 -0.91664811445E+02  0.21495564992E+03  0.47000000000E+01 0.  1.
         11    1    5    5    0    0  0.14208825994E+03 -0.93683744507E+02  0.16256742717E+03  0.23535905755E+03  0.00000000000E+00 0.  1.
        -11    1    5    5    0    0  0.73937282875E+03 -0.27704285524E+03  0.65628978151E+03  0.10267137872E+04  0.00000000000E+00 0. -1.
          1    1    6    6  503    0  0.35032018127E+02  0.90125028750E+02  0.27187645074E+02  0.10044367151E+03  0.00000000000E+00 0. -1.
         -1    1    6    6    0  503  0.68565495825E+02  0.19084064289E+02 -0.26946988717E+02  0.76102358232E+02  0.00000000000E+00 0.  1.
<mgrwt>
<rscale>  0 0.10740299E+04</rscale>
<asrwt>0</asrwt>
<pdfrwt beam="1">  1        2 0.23172976E+00 0.10740299E+04</pdfrwt>
<pdfrwt beam="2">  1       -2 0.15435184E+00 0.10740299E+04</pdfrwt>
<totfact> 0.34409569E+00</totfact>
</mgrwt>
</event>
<event>
12    1  0.3147868E-008  0.3731516E+03  0.7818608E-02  0.1053494E+00
          2   -1    0    0  501    0  0.00000000000E+00  0.00000000000E+00  0.74786516765E+03  0.74786516765E+03  0.00000000000E+00 0. -1.
         -2   -1    0    0    0  501 -0.00000000000E+00 -0.00000000000E+00 -0.37960424172E+03  0.37960424172E+03  0.00000000000E+00 0.  1.
         23    2    1    2    0    0  0.25556648698E+03 -0.23261144423E+03  0.34435560429E+02  0.35881573426E+03  0.90225329433E+02 0.  0.
    5000000    2    1    2    0    0 -0.25556648698E+03  0.23261144423E+03  0.33382536550E+03  0.76865367511E+03  0.59997231966E+03 0.  0.
         23    2    4    4    0    0 -0.11131521356E+03 -0.28389245424E+01  0.43679026507E+03  0.46047067268E+03  0.94065766747E+02 0.  0.
         23    2    4    4    0    0 -0.14425127342E+03  0.23545036878E+03 -0.10296489957E+03  0.30818300244E+03  0.90164773656E+02 0.  0.
          5    1    3    3  502    0  0.21019356485E+03 -0.17175395583E+03  0.61005824801E+02  0.27825268499E+03  0.47000000000E+01 0. -1.
         -5    1    3    3    0  502  0.45372922138E+02 -0.60857488403E+02 -0.26570264372E+02  0.80563049265E+02  0.47000000000E+01 0.  1.
         13    1    5    5    0    0 -0.35036243337E+02 -0.12801196048E+02  0.30950868134E+03  0.31174834850E+03  0.00000000000E+00 0. -1.
        -13    1    5    5    0    0 -0.76278970227E+02  0.99622715058E+01  0.12728158373E+03  0.14872232418E+03  0.00000000000E+00 0.  1.
          4    1    6    6  503    0  0.12036276109E+01  0.44404577335E+02 -0.40412402146E+02  0.60053121941E+02  0.00000000000E+00 0. -1.
         -4    1    6    6    0  503 -0.14545490103E+03  0.19104579144E+03 -0.62552497420E+02  0.24812988049E+03  0.00000000000E+00 0.  1.
<mgrwt>
<rscale>  0 0.37315160E+03</rscale>
<asrwt>0</asrwt>
<pdfrwt beam="1">  1        2 0.11505618E+00 0.37315160E+03</pdfrwt>
<pdfrwt beam="2">  1       -2 0.58400653E-01 0.37315160E+03</pdfrwt>
<totfact> 0.10786886E+02</totfact>
</mgrwt>
</event>
<event>
12    1  0.3147868E-008  0.6676466E+03  0.7818608E-02  0.9774219E-01
         -1   -1    0    0    0  501 -0.00000000000E+00  0.00000000000E+00  0.12196240952E+04  0.12196240952E+04  0.00000000000E+00 0.  1.
          1   -1    0    0  501    0  0.00000000000E+00 -0.00000000000E+00 -0.60194966026E+03  0.60194966026E+03  0.00000000000E+00 0. -1.
         23    2    1    2    0    0  0.40571149013E+03 -0.46218871025E+03 -0.18169344997E+03  0.64793698931E+03  0.92680177168E+02 0.  0.
    5000000    2    1    2    0    0 -0.40571149013E+03  0.46218871025E+03  0.79936788491E+03  0.11736367662E+04  0.60017832880E+03 0.  0.
         23    2    4    4    0    0 -0.11133476826E+02  0.27920247391E+03  0.63534908123E+03  0.70005399002E+03  0.91264221765E+02 0.  0.
         23    2    4    4    0    0 -0.39457801331E+03  0.18298623634E+03  0.16401880368E+03  0.47358277615E+03  0.90568795008E+02 0.  0.
          5    1    3    3  502    0  0.29580794926E+03 -0.30522701089E+03 -0.85923098705E+02  0.43367123482E+03  0.47000000000E+01 0.  1.
         -5    1    3    3    0  502  0.10990354087E+03 -0.15696169937E+03 -0.95770351260E+02  0.21426575448E+03  0.47000000000E+01 0. -1.
         13    1    5    5    0    0  0.86428933044E+01  0.10716601463E+02  0.50423327544E+01  0.14661864519E+02  0.00000000000E+00 0. -1.
        -13    1    5    5    0    0 -0.19776370131E+02  0.26848587245E+03  0.63030674848E+03  0.68539212550E+03  0.00000000000E+00 0.  1.
          4    1    6    6  503    0 -0.25504319933E+03  0.13046114033E+03  0.62510876517E+02  0.29321451592E+03  0.00000000000E+00 0. -1.
         -4    1    6    6    0  503 -0.13953481398E+03  0.52525096010E+02  0.10150792717E+03  0.18036826024E+03  0.00000000000E+00 0.  1.
<mgrwt>
<rscale>  0 0.66764656E+03</rscale>
<asrwt>0</asrwt>
<pdfrwt beam="1">  1        1 0.92607640E-01 0.66764656E+03</pdfrwt>
<pdfrwt beam="2">  1       -1 0.18763448E+00 0.66764656E+03</pdfrwt>
<totfact> 0.65505701E+00</totfact>
</mgrwt>
</event>
<event>
12    1  0.3147868E-008  0.1669344E+04  0.7818608E-02  0.8779044E-01
         -2   -1    0    0    0  501 -0.00000000000E+00  0.00000000000E+00  0.12499249501E+04  0.12499249501E+04  0.00000000000E+00 0.  1.
          2   -1    0    0  501    0  0.00000000000E+00 -0.00000000000E+00 -0.23166760032E+04  0.23166760032E+04  0.00000000000E+00 0. -1.
         23    2    1    2    0    0 -0.14636647904E+04 -0.75032164551E+03 -0.61626807211E+03  0.17587954030E+04  0.90982099480E+02 0.  0.
    5000000    2    1    2    0    0  0.14636647904E+04  0.75032164551E+03 -0.45048298098E+03  0.18078055503E+04  0.59994066460E+03 0.  0.
         23    2    4    4    0    0  0.74876791953E+03  0.18091147919E+03 -0.43494430306E+03  0.88912040045E+03  0.89309457009E+02 0.  0.
         23    2    4    4    0    0  0.71489687091E+03  0.56941016632E+03 -0.15538677926E+02  0.91868514985E+03  0.91844871921E+02 0.  0.
          5    1    3    3  502    0 -0.62373083947E+03 -0.34962266211E+03 -0.22927958060E+03  0.75091103471E+03  0.47000000000E+01 0. -1.
         -5    1    3    3    0  502 -0.83993395097E+03 -0.40069898340E+03 -0.38698849151E+03  0.10078843683E+04  0.47000000000E+01 0.  1.
         11    1    5    5    0    0  0.50364633275E+03  0.16055832830E+03 -0.27683762771E+03  0.59672244586E+03  0.00000000000E+00 0.  1.
        -11    1    5    5    0    0  0.24512158678E+03  0.20353150889E+02 -0.15810667535E+03  0.29239795459E+03  0.00000000000E+00 0. -1.
          4    1    6    6  503    0  0.39273921608E+03  0.36978501295E+03 -0.15069739362E+01  0.53943240412E+03  0.00000000000E+00 0. -1.
         -4    1    6    6    0  503  0.32215765484E+03  0.19962515338E+03 -0.14031703990E+02  0.37925274573E+03  0.00000000000E+00 0.  1.
<mgrwt>
<rscale>  0 0.16693443E+04</rscale>
<asrwt>0</asrwt>
<pdfrwt beam="1">  1        2 0.35641169E+00 0.16693443E+04</pdfrwt>
<pdfrwt beam="2">  1       -2 0.19229615E+00 0.16693443E+04</pdfrwt>
<totfact> 0.61326943E-01</totfact>
</mgrwt>
</event>
<event>
12    1  0.3147868E-008  0.9596809E+03  0.7818608E-02  0.9353906E-01
          1   -1    0    0  501    0  0.00000000000E+00  0.00000000000E+00  0.32937593462E+04  0.32937593462E+04  0.00000000000E+00 0. -1.
         -1   -1    0    0    0  501 -0.00000000000E+00 -0.00000000000E+00 -0.40949277278E+03  0.40949277278E+03  0.00000000000E+00 0.  1.
         23    2    1    2    0    0  0.85078394317E+02  0.91368651473E+03  0.22614184408E+04  0.24422747001E+04  0.92902994233E+02 0.  0.
    5000000    2    1    2    0    0 -0.85078394317E+02 -0.91368651473E+03  0.62284813267E+03  0.12609774188E+04  0.60005239278E+03 0.  0.
         23    2    4    4    0    0  0.14153689465E+03 -0.54437867270E+03  0.10576516131E+03  0.58016766647E+03  0.95012736165E+02 0.  0.
         23    2    4    4    0    0 -0.22661528897E+03 -0.36930784203E+03  0.51708297135E+03  0.68080975237E+03  0.91566086928E+02 0.  0.
          5    1    3    3  502    0  0.29693112835E+02  0.23010016710E+03  0.47298184202E+03  0.52684122915E+03  0.47000000000E+01 0. -1.
         -5    1    3    3    0  502  0.55385281482E+02  0.68358634763E+03  0.17884365987E+04  0.19154334710E+04  0.47000000000E+01 0.  1.
         13    1    5    5    0    0  0.71432024520E+02 -0.38154578022E+03  0.36697051400E+02  0.38990561693E+03  0.00000000000E+00 0. -1.
        -13    1    5    5    0    0  0.70104870133E+02 -0.16283289248E+03  0.69068109915E+02  0.19026204955E+03  0.00000000000E+00 0.  1.
          1    1    6    6  503    0 -0.16849934135E+03 -0.23048285526E+03  0.27931095006E+03  0.39941079283E+03  0.00000000000E+00 0. -1.
         -1    1    6    6    0  503 -0.58115947619E+02 -0.13882498677E+03  0.23777202129E+03  0.28139895954E+03  0.00000000000E+00 0.  1.
<mgrwt>
<rscale>  0 0.95968093E+03</rscale>
<asrwt>0</asrwt>
<pdfrwt beam="1">  1        1 0.50673219E+00 0.95968093E+03</pdfrwt>
<pdfrwt beam="2">  1       -1 0.62998890E-01 0.95968093E+03</pdfrwt>
<totfact> 0.96136302E-01</totfact>
</mgrwt>
</event>
<event>
12    1  0.3147868E-008  0.7755096E+03  0.7818608E-02  0.9596158E-01
          2   -1    0    0  501    0  0.00000000000E+00  0.00000000000E+00  0.23680440436E+04  0.23680440436E+04  0.00000000000E+00 0. -1.
         -2   -1    0    0    0  501 -0.00000000000E+00 -0.00000000000E+00 -0.42930876703E+03  0.42930876703E+03  0.00000000000E+00 0.  1.
         23    2    1    2    0    0 -0.44341696826E+03 -0.57589036682E+03  0.16599745273E+04  0.18147458329E+04  0.97563743638E+02 0.  0.
    5000000    2    1    2    0    0  0.44341696826E+03  0.57589036682E+03  0.27876074921E+03  0.98260697776E+03  0.59961704038E+03 0.  0.
         23    2    4    4    0    0  0.31601137879E+03  0.12175227180E+03 -0.10699988054E+03  0.36625232407E+03  0.89470571918E+02 0.  0.
         23    2    4    4    0    0  0.12740558947E+03  0.45413809502E+03  0.38576062975E+03  0.61635465369E+03  0.92780397121E+02 0.  0.
          5    1    3    3  502    0 -0.33054471974E+03 -0.36176806125E+03  0.11586843927E+04  0.12580570551E+04  0.47000000000E+01 0. -1.
         -5    1    3    3    0  502 -0.11287224852E+03 -0.21412230557E+03  0.50129013464E+03  0.55668877779E+03  0.47000000000E+01 0.  1.
         13    1    5    5    0    0  0.71226339033E+01 -0.68079398253E+01 -0.17223289780E+02  0.19842420952E+02  0.00000000000E+00 0. -1.
        -13    1    5    5    0    0  0.30888874488E+03  0.12856021163E+03 -0.89776590756E+02  0.34640990312E+03  0.00000000000E+00 0.  1.
          3    1    6    6  503    0  0.45005577025E+02  0.25471424065E+03  0.25928872001E+03  0.36624511830E+03  0.00000000000E+00 0. -1.
         -3    1    6    6    0  503  0.82400012444E+02  0.19942385437E+03  0.12647190974E+03  0.25010953540E+03  0.00000000000E+00 0.  1.
<mgrwt>
<rscale>  0 0.77550962E+03</rscale>
<asrwt>0</asrwt>
<pdfrwt beam="1">  1        2 0.36431446E+00 0.77550962E+03</pdfrwt>
<pdfrwt beam="2">  1       -2 0.66047504E-01 0.77550962E+03</pdfrwt>
<totfact> 0.91027208E+00</totfact>
</mgrwt>
</event>
<event>
12    1  0.3147868E-008  0.7414815E+03  0.7818608E-02  0.9648810E-01
         -2   -1    0    0    0  501 -0.00000000000E+00  0.00000000000E+00  0.44356352172E+03  0.44356352172E+03  0.00000000000E+00 0.  1.
          2   -1    0    0  501    0  0.00000000000E+00 -0.00000000000E+00 -0.15741478538E+04  0.15741478538E+04  0.00000000000E+00 0. -1.
         23    2    1    2    0    0  0.47033169647E+03 -0.46195393759E+03 -0.13140435188E+03  0.67860028274E+03  0.92832617542E+02 0.  0.
    5000000    2    1    2    0    0 -0.47033169647E+03  0.46195393759E+03 -0.99917998019E+03  0.13391110928E+04  0.60020374939E+03 0.  0.
         23    2    4    4    0    0  0.10152971981E+03  0.96796319858E+02 -0.38375222151E+03  0.41848672816E+03  0.90485151234E+02 0.  0.
         23    2    4    4    0    0 -0.57186141628E+03  0.36515761774E+03 -0.61542775868E+03  0.92062436460E+03  0.91827715429E+02 0.  0.
          5    1    3    3  502    0  0.16627115519E+03 -0.11696475074E+03 -0.13218112653E+02  0.20377354702E+03  0.47000000000E+01 0. -1.
         -5    1    3    3    0  502  0.30406054128E+03 -0.34498918686E+03 -0.11818623923E+03  0.47482673572E+03  0.47000000000E+01 0.  1.
         11    1    5    5    0    0  0.88515720316E+02  0.90110507595E+02 -0.38359336351E+03  0.40385493046E+03  0.00000000000E+00 0.  1.
        -11    1    5    5    0    0  0.13013999490E+02  0.66858122629E+01 -0.15885799750E+00  0.14631797709E+02  0.00000000000E+00 0. -1.
          1    1    6    6  503    0 -0.27611288480E+03  0.16456886255E+03 -0.23151264484E+03  0.39613045880E+03  0.00000000000E+00 0. -1.
         -1    1    6    6    0  503 -0.29574853148E+03  0.20058875519E+03 -0.38391511384E+03  0.52449390579E+03  0.00000000000E+00 0.  1.
<mgrwt>
<rscale>  0 0.74148154E+03</rscale>
<asrwt>0</asrwt>
<pdfrwt beam="1">  1        2 0.24217659E+00 0.74148154E+03</pdfrwt>
<pdfrwt beam="2">  1       -2 0.68240542E-01 0.74148154E+03</pdfrwt>
<totfact> 0.23249763E+01</totfact>
</mgrwt>
</event>
<event>
12    1  0.3147868E-008  0.8723462E+03  0.7818608E-02  0.9460826E-01
          1   -1    0    0  501    0  0.00000000000E+00  0.00000000000E+00  0.96807462803E+03  0.96807462803E+03  0.00000000000E+00 0. -1.
         -1   -1    0    0    0  501 -0.00000000000E+00 -0.00000000000E+00 -0.10151034835E+04  0.10151034835E+04  0.00000000000E+00 0.  1.
         23    2    1    2    0    0  0.76054667033E+03  0.34150686716E+03  0.31270770039E+03  0.89491089503E+03  0.89561297916E+02 0.  0.
    5000000    2    1    2    0    0 -0.76054667033E+03 -0.34150686716E+03 -0.35973655588E+03  0.10882672165E+04  0.59988079386E+03 0.  0.
         23    2    4    4    0    0 -0.11488574821E+03  0.64682662664E+02  0.10258342052E+03  0.19170712512E+03  0.94051484127E+02 0.  0.
         23    2    4    4    0    0 -0.64566092213E+03 -0.40618952982E+03 -0.46231997640E+03  0.89656009140E+03  0.90621611147E+02 0.  0.
          5    1    3    3  502    0  0.52759050966E+03  0.26961122231E+03  0.25031289278E+03  0.64321115613E+03  0.47000000000E+01 0. -1.
         -5    1    3    3    0  502  0.23295616067E+03  0.71895644845E+02  0.62394807609E+02  0.25169973890E+03  0.47000000000E+01 0.  1.
         11    1    5    5    0    0 -0.26514964112E+02  0.48253171456E+02 -0.34034486207E+00  0.55059310857E+02  0.00000000000E+00 0.  1.
        -11    1    5    5    0    0 -0.88370784095E+02  0.16429491209E+02  0.10292376538E+03  0.13664781427E+03  0.00000000000E+00 0. -1.
          2    1    6    6  503    0 -0.29694119508E+03 -0.16908523622E+03 -0.15764344493E+03  0.37631814488E+03  0.00000000000E+00 0.  1.
         -2    1    6    6    0  503 -0.34871972705E+03 -0.23710429361E+03 -0.30467653148E+03  0.52024194651E+03  0.00000000000E+00 0. -1.
<mgrwt>
<rscale>  0 0.87234620E+03</rscale>
<asrwt>0</asrwt>
<pdfrwt beam="1">  1        1 0.14893456E+00 0.87234620E+03</pdfrwt>
<pdfrwt beam="2">  1       -1 0.15616977E+00 0.87234620E+03</pdfrwt>
<totfact> 0.51036138E+00</totfact>
</mgrwt>
</event>
<event>
12    1  0.3147868E-008  0.5570194E+03  0.7818608E-02  0.9998821E-01
          2   -1    0    0  501    0  0.00000000000E+00  0.00000000000E+00  0.16771297911E+04  0.16771297911E+04  0.00000000000E+00 0. -1.
         -2   -1    0    0    0  501 -0.00000000000E+00 -0.00000000000E+00 -0.51501307721E+03  0.51501307721E+03  0.00000000000E+00 0.  1.
         23    2    1    2    0    0 -0.14064880167E+03 -0.52478660881E+03  0.12615512262E+04  0.13766607646E+04  0.92197040659E+02 0.  0.
    5000000    2    1    2    0    0  0.14064880167E+03  0.52478660881E+03 -0.99434512291E+02  0.81548210372E+03  0.59995063885E+03 0.  0.
         23    2    4    4    0    0  0.94308008244E+02  0.17145623642E+03 -0.32074827702E+03  0.38619512684E+03  0.89308327490E+02 0.  0.
         23    2    4    4    0    0  0.46340793426E+02  0.35333037238E+03  0.22131376473E+03  0.42928697688E+03  0.91201452157E+02 0.  0.
          5    1    3    3  502    0 -0.14121008376E+03 -0.43245107526E+03  0.98318039948E+03  0.10833374397E+04  0.47000000000E+01 0. -1.
         -5    1    3    3    0  502  0.56128208628E+00 -0.92335533548E+02  0.27837082673E+03  0.29332332496E+03  0.47000000000E+01 0.  1.
         11    1    5    5    0    0  0.15666156987E+02  0.10723095108E+03 -0.12319160760E+03  0.16407339067E+03  0.00000000000E+00 0. -1.
        -11    1    5    5    0    0  0.78641851257E+02  0.64225285343E+02 -0.19755666942E+03  0.22212173617E+03  0.00000000000E+00 0.  1.
          2    1    6    6  503    0  0.47434965906E+02  0.33188979171E+03  0.17488382220E+03  0.37813391953E+03  0.00000000000E+00 0. -1.
         -2    1    6    6    0  503 -0.10941724801E+01  0.21440580672E+02  0.46429942525E+02  0.51153057346E+02  0.00000000000E+00 0.  1.
<mgrwt>
<rscale>  0 0.55701943E+03</rscale>
<asrwt>0</asrwt>
<pdfrwt beam="1">  1        2 0.25801997E+00 0.55701943E+03</pdfrwt>
<pdfrwt beam="2">  1       -2 0.79232782E-01 0.55701943E+03</pdfrwt>
<totfact> 0.15109262E+01</totfact>
</mgrwt>
</event>
<event>
12    1  0.3147868E-008  0.3488856E+03  0.7818608E-02  0.1063073E+00
          2   -1    0    0  501    0  0.00000000000E+00  0.00000000000E+00  0.11884019246E+04  0.11884019246E+04  0.00000000000E+00 0. -1.
         -2   -1    0    0    0  501 -0.00000000000E+00 -0.00000000000E+00 -0.16446916637E+03  0.16446916637E+03  0.00000000000E+00 0.  1.
         23    2    1    2    0    0  0.52453461867E+01 -0.20964738932E+03  0.41393232353E+03  0.47202228172E+03  0.86518925513E+02 0.  0.
    5000000    2    1    2    0    0 -0.52453461867E+01  0.20964738932E+03  0.61000043467E+03  0.88084880921E+03  0.59984544083E+03 0.  0.
         23    2    4    4    0    0 -0.17037349056E+03 -0.42405799252E+02  0.51413468213E+03  0.55143147349E+03  0.94428917647E+02 0.  0.
         23    2    4    4    0    0  0.16512814438E+03  0.25205318857E+03  0.95865752534E+02  0.32941733572E+03  0.92344055717E+02 0.  0.
          5    1    3    3  502    0 -0.36001513670E+01 -0.30686216827E+02  0.14984398220E+02  0.34658724486E+02  0.47000000000E+01 0. -1.
         -5    1    3    3    0  502  0.88454975537E+01 -0.17896117250E+03  0.39894792531E+03  0.43736355723E+03  0.47000000000E+01 0.  1.
         13    1    5    5    0    0 -0.64346564559E+02 -0.36616365063E+02  0.33591310216E+03  0.34397507288E+03  0.00000000000E+00 0. -1.
        -13    1    5    5    0    0 -0.10602692601E+03 -0.57894341895E+01  0.17822157998E+03  0.20745640061E+03  0.00000000000E+00 0.  1.
          2    1    6    6  503    0  0.11961969502E+03  0.12932820088E+03  0.91363801962E+02  0.19844898410E+03  0.00000000000E+00 0. -1.
         -2    1    6    6    0  503  0.45508449354E+02  0.12272498769E+03  0.45019505727E+01  0.13096835162E+03  0.00000000000E+00 0.  1.
<mgrwt>
<rscale>  0 0.34888558E+03</rscale>
<asrwt>0</asrwt>
<pdfrwt beam="1">  1        2 0.18283106E+00 0.34888558E+03</pdfrwt>
<pdfrwt beam="2">  1       -2 0.25302949E-01 0.34888558E+03</pdfrwt>
<totfact> 0.28163349E+02</totfact>
</mgrwt>
</event>
<event>
12    1  0.3147868E-008  0.9154646E+03  0.7818608E-02  0.9406454E-01
         -1   -1    0    0    0  501 -0.00000000000E+00  0.00000000000E+00  0.56727017736E+03  0.56727017736E+03  0.00000000000E+00 0.  1.
          1   -1    0    0  501    0  0.00000000000E+00 -0.00000000000E+00 -0.20278276950E+04  0.20278276950E+04  0.00000000000E+00 0. -1.
         23    2    1    2    0    0 -0.31690424640E+03 -0.82165253620E+03 -0.13411144212E+03  0.89365463216E+03  0.71354965159E+02 0.  0.
    5000000    2    1    2    0    0  0.31690424640E+03  0.82165253620E+03 -0.13264460755E+04  0.17014432402E+04  0.59992392576E+03 0.  0.
         23    2    4    4    0    0  0.38799172947E+03  0.72930053146E+03 -0.79706035691E+03  0.11516758083E+04  0.92925279029E+02 0.  0.
         23    2    4    4    0    0 -0.71087483073E+02  0.92352004736E+02 -0.52938571861E+03  0.54976743191E+03  0.91720592538E+02 0.  0.
          5    1    3    3  502    0 -0.14817071797E+03 -0.30657456697E+03 -0.31434242643E+02  0.34198352064E+03  0.47000000000E+01 0. -1.
         -5    1    3    3    0  502 -0.16873352842E+03 -0.51507796922E+03 -0.10267719947E+03  0.55167111152E+03  0.47000000000E+01 0.  1.
         13    1    5    5    0    0  0.54276000196E+02  0.16365211346E+03 -0.20036863012E+03  0.26433971774E+03  0.00000000000E+00 0. -1.
        -13    1    5    5    0    0  0.33371572927E+03  0.56564841801E+03 -0.59669172679E+03  0.88733609054E+03  0.00000000000E+00 0.  1.
          1    1    6    6  503    0 -0.31824381902E+02  0.61538541628E+02 -0.13030382941E+03  0.14757666261E+03  0.00000000000E+00 0. -1.
         -1    1    6    6    0  503 -0.39263101171E+02  0.30813463108E+02 -0.39908188920E+03  0.40219076930E+03  0.00000000000E+00 0.  1.
<mgrwt>
<rscale>  0 0.91546459E+03</rscale>
<asrwt>0</asrwt>
<pdfrwt beam="1">  1        1 0.31197349E+00 0.91546459E+03</pdfrwt>
<pdfrwt beam="2">  1       -1 0.87272335E-01 0.91546459E+03</pdfrwt>
<totfact> 0.37752558E+00</totfact>
</mgrwt>
</event>
<event>
12    1  0.3147868E-008  0.9645877E+03  0.7818608E-02  0.9348260E-01
          1   -1    0    0  501    0  0.00000000000E+00  0.00000000000E+00  0.17375622050E+04  0.17375622050E+04  0.00000000000E+00 0. -1.
         -1   -1    0    0    0  501 -0.00000000000E+00 -0.00000000000E+00 -0.70869211044E+03  0.70869211044E+03  0.00000000000E+00 0.  1.
         23    2    1    2    0    0  0.82297291757E+03 -0.33957091406E+03  0.10406413505E+04  0.13726105873E+04  0.92371939697E+02 0.  0.
    5000000    2    1    2    0    0 -0.82297291757E+03  0.33957091406E+03 -0.11771255898E+02  0.10736437282E+04  0.59998288631E+03 0.  0.
         23    2    4    4    0    0 -0.37656923657E+02 -0.98888771241E+02  0.80030465128E+02  0.16506056594E+03  0.98199196047E+02 0.  0.
         23    2    4    4    0    0 -0.78531599391E+03  0.43845968530E+03 -0.91801721026E+02  0.90858316224E+03  0.90153761926E+02 0.  0.
          5    1    3    3  502    0  0.69166592890E+03 -0.30779714851E+03  0.91974300863E+03  0.11912556962E+04  0.47000000000E+01 0. -1.
         -5    1    3    3    0  502  0.13130698867E+03 -0.31773765550E+02  0.12089834185E+03  0.18135489107E+03  0.47000000000E+01 0.  1.
         13    1    5    5    0    0  0.25606196257E+02 -0.43278409912E+02  0.21327496384E+01  0.50331368671E+02  0.00000000000E+00 0. -1.
        -13    1    5    5    0    0 -0.63263119915E+02 -0.55610361329E+02  0.77897715490E+02  0.11472919727E+03  0.00000000000E+00 0.  1.
          4    1    6    6  503    0 -0.58307600814E+02  0.56389417915E+02 -0.23535811186E+02  0.84459914597E+02  0.00000000000E+00 0. -1.
         -4    1    6    6    0  503 -0.72700839310E+03  0.38207026738E+03 -0.68265909840E+02  0.82412324764E+03  0.00000000000E+00 0.  1.
<mgrwt>
<rscale>  0 0.96458769E+03</rscale>
<asrwt>0</asrwt>
<pdfrwt beam="1">  1        1 0.26731726E+00 0.96458769E+03</pdfrwt>
<pdfrwt beam="2">  1       -1 0.10902956E+00 0.96458769E+03</pdfrwt>
<totfact> 0.35460079E+00</totfact>
</mgrwt>
</event>
<event>
12    1  0.3147868E-008  0.1361337E+04  0.7818608E-02  0.8982290E-01
          2   -1    0    0  501    0  0.00000000000E+00  0.00000000000E+00  0.25293260115E+04  0.25293260115E+04  0.00000000000E+00 0. -1.
         -2   -1    0    0    0  501 -0.00000000000E+00 -0.00000000000E+00 -0.11886912989E+04  0.11886912989E+04  0.00000000000E+00 0.  1.
         23    2    1    2    0    0 -0.12917923847E+04 -0.17008641080E+03  0.17892962198E+04  0.22150476170E+04  0.84841210333E+02 0.  0.
    5000000    2    1    2    0    0  0.12917923847E+04  0.17008641080E+03 -0.44866150719E+03  0.15029696934E+04  0.59996983172E+03 0.  0.
         23    2    4    4    0    0  0.24051487143E+03  0.25535632152E+03 -0.20656631848E+03  0.41703085241E+03  0.90503224305E+02 0.  0.
         23    2    4    4    0    0  0.10512775133E+04 -0.85269910724E+02 -0.24209518871E+03  0.10859388410E+04  0.90541252632E+02 0.  0.
          5    1    3    3  502    0 -0.33515963929E+03 -0.98334117060E+01  0.43627021190E+03  0.55025672879E+03  0.47000000000E+01 0. -1.
         -5    1    3    3    0  502 -0.95663274540E+03 -0.16025299909E+03  0.13530260079E+04  0.16647908882E+04  0.47000000000E+01 0.  1.
         13    1    5    5    0    0  0.15724982091E+03  0.22309568494E+03 -0.15816927019E+03  0.31546269011E+03  0.00000000000E+00 0. -1.
        -13    1    5    5    0    0  0.83265050516E+02  0.32260636581E+02 -0.48397048282E+02  0.10156816230E+03  0.00000000000E+00 0.  1.
          3    1    6    6  503    0  0.56428062864E+03 -0.60156144072E+02 -0.17405471337E+03  0.59357091638E+03  0.00000000000E+00 0. -1.
         -3    1    6    6    0  503  0.48699688462E+03 -0.25113766652E+02 -0.68040475340E+02  0.49236792462E+03  0.00000000000E+00 0.  1.
<mgrwt>
<rscale>  0 0.13613372E+04</rscale>
<asrwt>0</asrwt>
<pdfrwt beam="1">  1        2 0.38912708E+00 0.13613372E+04</pdfrwt>
<pdfrwt beam="2">  1       -2 0.18287559E+00 0.13613372E+04</pdfrwt>
<totfact> 0.55453406E-01</totfact>
</mgrwt>
</event>
<event>
12    1  0.3147868E-008  0.2204555E+04  0.7818608E-02  0.8516535E-01
         -1   -1    0    0    0  501 -0.00000000000E+00  0.00000000000E+00  0.12167415329E+04  0.12167415329E+04  0.00000000000E+00 0.  1.
          1   -1    0    0  501    0  0.00000000000E+00 -0.00000000000E+00 -0.40396560028E+04  0.40396560028E+04  0.00000000000E+00 0. -1.
         23    2    1    2    0    0 -0.95516988221E+03  0.19440342784E+04 -0.11463502998E+04  0.24523745679E+04  0.91669142104E+02 0.  0.
    5000000    2    1    2    0    0  0.95516988221E+03 -0.19440342784E+04 -0.16765641701E+04  0.28040229678E+04  0.60004883813E+03 0.  0.
         23    2    4    4    0    0  0.45143873815E+03 -0.15027491492E+04 -0.11663253372E+04  0.19570750430E+04  0.88181584935E+02 0.  0.
         23    2    4    4    0    0  0.50373114407E+03 -0.44128512924E+03 -0.51023883282E+03  0.84694792483E+03  0.92192679022E+02 0.  0.
          5    1    3    3  502    0 -0.56021269957E+03  0.12199132213E+04 -0.67955425796E+03  0.15046071300E+04  0.47000000000E+01 0. -1.
         -5    1    3    3    0  502 -0.39495718264E+03  0.72412105713E+03 -0.46679604186E+03  0.94776743782E+03  0.47000000000E+01 0.  1.
         11    1    5    5    0    0  0.33258991230E+03 -0.12133231460E+04 -0.95553287227E+03  0.15798139689E+04  0.00000000000E+00 0. -1.
        -11    1    5    5    0    0  0.11884882584E+03 -0.28942600322E+03 -0.21079246498E+03  0.37726107411E+03  0.00000000000E+00 0.  1.
          3    1    6    6  503    0  0.36269374336E+02 -0.18984829402E+02 -0.90318043470E+01  0.41922127235E+02  0.00000000000E+00 0. -1.
         -3    1    6    6    0  503  0.46746176973E+03 -0.42230029983E+03 -0.50120702847E+03  0.80502579759E+03  0.00000000000E+00 0.  1.
<mgrwt>
<rscale>  0 0.22045549E+04</rscale>
<asrwt>0</asrwt>
<pdfrwt beam="1">  1        1 0.62148552E+00 0.22045549E+04</pdfrwt>
<pdfrwt beam="2">  1       -1 0.18719101E+00 0.22045549E+04</pdfrwt>
<totfact> 0.14370154E-02</totfact>
</mgrwt>
</event>
<event>
12    1  0.3147868E-008  0.1856031E+04  0.7818608E-02  0.8677058E-01
          2   -1    0    0  501    0  0.00000000000E+00  0.00000000000E+00  0.20205704860E+04  0.20205704860E+04  0.00000000000E+00 0. -1.
         -2   -1    0    0    0  501 -0.00000000000E+00 -0.00000000000E+00 -0.18175646384E+04  0.18175646384E+04  0.00000000000E+00 0.  1.
         23    2    1    2    0    0 -0.10775280994E+04 -0.14984379799E+04 -0.18812362064E+03  0.18584049372E+04  0.10906525275E+03 0.  0.
    5000000    2    1    2    0    0  0.10775280994E+04  0.14984379799E+04  0.39112946823E+03  0.19797301871E+04  0.59997180626E+03 0.  0.
         23    2    4    4    0    0  0.45764693238E+03  0.43318312887E+03  0.38453557868E+03  0.74371681331E+03  0.90325795180E+02 0.  0.
         23    2    4    4    0    0  0.61988116699E+03  0.10652548511E+04  0.65938895483E+01  0.12360133738E+04  0.93086099882E+02 0.  0.
          5    1    3    3  502    0 -0.77248996717E+03 -0.11470725925E+04 -0.16106521102E+03  0.13922932069E+04  0.47000000000E+01 0. -1.
         -5    1    3    3    0  502 -0.30503813220E+03 -0.35136538749E+03 -0.27058409628E+02  0.46611173033E+03  0.47000000000E+01 0.  1.
         11    1    5    5    0    0  0.20085159665E+03  0.19415252317E+03  0.11858008538E+03  0.30347619805E+03  0.00000000000E+00 0.  1.
        -11    1    5    5    0    0  0.25679533573E+03  0.23903060569E+03  0.26595549330E+03  0.44024061526E+03  0.00000000000E+00 0. -1.
          3    1    6    6  503    0  0.26838649220E+03  0.51355009891E+03 -0.35184886669E+02  0.58051958583E+03  0.00000000000E+00 0. -1.
         -3    1    6    6    0  503  0.35149467478E+03  0.55170475217E+03  0.41778776218E+02  0.65549378800E+03  0.00000000000E+00 0.  1.
<mgrwt>
<rscale>  0 0.18560308E+04</rscale>
<asrwt>0</asrwt>
<pdfrwt beam="1">  1        2 0.31085700E+00 0.18560308E+04</pdfrwt>
<pdfrwt beam="2">  1       -2 0.27962533E+00 0.18560308E+04</pdfrwt>
<totfact> 0.24890057E-01</totfact>
</mgrwt>
</event>
<event>
12    1  0.3147868E-008  0.4917026E+03  0.7818608E-02  0.1015968E+00
         -2   -1    0    0    0  501 -0.00000000000E+00  0.00000000000E+00  0.40245225349E+03  0.40245225349E+03  0.00000000000E+00 0.  1.
          2   -1    0    0  501    0  0.00000000000E+00 -0.00000000000E+00 -0.10072890783E+04  0.10072890783E+04  0.00000000000E+00 0. -1.
         23    2    1    2    0    0 -0.30414821599E+03  0.17148807779E+03 -0.61755873118E+03  0.71537146971E+03  0.91995951505E+02 0.  0.
    5000000    2    1    2    0    0  0.30414821599E+03 -0.17148807779E+03  0.12721906358E+02  0.69436986209E+03  0.60006113052E+03 0.  0.
         23    2    4    4    0    0  0.32896102862E+03  0.96513463802E+02  0.14196757470E+03  0.38176349702E+03  0.89768415085E+02 0.  0.
         23    2    4    4    0    0 -0.24812812624E+02 -0.26800154160E+03 -0.12924566834E+03  0.31260636507E+03  0.92616384781E+02 0.  0.
          5    1    3    3  502    0 -0.16950610779E+03  0.47583150911E+02 -0.26607299378E+03  0.31908212869E+03  0.47000000000E+01 0. -1.
         -5    1    3    3    0  502 -0.13464210820E+03  0.12390492688E+03 -0.35148573741E+03  0.39628934102E+03  0.47000000000E+01 0.  1.
         11    1    5    5    0    0  0.27725127540E+03  0.95600134194E+02  0.15003385658E+03  0.32942042057E+03  0.00000000000E+00 0. -1.
        -11    1    5    5    0    0  0.51709753218E+02  0.91332960823E+00 -0.80662818806E+01  0.52343076450E+02  0.00000000000E+00 0.  1.
          2    1    6    6  503    0 -0.51433716710E+02 -0.16226742088E+03 -0.48715249244E+02  0.17705738788E+03  0.00000000000E+00 0. -1.
         -2    1    6    6    0  503  0.26620904086E+02 -0.10573412072E+03 -0.80530419098E+02  0.13554897720E+03  0.00000000000E+00 0.  1.
<mgrwt>
<rscale>  0 0.49170263E+03</rscale>
<asrwt>0</asrwt>
<pdfrwt beam="1">  1        2 0.15496755E+00 0.49170263E+03</pdfrwt>
<pdfrwt beam="2">  1       -2 0.61915732E-01 0.49170263E+03</pdfrwt>
<totfact> 0.62915817E+01</totfact>
</mgrwt>
</event>
<event>
12    1  0.3147868E-008  0.6649063E+03  0.7818608E-02  0.9779204E-01
          1   -1    0    0  501    0  0.00000000000E+00  0.00000000000E+00  0.32230209149E+03  0.32230209149E+03  0.00000000000E+00 0. -1.
         -1   -1    0    0    0  501 -0.00000000000E+00 -0.00000000000E+00 -0.16678143127E+04  0.16678143127E+04  0.00000000000E+00 0.  1.
         23    2    1    2    0    0  0.51654473416E+03  0.27864841621E+03 -0.35560414995E+03  0.69228932865E+03  0.91360827798E+02 0.  0.
    5000000    2    1    2    0    0 -0.51654473416E+03 -0.27864841621E+03 -0.98990807123E+03  0.12978270755E+04  0.59997810475E+03 0.  0.
         23    2    4    4    0    0 -0.97818588359E+02  0.12203596017E+03 -0.46339993435E+02  0.18657900760E+03  0.90570852274E+02 0.  0.
         23    2    4    4    0    0 -0.41872614580E+03 -0.40068437638E+03 -0.94356807780E+03  0.11112480679E+04  0.93123554115E+02 0.  0.
          5    1    3    3  502    0  0.35077820601E+03  0.18932286767E+03 -0.19051638841E+03  0.44182245562E+03  0.47000000000E+01 0. -1.
         -5    1    3    3    0  502  0.16576652815E+03  0.89325548533E+02 -0.16508776154E+03  0.25046687303E+03  0.47000000000E+01 0.  1.
         11    1    5    5    0    0 -0.36259202580E+02  0.63038231014E+02 -0.66960838726E+02  0.98854955688E+02  0.00000000000E+00 0.  1.
        -11    1    5    5    0    0 -0.61559385779E+02  0.58997729159E+02  0.20620845292E+02  0.87724051912E+02  0.00000000000E+00 0. -1.
          3    1    6    6  503    0 -0.75533191278E+02 -0.11847212249E+03 -0.26920746469E+03  0.30366686655E+03  0.00000000000E+00 0. -1.
         -3    1    6    6    0  503 -0.34319295452E+03 -0.28221225389E+03 -0.67436061310E+03  0.80758120136E+03  0.00000000000E+00 0.  1.
<mgrwt>
<rscale>  0 0.66490634E+03</rscale>
<asrwt>0</asrwt>
<pdfrwt beam="1">  1        1 0.49584936E-01 0.66490634E+03</pdfrwt>
<pdfrwt beam="2">  1       -1 0.25658682E+00 0.66490634E+03</pdfrwt>
<totfact> 0.53078092E+00</totfact>
</mgrwt>
</event>
<event>
12    1  0.3147868E-008  0.3695533E+04  0.7818608E-02  0.8068953E-01
         -1   -1    0    0    0  501 -0.00000000000E+00  0.00000000000E+00  0.37732458047E+04  0.37732458047E+04  0.00000000000E+00 0.  1.
          1   -1    0    0  501    0  0.00000000000E+00 -0.00000000000E+00 -0.38482284384E+04  0.38482284384E+04  0.00000000000E+00 0. -1.
         23    2    1    2    0    0  0.98555913998E+03  0.35530368207E+04  0.82368010875E+03  0.37791555225E+04  0.90388462672E+02 0.  0.
    5000000    2    1    2    0    0 -0.98555913998E+03 -0.35530368207E+04 -0.89866274240E+03  0.38423187206E+04  0.60035069585E+03 0.  0.
         23    2    4    4    0    0 -0.11522619791E+03 -0.95119876832E+03 -0.44342063127E+03  0.10598900889E+04  0.93214649419E+02 0.  0.
         23    2    4    4    0    0 -0.87033294207E+03 -0.26018380524E+04 -0.45524211113E+03  0.27824286316E+04  0.87309961255E+02 0.  0.
          5    1    3    3  502    0  0.28780829638E+03  0.89709091051E+03  0.22170900403E+03  0.96787534820E+03  0.47000000000E+01 0. -1.
         -5    1    3    3    0  502  0.69775084360E+03  0.26559459102E+04  0.60197110472E+03  0.28112801743E+04  0.47000000000E+01 0.  1.
         11    1    5    5    0    0 -0.71860947095E+02 -0.56120736930E+03 -0.31175417920E+03  0.64599409852E+03  0.00000000000E+00 0.  1.
        -11    1    5    5    0    0 -0.43365250817E+02 -0.38999139902E+03 -0.13166645207E+03  0.41389599042E+03  0.00000000000E+00 0. -1.
          1    1    6    6  503    0 -0.27619374559E+03 -0.71476317585E+03 -0.14455325190E+03  0.77978524306E+03  0.00000000000E+00 0. -1.
         -1    1    6    6    0  503 -0.59413919648E+03 -0.18870748766E+04 -0.31068885923E+03  0.20026433886E+04  0.00000000000E+00 0.  1.
<mgrwt>
<rscale>  0 0.36955328E+04</rscale>
<asrwt>0</asrwt>
<pdfrwt beam="1">  1        1 0.59203514E+00 0.36955328E+04</pdfrwt>
<pdfrwt beam="2">  1       -1 0.58049936E+00 0.36955328E+04</pdfrwt>
<totfact> 0.50380783E-05</totfact>
</mgrwt>
</event>
<event>
12    1  0.3147868E-008  0.7082225E+03  0.7818608E-02  0.9703273E-01
         -2   -1    0    0    0  501 -0.00000000000E+00  0.00000000000E+00  0.64790055928E+03  0.64790055928E+03  0.00000000000E+00 0.  1.
          2   -1    0    0  501    0  0.00000000000E+00 -0.00000000000E+00 -0.79892016798E+03  0.79892016798E+03  0.00000000000E+00 0. -1.
         23    2    1    2    0    0  0.33038008278E+03 -0.48781539456E+03 -0.98708918632E+02  0.60427443690E+03  0.91045517232E+02 0.  0.
    5000000    2    1    2    0    0 -0.33038008278E+03  0.48781539456E+03 -0.52310690067E+02  0.84254629037E+03  0.60002748675E+03 0.  0.
         23    2    4    4    0    0  0.10725493523E+03 -0.43061080781E+02 -0.16887109527E+02  0.14727526128E+03  0.89704795351E+02 0.  0.
         23    2    4    4    0    0 -0.43763501801E+03  0.53087647534E+03 -0.35423580540E+02  0.69527102909E+03  0.93769572756E+02 0.  0.
          5    1    3    3  502    0  0.16080207256E+02 -0.75023170437E+02 -0.50179621341E+01  0.77034531944E+02  0.47000000000E+01 0. -1.
         -5    1    3    3    0  502  0.31429987552E+03 -0.41279222412E+03 -0.93690956498E+02  0.52723990495E+03  0.47000000000E+01 0.  1.
         11    1    5    5    0    0  0.56537730608E+02  0.11281051457E+02 -0.39140530944E+02  0.69683271069E+02  0.00000000000E+00 0. -1.
        -11    1    5    5    0    0  0.50717204620E+02 -0.54342132237E+02  0.22253421417E+02  0.77591990214E+02  0.00000000000E+00 0.  1.
          4    1    6    6  503    0 -0.11649890170E+03  0.11991031972E+03 -0.46728748286E+02  0.17359163226E+03  0.00000000000E+00 0. -1.
         -4    1    6    6    0  503 -0.32113611630E+03  0.41096615561E+03  0.11305167746E+02  0.52167939682E+03  0.00000000000E+00 0.  1.
<mgrwt>
<rscale>  0 0.70822251E+03</rscale>
<asrwt>0</asrwt>
<pdfrwt beam="1">  1        2 0.12291079E+00 0.70822251E+03</pdfrwt>
<pdfrwt beam="2">  1       -2 0.99677010E-01 0.70822251E+03</pdfrwt>
<totfact> 0.29243086E+01</totfact>
</mgrwt>
</event>
<event>
12    1  0.3147868E-008  0.1178251E+04  0.7818608E-02  0.9132109E-01
          1   -1    0    0  501    0  0.00000000000E+00  0.00000000000E+00  0.20213898726E+04  0.20213898726E+04  0.00000000000E+00 0. -1.
         -1   -1    0    0    0  501 -0.00000000000E+00 -0.00000000000E+00 -0.10155733719E+04  0.10155733719E+04  0.00000000000E+00 0.  1.
         23    2    1    2    0    0  0.80540299781E+03  0.76923872641E+03  0.13239293584E+04  0.17325118878E+04  0.91685814185E+02 0.  0.
    5000000    2    1    2    0    0 -0.80540299781E+03 -0.76923872641E+03 -0.31811285769E+03  0.13044513566E+04  0.59999612044E+03 0.  0.
         23    2    4    4    0    0 -0.70011348432E+03 -0.83541842294E+03 -0.34638034447E+03  0.11475270456E+04  0.93574276024E+02 0.  0.
         23    2    4    4    0    0 -0.10528951349E+03  0.66179696531E+02  0.28267486783E+02  0.15692431100E+03  0.91436068872E+02 0.  0.
          5    1    3    3  502    0  0.47300510339E+03  0.48847495343E+03  0.75135984214E+03  0.10133633654E+04  0.47000000000E+01 0. -1.
         -5    1    3    3    0  502  0.33239789442E+03  0.28076377298E+03  0.57256951621E+03  0.71914852243E+03  0.47000000000E+01 0.  1.
         13    1    5    5    0    0 -0.31149869522E+03 -0.30870664616E+03 -0.16166902721E+03  0.46740571762E+03  0.00000000000E+00 0.  1.
        -13    1    5    5    0    0 -0.38861478910E+03 -0.52671177678E+03 -0.18471131727E+03  0.68012132802E+03  0.00000000000E+00 0. -1.
          4    1    6    6  503    0 -0.54860840877E+02 -0.11132707885E+02  0.32118572332E+02  0.64538761494E+02  0.00000000000E+00 0. -1.
         -4    1    6    6    0  503 -0.50428672614E+02  0.77312404416E+02 -0.38510855488E+01  0.92385549509E+02  0.00000000000E+00 0.  1.
<mgrwt>
<rscale>  0 0.11782513E+04</rscale>
<asrwt>0</asrwt>
<pdfrwt beam="1">  1        1 0.31098306E+00 0.11782513E+04</pdfrwt>
<pdfrwt beam="2">  1       -1 0.15624206E+00 0.11782513E+04</pdfrwt>
<totfact> 0.88672923E-01</totfact>
</mgrwt>
</event>
<event>
12    1  0.3147868E-008  0.7775525E+03  0.7818608E-02  0.9593090E-01
          1   -1    0    0  501    0  0.00000000000E+00  0.00000000000E+00  0.15446910454E+04  0.15446910454E+04  0.00000000000E+00 0. -1.
         -1   -1    0    0    0  501 -0.00000000000E+00 -0.00000000000E+00 -0.96238032543E+03  0.96238032543E+03  0.00000000000E+00 0.  1.
         23    2    1    2    0    0 -0.66251073176E+03 -0.31749498949E+03 -0.62698534924E+03  0.97013831433E+03  0.91291745134E+02 0.  0.
    5000000    2    1    2    0    0  0.66251073176E+03  0.31749498949E+03  0.12092960692E+04  0.15369330565E+04  0.60003558153E+03 0.  0.
         23    2    4    4    0    0  0.15262490542E+02 -0.47826155168E+02  0.48306833387E+03  0.49411038827E+03  0.90938308051E+02 0.  0.
         23    2    4    4    0    0  0.64724824122E+03  0.36532114466E+03  0.72622773531E+03  0.10428226682E+04  0.87650266986E+02 0.  0.
          5    1    3    3  502    0 -0.13240966668E+03 -0.26012829472E+02 -0.12549949748E+03  0.18433990614E+03  0.47000000000E+01 0. -1.
         -5    1    3    3    0  502 -0.53010106508E+03 -0.29148216002E+03 -0.50148585176E+03  0.78579840819E+03  0.47000000000E+01 0.  1.
         13    1    5    5    0    0  0.27920078846E+02 -0.12987962926E+02  0.45296667928E+02  0.54772311519E+02  0.00000000000E+00 0. -1.
        -13    1    5    5    0    0 -0.12657588305E+02 -0.34838192242E+02  0.43777166594E+03  0.43933807675E+03  0.00000000000E+00 0.  1.
          2    1    6    6  503    0  0.27232622300E+03  0.11029208704E+03  0.31374840534E+03  0.42984180584E+03  0.00000000000E+00 0. -1.
         -2    1    6    6    0  503  0.37492201822E+03  0.25502905762E+03  0.41247932997E+03  0.61298086237E+03  0.00000000000E+00 0.  1.
<mgrwt>
<rscale>  0 0.77755252E+03</rscale>
<asrwt>0</asrwt>
<pdfrwt beam="1">  1        1 0.23764478E+00 0.77755252E+03</pdfrwt>
<pdfrwt beam="2">  1       -1 0.14805851E+00 0.77755252E+03</pdfrwt>
<totfact> 0.22929418E+00</totfact>
</mgrwt>
</event>
<event>
12    1  0.4315516E-008  0.6184131E+03  0.7818608E-02  0.9867924E-01
         -1   -1    0    0    0  501 -0.00000000000E+00  0.00000000000E+00  0.44767737414E+03  0.44767737414E+03  0.00000000000E+00 0.  1.
          1   -1    0    0  501    0  0.00000000000E+00 -0.00000000000E+00 -0.12710314699E+04  0.12710314699E+04  0.00000000000E+00 0. -1.
         23    2    1    2    0    0 -0.34199557624E+03 -0.47156468078E+03 -0.62491902125E+03  0.85917483166E+03  0.91232592346E+02 0.  0.
    5000000    2    1    2    0    0  0.34199557624E+03  0.47156468078E+03 -0.19843507452E+03  0.85953401239E+03  0.60007334330E+03 0.  0.
         23    2    4    4    0    0  0.20053051222E+03  0.91233703795E+02  0.17899488665E+03  0.29853943416E+03  0.92469180070E+02 0.  0.
         23    2    4    4    0    0  0.14146506402E+03  0.38033097699E+03 -0.37742996117E+03  0.56099457823E+03  0.87163781631E+02 0.  0.
          5    1    3    3  502    0 -0.21797462474E+03 -0.26755876510E+03 -0.30970679752E+03  0.46372515593E+03  0.47000000000E+01 0. -1.
         -5    1    3    3    0  502 -0.12402095150E+03 -0.20400591568E+03 -0.31521222373E+03  0.39544967573E+03  0.47000000000E+01 0.  1.
         11    1    5    5    0    0  0.14420592547E+03  0.10799164190E+03  0.13567666644E+03  0.22553425788E+03  0.00000000000E+00 0. -1.
        -11    1    5    5    0    0  0.56324586745E+02 -0.16757938102E+02  0.43318220209E+02  0.73005176279E+02  0.00000000000E+00 0.  1.
          3    1    6    6  503    0  0.11326036882E+02  0.14174786480E+03 -0.11077883090E+03  0.18025727631E+03  0.00000000000E+00 0. -1.
         -3    1    6    6    0  503  0.13013902714E+03  0.23858311219E+03 -0.26665113026E+03  0.38073730192E+03  0.00000000000E+00 0.  1.
<mgrwt>
<rscale>  0 0.61841313E+03</rscale>
<asrwt>0</asrwt>
<pdfrwt beam="1">  1        1 0.19554330E+00 0.61841313E+03</pdfrwt>
<pdfrwt beam="2">  1       -1 0.68873442E-01 0.61841313E+03</pdfrwt>
<totfact> 0.21268904E+01</totfact>
</mgrwt>
</event>
<event>
12    1  0.4459960E-008  0.1007357E+04  0.7818608E-02  0.9300512E-01
         -1   -1    0    0    0  501 -0.00000000000E+00  0.00000000000E+00  0.84224648731E+03  0.84224648731E+03  0.00000000000E+00 0.  1.
          1   -1    0    0  501    0  0.00000000000E+00 -0.00000000000E+00 -0.13855571222E+04  0.13855571222E+04  0.00000000000E+00 0. -1.
         23    2    1    2    0    0 -0.96061220867E+03 -0.25436777185E+03 -0.20655667215E+03  0.10190655714E+04  0.91379435350E+02 0.  0.
    5000000    2    1    2    0    0  0.96061220867E+03  0.25436777185E+03 -0.33675396270E+03  0.12087380381E+04  0.60013801286E+03 0.  0.
         23    2    4    4    0    0  0.27898947473E+03 -0.10786715160E+02 -0.36848856361E+03  0.47106594185E+03  0.90375991412E+02 0.  0.
         23    2    4    4    0    0  0.68162273394E+03  0.26515448701E+03  0.31734600916E+02  0.73767209622E+03  0.90755623742E+02 0.  0.
          5    1    3    3  502    0 -0.77418461200E+03 -0.16723152124E+03 -0.16147474865E+03  0.80834669518E+03  0.47000000000E+01 0. -1.
         -5    1    3    3    0  502 -0.18642759667E+03 -0.87136250609E+02 -0.45081923506E+02  0.21071887622E+03  0.47000000000E+01 0.  1.
         11    1    5    5    0    0  0.17455214768E+03 -0.15987103884E+02 -0.15777176902E+03  0.23583038577E+03  0.00000000000E+00 0.  1.
        -11    1    5    5    0    0  0.10443732705E+03  0.52003887240E+01 -0.21071679459E+03  0.23523555609E+03  0.00000000000E+00 0. -1.
          1    1    6    6  503    0  0.42583832583E+03  0.11803124028E+03  0.16494915092E+02  0.44220101272E+03  0.00000000000E+00 0. -1.
         -1    1    6    6    0  503  0.25578440811E+03  0.14712324672E+03  0.15239685824E+02  0.29547108350E+03  0.00000000000E+00 0.  1.
<mgrwt>
<rscale>  0 0.10073575E+04</rscale>
<asrwt>0</asrwt>
<pdfrwt beam="1">  1        1 0.21316263E+00 0.10073575E+04</pdfrwt>
<pdfrwt beam="2">  1       -1 0.12957638E+00 0.10073575E+04</pdfrwt>
<totfact> 0.40360291E+00</totfact>
</mgrwt>
</event>
<event>
12    1  0.3147868E-008  0.9540954E+03  0.7818608E-02  0.9360376E-01
          1   -1    0    0  501    0  0.00000000000E+00  0.00000000000E+00  0.10162383630E+04  0.10162383630E+04  0.00000000000E+00 0. -1.
         -1   -1    0    0    0  501 -0.00000000000E+00 -0.00000000000E+00 -0.10112501560E+04  0.10112501560E+04  0.00000000000E+00 0.  1.
         23    2    1    2    0    0  0.74053093166E+03  0.47693531962E+03  0.27657712421E+03  0.92765690536E+03  0.90548708257E+02 0.  0.
    5000000    2    1    2    0    0 -0.74053093166E+03 -0.47693531962E+03 -0.27158891715E+03  0.10998316136E+04  0.60001306534E+03 0.  0.
         23    2    4    4    0    0 -0.81116717647E+03 -0.48628804344E+03 -0.24967989834E+03  0.98237787456E+03  0.90873469276E+02 0.  0.
         23    2    4    4    0    0  0.70636244813E+02  0.93527238123E+01 -0.21909018807E+02  0.11745373907E+03  0.90765760023E+02 0.  0.
          5    1    3    3  502    0  0.35070737280E+03  0.22515121640E+03  0.17804201124E+03  0.45322155658E+03  0.47000000000E+01 0. -1.
         -5    1    3    3    0  502  0.38982355887E+03  0.25178410323E+03  0.98535112966E+02  0.47443534878E+03  0.47000000000E+01 0.  1.
         11    1    5    5    0    0 -0.69966748120E+03 -0.40905947704E+03 -0.18138568407E+03  0.83052092472E+03  0.00000000000E+00 0.  1.
        -11    1    5    5    0    0 -0.11149969527E+03 -0.77228566392E+02 -0.68294214275E+02  0.15185694984E+03  0.00000000000E+00 0. -1.
          4    1    6    6  503    0  0.11784433033E+01 -0.92328594675E+01 -0.41822496336E+02  0.42845718833E+02  0.00000000000E+00 0. -1.
         -4    1    6    6    0  503  0.69457801510E+02  0.18585583280E+02  0.19913477529E+02  0.74608020237E+02  0.00000000000E+00 0.  1.
<mgrwt>
<rscale>  0 0.95409537E+03</rscale>
<asrwt>0</asrwt>
<pdfrwt beam="1">  1        1 0.15634436E+00 0.95409537E+03</pdfrwt>
<pdfrwt beam="2">  1       -1 0.15557695E+00 0.95409537E+03</pdfrwt>
<totfact> 0.46803241E+00</totfact>
</mgrwt>
</event>
<event>
12    1  0.3147868E-008  0.1149760E+04  0.7818608E-02  0.9158005E-01
          2   -1    0    0  501    0  0.00000000000E+00  0.00000000000E+00  0.19117145756E+04  0.19117145756E+04  0.00000000000E+00 0. -1.
         -2   -1    0    0    0  501 -0.00000000000E+00 -0.00000000000E+00 -0.73091494752E+03  0.73091494752E+03  0.00000000000E+00 0.  1.
         23    2    1    2    0    0 -0.10941855922E+04 -0.46181586436E+02  0.70855513346E+03  0.13075891211E+04  0.91455362131E+02 0.  0.
    5000000    2    1    2    0    0  0.10941855922E+04  0.46181586436E+02  0.47224449463E+03  0.13350404020E+04  0.59995263411E+03 0.  0.
         23    2    4    4    0    0  0.10760793360E+04  0.15649988904E+03  0.47075799529E+03  0.11889059222E+04  0.97186670996E+02 0.  0.
         23    2    4    4    0    0  0.18106256232E+02 -0.11031830260E+03  0.14864993371E+01  0.14613447985E+03  0.94101605287E+02 0.  0.
          5    1    3    3  502    0 -0.56367147690E+03  0.61029054531E+01  0.40491912166E+03  0.69407806795E+03  0.47000000000E+01 0. -1.
         -5    1    3    3    0  502 -0.53051411534E+03 -0.52284491889E+02  0.30363601180E+03  0.61351105314E+03  0.47000000000E+01 0.  1.
         11    1    5    5    0    0  0.63105707304E+03  0.12828134858E+03  0.31206834526E+03  0.71559470788E+03  0.00000000000E+00 0.  1.
        -11    1    5    5    0    0  0.44502226296E+03  0.28218540463E+02  0.15868965004E+03  0.47331121430E+03  0.00000000000E+00 0. -1.
          1    1    6    6  503    0  0.90377289346E+00 -0.52016760222E+02  0.47067797073E+02  0.70156522653E+02  0.00000000000E+00 0. -1.
         -1    1    6    6    0  503  0.17202483339E+02 -0.58301542383E+02 -0.45581297736E+02  0.75977957202E+02  0.00000000000E+00 0.  1.
<mgrwt>
<rscale>  0 0.11497599E+04</rscale>
<asrwt>0</asrwt>
<pdfrwt beam="1">  1        2 0.29410993E+00 0.11497599E+04</pdfrwt>
<pdfrwt beam="2">  1       -2 0.11244845E+00 0.11497599E+04</pdfrwt>
<totfact> 0.45743208E+00</totfact>
</mgrwt>
</event>
<event>
12    1  0.3147868E-008  0.6746259E+03  0.7818608E-02  0.9761637E-01
          2   -1    0    0  501    0  0.00000000000E+00  0.00000000000E+00  0.93690611493E+03  0.93690611493E+03  0.00000000000E+00 0.  1.
         -2   -1    0    0    0  501 -0.00000000000E+00 -0.00000000000E+00 -0.70639784098E+03  0.70639784098E+03  0.00000000000E+00 0. -1.
         23    2    1    2    0    0  0.24180305988E+03 -0.61933315848E+03  0.31857639492E+03  0.74296812208E+03  0.92024073286E+02 0.  0.
    5000000    2    1    2    0    0 -0.24180305988E+03  0.61933315848E+03 -0.88068120965E+02  0.90033583383E+03  0.60067157314E+03 0.  0.
         23    2    4    4    0    0 -0.20212994118E+03  0.32745195856E+03  0.22948473964E+03  0.45776287441E+03  0.93820601040E+02 0.  0.
         23    2    4    4    0    0 -0.39673118708E+02  0.29188119993E+03 -0.31755286061E+03  0.44257295942E+03  0.90897821256E+02 0.  0.
          5    1    3    3  502    0  0.10865250137E+03 -0.18879074412E+03  0.13512822388E+03  0.25637675013E+03  0.47000000000E+01 0. -1.
         -5    1    3    3    0  502  0.13315055851E+03 -0.43054241437E+03  0.18344817104E+03  0.48659137195E+03  0.47000000000E+01 0.  1.
         11    1    5    5    0    0 -0.70247502628E+02  0.91164835807E+02  0.11878382537E+03  0.16539448625E+03  0.00000000000E+00 0. -1.
        -11    1    5    5    0    0 -0.13188243855E+03  0.23628712275E+03  0.11070091427E+03  0.29236838816E+03  0.00000000000E+00 0.  1.
          1    1    6    6  503    0 -0.12168328872E+02  0.45875753372E+02 -0.10902482000E+03  0.11890779768E+03  0.00000000000E+00 0. -1.
         -1    1    6    6    0  503 -0.27504789835E+02  0.24600544655E+03 -0.20852804061E+03  0.32366516173E+03  0.00000000000E+00 0.  1.
<mgrwt>
<rscale>  0 0.67462587E+03</rscale>
<asrwt>0</asrwt>
<pdfrwt beam="1">  1        2 0.14413940E+00 0.67462587E+03</pdfrwt>
<pdfrwt beam="2">  1       -2 0.10867659E+00 0.67462587E+03</pdfrwt>
<totfact> 0.19193738E+01</totfact>
</mgrwt>
</event>
<event>
12    1  0.3147868E-008  0.1237765E+04  0.7818608E-02  0.9080428E-01
          2   -1    0    0  501    0  0.00000000000E+00  0.00000000000E+00  0.14377544340E+04  0.14377544340E+04  0.00000000000E+00 0.  1.
         -2   -1    0    0    0  501 -0.00000000000E+00 -0.00000000000E+00 -0.13278900811E+04  0.13278900811E+04  0.00000000000E+00 0. -1.
         23    2    1    2    0    0  0.66613308110E+03 -0.98132814266E+03  0.62075231584E+03  0.13416870387E+04  0.89735537806E+02 0.  0.
    5000000    2    1    2    0    0 -0.66613308110E+03  0.98132814266E+03 -0.51088796300E+03  0.14239574764E+04  0.59992514421E+03 0.  0.
         23    2    4    4    0    0 -0.71673120832E+03  0.70852557613E+03 -0.50784770792E+03  0.11317792099E+04  0.85456237274E+02 0.  0.
         23    2    4    4    0    0  0.50598127219E+02  0.27280256653E+03 -0.30402550794E+01  0.29217826655E+03  0.91528604871E+02 0.  0.
          5    1    3    3  502    0  0.39224436242E+03 -0.58812118506E+03  0.32067474185E+03  0.77627092450E+03  0.47000000000E+01 0. -1.
         -5    1    3    3    0  502  0.27388871868E+03 -0.39320695761E+03  0.30007757399E+03  0.56541611415E+03  0.47000000000E+01 0.  1.
         13    1    5    5    0    0 -0.53007770669E+03  0.52517516292E+03 -0.33317598131E+03  0.81718881624E+03  0.00000000000E+00 0.  1.
        -13    1    5    5    0    0 -0.18665350163E+03  0.18335041322E+03 -0.17467172662E+03  0.31459039365E+03  0.00000000000E+00 0. -1.
          1    1    6    6  503    0  0.58513403307E+02  0.20203226137E+03 -0.36531945670E+02  0.21348404169E+03  0.00000000000E+00 0. -1.
         -1    1    6    6    0  503 -0.79152760883E+01  0.70770305159E+02  0.33491690591E+02  0.78694224861E+02  0.00000000000E+00 0.  1.
<mgrwt>
<rscale>  0 0.12377654E+04</rscale>
<asrwt>0</asrwt>
<pdfrwt beam="1">  1        2 0.22119299E+00 0.12377654E+04</pdfrwt>
<pdfrwt beam="2">  1       -2 0.20429078E+00 0.12377654E+04</pdfrwt>
<totfact> 0.16588228E+00</totfact>
</mgrwt>
</event>
<event>
12    1  0.3147868E-008  0.1150492E+04  0.7818608E-02  0.9157329E-01
          2   -1    0    0  501    0  0.00000000000E+00  0.00000000000E+00  0.21062826295E+04  0.21062826295E+04  0.00000000000E+00 0. -1.
         -2   -1    0    0    0  501 -0.00000000000E+00 -0.00000000000E+00 -0.79304271031E+03  0.79304271031E+03  0.00000000000E+00 0.  1.
         23    2    1    2    0    0 -0.77000559510E+03 -0.82397492150E+03  0.97159215926E+02  0.11355184516E+04  0.90105232116E+02 0.  0.
    5000000    2    1    2    0    0  0.77000559510E+03  0.82397492150E+03  0.12160807033E+04  0.17638068883E+04  0.60026591979E+03 0.  0.
         23    2    4    4    0    0  0.22984815626E+03  0.46058216325E+03  0.88365124948E+03  0.10270263875E+04  0.94750018195E+02 0.  0.
         23    2    4    4    0    0  0.54015743884E+03  0.36339275825E+03  0.33242945381E+03  0.73678050074E+03  0.92259465773E+02 0.  0.
          5    1    3    3  502    0 -0.21759495496E+03 -0.23069812277E+03  0.67844028657E+02  0.32433638479E+03  0.47000000000E+01 0. -1.
         -5    1    3    3    0  502 -0.55241064014E+03 -0.59327679873E+03  0.29315187269E+02  0.81118206677E+03  0.47000000000E+01 0.  1.
         11    1    5    5    0    0  0.12444031891E+03  0.18653485612E+03  0.30999577001E+03  0.38259380934E+03  0.00000000000E+00 0. -1.
        -11    1    5    5    0    0  0.10540783735E+03  0.27404730713E+03  0.57365547947E+03  0.64443257820E+03  0.00000000000E+00 0.  1.
          2    1    6    6  503    0  0.22762707960E+03  0.19815770149E+03  0.12313080202E+03  0.32594747496E+03  0.00000000000E+00 0. -1.
         -2    1    6    6    0  503  0.31253035925E+03  0.16523505677E+03  0.20929865179E+03  0.41083302579E+03  0.00000000000E+00 0.  1.
<mgrwt>
<rscale>  0 0.11504923E+04</rscale>
<asrwt>0</asrwt>
<pdfrwt beam="1">  1        2 0.32404348E+00 0.11504923E+04</pdfrwt>
<pdfrwt beam="2">  1       -2 0.12200657E+00 0.11504923E+04</pdfrwt>
<totfact> 0.29166826E+00</totfact>
</mgrwt>
</event>
<event>
12    1  0.3147868E-008  0.5750309E+03  0.7818608E-02  0.9958607E-01
         -4   -1    0    0    0  501 -0.00000000000E+00  0.00000000000E+00  0.37912150167E+03  0.37912150167E+03  0.00000000000E+00 0. -1.
          4   -1    0    0  501    0  0.00000000000E+00 -0.00000000000E+00 -0.10406826067E+04  0.10406826067E+04  0.00000000000E+00 0.  1.
         23    2    1    2    0    0  0.18877361274E+03 -0.40380170484E+03 -0.57151297300E+02  0.45856763357E+03  0.91250808637E+02 0.  0.
    5000000    2    1    2    0    0 -0.18877361274E+03  0.40380170484E+03 -0.60440980771E+03  0.96123647478E+03  0.59997754216E+03 0.  0.
         23    2    4    4    0    0  0.12264439591E+03  0.35780523513E+03 -0.46281377066E+03  0.60450411560E+03  0.90346031051E+02 0.  0.
         23    2    4    4    0    0 -0.31141800865E+03  0.45996469709E+02 -0.14159603705E+03  0.35673235918E+03  0.90064904607E+02 0.  0.
          5    1    3    3  502    0  0.62515155382E+02 -0.68507139582E+02 -0.36124774445E+02  0.99641668768E+02  0.47000000000E+01 0. -1.
         -5    1    3    3    0  502  0.12625845735E+03 -0.33529456526E+03 -0.21026522856E+02  0.35892596480E+03  0.47000000000E+01 0.  1.
         11    1    5    5    0    0  0.99627188450E+02  0.32618653635E+03 -0.44714778920E+03  0.56237387792E+03  0.00000000000E+00 0.  1.
        -11    1    5    5    0    0  0.23017207463E+02  0.31618698783E+02 -0.15665981457E+02  0.42130237682E+02  0.00000000000E+00 0. -1.
          1    1    6    6  503    0 -0.17703994026E+03  0.11148958885E+01 -0.37617496836E+02  0.18099574445E+03  0.00000000000E+00 0. -1.
         -1    1    6    6    0  503 -0.13437806839E+03  0.44881573820E+02 -0.10397854021E+03  0.17573661473E+03  0.00000000000E+00 0.  1.
<mgrwt>
<rscale>  0 0.57503092E+03</rscale>
<asrwt>0</asrwt>
<pdfrwt beam="1">  1        4 0.16010501E+00 0.57503092E+03</pdfrwt>
<pdfrwt beam="2">  1       -4 0.58326387E-01 0.57503092E+03</pdfrwt>
<totfact> 0.13678603E+00</totfact>
</mgrwt>
</event>
<event>
12    1  0.3147868E-008  0.5945556E+03  0.7818608E-02  0.9916766E-01
          1   -1    0    0  501    0  0.00000000000E+00  0.00000000000E+00  0.11353772931E+04  0.11353772931E+04  0.00000000000E+00 0. -1.
         -1   -1    0    0    0  501 -0.00000000000E+00 -0.00000000000E+00 -0.49154731962E+03  0.49154731962E+03  0.00000000000E+00 0.  1.
         23    2    1    2    0    0  0.57968151062E+03 -0.76488095532E+02  0.50469305300E+03  0.77767943941E+03  0.90493923658E+02 0.  0.
    5000000    2    1    2    0    0 -0.57968151062E+03  0.76488095532E+02  0.13913692050E+03  0.84924517334E+03  0.59998099911E+03 0.  0.
         23    2    4    4    0    0 -0.14223231470E+03 -0.14991689153E+02  0.31716348091E+03  0.35906142468E+03  0.88756132071E+02 0.  0.
         23    2    4    4    0    0 -0.43744919591E+03  0.91479784685E+02 -0.17802656041E+03  0.49018374866E+03  0.94107923314E+02 0.  0.
          5    1    3    3  502    0  0.16949726863E+03 -0.60052860316E+02  0.17738946994E+03  0.25263567474E+03  0.47000000000E+01 0. -1.
         -5    1    3    3    0  502  0.41018424199E+03 -0.16435235216E+02  0.32730358306E+03  0.52504376467E+03  0.47000000000E+01 0.  1.
         13    1    5    5    0    0 -0.11861932294E+03 -0.17309810911E+02  0.15898853085E+03  0.19911686586E+03  0.00000000000E+00 0.  1.
        -13    1    5    5    0    0 -0.23612991759E+02  0.23181217584E+01  0.15817495006E+03  0.15994455881E+03  0.00000000000E+00 0. -1.
          2    1    6    6  503    0 -0.21732122808E+03  0.16302598558E+01 -0.64398466552E+02  0.22666789896E+03  0.00000000000E+00 0. -1.
         -2    1    6    6    0  503 -0.22012796783E+03  0.89849524829E+02 -0.11362809386E+03  0.26351584971E+03  0.00000000000E+00 0.  1.
<mgrwt>
<rscale>  0 0.59455562E+03</rscale>
<asrwt>0</asrwt>
<pdfrwt beam="1">  1        1 0.17467343E+00 0.59455562E+03</pdfrwt>
<pdfrwt beam="2">  1       -1 0.75622665E-01 0.59455562E+03</pdfrwt>
<totfact> 0.22054492E+01</totfact>
</mgrwt>
</event>
<event>
12    1  0.3147868E-008  0.7037438E+03  0.7818608E-02  0.9710851E-01
         -2   -1    0    0    0  501 -0.00000000000E+00  0.00000000000E+00  0.44029627788E+03  0.44029627788E+03  0.00000000000E+00 0.  1.
          2   -1    0    0  501    0  0.00000000000E+00 -0.00000000000E+00 -0.17400401011E+04  0.17400401011E+04  0.00000000000E+00 0. -1.
         23    2    1    2    0    0 -0.57719121776E+03  0.37403699131E+03 -0.10046911882E+04  0.12210914918E+04  0.92772168163E+02 0.  0.
    5000000    2    1    2    0    0  0.57719121776E+03 -0.37403699131E+03 -0.29505263510E+03  0.95924488716E+03  0.60003443513E+03 0.  0.
         23    2    4    4    0    0  0.25649387762E+03 -0.25463430114E+03 -0.44218090516E+03  0.57779758437E+03  0.87740293152E+02 0.  0.
         23    2    4    4    0    0  0.32069734014E+03 -0.11940269016E+03  0.14712827006E+03  0.38144730279E+03  0.82167697813E+02 0.  0.
          5    1    3    3  502    0 -0.31221381375E+03  0.17496313550E+03 -0.59173648227E+03  0.69156613475E+03  0.47000000000E+01 0. -1.
         -5    1    3    3    0  502 -0.26497740401E+03  0.19907385580E+03 -0.41295470588E+03  0.52952535709E+03  0.47000000000E+01 0.  1.
         13    1    5    5    0    0  0.11330679828E+03 -0.68240667284E+02 -0.20433299303E+03  0.24340745931E+03  0.00000000000E+00 0.  1.
        -13    1    5    5    0    0  0.14318707934E+03 -0.18639363386E+03 -0.23784791213E+03  0.33439012506E+03  0.00000000000E+00 0. -1.
          3    1    6    6  503    0  0.88914613965E+02  0.24075492534E+01  0.50914045374E+02  0.10248826707E+03  0.00000000000E+00 0. -1.
         -3    1    6    6    0  503  0.23178272617E+03 -0.12181023942E+03  0.96214224689E+02  0.27895903572E+03  0.00000000000E+00 0.  1.
<mgrwt>
<rscale>  0 0.70374378E+03</rscale>
<asrwt>0</asrwt>
<pdfrwt beam="1">  1        2 0.26769847E+00 0.70374378E+03</pdfrwt>
<pdfrwt beam="2">  1       -2 0.67737890E-01 0.70374378E+03</pdfrwt>
<totfact> 0.19256568E+01</totfact>
</mgrwt>
</event>
<event>
12    1  0.3147868E-008  0.6193217E+03  0.7818608E-02  0.9866111E-01
         -2   -1    0    0    0  501 -0.00000000000E+00  0.00000000000E+00  0.41568892443E+03  0.41568892443E+03  0.00000000000E+00 0.  1.
          2   -1    0    0  501    0  0.00000000000E+00 -0.00000000000E+00 -0.14868930453E+04  0.14868930453E+04  0.00000000000E+00 0. -1.
         23    2    1    2    0    0 -0.55160172311E+03  0.88738691608E+02 -0.15590051390E+02  0.56611564142E+03  0.90026959506E+02 0.  0.
    5000000    2    1    2    0    0  0.55160172311E+03 -0.88738691608E+02 -0.10556140695E+04  0.13364663283E+04  0.59973508044E+03 0.  0.
         23    2    4    4    0    0  0.53568978773E+03 -0.16040551740E+03 -0.10765564011E+04  0.12165897578E+04  0.91779493973E+02 0.  0.
         23    2    4    4    0    0  0.15911935380E+02  0.71666825793E+02  0.20942331547E+02  0.11987657050E+03  0.92425577080E+02 0.  0.
          5    1    3    3  502    0 -0.34406499188E+03  0.22767246464E+02  0.19897997571E+02  0.34542305432E+03  0.47000000000E+01 0. -1.
         -5    1    3    3    0  502 -0.20753673123E+03  0.65971445143E+02 -0.35488048961E+02  0.22069258711E+03  0.47000000000E+01 0.  1.
         11    1    5    5    0    0  0.24044680140E+03 -0.41534464526E+02 -0.39336492067E+03  0.46289927291E+03  0.00000000000E+00 0.  1.
        -11    1    5    5    0    0  0.29524298633E+03 -0.11887105287E+03 -0.68319148040E+03  0.75369048493E+03  0.00000000000E+00 0. -1.
          2    1    6    6  503    0  0.45060988800E+02  0.10999195490E+02  0.24536033925E+02  0.52473726510E+02  0.00000000000E+00 0. -1.
         -2    1    6    6    0  503 -0.29149053419E+02  0.60667630302E+02 -0.35937023778E+01  0.67402843995E+02  0.00000000000E+00 0.  1.
<mgrwt>
<rscale>  0 0.61932171E+03</rscale>
<asrwt>0</asrwt>
<pdfrwt beam="1">  1        2 0.22875277E+00 0.61932171E+03</pdfrwt>
<pdfrwt beam="2">  1       -2 0.63952143E-01 0.61932171E+03</pdfrwt>
<totfact> 0.30359496E+01</totfact>
</mgrwt>
</event>
<event>
12    1  0.3147868E-008  0.1168469E+04  0.7818608E-02  0.9140912E-01
          2   -1    0    0  501    0  0.00000000000E+00  0.00000000000E+00  0.26172465032E+04  0.26172465032E+04  0.00000000000E+00 0. -1.
         -2   -1    0    0    0  501 -0.00000000000E+00 -0.00000000000E+00 -0.72912297357E+03  0.72912297357E+03  0.00000000000E+00 0.  1.
         23    2    1    2    0    0 -0.57039770546E+03 -0.96696788746E+03  0.72192432170E+02  0.11287033467E+04  0.91537204263E+02 0.  0.
    5000000    2    1    2    0    0  0.57039770546E+03  0.96696788746E+03  0.18159310974E+04  0.22176661300E+04  0.60004739483E+03 0.  0.
         23    2    4    4    0    0  0.39644053289E+03  0.26535998059E+03  0.10700962654E+04  0.11750376266E+04  0.89590128527E+02 0.  0.
         23    2    4    4    0    0  0.17395717257E+03  0.70160790687E+03  0.74583483199E+03  0.10426285035E+04  0.91048595930E+02 0.  0.
          5    1    3    3  502    0 -0.49586997128E+03 -0.88970517835E+03  0.56778155175E+02  0.10201510583E+04  0.47000000000E+01 0. -1.
         -5    1    3    3    0  502 -0.74527734184E+02 -0.77262709102E+02  0.15414276995E+02  0.10855228839E+03  0.47000000000E+01 0.  1.
         13    1    5    5    0    0  0.22562739323E+03  0.10254170000E+03  0.59538952109E+03  0.64491177896E+03  0.00000000000E+00 0.  1.
        -13    1    5    5    0    0  0.17081313966E+03  0.16281828059E+03  0.47470674433E+03  0.53012584759E+03  0.00000000000E+00 0. -1.
          3    1    6    6  503    0  0.58287737277E+02  0.39725281065E+03  0.37885261719E+03  0.55202949327E+03  0.00000000000E+00 0. -1.
         -3    1    6    6    0  503  0.11566943530E+03  0.30435509622E+03  0.36698221480E+03  0.49059901023E+03  0.00000000000E+00 0.  1.
<mgrwt>
<rscale>  0 0.11684694E+04</rscale>
<asrwt>0</asrwt>
<pdfrwt beam="1">  1        2 0.40265330E+00 0.11684694E+04</pdfrwt>
<pdfrwt beam="2">  1       -2 0.11217277E+00 0.11684694E+04</pdfrwt>
<totfact> 0.18385690E+00</totfact>
</mgrwt>
</event>
<event>
12    1  0.3147868E-008  0.4976413E+03  0.7818608E-02  0.1014396E+00
         -2   -1    0    0    0  501 -0.00000000000E+00  0.00000000000E+00  0.24831528440E+03  0.24831528440E+03  0.00000000000E+00 0.  1.
          2   -1    0    0  501    0  0.00000000000E+00 -0.00000000000E+00 -0.13458407175E+04  0.13458407175E+04  0.00000000000E+00 0. -1.
         23    2    1    2    0    0  0.39442312547E+03 -0.58280635727E+02 -0.24124971800E+03  0.47515422007E+03  0.92757059092E+02 0.  0.
    5000000    2    1    2    0    0 -0.39442312547E+03  0.58280635727E+02 -0.85627571511E+03  0.11190017818E+04  0.59999221084E+03 0.  0.
         23    2    4    4    0    0 -0.47880142958E+03  0.30492952855E+02 -0.86256659425E+03  0.99124052708E+03  0.91411289609E+02 0.  0.
         23    2    4    4    0    0  0.84378304111E+02  0.27787682871E+02  0.62908791366E+01  0.12776125476E+03  0.91605182902E+02 0.  0.
          5    1    3    3  502    0  0.24002534979E+03 -0.73855249525E+02 -0.17625333677E+03  0.30684539290E+03  0.47000000000E+01 0. -1.
         -5    1    3    3    0  502  0.15439777568E+03  0.15574613798E+02 -0.64996381231E+02  0.16830882717E+03  0.47000000000E+01 0.  1.
         11    1    5    5    0    0 -0.26562203542E+02 -0.18128271088E+02 -0.77872286742E+02  0.84251278400E+02  0.00000000000E+00 0.  1.
        -11    1    5    5    0    0 -0.45223922603E+03  0.48621223943E+02 -0.78469430751E+03  0.90698924868E+03  0.00000000000E+00 0. -1.
          4    1    6    6  503    0  0.15958609429E+02  0.29356111802E+02  0.39462402339E+02  0.51708217078E+02  0.00000000000E+00 0. -1.
         -4    1    6    6    0  503  0.68419694682E+02 -0.15684289303E+01 -0.33171523202E+02  0.76053037686E+02  0.00000000000E+00 0.  1.
<mgrwt>
<rscale>  0 0.49764135E+03</rscale>
<asrwt>0</asrwt>
<pdfrwt beam="1">  1        2 0.20705241E+00 0.49764135E+03</pdfrwt>
<pdfrwt beam="2">  1       -2 0.38202353E-01 0.49764135E+03</pdfrwt>
<totfact> 0.10494096E+02</totfact>
</mgrwt>
</event>
<event>
12    1  0.3147868E-008  0.2107407E+04  0.7818608E-02  0.8557988E-01
          1   -1    0    0  501    0  0.00000000000E+00  0.00000000000E+00  0.30146639186E+04  0.30146639186E+04  0.00000000000E+00 0. -1.
         -1   -1    0    0    0  501 -0.00000000000E+00 -0.00000000000E+00 -0.14997572004E+04  0.14997572004E+04  0.00000000000E+00 0.  1.
         23    2    1    2    0    0 -0.19311462907E+04 -0.77307028098E+03  0.85770769348E+03  0.22519617477E+04  0.93303644560E+02 0.  0.
    5000000    2    1    2    0    0  0.19311462907E+04  0.77307028098E+03  0.65719902477E+03  0.22624593713E+04  0.59987348098E+03 0.  0.
         23    2    4    4    0    0  0.12763104828E+04  0.73641324672E+03  0.61376214761E+03  0.15988278181E+04  0.90958779303E+02 0.  0.
         23    2    4    4    0    0  0.65483580790E+03  0.36657034256E+02  0.43436877166E+02  0.66363155324E+03  0.91468041832E+02 0.  0.
          5    1    3    3  502    0 -0.12264484408E+04 -0.49289668701E+03  0.59304932687E+03  0.14487417009E+04  0.47000000000E+01 0. -1.
         -5    1    3    3    0  502 -0.70469784997E+03 -0.28017359397E+03  0.26465836661E+03  0.80322004676E+03  0.47000000000E+01 0.  1.
         13    1    5    5    0    0  0.13775099119E+02  0.20559723556E+02  0.68101770184E+01  0.25667763819E+02  0.00000000000E+00 0.  1.
        -13    1    5    5    0    0  0.12625353837E+04  0.71585352316E+03  0.60695197059E+03  0.15731600543E+04  0.00000000000E+00 0. -1.
          1    1    6    6  503    0  0.47231950050E+03 -0.32666024758E+00  0.62482342734E+02  0.47643452899E+03  0.00000000000E+00 0. -1.
         -1    1    6    6    0  503  0.18251630740E+03  0.36983694504E+02 -0.19045465568E+02  0.18719702424E+03  0.00000000000E+00 0.  1.
<mgrwt>
<rscale>  0 0.21074067E+04</rscale>
<asrwt>0</asrwt>
<pdfrwt beam="1">  1        1 0.46379445E+00 0.21074067E+04</pdfrwt>
<pdfrwt beam="2">  1       -1 0.23073188E+00 0.21074067E+04</pdfrwt>
<totfact> 0.47994045E-02</totfact>
</mgrwt>
</event>
<event>
12    1  0.3147868E-008  0.5426509E+03  0.7818608E-02  0.1003209E+00
          2   -1    0    0  501    0  0.00000000000E+00  0.00000000000E+00  0.19313128223E+04  0.19313128223E+04  0.00000000000E+00 0. -1.
         -2   -1    0    0    0  501 -0.00000000000E+00 -0.00000000000E+00 -0.33872098235E+03  0.33872098235E+03  0.00000000000E+00 0.  1.
         23    2    1    2    0    0  0.16957823311E+03 -0.36776561566E+03 -0.10184336633E+03  0.42745227201E+03  0.91296486093E+02 0.  0.
    5000000    2    1    2    0    0 -0.16957823311E+03  0.36776561566E+03  0.16944352063E+04  0.18425815326E+04  0.59998975904E+03 0.  0.
         23    2    4    4    0    0 -0.32299487055E+03  0.67182072588E+02  0.11076313965E+04  0.11594956417E+04  0.93507835404E+02 0.  0.
         23    2    4    4    0    0  0.15341663744E+03  0.30058354308E+03  0.58680380971E+03  0.68308589090E+03  0.91545028504E+02 0.  0.
          5    1    3    3  502    0  0.54883661485E+02 -0.14803031562E+03  0.37435802074E+01  0.15799143975E+03  0.47000000000E+01 0. -1.
         -5    1    3    3    0  502  0.11469457163E+03 -0.21973530004E+03 -0.10558694654E+03  0.26946083226E+03  0.47000000000E+01 0.  1.
         13    1    5    5    0    0 -0.90666673770E+02 -0.21634517510E+02  0.26461624354E+03  0.28055347873E+03  0.00000000000E+00 0. -1.
        -13    1    5    5    0    0 -0.23232819678E+03  0.88816590098E+02  0.84301515301E+03  0.87894216300E+03  0.00000000000E+00 0.  1.
          2    1    6    6  503    0  0.60367004263E+02  0.12331289650E+03  0.33029460144E+03  0.35769368094E+03  0.00000000000E+00 0. -1.
         -2    1    6    6    0  503  0.93049633178E+02  0.17727064658E+03  0.25650920827E+03  0.32539220996E+03  0.00000000000E+00 0.  1.
<mgrwt>
<rscale>  0 0.54265087E+03</rscale>
<asrwt>0</asrwt>
<pdfrwt beam="1">  1        2 0.29712504E+00 0.54265087E+03</pdfrwt>
<pdfrwt beam="2">  1       -2 0.52110921E-01 0.54265087E+03</pdfrwt>
<totfact> 0.27016811E+01</totfact>
</mgrwt>
</event>
<event>
12    1  0.3147868E-008  0.6100223E+03  0.7818608E-02  0.9884828E-01
          1   -1    0    0  501    0  0.00000000000E+00  0.00000000000E+00  0.26258221085E+04  0.26258221085E+04  0.00000000000E+00 0. -1.
         -1   -1    0    0    0  501 -0.00000000000E+00 -0.00000000000E+00 -0.23754746205E+03  0.23754746205E+03  0.00000000000E+00 0.  1.
         23    2    1    2    0    0  0.45420885397E+03 -0.34979473982E+03  0.39067342165E+03  0.70027223947E+03  0.95359550976E+02 0.  0.
    5000000    2    1    2    0    0 -0.45420885397E+03  0.34979473982E+03  0.19976012248E+04  0.21630973311E+04  0.59993113553E+03 0.  0.
         23    2    4    4    0    0 -0.85549508850E+02  0.22069183659E+03  0.15120999852E+04  0.15332098940E+04  0.90898892156E+02 0.  0.
         23    2    4    4    0    0 -0.36865934512E+03  0.12910290323E+03  0.48550123954E+03  0.62988743703E+03  0.92029654834E+02 0.  0.
          5    1    3    3  502    0  0.18749652980E+03 -0.17399576353E+03  0.22345968506E+03  0.33968484697E+03  0.47000000000E+01 0. -1.
         -5    1    3    3    0  502  0.26671232417E+03 -0.17579897629E+03  0.16721373659E+03  0.36058739250E+03  0.47000000000E+01 0.  1.
         11    1    5    5    0    0  0.18547945071E+02  0.50483290440E+02  0.34959036068E+03  0.35370327841E+03  0.00000000000E+00 0.  1.
        -11    1    5    5    0    0 -0.10409745392E+03  0.17020854615E+03  0.11625096246E+04  0.11795066156E+04  0.00000000000E+00 0. -1.
          1    1    6    6  503    0 -0.12831170847E+03  0.32205733888E+02  0.10204510609E+03  0.16707575378E+03  0.00000000000E+00 0. -1.
         -1    1    6    6    0  503 -0.24034763665E+03  0.96897169342E+02  0.38345613345E+03  0.46281168325E+03  0.00000000000E+00 0.  1.
<mgrwt>
<rscale>  0 0.61002232E+03</rscale>
<asrwt>0</asrwt>
<pdfrwt beam="1">  1        1 0.40397261E+00 0.61002232E+03</pdfrwt>
<pdfrwt beam="2">  1       -1 0.36545765E-01 0.61002232E+03</pdfrwt>
<totfact> 0.86211266E+00</totfact>
</mgrwt>
</event>
<event>
12    1  0.3147868E-008  0.9779991E+03  0.7818608E-02  0.9333010E-01
          2   -1    0    0  501    0  0.00000000000E+00  0.00000000000E+00  0.16979947272E+04  0.16979947272E+04  0.00000000000E+00 0. -1.
         -2   -1    0    0    0  501 -0.00000000000E+00 -0.00000000000E+00 -0.62853611406E+03  0.62853611406E+03  0.00000000000E+00 0.  1.
         23    2    1    2    0    0  0.78409095360E+03  0.50624109111E+03  0.33550444147E+03  0.99616259523E+03  0.93263176258E+02 0.  0.
    5000000    2    1    2    0    0 -0.78409095360E+03 -0.50624109111E+03  0.73395417171E+03  0.13303682461E+04  0.60009355780E+03 0.  0.
         23    2    4    4    0    0 -0.74741480727E+03 -0.34082619244E+03  0.34394928156E+03  0.89516665080E+03  0.90723959523E+02 0.  0.
         23    2    4    4    0    0 -0.36676146334E+02 -0.16541489866E+03  0.39000489015E+03  0.43520159527E+03  0.92678939213E+02 0.  0.
          5    1    3    3  502    0  0.51301826187E+03  0.37670513409E+03  0.24932272753E+03  0.68357765288E+03  0.47000000000E+01 0. -1.
         -5    1    3    3    0  502  0.27107269173E+03  0.12953595702E+03  0.86181713935E+02  0.31258494234E+03  0.47000000000E+01 0.  1.
         13    1    5    5    0    0 -0.39157560798E+02  0.16743904993E+01  0.96621851328E+01  0.40366768173E+02  0.00000000000E+00 0. -1.
        -13    1    5    5    0    0 -0.70825724647E+03 -0.34250058294E+03  0.33428709643E+03  0.85479988262E+03  0.00000000000E+00 0.  1.
          3    1    6    6  503    0  0.28253298813E+02 -0.86122781498E+02  0.18322240540E+03  0.20441583165E+03  0.00000000000E+00 0. -1.
         -3    1    6    6    0  503 -0.64929445147E+02 -0.79292117163E+02  0.20678248475E+03  0.23078576362E+03  0.00000000000E+00 0.  1.
<mgrwt>
<rscale>  0 0.97799911E+03</rscale>
<asrwt>0</asrwt>
<pdfrwt beam="1">  1        2 0.26122996E+00 0.97799911E+03</pdfrwt>
<pdfrwt beam="2">  1       -2 0.96697865E-01 0.97799911E+03</pdfrwt>
<totfact> 0.87885030E+00</totfact>
</mgrwt>
</event>
<event>
12    1  0.3147868E-008  0.7052328E+03  0.7818608E-02  0.9708325E-01
          2   -1    0    0  501    0  0.00000000000E+00  0.00000000000E+00  0.27911351696E+04  0.27911351696E+04  0.00000000000E+00 0. -1.
         -2   -1    0    0    0  501 -0.00000000000E+00 -0.00000000000E+00 -0.29753044716E+03  0.29753044716E+03  0.00000000000E+00 0.  1.
         23    2    1    2    0    0  0.15500359641E+03 -0.65706983774E+03  0.18720131997E+04  0.19921453660E+04  0.91884999784E+02 0.  0.
    5000000    2    1    2    0    0 -0.15500359641E+03  0.65706983774E+03  0.62159152283E+03  0.10965202508E+04  0.60017810067E+03 0.  0.
         23    2    4    4    0    0 -0.67088370401E+02  0.36079958167E+02  0.41268974282E+03  0.42936574031E+03  0.90771704257E+02 0.  0.
         23    2    4    4    0    0 -0.87915226013E+02  0.62098987957E+03  0.20890178000E+03  0.66715451046E+03  0.89987052633E+02 0.  0.
          5    1    3    3  502    0  0.59304444096E+02 -0.40339257523E+03  0.12049044727E+04  0.12720296636E+04  0.47000000000E+01 0. -1.
         -5    1    3    3    0  502  0.95699152318E+02 -0.25367726250E+03  0.66710872696E+03  0.72011570241E+03  0.47000000000E+01 0.  1.
         13    1    5    5    0    0  0.10699407505E+02 -0.62316518840E+01  0.17953979844E+03  0.17996624692E+03  0.00000000000E+00 0.  1.
        -13    1    5    5    0    0 -0.77787777906E+02  0.42311610051E+02  0.23314994439E+03  0.24939949339E+03  0.00000000000E+00 0. -1.
          4    1    6    6  503    0 -0.98617615615E+02  0.54225120295E+03  0.20347582904E+03  0.58750677801E+03  0.00000000000E+00 0. -1.
         -4    1    6    6    0  503  0.10702389602E+02  0.78738676623E+02  0.54259509587E+01  0.79647732443E+02  0.00000000000E+00 0.  1.
<mgrwt>
<rscale>  0 0.70523282E+03</rscale>
<asrwt>0</asrwt>
<pdfrwt beam="1">  1        2 0.42940539E+00 0.70523282E+03</pdfrwt>
<pdfrwt beam="2">  1       -2 0.45773917E-01 0.70523282E+03</pdfrwt>
<totfact> 0.11282362E+01</totfact>
</mgrwt>
</event>
<event>
12    1  0.3147868E-008  0.8859205E+03  0.7818608E-02  0.9443355E-01
         -2   -1    0    0    0  501 -0.00000000000E+00  0.00000000000E+00  0.12355686376E+04  0.12355686376E+04  0.00000000000E+00 0. -1.
          2   -1    0    0  501    0  0.00000000000E+00 -0.00000000000E+00 -0.66813068737E+03  0.66813068737E+03  0.00000000000E+00 0.  1.
         23    2    1    2    0    0 -0.53715009715E+03 -0.60074898601E+03  0.29121984413E+03  0.86175166678E+03  0.91527954856E+02 0.  0.
    5000000    2    1    2    0    0  0.53715009715E+03  0.60074898601E+03  0.27621810614E+03  0.10419476582E+04  0.59994075481E+03 0.  0.
         23    2    4    4    0    0  0.36271127426E+03  0.67099870875E+03  0.31331038799E+03  0.82960317660E+03  0.90990635672E+02 0.  0.
         23    2    4    4    0    0  0.17443882289E+03 -0.70249722742E+02 -0.37092281850E+02  0.21234448164E+03  0.91380605338E+02 0.  0.
          5    1    3    3  502    0 -0.19874189322E+03 -0.28573782219E+03  0.10862505124E+03  0.36464494362E+03  0.47000000000E+01 0. -1.
         -5    1    3    3    0  502 -0.33840820393E+03 -0.31501116381E+03  0.18259479289E+03  0.49710672315E+03  0.47000000000E+01 0.  1.
         11    1    5    5    0    0  0.13777282075E+03  0.34977191339E+03  0.14719408585E+03  0.40371752556E+03  0.00000000000E+00 0.  1.
        -11    1    5    5    0    0  0.22493845351E+03  0.32122679536E+03  0.16611630213E+03  0.42588565104E+03  0.00000000000E+00 0. -1.
          1    1    6    6  503    0  0.14646238634E+03 -0.75610554322E+02  0.93623078292E+00  0.16483040698E+03  0.00000000000E+00 0. -1.
         -1    1    6    6    0  503  0.27976436549E+02  0.53608315806E+01 -0.38028512633E+02  0.47514074655E+02  0.00000000000E+00 0.  1.
<mgrwt>
<rscale>  0 0.88592055E+03</rscale>
<asrwt>0</asrwt>
<pdfrwt beam="1">  1        2 0.10278934E+00 0.88592055E+03</pdfrwt>
<pdfrwt beam="2">  1       -2 0.19008748E+00 0.88592055E+03</pdfrwt>
<totfact> 0.67528909E+00</totfact>
</mgrwt>
</event>
<event>
12    1  0.3147868E-008  0.6862404E+03  0.7818608E-02  0.9741057E-01
          1   -1    0    0  501    0  0.00000000000E+00  0.00000000000E+00  0.17493139532E+04  0.17493139532E+04  0.00000000000E+00 0. -1.
         -1   -1    0    0    0  501 -0.00000000000E+00 -0.00000000000E+00 -0.40594833635E+03  0.40594833635E+03  0.00000000000E+00 0.  1.
         23    2    1    2    0    0  0.66037940081E+03 -0.15257489603E+03  0.94386377614E+03  0.11657357617E+04  0.93171810559E+02 0.  0.
    5000000    2    1    2    0    0 -0.66037940081E+03  0.15257489603E+03  0.39950184068E+03  0.98952652783E+03  0.60015079494E+03 0.  0.
         23    2    4    4    0    0 -0.78419666359E+02 -0.31883762973E+01 -0.13218200222E+03  0.18086048851E+03  0.95281817666E+02 0.  0.
         23    2    4    4    0    0 -0.58195973445E+03  0.15576327233E+03  0.53168384290E+03  0.80866603932E+03  0.91179629482E+02 0.  0.
          5    1    3    3  502    0  0.13149647766E+03 -0.33872122288E+02  0.13118942689E+03  0.18886873758E+03  0.47000000000E+01 0. -1.
         -5    1    3    3    0  502  0.52888292314E+03 -0.11870277374E+03  0.81267434924E+03  0.97686702411E+03  0.47000000000E+01 0.  1.
         13    1    5    5    0    0 -0.54195690972E+02  0.20756945112E+02 -0.16597077863E+02  0.60361301211E+02  0.00000000000E+00 0.  1.
        -13    1    5    5    0    0 -0.24223975387E+02 -0.23945321409E+02 -0.11558492436E+03  0.12049918730E+03  0.00000000000E+00 0. -1.
          1    1    6    6  503    0 -0.35112841334E+03  0.92271340292E+02  0.25997533671E+03  0.44653369256E+03  0.00000000000E+00 0. -1.
         -1    1    6    6    0  503 -0.23083132111E+03  0.63491932034E+02  0.27170850619E+03  0.36213234676E+03  0.00000000000E+00 0.  1.
<mgrwt>
<rscale>  0 0.68624039E+03</rscale>
<asrwt>0</asrwt>
<pdfrwt beam="1">  1        1 0.26912522E+00 0.68624039E+03</pdfrwt>
<pdfrwt beam="2">  1       -1 0.62453591E-01 0.68624039E+03</pdfrwt>
<totfact> 0.12060461E+01</totfact>
</mgrwt>
</event>
<event>
12    1  0.3147868E-008  0.1476188E+04  0.7818608E-02  0.8900444E-01
         -2   -1    0    0    0  501 -0.00000000000E+00  0.00000000000E+00  0.16347875782E+04  0.16347875782E+04  0.00000000000E+00 0.  1.
          2   -1    0    0  501    0  0.00000000000E+00 -0.00000000000E+00 -0.13705726881E+04  0.13705726881E+04  0.00000000000E+00 0. -1.
         23    2    1    2    0    0 -0.63056896029E+03 -0.12818755326E+04  0.26600456469E+03  0.14559128017E+04  0.90008684137E+02 0.  0.
    5000000    2    1    2    0    0  0.63056896029E+03  0.12818755326E+04 -0.17896746056E+01  0.15494474645E+04  0.59996845555E+03 0.  0.
         23    2    4    4    0    0  0.70278691973E+03  0.11527461308E+04 -0.87717008818E+02  0.13560052228E+04  0.91229348157E+02 0.  0.
         23    2    4    4    0    0 -0.72217959442E+02  0.12912940171E+03  0.85927334212E+02  0.19344224168E+03  0.90258285198E+02 0.  0.
          5    1    3    3  502    0 -0.54580613136E+03 -0.10500984549E+04  0.19850997875E+03  0.12000164165E+04  0.47000000000E+01 0. -1.
         -5    1    3    3    0  502 -0.84762828926E+02 -0.23177707760E+03  0.67494585942E+02  0.25589638528E+03  0.47000000000E+01 0.  1.
         11    1    5    5    0    0  0.14622606697E+03  0.18649130030E+03 -0.36213545836E+02  0.23973420417E+03  0.00000000000E+00 0. -1.
        -11    1    5    5    0    0  0.55656085276E+03  0.96625483054E+03 -0.51503462982E+02  0.11162710186E+04  0.00000000000E+00 0.  1.
          2    1    6    6  503    0 -0.57131136604E+02  0.21082931534E+02  0.13151027614E+02  0.62300933372E+02  0.00000000000E+00 0. -1.
         -2    1    6    6    0  503 -0.15086822839E+02  0.10804647018E+03  0.72776306598E+02  0.13114130830E+03  0.00000000000E+00 0.  1.
<mgrwt>
<rscale>  0 0.14761878E+04</rscale>
<asrwt>0</asrwt>
<pdfrwt beam="1">  1        2 0.21085734E+00 0.14761878E+04</pdfrwt>
<pdfrwt beam="2">  1       -2 0.25150578E+00 0.14761878E+04</pdfrwt>
<totfact> 0.89337649E-01</totfact>
</mgrwt>
</event>
<event>
12    1  0.3147868E-008  0.1240731E+04  0.7818608E-02  0.9077933E-01
          2   -1    0    0  501    0  0.00000000000E+00  0.00000000000E+00  0.31272445132E+04  0.31272445132E+04  0.00000000000E+00 0.  1.
         -2   -1    0    0    0  501 -0.00000000000E+00 -0.00000000000E+00 -0.91860666581E+03  0.91860666581E+03  0.00000000000E+00 0. -1.
         23    2    1    2    0    0 -0.19006017268E+03 -0.12055814851E+04 -0.23791361911E+03  0.12467421837E+04  0.90628892015E+02 0.  0.
    5000000    2    1    2    0    0  0.19006017268E+03  0.12055814851E+04  0.24465514665E+04  0.27991089953E+04  0.59987290575E+03 0.  0.
         23    2    4    4    0    0 -0.18613904868E+02  0.95868650723E+02  0.73501293311E+03  0.74664045964E+03  0.87696570593E+02 0.  0.
         23    2    4    4    0    0  0.20867407754E+03  0.11097128343E+04  0.17115385333E+04  0.20524685356E+04  0.90859745193E+02 0.  0.
          5    1    3    3  502    0 -0.12251044426E+03 -0.99465520903E+03 -0.18810280416E+03  0.10196825725E+04  0.47000000000E+01 0. -1.
         -5    1    3    3    0  502 -0.67549728419E+02 -0.21092627603E+03 -0.49810814952E+02  0.22705961115E+03  0.47000000000E+01 0.  1.
         13    1    5    5    0    0  0.91573541532E+01 -0.13148247549E+02  0.15440097205E+03  0.15523013148E+03  0.00000000000E+00 0.  1.
        -13    1    5    5    0    0 -0.27771259021E+02  0.10901689827E+03  0.58061196106E+03  0.59141032816E+03  0.00000000000E+00 0. -1.
          1    1    6    6  503    0  0.34249290617E+02  0.20815143844E+03  0.38681419361E+03  0.44059647707E+03  0.00000000000E+00 0. -1.
         -1    1    6    6    0  503  0.17442478693E+03  0.90156139590E+03  0.13247243397E+04  0.16118720586E+04  0.00000000000E+00 0.  1.
<mgrwt>
<rscale>  0 0.12407312E+04</rscale>
<asrwt>0</asrwt>
<pdfrwt beam="1">  1        2 0.48111453E+00 0.12407312E+04</pdfrwt>
<pdfrwt beam="2">  1       -2 0.14132410E+00 0.12407312E+04</pdfrwt>
<totfact> 0.49750745E-01</totfact>
</mgrwt>
</event>
<event>
12    1  0.3147868E-008  0.4971723E+03  0.7818608E-02  0.1014520E+00
         -2   -1    0    0    0  501 -0.00000000000E+00  0.00000000000E+00  0.60122449431E+02  0.60122449431E+02  0.00000000000E+00 0.  1.
          2   -1    0    0  501    0  0.00000000000E+00 -0.00000000000E+00 -0.48256041774E+04  0.48256041774E+04  0.00000000000E+00 0. -1.
         23    2    1    2    0    0 -0.93158469537E+02  0.32756592527E+03 -0.22445714781E+04  0.22721116472E+04  0.91718488640E+02 0.  0.
    5000000    2    1    2    0    0  0.93158469537E+02 -0.32756592527E+03 -0.25209102499E+04  0.26136149797E+04  0.60001403156E+03 0.  0.
         23    2    4    4    0    0  0.31822356291E+03 -0.20188453606E+03 -0.10903936175E+04  0.11571260116E+04  0.89211903867E+02 0.  0.
         23    2    4    4    0    0 -0.22506509337E+03 -0.12568138921E+03 -0.14305166324E+04  0.14564889681E+04  0.92369749523E+02 0.  0.
          5    1    3    3  502    0 -0.42865830163E+02  0.16843773451E+03 -0.85139636492E+03  0.86896870485E+03  0.47000000000E+01 0. -1.
         -5    1    3    3    0  502 -0.50292639374E+02  0.15912819076E+03 -0.13931751131E+04  0.14031429423E+04  0.47000000000E+01 0.  1.
         13    1    5    5    0    0  0.22659185986E+03 -0.93499380330E+02 -0.70929254827E+03  0.75045447837E+03  0.00000000000E+00 0.  1.
        -13    1    5    5    0    0  0.91631703055E+02 -0.10838515573E+03 -0.38110106921E+03  0.40667153323E+03  0.00000000000E+00 0. -1.
          3    1    6    6  503    0 -0.71764422270E+02 -0.77846415734E+02 -0.74051737388E+03  0.74804824561E+03  0.00000000000E+00 0. -1.
         -3    1    6    6    0  503 -0.15330067111E+03 -0.47834973475E+02 -0.68999925857E+03  0.70844072248E+03  0.00000000000E+00 0.  1.
<mgrwt>
<rscale>  0 0.49717228E+03</rscale>
<asrwt>0</asrwt>
<pdfrwt beam="1">  1        2 0.74240075E+00 0.49717228E+03</pdfrwt>
<pdfrwt beam="2">  1       -2 0.92496062E-02 0.49717228E+03</pdfrwt>
<totfact> 0.53947264E+00</totfact>
</mgrwt>
</event>
<event>
12    1  0.3147868E-008  0.5622377E+03  0.7818608E-02  0.9987004E-01
         -2   -1    0    0    0  501 -0.00000000000E+00  0.00000000000E+00  0.10470105192E+04  0.10470105192E+04  0.00000000000E+00 0.  1.
          2   -1    0    0  501    0  0.00000000000E+00 -0.00000000000E+00 -0.33566030209E+03  0.33566030209E+03  0.00000000000E+00 0. -1.
         23    2    1    2    0    0  0.15035167413E+03  0.39502424327E+03  0.15026842707E+03  0.45773720173E+03  0.91065728924E+02 0.  0.
    5000000    2    1    2    0    0 -0.15035167413E+03 -0.39502424327E+03  0.56108179007E+03  0.92493361960E+03  0.60169730499E+03 0.  0.
         23    2    4    4    0    0  0.20272027256E+03 -0.18273539692E+03  0.35320457197E+03  0.45487142018E+03  0.87560293731E+02 0.  0.
         23    2    4    4    0    0 -0.35307194668E+03 -0.21228884635E+03  0.20787721810E+03  0.47006219942E+03  0.89549872692E+02 0.  0.
          5    1    3    3  502    0  0.87173381439E+02  0.20410596347E+03  0.12563932004E+03  0.25507993159E+03  0.47000000000E+01 0. -1.
         -5    1    3    3    0  502  0.63178292689E+02  0.19091827980E+03  0.24629107032E+02  0.20265727014E+03  0.47000000000E+01 0.  1.
         13    1    5    5    0    0  0.74590319124E+02 -0.15913126678E+02  0.92523919894E+02  0.11990670982E+03  0.00000000000E+00 0. -1.
        -13    1    5    5    0    0  0.12812995343E+03 -0.16682227024E+03  0.26068065208E+03  0.33496471036E+03  0.00000000000E+00 0.  1.
          2    1    6    6  503    0 -0.10266124180E+03 -0.87681841213E+02  0.10859478872E+03  0.17326356796E+03  0.00000000000E+00 0. -1.
         -2    1    6    6    0  503 -0.25041070489E+03 -0.12460700514E+03  0.99282429374E+02  0.29679863146E+03  0.00000000000E+00 0.  1.
<mgrwt>
<rscale>  0 0.56223770E+03</rscale>
<asrwt>0</asrwt>
<pdfrwt beam="1">  1        2 0.51640047E-01 0.56223770E+03</pdfrwt>
<pdfrwt beam="2">  1       -2 0.16107854E+00 0.56223770E+03</pdfrwt>
<totfact> 0.24670896E+01</totfact>
</mgrwt>
</event>
<event>
12    1  0.3147868E-008  0.5372122E+03  0.7818608E-02  0.1004498E+00
          2   -1    0    0  501    0  0.00000000000E+00  0.00000000000E+00  0.87026043249E+03  0.87026043249E+03  0.00000000000E+00 0. -1.
         -2   -1    0    0    0  501 -0.00000000000E+00 -0.00000000000E+00 -0.54044100956E+03  0.54044100956E+03  0.00000000000E+00 0.  1.
         23    2    1    2    0    0  0.17439144904E+03 -0.33357518586E+03 -0.27880458895E+03  0.47675237743E+03  0.88747103867E+02 0.  0.
    5000000    2    1    2    0    0 -0.17439144904E+03  0.33357518586E+03  0.60862401187E+03  0.93394906462E+03  0.60012739094E+03 0.  0.
         23    2    4    4    0    0  0.15591315076E+03  0.31645521271E+03  0.30475732275E+03  0.47551802848E+03  0.93741972530E+02 0.  0.
         23    2    4    4    0    0 -0.33030459980E+03  0.17119973154E+02  0.30386668912E+03  0.45843103614E+03  0.91814094819E+02 0.  0.
          5    1    3    3  502    0  0.76983950892E+02 -0.98481824131E+02 -0.13652545535E+03  0.18516611012E+03  0.47000000000E+01 0. -1.
         -5    1    3    3    0  502  0.97407498152E+02 -0.23509336173E+03 -0.14227913360E+03  0.29158626731E+03  0.47000000000E+01 0.  1.
         13    1    5    5    0    0  0.54067800848E+02  0.72918386376E+02  0.13140624323E+03  0.15971230047E+03  0.00000000000E+00 0.  1.
        -13    1    5    5    0    0  0.10184534991E+03  0.24353682633E+03  0.17335107952E+03  0.31580572802E+03  0.00000000000E+00 0. -1.
          3    1    6    6  503    0 -0.12082278094E+03 -0.31821968425E+02  0.82311710924E+02  0.14961951686E+03  0.00000000000E+00 0. -1.
         -3    1    6    6    0  503 -0.20948181886E+03  0.48941941579E+02  0.22155497819E+03  0.30881151928E+03  0.00000000000E+00 0.  1.
<mgrwt>
<rscale>  0 0.53721220E+03</rscale>
<asrwt>0</asrwt>
<pdfrwt beam="1">  1        2 0.13388622E+00 0.53721220E+03</pdfrwt>
<pdfrwt beam="2">  1       -2 0.83144770E-01 0.53721220E+03</pdfrwt>
<totfact> 0.40356511E+01</totfact>
</mgrwt>
</event>
<event>
12    1  0.3147868E-008  0.3597344E+03  0.7818608E-02  0.1058689E+00
         -2   -1    0    0    0  501 -0.00000000000E+00  0.00000000000E+00  0.34884778045E+03  0.34884778045E+03  0.00000000000E+00 0.  1.
          2   -1    0    0  501    0  0.00000000000E+00 -0.00000000000E+00 -0.61205030751E+03  0.61205030751E+03  0.00000000000E+00 0. -1.
         23    2    1    2    0    0  0.12963268098E+03 -0.21574516279E+03 -0.26608812496E+02  0.26874011133E+03  0.90347170904E+02 0.  0.
    5000000    2    1    2    0    0 -0.12963268098E+03  0.21574516279E+03 -0.23659371457E+03  0.69215797663E+03  0.59979619172E+03 0.  0.
         23    2    4    4    0    0 -0.62776501691E+02  0.30440166167E+03 -0.37379995205E+03  0.49472167911E+03  0.91770773288E+02 0.  0.
         23    2    4    4    0    0 -0.66856179285E+02 -0.88656498879E+02  0.13720623749E+03  0.19743629753E+03  0.88463644921E+02 0.  0.
          5    1    3    3  502    0  0.21938902385E+02 -0.10717854693E+03  0.14147340080E+02  0.11041192686E+03  0.47000000000E+01 0. -1.
         -5    1    3    3    0  502  0.10769377859E+03 -0.10856661586E+03 -0.40756152576E+02  0.15832818447E+03  0.47000000000E+01 0.  1.
         13    1    5    5    0    0  0.28748419408E+00  0.12353902528E+03 -0.92194413037E+02  0.15414857512E+03  0.00000000000E+00 0.  1.
        -13    1    5    5    0    0 -0.63063985885E+02  0.18086263639E+03 -0.28160553902E+03  0.34057310399E+03  0.00000000000E+00 0. -1.
          3    1    6    6  503    0 -0.73429897814E+02 -0.24513054326E+02  0.71604866609E+02  0.10545186887E+03  0.00000000000E+00 0. -1.
         -3    1    6    6    0  503  0.65737185288E+01 -0.64143444553E+02  0.65601370880E+02  0.91984428659E+02  0.00000000000E+00 0.  1.
<mgrwt>
<rscale>  0 0.35973436E+03</rscale>
<asrwt>0</asrwt>
<pdfrwt beam="1">  1        2 0.94161584E-01 0.35973436E+03</pdfrwt>
<pdfrwt beam="2">  1       -2 0.53668890E-01 0.35973436E+03</pdfrwt>
<totfact> 0.16420740E+02</totfact>
</mgrwt>
</event>
<event>
12    1  0.3147868E-008  0.1356025E+04  0.7818608E-02  0.8986280E-01
         -2   -1    0    0    0  501 -0.00000000000E+00  0.00000000000E+00  0.93068403382E+03  0.93068403382E+03  0.00000000000E+00 0.  1.
          2   -1    0    0  501    0  0.00000000000E+00 -0.00000000000E+00 -0.21229995682E+04  0.21229995682E+04  0.00000000000E+00 0. -1.
         23    2    1    2    0    0  0.56965231733E+02  0.13329574642E+04 -0.69979402893E+03  0.15100727980E+04  0.10289574072E+03 0.  0.
    5000000    2    1    2    0    0 -0.56965231733E+02 -0.13329574642E+04 -0.49252150546E+03  0.15436108040E+04  0.60011352437E+03 0.  0.
         23    2    4    4    0    0 -0.32520471707E+00 -0.68965225101E+02  0.91784309678E+02  0.14693594067E+03  0.91703343054E+02 0.  0.
         23    2    4    4    0    0 -0.56640027016E+02 -0.12639922391E+04 -0.58430581514E+03  0.13966748634E+04  0.91667416768E+02 0.  0.
          5    1    3    3  502    0 -0.13565317677E+02  0.80421779948E+03 -0.40389236313E+03  0.90005634149E+03  0.47000000000E+01 0. -1.
         -5    1    3    3    0  502  0.70530549410E+02  0.52873966467E+03 -0.29590166579E+03  0.61001645651E+03  0.47000000000E+01 0.  1.
         11    1    5    5    0    0  0.41273940835E+02 -0.31156739400E+02  0.19275456705E+02  0.55188982898E+02  0.00000000000E+00 0. -1.
        -11    1    5    5    0    0 -0.41599145552E+02 -0.37808485701E+02  0.72508852973E+02  0.91746957776E+02  0.00000000000E+00 0.  1.
          3    1    6    6  503    0  0.79469214641E+01 -0.33700038962E+03 -0.11930781247E+03  0.35758463373E+03  0.00000000000E+00 0. -1.
         -3    1    6    6    0  503 -0.64586948480E+02 -0.92699184944E+03 -0.46499800267E+03  0.10390902296E+04  0.00000000000E+00 0.  1.
<mgrwt>
<rscale>  0 0.13560250E+04</rscale>
<asrwt>0</asrwt>
<pdfrwt beam="1">  1        2 0.32661531E+00 0.13560250E+04</pdfrwt>
<pdfrwt beam="2">  1       -2 0.14318216E+00 0.13560250E+04</pdfrwt>
<totfact> 0.18519164E+00</totfact>
</mgrwt>
</event>
<event>
12    1  0.3147868E-008  0.1395122E+04  0.7818608E-02  0.8957357E-01
          2   -1    0    0  501    0  0.00000000000E+00  0.00000000000E+00  0.95614578767E+03  0.95614578767E+03  0.00000000000E+00 0. -1.
         -2   -1    0    0    0  501 -0.00000000000E+00 -0.00000000000E+00 -0.29116085659E+04  0.29116085659E+04  0.00000000000E+00 0.  1.
         23    2    1    2    0    0  0.12665005624E+04 -0.42471437507E+03 -0.19952125846E+04  0.24028134292E+04  0.90736666221E+02 0.  0.
    5000000    2    1    2    0    0 -0.12665005624E+04  0.42471437507E+03  0.39749806366E+02  0.14649409244E+04  0.60005490570E+03 0.  0.
         23    2    4    4    0    0 -0.41635546917E+03 -0.11992643373E+03 -0.56818862874E+02  0.44645868542E+03  0.91448063900E+02 0.  0.
         23    2    4    4    0    0 -0.85014509327E+03  0.54464080880E+03  0.96568669240E+02  0.10184822390E+04  0.92737657114E+02 0.  0.
          5    1    3    3  502    0  0.72581400152E+03 -0.26617702071E+03 -0.12234770442E+04  0.14472644329E+04  0.47000000000E+01 0. -1.
         -5    1    3    3    0  502  0.54068656092E+03 -0.15853735436E+03 -0.77173554044E+03  0.95554899627E+03  0.47000000000E+01 0.  1.
         13    1    5    5    0    0 -0.41798863552E+03 -0.10982732417E+03 -0.52498281473E+02  0.43535343127E+03  0.00000000000E+00 0. -1.
        -13    1    5    5    0    0  0.16331663463E+01 -0.10099109557E+02 -0.43205814007E+01  0.11105254153E+02  0.00000000000E+00 0.  1.
          3    1    6    6  503    0 -0.57882936350E+02  0.20890660125E+02  0.23749443164E+02  0.65961276910E+02  0.00000000000E+00 0. -1.
         -3    1    6    6    0  503 -0.79226215692E+03  0.52375014867E+03  0.72819226076E+02  0.95252096208E+03  0.00000000000E+00 0.  1.
<mgrwt>
<rscale>  0 0.13951220E+04</rscale>
<asrwt>0</asrwt>
<pdfrwt beam="1">  1        2 0.14709936E+00 0.13951220E+04</pdfrwt>
<pdfrwt beam="2">  1       -2 0.44793977E+00 0.13951220E+04</pdfrwt>
<totfact> 0.92541092E-02</totfact>
</mgrwt>
</event>
<event>
12    1  0.3147868E-008  0.1404693E+04  0.7818608E-02  0.8950429E-01
         -2   -1    0    0    0  501 -0.00000000000E+00  0.00000000000E+00  0.16904499366E+04  0.16904499366E+04  0.00000000000E+00 0.  1.
          2   -1    0    0  501    0  0.00000000000E+00 -0.00000000000E+00 -0.12328386396E+04  0.12328386396E+04  0.00000000000E+00 0. -1.
         23    2    1    2    0    0 -0.98584515147E+03 -0.91802576985E+03  0.51959272415E+03  0.14468034911E+04  0.92745707394E+02 0.  0.
    5000000    2    1    2    0    0  0.98584515147E+03  0.91802576985E+03 -0.61981427200E+02  0.14764850850E+04  0.60125246966E+03 0.  0.
         23    2    4    4    0    0  0.11365694144E+03  0.44844494752E+03 -0.98498521598E+02  0.48113094453E+03  0.88115014270E+02 0.  0.
         23    2    4    4    0    0  0.87218821003E+03  0.46958082233E+03  0.36517094398E+02  0.99535414051E+03  0.90431987896E+02 0.  0.
          5    1    3    3  502    0 -0.34594995013E+03 -0.30028289073E+03  0.22053728922E+03  0.50843875580E+03  0.47000000000E+01 0. -1.
         -5    1    3    3    0  502 -0.63989520134E+03 -0.61774287911E+03  0.29905543493E+03  0.93836473535E+03  0.47000000000E+01 0.  1.
         11    1    5    5    0    0  0.72820079660E+02  0.15542559554E+03 -0.83165235090E+01  0.17184017084E+03  0.00000000000E+00 0.  1.
        -11    1    5    5    0    0  0.40836861775E+02  0.29301935198E+03 -0.90181998089E+02  0.30929077369E+03  0.00000000000E+00 0. -1.
          2    1    6    6  503    0  0.75995196355E+03  0.37436375148E+03  0.21825163940E+02  0.84743822377E+03  0.00000000000E+00 0. -1.
         -2    1    6    6    0  503  0.11223624648E+03  0.95217070843E+02  0.14691930458E+02  0.14791591674E+03  0.00000000000E+00 0.  1.
<mgrwt>
<rscale>  0 0.14046929E+04</rscale>
<asrwt>0</asrwt>
<pdfrwt beam="1">  1        2 0.18966748E+00 0.14046929E+04</pdfrwt>
<pdfrwt beam="2">  1       -2 0.26006922E+00 0.14046929E+04</pdfrwt>
<totfact> 0.96096041E-01</totfact>
</mgrwt>
</event>
<event>
12    1  0.3147868E-008  0.1474538E+04  0.7818608E-02  0.8901563E-01
          2   -1    0    0  501    0  0.00000000000E+00  0.00000000000E+00  0.11035209519E+04  0.11035209519E+04  0.00000000000E+00 0.  1.
         -2   -1    0    0    0  501 -0.00000000000E+00 -0.00000000000E+00 -0.22654354909E+04  0.22654354909E+04  0.00000000000E+00 0. -1.
         23    2    1    2    0    0 -0.12733345368E+04 -0.67127076628E+03 -0.10894583681E+04  0.18076747238E+04  0.93718125855E+02 0.  0.
    5000000    2    1    2    0    0  0.12733345368E+04  0.67127076628E+03 -0.72456170874E+02  0.15612817190E+04  0.60030444360E+03 0.  0.
         23    2    4    4    0    0  0.64253291676E+03  0.97142777471E+02 -0.21654773381E+03  0.69146724289E+03  0.94597878599E+02 0.  0.
         23    2    4    4    0    0  0.63080162005E+03  0.57412798881E+03  0.14409156294E+03  0.86981447608E+03  0.91001169775E+02 0.  0.
          5    1    3    3  502    0 -0.10064733838E+04 -0.57167238817E+03 -0.86573936035E+03  0.14454496607E+04  0.47000000000E+01 0. -1.
         -5    1    3    3    0  502 -0.26686115304E+03 -0.99598378107E+02 -0.22371900771E+03  0.36222506309E+03  0.47000000000E+01 0.  1.
         13    1    5    5    0    0  0.99494599120E+02 -0.62687379178E+01 -0.58016520140E+01  0.99860560259E+02  0.00000000000E+00 0. -1.
        -13    1    5    5    0    0  0.54303831764E+03  0.10341151539E+03 -0.21074608180E+03  0.59160668263E+03  0.00000000000E+00 0.  1.
          1    1    6    6  503    0  0.25579395415E+03  0.20252153154E+03  0.93839174915E+02  0.33948683106E+03  0.00000000000E+00 0. -1.
         -1    1    6    6    0  503  0.37500766589E+03  0.37160645727E+03  0.50252388021E+02  0.53032764502E+03  0.00000000000E+00 0.  1.
<mgrwt>
<rscale>  0 0.14745383E+04</rscale>
<asrwt>0</asrwt>
<pdfrwt beam="1">  1        2 0.16977246E+00 0.14745383E+04</pdfrwt>
<pdfrwt beam="2">  1       -2 0.34852853E+00 0.14745383E+04</pdfrwt>
<totfact> 0.32729684E-01</totfact>
</mgrwt>
</event>
<event>
12    1  0.3147868E-008  0.1038130E+04  0.7818608E-02  0.9267685E-01
          2   -1    0    0  501    0  0.00000000000E+00  0.00000000000E+00  0.73969513223E+03  0.73969513223E+03  0.00000000000E+00 0.  1.
         -2   -1    0    0    0  501 -0.00000000000E+00 -0.00000000000E+00 -0.19575972780E+04  0.19575972780E+04  0.00000000000E+00 0. -1.
         23    2    1    2    0    0  0.80244361658E+03 -0.53814204976E+03 -0.12199278972E+04  0.15601026677E+04  0.11037950804E+03 0.  0.
    5000000    2    1    2    0    0 -0.80244361658E+03  0.53814204976E+03  0.20257514941E+01  0.11371897425E+04  0.59973642816E+03 0.  0.
         23    2    4    4    0    0 -0.46861672830E+03  0.13628773680E+02 -0.13057228776E+03  0.49507624080E+03  0.90906437395E+02 0.  0.
         23    2    4    4    0    0 -0.33382688828E+03  0.52451327608E+03  0.13259803926E+03  0.64211350170E+03  0.90404319164E+02 0.  0.
          5    1    3    3  502    0  0.17928581150E+03 -0.17504406938E+03 -0.33928073918E+03  0.42180248744E+03  0.47000000000E+01 0. -1.
         -5    1    3    3    0  502  0.62315780508E+03 -0.36309798038E+03 -0.88064715804E+03  0.11383001803E+04  0.47000000000E+01 0.  1.
         13    1    5    5    0    0 -0.20716810622E+03  0.49077595897E+02 -0.44053993139E+02  0.21741202580E+03  0.00000000000E+00 0.  1.
        -13    1    5    5    0    0 -0.26144862208E+03 -0.35448822217E+02 -0.86518294625E+02  0.27766421500E+03  0.00000000000E+00 0. -1.
          1    1    6    6  503    0 -0.29587193429E+03  0.40024565042E+03  0.11651378069E+03  0.51118709224E+03  0.00000000000E+00 0.  1.
         -1    1    6    6    0  503 -0.37954953989E+02  0.12426762567E+03  0.16084258570E+02  0.13092640946E+03  0.00000000000E+00 0. -1.
<mgrwt>
<rscale>  0 0.10381304E+04</rscale>
<asrwt>0</asrwt>
<pdfrwt beam="1">  1        2 0.11379925E+00 0.10381304E+04</pdfrwt>
<pdfrwt beam="2">  1       -2 0.30116881E+00 0.10381304E+04</pdfrwt>
<totfact> 0.11938311E+00</totfact>
</mgrwt>
</event>
<event>
12    1  0.3147868E-008  0.1299385E+04  0.7818608E-02  0.9030053E-01
          2   -1    0    0  501    0  0.00000000000E+00  0.00000000000E+00  0.20365138321E+04  0.20365138321E+04  0.00000000000E+00 0.  1.
         -2   -1    0    0    0  501 -0.00000000000E+00 -0.00000000000E+00 -0.94945939777E+03  0.94945939777E+03  0.00000000000E+00 0. -1.
         23    2    1    2    0    0  0.10801729076E+04  0.59112431661E+03  0.10416217596E+04  0.16154502961E+04  0.92207922214E+02 0.  0.
    5000000    2    1    2    0    0 -0.10801729076E+04 -0.59112431661E+03  0.45432674765E+02  0.13705229338E+04  0.60005626082E+03 0.  0.
         23    2    4    4    0    0 -0.71346530175E+03 -0.65300454078E+02  0.10434446755E+02  0.72234543260E+03  0.91526827811E+02 0.  0.
         23    2    4    4    0    0 -0.36670760588E+03 -0.52582386253E+03  0.34998228010E+02  0.64817750123E+03  0.89129089094E+02 0.  0.
          5    1    3    3  502    0  0.19988785490E+03  0.11602295580E+03  0.15110644303E+03  0.27617336573E+03  0.47000000000E+01 0. -1.
         -5    1    3    3    0  502  0.88028505273E+03  0.47510136081E+03  0.89051531657E+03  0.13392769303E+04  0.47000000000E+01 0.  1.
         13    1    5    5    0    0 -0.14505692035E+03 -0.43209896389E+02  0.24543867320E+02  0.15333299290E+03  0.00000000000E+00 0.  1.
        -13    1    5    5    0    0 -0.56840838140E+03 -0.22090557689E+02 -0.14109420566E+02  0.56901243970E+03  0.00000000000E+00 0. -1.
          2    1    6    6  503    0 -0.21416418531E+03 -0.37921344616E+03  0.30020288263E+02  0.43654364470E+03  0.00000000000E+00 0. -1.
         -2    1    6    6    0  503 -0.15254342057E+03 -0.14661041637E+03  0.49779397473E+01  0.21163385653E+03  0.00000000000E+00 0.  1.
<mgrwt>
<rscale>  0 0.12993846E+04</rscale>
<asrwt>0</asrwt>
<pdfrwt beam="1">  1        2 0.31330982E+00 0.12993846E+04</pdfrwt>
<pdfrwt beam="2">  1       -2 0.14607068E+00 0.12993846E+04</pdfrwt>
<totfact> 0.19742159E+00</totfact>
</mgrwt>
</event>
<event>
12    1  0.3147868E-008  0.1177101E+04  0.7818608E-02  0.9133139E-01
         -3   -1    0    0    0  501 -0.00000000000E+00  0.00000000000E+00  0.79816944050E+03  0.79816944050E+03  0.00000000000E+00 0.  1.
          3   -1    0    0  501    0  0.00000000000E+00 -0.00000000000E+00 -0.17845312184E+04  0.17845312184E+04  0.00000000000E+00 0. -1.
         23    2    1    2    0    0  0.75624736948E+03  0.81055944184E+03 -0.32454339490E+03  0.11590143758E+04  0.95232429250E+02 0.  0.
    5000000    2    1    2    0    0 -0.75624736948E+03 -0.81055944184E+03 -0.66181838300E+03  0.14236862831E+04  0.59996863914E+03 0.  0.
         23    2    4    4    0    0 -0.22088486147E+03  0.48624454524E+02 -0.15919418814E+03  0.28973659301E+03  0.86313638494E+02 0.  0.
         23    2    4    4    0    0 -0.53536250802E+03 -0.85918389636E+03 -0.50262419486E+03  0.11339496901E+04  0.91656072285E+02 0.  0.
          5    1    3    3  502    0  0.36746778923E+03  0.32760555248E+03 -0.15733102927E+03  0.51684922067E+03  0.47000000000E+01 0.  1.
         -5    1    3    3    0  502  0.38877958025E+03  0.48295388936E+03 -0.16721236563E+03  0.64216515515E+03  0.47000000000E+01 0. -1.
         13    1    5    5    0    0 -0.24743235048E+02 -0.68387536542E+01 -0.55268155516E+02  0.60939028925E+02  0.00000000000E+00 0. -1.
        -13    1    5    5    0    0 -0.19614162642E+03  0.55463208179E+02 -0.10392603262E+03  0.22879756409E+03  0.00000000000E+00 0.  1.
          3    1    6    6  503    0 -0.70225496002E+02 -0.10735083506E+03 -0.99239641828E+02  0.16218609246E+03  0.00000000000E+00 0. -1.
         -3    1    6    6    0  503 -0.46513701202E+03 -0.75183306130E+03 -0.40338455303E+03  0.97176359761E+03  0.00000000000E+00 0.  1.
<mgrwt>
<rscale>  0 0.11771011E+04</rscale>
<asrwt>0</asrwt>
<pdfrwt beam="1">  1        3 0.27454326E+00 0.11771011E+04</pdfrwt>
<pdfrwt beam="2">  1       -3 0.12279530E+00 0.11771011E+04</pdfrwt>
<totfact> 0.71871149E-02</totfact>
</mgrwt>
</event>
<event>
12    1  0.3759644E-008  0.8778810E+03  0.7818608E-02  0.9453662E-01
         -1   -1    0    0    0  501 -0.00000000000E+00  0.00000000000E+00  0.41664489674E+03  0.41664489674E+03  0.00000000000E+00 0.  1.
          1   -1    0    0  501    0  0.00000000000E+00 -0.00000000000E+00 -0.18771769192E+04  0.18771769192E+04  0.00000000000E+00 0. -1.
         23    2    1    2    0    0 -0.77318446676E+03  0.98585931299E+02 -0.67711557724E+03  0.10363059346E+04  0.88944249897E+02 0.  0.
    5000000    2    1    2    0    0  0.77318446676E+03 -0.98585931299E+02 -0.78341644519E+03  0.12575158813E+04  0.60005954682E+03 0.  0.
         23    2    4    4    0    0  0.35811763440E+03 -0.32938512158E+03 -0.46037330151E+03  0.67580323637E+03  0.89574768540E+02 0.  0.
         23    2    4    4    0    0  0.41506683236E+03  0.23079919028E+03 -0.32304314368E+03  0.58171264497E+03  0.92108561349E+02 0.  0.
          5    1    3    3  502    0 -0.43899314820E+03  0.12094419352E+02 -0.38660606168E+03  0.58510477358E+03  0.47000000000E+01 0. -1.
         -5    1    3    3    0  502 -0.33419131856E+03  0.86491511947E+02 -0.29050951556E+03  0.45120116098E+03  0.47000000000E+01 0.  1.
         11    1    5    5    0    0  0.13118297976E+03 -0.18101470823E+03 -0.21302810856E+03  0.30879811173E+03  0.00000000000E+00 0. -1.
        -11    1    5    5    0    0  0.22693465463E+03 -0.14837041335E+03 -0.24734519296E+03  0.36700512464E+03  0.00000000000E+00 0.  1.
          4    1    6    6  503    0  0.26039709766E+03  0.16699942325E+03 -0.16075088148E+03  0.34862056986E+03  0.00000000000E+00 0. -1.
         -4    1    6    6    0  503  0.15466973470E+03  0.63799767035E+02 -0.16229226220E+03  0.23309207510E+03  0.00000000000E+00 0.  1.
<mgrwt>
<rscale>  0 0.87788103E+03</rscale>
<asrwt>0</asrwt>
<pdfrwt beam="1">  1        1 0.28879645E+00 0.87788103E+03</pdfrwt>
<pdfrwt beam="2">  1       -1 0.64099214E-01 0.87788103E+03</pdfrwt>
<totfact> 0.91365459E+00</totfact>
</mgrwt>
</event>
<event>
12    1  0.3147868E-008  0.5475916E+03  0.7818608E-02  0.1002053E+00
         -1   -1    0    0    0  501 -0.00000000000E+00  0.00000000000E+00  0.29516336984E+03  0.29516336984E+03  0.00000000000E+00 0.  1.
          1   -1    0    0  501    0  0.00000000000E+00 -0.00000000000E+00 -0.12799795913E+04  0.12799795913E+04  0.00000000000E+00 0. -1.
         23    2    1    2    0    0  0.28639329976E+03  0.35152350507E+03 -0.49608100493E+03  0.67818043367E+03  0.90787886804E+02 0.  0.
    5000000    2    1    2    0    0 -0.28639329976E+03 -0.35152350507E+03 -0.48873521653E+03  0.89696252747E+03  0.60007480121E+03 0.  0.
         23    2    4    4    0    0 -0.39033635926E+03 -0.24241936341E+03 -0.53940297029E+03  0.71455060831E+03  0.92181269037E+02 0.  0.
         23    2    4    4    0    0  0.10394305950E+03 -0.10910414166E+03  0.50667753760E+02  0.18241191916E+03  0.89437204996E+02 0.  0.
          5    1    3    3  502    0  0.19725093920E+03  0.17630842786E+03 -0.30828044840E+03  0.40626533155E+03  0.47000000000E+01 0. -1.
         -5    1    3    3    0  502  0.89142360562E+02  0.17521507721E+03 -0.18780055653E+03  0.27191510212E+03  0.47000000000E+01 0.  1.
         13    1    5    5    0    0 -0.38735856337E+03 -0.22280913743E+03 -0.50105575216E+03  0.67137726735E+03  0.00000000000E+00 0.  1.
        -13    1    5    5    0    0 -0.29777958853E+01 -0.19610225979E+02 -0.38347218127E+02  0.43173340957E+02  0.00000000000E+00 0. -1.
          2    1    6    6  503    0  0.10352679252E+03 -0.63127513569E+02  0.11118668616E+02  0.12176413483E+03  0.00000000000E+00 0. -1.
         -2    1    6    6    0  503  0.41626697290E+00 -0.45976628090E+02  0.39549085144E+02  0.60647784333E+02  0.00000000000E+00 0.  1.
<mgrwt>
<rscale>  0 0.54759157E+03</rscale>
<asrwt>0</asrwt>
<pdfrwt beam="1">  1        1 0.19691994E+00 0.54759157E+03</pdfrwt>
<pdfrwt beam="2">  1       -1 0.45409750E-01 0.54759157E+03</pdfrwt>
<totfact> 0.47401751E+01</totfact>
</mgrwt>
</event>
<event>
12    1  0.3147868E-008  0.5527142E+03  0.7818608E-02  0.1000868E+00
         -2   -1    0    0    0  501 -0.00000000000E+00  0.00000000000E+00  0.81316844604E+03  0.81316844604E+03  0.00000000000E+00 0. -1.
          2   -1    0    0  501    0  0.00000000000E+00 -0.00000000000E+00 -0.46374073680E+03  0.46374073680E+03  0.00000000000E+00 0.  1.
         23    2    1    2    0    0  0.45295379029E+03 -0.91148961952E+02  0.12213414558E+03  0.48650836401E+03  0.91095385886E+02 0.  0.
    5000000    2    1    2    0    0 -0.45295379029E+03  0.91148961952E+02  0.22729356366E+03  0.79040081884E+03  0.59966308952E+03 0.  0.
         23    2    4    4    0    0  0.47744735626E+01  0.14506282188E+03 -0.11734822532E+03  0.20765635490E+03  0.91019436702E+02 0.  0.
         23    2    4    4    0    0 -0.45772826386E+03 -0.53913859924E+02  0.34464178898E+03  0.58274446393E+03  0.91603928447E+02 0.  0.
          5    1    3    3  502    0  0.17015467599E+03 -0.79406504749E+02  0.50722227551E+02  0.19455806620E+03  0.47000000000E+01 0. -1.
         -5    1    3    3    0  502  0.28279911431E+03 -0.11742457203E+02  0.71411918027E+02  0.29195029781E+03  0.47000000000E+01 0.  1.
         11    1    5    5    0    0  0.40013217035E+02  0.55004039482E+02 -0.77352700600E+02  0.10300457362E+03  0.00000000000E+00 0. -1.
        -11    1    5    5    0    0 -0.35238743472E+02  0.90058782393E+02 -0.39995524719E+02  0.10465178128E+03  0.00000000000E+00 0.  1.
          2    1    6    6  503    0 -0.67513594851E+02  0.24413902100E+02  0.48047719003E+02  0.86386963176E+02  0.00000000000E+00 0.  1.
         -2    1    6    6    0  503 -0.39021466901E+03 -0.78327762024E+02  0.29659406998E+03  0.49635750076E+03  0.00000000000E+00 0. -1.
<mgrwt>
<rscale>  0 0.55271419E+03</rscale>
<asrwt>0</asrwt>
<pdfrwt beam="1">  1        2 0.71344729E-01 0.55271419E+03</pdfrwt>
<pdfrwt beam="2">  1       -2 0.12510284E+00 0.55271419E+03</pdfrwt>
<totfact> 0.33092548E+01</totfact>
</mgrwt>
</event>
<event>
12    1  0.3147868E-008  0.6378478E+03  0.7818608E-02  0.9829853E-01
          2   -1    0    0  501    0  0.00000000000E+00  0.00000000000E+00  0.52178348942E+03  0.52178348942E+03  0.00000000000E+00 0. -1.
         -2   -1    0    0    0  501 -0.00000000000E+00 -0.00000000000E+00 -0.91222139643E+03  0.91222139643E+03  0.00000000000E+00 0.  1.
         23    2    1    2    0    0  0.36504459575E+03 -0.40250871139E+03 -0.27546959615E+03  0.61604412402E+03  0.91411403568E+02 0.  0.
    5000000    2    1    2    0    0 -0.36504459575E+03  0.40250871139E+03 -0.11496831087E+03  0.81796076183E+03  0.60047587442E+03 0.  0.
         23    2    4    4    0    0 -0.64793061121E+02 -0.97609213698E+02 -0.17212184097E+03  0.22597945139E+03  0.87835556245E+02 0.  0.
         23    2    4    4    0    0 -0.30025153463E+03  0.50011792509E+03  0.57153530104E+02  0.59198131044E+03  0.83104890753E+02 0.  0.
          5    1    3    3  502    0  0.19446746618E+03 -0.22255110792E+03 -0.19973503679E+03  0.35673907266E+03  0.47000000000E+01 0. -1.
         -5    1    3    3    0  502  0.17057712957E+03 -0.17995760347E+03 -0.75734559354E+02  0.25930505136E+03  0.47000000000E+01 0.  1.
         13    1    5    5    0    0 -0.86906774546E+02 -0.80107863620E+02 -0.13712618967E+03  0.18103493909E+03  0.00000000000E+00 0. -1.
        -13    1    5    5    0    0  0.22113713425E+02 -0.17501350078E+02 -0.34995651296E+02  0.44944512297E+02  0.00000000000E+00 0.  1.
          4    1    6    6  503    0 -0.28278282460E+03  0.48939934247E+03  0.42564469762E+02  0.56682411416E+03  0.00000000000E+00 0. -1.
         -4    1    6    6    0  503 -0.17468710026E+02  0.10718582616E+02  0.14589060343E+02  0.25157196286E+02  0.00000000000E+00 0.  1.
<mgrwt>
<rscale>  0 0.63784784E+03</rscale>
<asrwt>0</asrwt>
<pdfrwt beam="1">  1        2 0.80274383E-01 0.63784784E+03</pdfrwt>
<pdfrwt beam="2">  1       -2 0.14034175E+00 0.63784784E+03</pdfrwt>
<totfact> 0.21406592E+01</totfact>
</mgrwt>
</event>
<event>
12    1  0.3147868E-008  0.1897028E+04  0.7818608E-02  0.8656337E-01
         -2   -1    0    0    0  501 -0.00000000000E+00  0.00000000000E+00  0.11936814670E+04  0.11936814670E+04  0.00000000000E+00 0.  1.
          2   -1    0    0  501    0  0.00000000000E+00 -0.00000000000E+00 -0.33968947288E+04  0.33968947288E+04  0.00000000000E+00 0. -1.
         23    2    1    2    0    0  0.25100963986E+03 -0.18361432031E+04 -0.32324928437E+03  0.18834189449E+04  0.91373520647E+02 0.  0.
    5000000    2    1    2    0    0 -0.25100963986E+03  0.18361432031E+04 -0.18799639774E+04  0.27071572509E+04  0.60000676932E+03 0.  0.
         23    2    4    4    0    0 -0.41835201195E+03  0.14726662945E+04 -0.15563273619E+04  0.21849477555E+04  0.89874446865E+02 0.  0.
         23    2    4    4    0    0  0.16734237209E+03  0.36347690867E+03 -0.32363661551E+03  0.52220949542E+03  0.88561648439E+02 0.  0.
          5    1    3    3  502    0  0.13819229901E+03 -0.87434445191E+03 -0.11229990414E+03  0.89230526758E+03  0.47000000000E+01 0. -1.
         -5    1    3    3    0  502  0.11281734086E+03 -0.96179875123E+03 -0.21094938022E+03  0.99111367728E+03  0.47000000000E+01 0.  1.
         13    1    5    5    0    0 -0.12145448488E+03  0.41673957992E+03 -0.50000592516E+03  0.66213970925E+03  0.00000000000E+00 0.  1.
        -13    1    5    5    0    0 -0.29689752707E+03  0.10559267146E+04 -0.10563214367E+04  0.15228080463E+04  0.00000000000E+00 0. -1.
          4    1    6    6  503    0  0.83339287627E+02  0.86747356601E+02 -0.10486788767E+03  0.15958638603E+03  0.00000000000E+00 0. -1.
         -4    1    6    6    0  503  0.84003084461E+02  0.27672955206E+03 -0.21876872784E+03  0.36262310939E+03  0.00000000000E+00 0.  1.
<mgrwt>
<rscale>  0 0.18970282E+04</rscale>
<asrwt>0</asrwt>
<pdfrwt beam="1">  1        2 0.52259918E+00 0.18970282E+04</pdfrwt>
<pdfrwt beam="2">  1       -2 0.18364330E+00 0.18970282E+04</pdfrwt>
<totfact> 0.14849708E-01</totfact>
</mgrwt>
</event>
<event>
12    1  0.3147868E-008  0.4854850E+03  0.7818608E-02  0.1017639E+00
         -2   -1    0    0    0  501 -0.00000000000E+00  0.00000000000E+00  0.36419414251E+03  0.36419414251E+03  0.00000000000E+00 0.  1.
          2   -1    0    0  501    0  0.00000000000E+00 -0.00000000000E+00 -0.14155006722E+04  0.14155006722E+04  0.00000000000E+00 0. -1.
         23    2    1    2    0    0  0.20842589874E+03 -0.34829061408E+03 -0.96458935922E+03  0.10504062873E+04  0.90404808434E+02 0.  0.
    5000000    2    1    2    0    0 -0.20842589874E+03  0.34829061408E+03 -0.86717170455E+02  0.72928852739E+03  0.59966172248E+03 0.  0.
         23    2    4    4    0    0 -0.13940359668E+03 -0.41119369625E+02 -0.24013085380E+03  0.29531406501E+03  0.91779108306E+02 0.  0.
         23    2    4    4    0    0 -0.69022302062E+02  0.38940998371E+03  0.15341368334E+03  0.43397446238E+03  0.91618023172E+02 0.  0.
          5    1    3    3  502    0  0.11955619433E+03 -0.13760857250E+03 -0.35024333641E+03  0.39486996280E+03  0.47000000000E+01 0. -1.
         -5    1    3    3    0  502  0.88869704411E+02 -0.21068204158E+03 -0.61434602281E+03  0.65553632451E+03  0.47000000000E+01 0.  1.
         13    1    5    5    0    0 -0.83602430800E+01  0.10824908035E+02  0.32500273503E+01  0.14058270736E+02  0.00000000000E+00 0. -1.
        -13    1    5    5    0    0 -0.13104335360E+03 -0.51944277659E+02 -0.24338088115E+03  0.28125579427E+03  0.00000000000E+00 0.  1.
          2    1    6    6  503    0 -0.30736068964E+02  0.27198359657E+02  0.81351289331E+01  0.41840614552E+02  0.00000000000E+00 0. -1.
         -2    1    6    6    0  503 -0.38286233098E+02  0.36221162405E+03  0.14527855441E+03  0.39213384783E+03  0.00000000000E+00 0.  1.
<mgrwt>
<rscale>  0 0.48548496E+03</rscale>
<asrwt>0</asrwt>
<pdfrwt beam="1">  1        2 0.21776934E+00 0.48548496E+03</pdfrwt>
<pdfrwt beam="2">  1       -2 0.56029867E-01 0.48548496E+03</pdfrwt>
<totfact> 0.44803226E+01</totfact>
</mgrwt>
</event>
<event>
12    1  0.3147868E-008  0.1279485E+04  0.7818608E-02  0.9045993E-01
         -1   -1    0    0    0  501 -0.00000000000E+00  0.00000000000E+00  0.13223319672E+04  0.13223319672E+04  0.00000000000E+00 0.  1.
          1   -1    0    0  501    0  0.00000000000E+00 -0.00000000000E+00 -0.13092629867E+04  0.13092629867E+04  0.00000000000E+00 0. -1.
         23    2    1    2    0    0  0.18753446515E+03 -0.12310727390E+04 -0.19662736089E+02  0.12488186903E+04  0.91936031121E+02 0.  0.
    5000000    2    1    2    0    0 -0.18753446515E+03  0.12310727390E+04  0.32731716567E+02  0.13827762636E+04  0.60024125604E+03 0.  0.
         23    2    4    4    0    0 -0.14701039027E+03  0.96281994913E+02  0.13341471475E+03  0.23905152338E+03  0.91999278940E+02 0.  0.
         23    2    4    4    0    0 -0.40524074877E+02  0.11347907441E+04 -0.10068299818E+03  0.11437247402E+04  0.92611995205E+02 0.  0.
          5    1    3    3  502    0  0.74503388014E+02 -0.72831884886E+03  0.15465870843E+02  0.73229801555E+03  0.47000000000E+01 0. -1.
         -5    1    3    3    0  502  0.11303107713E+03 -0.50275389015E+03 -0.35128606932E+02  0.51652067479E+03  0.47000000000E+01 0.  1.
         11    1    5    5    0    0 -0.92317723138E+02  0.64311498275E+02  0.27800272411E+02  0.11589385645E+03  0.00000000000E+00 0.  1.
        -11    1    5    5    0    0 -0.54692667133E+02  0.31970496638E+02  0.10561444234E+03  0.12315766693E+03  0.00000000000E+00 0. -1.
          2    1    6    6  503    0 -0.39730888629E+02  0.91981985223E+03 -0.45592768492E+02  0.92180573041E+03  0.00000000000E+00 0. -1.
         -2    1    6    6    0  503 -0.79318624799E+00  0.21497089186E+03 -0.55090229693E+02  0.22191900978E+03  0.00000000000E+00 0.  1.
<mgrwt>
<rscale>  0 0.12794854E+04</rscale>
<asrwt>0</asrwt>
<pdfrwt beam="1">  1        1 0.20142508E+00 0.12794854E+04</pdfrwt>
<pdfrwt beam="2">  1       -1 0.20343569E+00 0.12794854E+04</pdfrwt>
<totfact> 0.12328510E+00</totfact>
</mgrwt>
</event>
<event>
12    1  0.3147868E-008  0.9189230E+03  0.7818608E-02  0.9402231E-01
          2   -1    0    0  501    0  0.00000000000E+00  0.00000000000E+00  0.82888836698E+03  0.82888836698E+03  0.00000000000E+00 0. -1.
         -2   -1    0    0    0  501 -0.00000000000E+00 -0.00000000000E+00 -0.18101250582E+04  0.18101250582E+04  0.00000000000E+00 0.  1.
         23    2    1    2    0    0 -0.71540341399E+03 -0.53231653799E+03  0.31929911481E+03  0.95182745987E+03  0.94131011290E+02 0.  0.
    5000000    2    1    2    0    0  0.71540341399E+03  0.53231653799E+03 -0.13005358060E+04  0.16871859653E+04  0.60003346354E+03 0.  0.
         23    2    4    4    0    0  0.63385110540E+02  0.23069773691E+02 -0.56516797757E+03  0.57650659424E+03  0.91624907318E+02 0.  0.
         23    2    4    4    0    0  0.65201830345E+03  0.50924676430E+03 -0.73536782847E+03  0.11106793711E+04  0.91557015987E+02 0.  0.
          5    1    3    3  502    0 -0.62768240199E+03 -0.45076179592E+03  0.24451191350E+03  0.81054275660E+03  0.47000000000E+01 0. -1.
         -5    1    3    3    0  502 -0.87721011997E+02 -0.81554742066E+02  0.74787201308E+02  0.14128470327E+03  0.47000000000E+01 0.  1.
         13    1    5    5    0    0 -0.10145514470E+02 -0.23692324052E+02 -0.16115475836E+03  0.16320267713E+03  0.00000000000E+00 0. -1.
        -13    1    5    5    0    0  0.73530625011E+02  0.46762097743E+02 -0.40401321921E+03  0.41330391711E+03  0.00000000000E+00 0.  1.
          3    1    6    6  503    0  0.37933188601E+03  0.35207954983E+03 -0.44934568652E+03  0.68539348928E+03  0.00000000000E+00 0. -1.
         -3    1    6    6    0  503  0.27268641744E+03  0.15716721447E+03 -0.28602214195E+03  0.42528588178E+03  0.00000000000E+00 0.  1.
<mgrwt>
<rscale>  0 0.91892303E+03</rscale>
<asrwt>0</asrwt>
<pdfrwt beam="1">  1        2 0.12752129E+00 0.91892303E+03</pdfrwt>
<pdfrwt beam="2">  1       -2 0.27848077E+00 0.91892303E+03</pdfrwt>
<totfact> 0.14300245E+00</totfact>
</mgrwt>
</event>
<event>
12    1  0.3147868E-008  0.5318373E+03  0.7818608E-02  0.1005788E+00
         -2   -1    0    0    0  501 -0.00000000000E+00  0.00000000000E+00  0.10650912667E+04  0.10650912667E+04  0.00000000000E+00 0.  1.
          2   -1    0    0  501    0  0.00000000000E+00 -0.00000000000E+00 -0.10978518555E+04  0.10978518555E+04  0.00000000000E+00 0. -1.
         23    2    1    2    0    0 -0.20501992648E+03  0.42770826835E+03 -0.89072583179E+03  0.10132398677E+04  0.91076830031E+02 0.  0.
    5000000    2    1    2    0    0  0.20501992648E+03 -0.42770826835E+03  0.85796524292E+03  0.11497032545E+04  0.60062108048E+03 0.  0.
         23    2    4    4    0    0  0.26077356584E+03 -0.38087028412E+03  0.25576264042E+03  0.53640418271E+03  0.96176364176E+02 0.  0.
         23    2    4    4    0    0 -0.55753639351E+02 -0.46837984231E+02  0.60220260249E+03  0.61329907180E+03  0.90473819184E+02 0.  0.
          5    1    3    3  502    0 -0.14098510448E+03  0.37045039704E+03 -0.71282059915E+03  0.81562589030E+03  0.47000000000E+01 0. -1.
         -5    1    3    3    0  502 -0.64034822009E+02  0.57257871313E+02 -0.17790523264E+03  0.19761397738E+03  0.47000000000E+01 0.  1.
         11    1    5    5    0    0  0.24293145904E+03 -0.28946100001E+03  0.21463093390E+03  0.43459153478E+03  0.00000000000E+00 0. -1.
        -11    1    5    5    0    0  0.17842106800E+02 -0.91409284108E+02  0.41131706519E+02  0.10181264792E+03  0.00000000000E+00 0.  1.
          4    1    6    6  503    0  0.18515210258E+02 -0.28050691258E+02  0.28507854247E+03  0.28705300846E+03  0.00000000000E+00 0. -1.
         -4    1    6    6    0  503 -0.74268849609E+02 -0.18787292974E+02  0.31712406002E+03  0.32624606334E+03  0.00000000000E+00 0.  1.
<mgrwt>
<rscale>  0 0.53183731E+03</rscale>
<asrwt>0</asrwt>
<pdfrwt beam="1">  1        2 0.16890028E+00 0.53183731E+03</pdfrwt>
<pdfrwt beam="2">  1       -2 0.16386020E+00 0.53183731E+03</pdfrwt>
<totfact> 0.54570121E+00</totfact>
</mgrwt>
</event>
<event>
12    1  0.3147868E-008  0.2996533E+03  0.7818608E-02  0.1085414E+00
         -1   -1    0    0    0  501 -0.00000000000E+00  0.00000000000E+00  0.29853187888E+03  0.29853187888E+03  0.00000000000E+00 0.  1.
          1   -1    0    0  501    0  0.00000000000E+00 -0.00000000000E+00 -0.90169563039E+03  0.90169563039E+03  0.00000000000E+00 0. -1.
         23    2    1    2    0    0 -0.13288458880E+03  0.23754918897E+03 -0.43307248452E+03  0.51984179494E+03  0.92713449949E+02 0.  0.
    5000000    2    1    2    0    0  0.13288458880E+03 -0.23754918897E+03 -0.17009126699E+03  0.68038571433E+03  0.59992145323E+03 0.  0.
         23    2    4    4    0    0  0.42438813726E+02 -0.10911798112E+03 -0.37754671519E+03  0.40710726598E+03  0.97401320082E+02 0.  0.
         23    2    4    4    0    0  0.90445775077E+02 -0.12843120785E+03  0.20745544820E+03  0.27327844835E+03  0.83476547419E+02 0.  0.
          5    1    3    3  502    0 -0.56131953554E+01  0.31842806286E+02 -0.13175799475E+02  0.35230157055E+02  0.47000000000E+01 0. -1.
         -5    1    3    3    0  502 -0.12727139345E+03  0.20570638268E+03 -0.41989668504E+03  0.48461163789E+03  0.47000000000E+01 0.  1.
         11    1    5    5    0    0  0.55472016146E+02 -0.18625070134E+02 -0.18343728378E+03  0.19254421542E+03  0.00000000000E+00 0. -1.
        -11    1    5    5    0    0 -0.13033202420E+02 -0.90492910986E+02 -0.19410943141E+03  0.21456305056E+03  0.00000000000E+00 0.  1.
          3    1    6    6  503    0  0.10381784158E+03 -0.10429923035E+03  0.19113281429E+03  0.24122235879E+03  0.00000000000E+00 0. -1.
         -3    1    6    6    0  503 -0.13372066499E+02 -0.24131977499E+02  0.16322633903E+02  0.32056089562E+02  0.00000000000E+00 0.  1.
<mgrwt>
<rscale>  0 0.29965330E+03</rscale>
<asrwt>0</asrwt>
<pdfrwt beam="1">  1        1 0.13872240E+00 0.29965330E+03</pdfrwt>
<pdfrwt beam="2">  1       -1 0.45927982E-01 0.29965330E+03</pdfrwt>
<totfact> 0.92205101E+01</totfact>
</mgrwt>
</event>
<event>
12    1  0.3147868E-008  0.6820514E+03  0.7818608E-02  0.9748429E-01
         -2   -1    0    0    0  501 -0.00000000000E+00  0.00000000000E+00  0.58781767149E+03  0.58781767149E+03  0.00000000000E+00 0.  1.
          2   -1    0    0  501    0  0.00000000000E+00 -0.00000000000E+00 -0.11092592799E+04  0.11092592799E+04  0.00000000000E+00 0. -1.
         23    2    1    2    0    0  0.58112415004E+03 -0.94829709666E+02  0.16240518403E+03  0.61330674219E+03  0.55423502392E+02 0.  0.
    5000000    2    1    2    0    0 -0.58112415004E+03  0.94829709666E+02 -0.68384679245E+03  0.10837702092E+04  0.60017787300E+03 0.  0.
         23    2    4    4    0    0 -0.24055423811E+03  0.28725409436E+03 -0.52517024037E+03  0.65187475685E+03  0.93571689362E+02 0.  0.
         23    2    4    4    0    0 -0.34056991193E+03 -0.19242438469E+03 -0.15867655209E+03  0.43189545237E+03  0.91325926547E+02 0.  0.
          5    1    3    3  502    0  0.45128284979E+03 -0.82998862681E+02  0.10479942310E+03  0.47069101415E+03  0.47000000000E+01 0. -1.
         -5    1    3    3    0  502  0.12984130025E+03 -0.11830846984E+02  0.57605760926E+02  0.14261572803E+03  0.47000000000E+01 0.  1.
         11    1    5    5    0    0 -0.10214315356E+03  0.63839345527E+02 -0.12935712681E+03  0.17675393097E+03  0.00000000000E+00 0. -1.
        -11    1    5    5    0    0 -0.13841108456E+03  0.22341474883E+03 -0.39581311356E+03  0.47512082588E+03  0.00000000000E+00 0.  1.
          2    1    6    6  503    0 -0.23384206608E+03 -0.12355186672E+03 -0.15122249380E+03  0.30465622966E+03  0.00000000000E+00 0. -1.
         -2    1    6    6    0  503 -0.10672784584E+03 -0.68872517976E+02 -0.74540582896E+01  0.12723922271E+03  0.00000000000E+00 0.  1.
<mgrwt>
<rscale>  0 0.68205144E+03</rscale>
<asrwt>0</asrwt>
<pdfrwt beam="1">  1        2 0.17065527E+00 0.68205144E+03</pdfrwt>
<pdfrwt beam="2">  1       -2 0.90433489E-01 0.68205144E+03</pdfrwt>
<totfact> 0.23044214E+01</totfact>
</mgrwt>
</event>
<event>
12    1  0.3147868E-008  0.1172794E+04  0.7818608E-02  0.9137009E-01
         -2   -1    0    0    0  501 -0.00000000000E+00  0.00000000000E+00  0.12819548748E+04  0.12819548748E+04  0.00000000000E+00 0.  1.
          2   -1    0    0  501    0  0.00000000000E+00 -0.00000000000E+00 -0.12079388211E+04  0.12079388211E+04  0.00000000000E+00 0. -1.
         23    2    1    2    0    0  0.95552388894E+03 -0.60545619458E+03  0.33480660327E+03  0.11832351461E+04  0.91361061389E+02 0.  0.
    5000000    2    1    2    0    0 -0.95552388894E+03  0.60545619458E+03 -0.26079054953E+03  0.13066585497E+04  0.59978475219E+03 0.  0.
         23    2    4    4    0    0 -0.29625940236E+03  0.42566620693E+03  0.87864875603E+02  0.53439261170E+03  0.94307337241E+02 0.  0.
         23    2    4    4    0    0 -0.65926448658E+03  0.17978998764E+03 -0.34865542513E+03  0.77226593803E+03  0.88769198740E+02 0.  0.
          5    1    3    3  502    0  0.35252985635E+03 -0.17562738497E+03  0.13251253615E+03  0.41557663578E+03  0.47000000000E+01 0. -1.
         -5    1    3    3    0  502  0.60299403259E+03 -0.42982880961E+03  0.20229406712E+03  0.76765851034E+03  0.47000000000E+01 0.  1.
         11    1    5    5    0    0 -0.29401961150E+03  0.37863406032E+03  0.72339777488E+02  0.48481370338E+03  0.00000000000E+00 0. -1.
        -11    1    5    5    0    0 -0.22397908645E+01  0.47032146611E+02  0.15525098115E+02  0.49578908312E+02  0.00000000000E+00 0.  1.
          2    1    6    6  503    0 -0.63878710528E+03  0.18174091387E+03 -0.32058183513E+03  0.73746283884E+03  0.00000000000E+00 0. -1.
         -2    1    6    6    0  503 -0.20477381299E+02 -0.19509262281E+01 -0.28073589999E+02  0.34803099194E+02  0.00000000000E+00 0.  1.
<mgrwt>
<rscale>  0 0.11727939E+04</rscale>
<asrwt>0</asrwt>
<pdfrwt beam="1">  1        2 0.18583674E+00 0.11727939E+04</pdfrwt>
<pdfrwt beam="2">  1       -2 0.19722383E+00 0.11727939E+04</pdfrwt>
<totfact> 0.25305829E+00</totfact>
</mgrwt>
</event>
<event>
12    1  0.3147868E-008  0.7501106E+03  0.7818608E-02  0.9635177E-01
         -2   -1    0    0    0  501 -0.00000000000E+00  0.00000000000E+00  0.69620931697E+03  0.69620931697E+03  0.00000000000E+00 0.  1.
          2   -1    0    0  501    0  0.00000000000E+00 -0.00000000000E+00 -0.86973847082E+03  0.86973847082E+03  0.00000000000E+00 0. -1.
         23    2    1    2    0    0  0.15089852067E+03  0.62573069376E+03  0.68101937891E+02  0.65343954714E+03  0.89644314764E+02 0.  0.
    5000000    2    1    2    0    0 -0.15089852067E+03 -0.62573069376E+03 -0.24163109174E+03  0.91250824065E+03  0.59998036644E+03 0.  0.
         23    2    4    4    0    0 -0.28832226916E+03 -0.98890346046E+02 -0.20940827922E+02  0.31795353717E+03  0.88016487617E+02 0.  0.
         23    2    4    4    0    0  0.13742374849E+03 -0.52684034772E+03 -0.22069026381E+03  0.59455470348E+03  0.91351323252E+02 0.  0.
          5    1    3    3  502    0  0.12319864041E+03  0.33783824961E+03  0.55649845956E+02  0.36391150470E+03  0.47000000000E+01 0. -1.
         -5    1    3    3    0  502  0.27699880253E+02  0.28789244415E+03  0.12452091935E+02  0.28952804244E+03  0.47000000000E+01 0.  1.
         11    1    5    5    0    0 -0.14139932717E+03 -0.63235421050E+02  0.31241136994E+02  0.15801422986E+03  0.00000000000E+00 0.  1.
        -11    1    5    5    0    0 -0.14692294199E+03 -0.35654924996E+02 -0.52181964915E+02  0.15993930731E+03  0.00000000000E+00 0. -1.
          3    1    6    6  503    0  0.77956215521E+02 -0.24129801004E+03 -0.14933710764E+03  0.29428468004E+03  0.00000000000E+00 0. -1.
         -3    1    6    6    0  503  0.59467532970E+02 -0.28554233768E+03 -0.71353156177E+02  0.30027002344E+03  0.00000000000E+00 0.  1.
<mgrwt>
<rscale>  0 0.75011057E+03</rscale>
<asrwt>0</asrwt>
<pdfrwt beam="1">  1        2 0.13380592E+00 0.75011057E+03</pdfrwt>
<pdfrwt beam="2">  1       -2 0.10710913E+00 0.75011057E+03</pdfrwt>
<totfact> 0.21873997E+01</totfact>
</mgrwt>
</event>
<event>
12    1  0.3147868E-008  0.3476993E+03  0.7818608E-02  0.1063563E+00
          1   -1    0    0  501    0  0.00000000000E+00  0.00000000000E+00  0.92193222651E+03  0.92193222651E+03  0.00000000000E+00 0. -1.
         -1   -1    0    0    0  501 -0.00000000000E+00 -0.00000000000E+00 -0.33194338468E+03  0.33194338468E+03  0.00000000000E+00 0.  1.
         23    2    1    2    0    0 -0.23109220406E+03 -0.18222232064E+03 -0.68520602618E+02  0.31592269323E+03  0.92214392573E+02 0.  0.
    5000000    2    1    2    0    0  0.23109220406E+03  0.18222232064E+03  0.65850944445E+03  0.93795291796E+03  0.59959353479E+03 0.  0.
         23    2    4    4    0    0  0.29051378902E+02 -0.43715945331E+02 -0.81326830461E+02  0.13394614430E+03  0.92587524683E+02 0.  0.
         23    2    4    4    0    0  0.20204082516E+03  0.22593826597E+03  0.73983627491E+03  0.80400677366E+03  0.84856251136E+02 0.  0.
          5    1    3    3  502    0 -0.12318759921E+03 -0.70496391049E+02  0.89365245347E+01  0.14229152196E+03  0.47000000000E+01 0. -1.
         -5    1    3    3    0  502 -0.10790460485E+03 -0.11172592959E+03 -0.77457127153E+02  0.17363117128E+03  0.47000000000E+01 0.  1.
         13    1    5    5    0    0 -0.23578132657E+02  0.37993546171E+01 -0.51987050540E+02  0.57210286304E+02  0.00000000000E+00 0. -1.
        -13    1    5    5    0    0  0.52629511560E+02 -0.47515299948E+02 -0.29339779921E+02  0.76735857993E+02  0.00000000000E+00 0.  1.
          3    1    6    6  503    0  0.94511055845E+01  0.13266504570E+02  0.11862572756E+03  0.11973882737E+03  0.00000000000E+00 0. -1.
         -3    1    6    6    0  503  0.19258971958E+03  0.21267176140E+03  0.62121054735E+03  0.68426794629E+03  0.00000000000E+00 0.  1.
<mgrwt>
<rscale>  0 0.34769930E+03</rscale>
<asrwt>0</asrwt>
<pdfrwt beam="1">  1        1 0.14183573E+00 0.34769930E+03</pdfrwt>
<pdfrwt beam="2">  1       -1 0.51068213E-01 0.34769930E+03</pdfrwt>
<totfact> 0.72348480E+01</totfact>
</mgrwt>
</event>
<event>
12    1  0.3147868E-008  0.9418237E+03  0.7818608E-02  0.9374759E-01
          4   -1    0    0  501    0  0.00000000000E+00  0.00000000000E+00  0.94338946809E+03  0.94338946809E+03  0.00000000000E+00 0. -1.
         -4   -1    0    0    0  501 -0.00000000000E+00 -0.00000000000E+00 -0.14494875845E+04  0.14494875845E+04  0.00000000000E+00 0.  1.
         23    2    1    2    0    0 -0.52295886998E+03 -0.70071447625E+03  0.42989979057E+03  0.97846127919E+03  0.89921565948E+02 0.  0.
    5000000    2    1    2    0    0  0.52295886998E+03  0.70071447625E+03 -0.93599790701E+03  0.14144157734E+04  0.59999428438E+03 0.  0.
         23    2    4    4    0    0  0.90529103717E+01  0.40530164325E+03 -0.59291354982E+03  0.72412385446E+03  0.91964677050E+02 0.  0.
         23    2    4    4    0    0  0.51390595961E+03  0.29541283301E+03 -0.34308435719E+03  0.69029191898E+03  0.86185729873E+02 0.  0.
          5    1    3    3  502    0 -0.25998671648E+03 -0.35598291361E+03  0.16719417431E+03  0.47147948996E+03  0.47000000000E+01 0. -1.
         -5    1    3    3    0  502 -0.26297215350E+03 -0.34473156264E+03  0.26270561626E+03  0.50698178923E+03  0.47000000000E+01 0.  1.
         11    1    5    5    0    0  0.48541730348E+02  0.28047787520E+03 -0.39749846836E+03  0.48890609570E+03  0.00000000000E+00 0. -1.
        -11    1    5    5    0    0 -0.39488819976E+02  0.12482376805E+03 -0.19541508146E+03  0.23521775876E+03  0.00000000000E+00 0.  1.
          3    1    6    6  503    0  0.22596129467E+03  0.11159251843E+03 -0.10054160792E+03  0.27133007902E+03  0.00000000000E+00 0. -1.
         -3    1    6    6    0  503  0.28794466494E+03  0.18382031458E+03 -0.24254274927E+03  0.41896183996E+03  0.00000000000E+00 0.  1.
<mgrwt>
<rscale>  0 0.94182372E+03</rscale>
<asrwt>0</asrwt>
<pdfrwt beam="1">  1        4 0.14513684E+00 0.94182372E+03</pdfrwt>
<pdfrwt beam="2">  1       -4 0.22299809E+00 0.94182372E+03</pdfrwt>
<totfact> 0.58573789E-02</totfact>
</mgrwt>
</event>
<event>
12    1  0.3147868E-008  0.1249110E+04  0.7818608E-02  0.9070924E-01
         -2   -1    0    0    0  501 -0.00000000000E+00  0.00000000000E+00  0.73993186865E+03  0.73993186865E+03  0.00000000000E+00 0.  1.
          2   -1    0    0  501    0  0.00000000000E+00 -0.00000000000E+00 -0.24499258207E+04  0.24499258207E+04  0.00000000000E+00 0. -1.
         23    2    1    2    0    0 -0.11697602275E+04  0.26889763337E+03 -0.13326280441E+04  0.17959118270E+04  0.93578093414E+02 0.  0.
    5000000    2    1    2    0    0  0.11697602275E+04 -0.26889763337E+03 -0.37736590798E+03  0.13939458623E+04  0.60002925894E+03 0.  0.
         23    2    4    4    0    0  0.15432151378E+02 -0.10476543689E+03 -0.14491222499E+03  0.20151972279E+03  0.91633496392E+02 0.  0.
         23    2    4    4    0    0  0.11543280761E+04 -0.16413219648E+03 -0.23245368299E+03  0.11924261395E+04  0.91829724664E+02 0.  0.
          5    1    3    3  502    0 -0.56625450190E+03  0.17701610083E+03 -0.67031586422E+03  0.89516719595E+03  0.47000000000E+01 0. -1.
         -5    1    3    3    0  502 -0.60350572558E+03  0.91881532533E+02 -0.66231217983E+03  0.90074463105E+03  0.47000000000E+01 0.  1.
         11    1    5    5    0    0 -0.24230932724E+02 -0.65997121371E+02 -0.12341708509E+03  0.14203709031E+03  0.00000000000E+00 0. -1.
        -11    1    5    5    0    0  0.39663084101E+02 -0.38768315514E+02 -0.21495139895E+02  0.59482632485E+02  0.00000000000E+00 0.  1.
          1    1    6    6  503    0  0.89335685124E+03 -0.92987062406E+02 -0.19796907340E+03  0.91974170910E+03  0.00000000000E+00 0. -1.
         -1    1    6    6    0  503  0.26097122486E+03 -0.71145134076E+02 -0.34484609591E+02  0.27268443044E+03  0.00000000000E+00 0.  1.
<mgrwt>
<rscale>  0 0.12491104E+04</rscale>
<asrwt>0</asrwt>
<pdfrwt beam="1">  1        2 0.37691167E+00 0.12491104E+04</pdfrwt>
<pdfrwt beam="2">  1       -2 0.11383567E+00 0.12491104E+04</pdfrwt>
<totfact> 0.21940034E+00</totfact>
</mgrwt>
</event>
<event>
12    1  0.3147868E-008  0.6981690E+03  0.7818608E-02  0.9720369E-01
         -2   -1    0    0    0  501 -0.00000000000E+00  0.00000000000E+00  0.50754372407E+03  0.50754372407E+03  0.00000000000E+00 0. -1.
          2   -1    0    0  501    0  0.00000000000E+00 -0.00000000000E+00 -0.11460090686E+04  0.11460090686E+04  0.00000000000E+00 0.  1.
         23    2    1    2    0    0  0.58666928785E+03 -0.20354625164E+03 -0.98198270426E+02  0.63515880411E+03  0.90398430657E+02 0.  0.
    5000000    2    1    2    0    0 -0.58666928785E+03  0.20354625164E+03 -0.54026707407E+03  0.10183939885E+04  0.59968814787E+03 0.  0.
         23    2    4    4    0    0 -0.27317468469E+03  0.32746532524E+03 -0.50569897474E+03  0.66698571242E+03  0.85326080026E+02 0.  0.
         23    2    4    4    0    0 -0.31349460315E+03 -0.12391907360E+03 -0.34568099331E+02  0.35140827611E+03  0.93048482082E+02 0.  0.
          5    1    3    3  502    0  0.97872329934E+02 -0.89449623266E+01 -0.38478757853E+02  0.10564899490E+03  0.47000000000E+01 0. -1.
         -5    1    3    3    0  502  0.48879695791E+03 -0.19460128931E+03 -0.59719512573E+02  0.52950980921E+03  0.47000000000E+01 0.  1.
         11    1    5    5    0    0 -0.20019812112E+03  0.18477250179E+03 -0.28539446907E+03  0.39455059003E+03  0.00000000000E+00 0.  1.
        -11    1    5    5    0    0 -0.72976563573E+02  0.14269282344E+03 -0.22030450567E+03  0.27243512239E+03  0.00000000000E+00 0. -1.
          3    1    6    6  503    0 -0.89735390084E+02 -0.53769358038E+02 -0.50910113045E+02  0.11634183988E+03  0.00000000000E+00 0. -1.
         -3    1    6    6    0  503 -0.22375921307E+03 -0.70149715564E+02  0.16342013714E+02  0.23506643623E+03  0.00000000000E+00 0.  1.
<mgrwt>
<rscale>  0 0.69816904E+03</rscale>
<asrwt>0</asrwt>
<pdfrwt beam="1">  1        2 0.17630908E+00 0.69816904E+03</pdfrwt>
<pdfrwt beam="2">  1       -2 0.78083652E-01 0.69816904E+03</pdfrwt>
<totfact> 0.30500625E+01</totfact>
</mgrwt>
</event>
<event>
12    1  0.3147868E-008  0.8414320E+03  0.7818608E-02  0.9501909E-01
         -2   -1    0    0    0  501 -0.00000000000E+00  0.00000000000E+00  0.37227779451E+03  0.37227779451E+03  0.00000000000E+00 0.  1.
          2   -1    0    0  501    0  0.00000000000E+00 -0.00000000000E+00 -0.28654916420E+04  0.28654916420E+04  0.00000000000E+00 0. -1.
         23    2    1    2    0    0 -0.62747346425E+03 -0.45794753153E+03 -0.30453511156E+03  0.83937877047E+03  0.91521561234E+02 0.  0.
    5000000    2    1    2    0    0  0.62747346425E+03  0.45794753153E+03 -0.21886787359E+04  0.23983906660E+04  0.59876897703E+03 0.  0.
         23    2    4    4    0    0  0.66206146783E+03  0.33150893078E+03 -0.13274656127E+04  0.15227121465E+04  0.90905280451E+02 0.  0.
         23    2    4    4    0    0 -0.34588003580E+02  0.12643860075E+03 -0.86121312322E+03  0.87567851946E+03  0.89116643205E+02 0.  0.
          5    1    3    3  502    0 -0.55001278391E+03 -0.43451718872E+03 -0.27818185253E+03  0.75413956456E+03  0.47000000000E+01 0. -1.
         -5    1    3    3    0  502 -0.77460680339E+02 -0.23430342813E+02 -0.26353259037E+02  0.85239205914E+02  0.47000000000E+01 0.  1.
         13    1    5    5    0    0  0.51108738523E+03  0.29401189516E+03 -0.10781650775E+04  0.12288585126E+04  0.00000000000E+00 0. -1.
        -13    1    5    5    0    0  0.15097408260E+03  0.37497035629E+02 -0.24930053520E+03  0.29385363389E+03  0.00000000000E+00 0.  1.
          1    1    6    6  503    0  0.24362769580E+02  0.69725071295E+02 -0.49192159686E+03  0.49743541045E+03  0.00000000000E+00 0. -1.
         -1    1    6    6    0  503 -0.58950773159E+02  0.56713529456E+02 -0.36929152636E+03  0.37824310902E+03  0.00000000000E+00 0.  1.
<mgrwt>
<rscale>  0 0.84143199E+03</rscale>
<asrwt>0</asrwt>
<pdfrwt beam="1">  1        2 0.44084487E+00 0.84143199E+03</pdfrwt>
<pdfrwt beam="2">  1       -2 0.57273507E-01 0.84143199E+03</pdfrwt>
<totfact> 0.62917038E+00</totfact>
</mgrwt>
</event>
<event>
12    1  0.3147868E-008  0.9511296E+03  0.7818608E-02  0.9363831E-01
          2   -1    0    0  501    0  0.00000000000E+00  0.00000000000E+00  0.83134928270E+03  0.83134928270E+03  0.00000000000E+00 0.  1.
         -2   -1    0    0    0  501 -0.00000000000E+00 -0.00000000000E+00 -0.13072496010E+04  0.13072496010E+04  0.00000000000E+00 0. -1.
         23    2    1    2    0    0  0.78448281638E+03 -0.52519690983E+03 -0.79443542909E+02  0.95180506834E+03  0.91523375770E+02 0.  0.
    5000000    2    1    2    0    0 -0.78448281638E+03  0.52519690983E+03 -0.39645677537E+03  0.11867938153E+04  0.60004708325E+03 0.  0.
         23    2    4    4    0    0 -0.30706766233E+03  0.15890919881E+03  0.13153150963E+03  0.38104340283E+03  0.91383007684E+02 0.  0.
         23    2    4    4    0    0 -0.47741515405E+03  0.36628771102E+03 -0.52798828500E+03  0.80575041252E+03  0.91488696693E+02 0.  0.
          5    1    3    3  502    0  0.56349219185E+03 -0.36143650643E+03 -0.16827480075E+02  0.66967533369E+03  0.47000000000E+01 0. -1.
         -5    1    3    3    0  502  0.22099062453E+03 -0.16376040340E+03 -0.62616062834E+02  0.28212973465E+03  0.47000000000E+01 0.  1.
         11    1    5    5    0    0 -0.14473347921E+03  0.12015812517E+03  0.92599460888E+02  0.20966739185E+03  0.00000000000E+00 0. -1.
        -11    1    5    5    0    0 -0.16233418312E+03  0.38751073640E+02  0.38932048745E+02  0.17137601097E+03  0.00000000000E+00 0.  1.
          3    1    6    6  503    0 -0.33938687880E+03  0.27936961785E+03 -0.33262485715E+03  0.55124416775E+03  0.00000000000E+00 0. -1.
         -3    1    6    6    0  503 -0.13802827524E+03  0.86918093161E+02 -0.19536342785E+03  0.25450624477E+03  0.00000000000E+00 0.  1.
<mgrwt>
<rscale>  0 0.95112956E+03</rscale>
<asrwt>0</asrwt>
<pdfrwt beam="1">  1        2 0.12789989E+00 0.95112956E+03</pdfrwt>
<pdfrwt beam="2">  1       -2 0.20111532E+00 0.95112956E+03</pdfrwt>
<totfact> 0.42688053E+00</totfact>
</mgrwt>
</event>
<event>
12    1  0.3147868E-008  0.7390559E+03  0.7818608E-02  0.9652678E-01
         -3   -1    0    0    0  501 -0.00000000000E+00  0.00000000000E+00  0.78053968982E+03  0.78053968982E+03  0.00000000000E+00 0.  1.
          3   -1    0    0  501    0  0.00000000000E+00 -0.00000000000E+00 -0.71724864162E+03  0.71724864162E+03  0.00000000000E+00 0. -1.
         23    2    1    2    0    0 -0.59381460710E+03 -0.18956563867E+03  0.57211187985E+02  0.63257726621E+03  0.91268607561E+02 0.  0.
    5000000    2    1    2    0    0  0.59381460710E+03  0.18956563867E+03  0.60798602141E+01  0.86521106523E+03  0.60000191977E+03 0.  0.
         23    2    4    4    0    0 -0.40113141866E+02  0.19785823856E+03 -0.27937862657E+02  0.22385945710E+03  0.92604458030E+02 0.  0.
         23    2    4    4    0    0  0.63392774897E+03 -0.82925998921E+01  0.34017722871E+02  0.64135160813E+03  0.90782826894E+02 0.  0.
          5    1    3    3  502    0 -0.12818089964E+03 -0.57322046771E+01  0.25800587142E+02  0.13096167951E+03  0.47000000000E+01 0. -1.
         -5    1    3    3    0  502 -0.46563370746E+03 -0.18383343399E+03  0.31410600843E+02  0.50161558670E+03  0.47000000000E+01 0.  1.
         13    1    5    5    0    0  0.10417345032E+02  0.12522175473E+03  0.13075138518E+02  0.12633276765E+03  0.00000000000E+00 0. -1.
        -13    1    5    5    0    0 -0.50530486898E+02  0.72636483827E+02 -0.41013001176E+02  0.97526689446E+02  0.00000000000E+00 0.  1.
          1    1    6    6  503    0  0.39939834044E+03  0.11679748622E+02  0.61871591857E+02  0.40433098416E+03  0.00000000000E+00 0. -1.
         -1    1    6    6    0  503  0.23452940853E+03 -0.19972348515E+02 -0.27853868985E+02  0.23702062397E+03  0.00000000000E+00 0.  1.
<mgrwt>
<rscale>  0 0.73905588E+03</rscale>
<asrwt>0</asrwt>
<pdfrwt beam="1">  1        3 0.11034595E+00 0.73905588E+03</pdfrwt>
<pdfrwt beam="2">  1       -3 0.12008303E+00 0.73905588E+03</pdfrwt>
<totfact> 0.10151369E+00</totfact>
</mgrwt>
</event>
<event>
12    1  0.3147868E-008  0.1416572E+04  0.7818608E-02  0.8941909E-01
          2   -1    0    0  501    0  0.00000000000E+00  0.00000000000E+00  0.11513207029E+04  0.11513207029E+04  0.00000000000E+00 0. -1.
         -2   -1    0    0    0  501 -0.00000000000E+00 -0.00000000000E+00 -0.21575176218E+04  0.21575176218E+04  0.00000000000E+00 0.  1.
         23    2    1    2    0    0  0.13124867600E+04  0.38568701581E+03  0.20433248783E+03  0.13861906843E+04  0.91634482392E+02 0.  0.
    5000000    2    1    2    0    0 -0.13124867600E+04 -0.38568701581E+03 -0.12105294067E+04  0.19226476405E+04  0.59984709354E+03 0.  0.
         23    2    4    4    0    0 -0.90003747427E+03 -0.50381388641E+03 -0.98368412328E+03  0.14284703396E+04  0.94853411000E+02 0.  0.
         23    2    4    4    0    0 -0.41244928570E+03  0.11812687060E+03 -0.22684528340E+03  0.49417730082E+03  0.93188256835E+02 0.  0.
          5    1    3    3  502    0  0.11947668374E+04  0.36259761781E+03  0.20942611136E+03  0.12660277304E+04  0.47000000000E+01 0. -1.
         -5    1    3    3    0  502  0.11771992260E+03  0.23089397993E+02 -0.50936235305E+01  0.12016295385E+03  0.47000000000E+01 0.  1.
         13    1    5    5    0    0 -0.44653323304E+03 -0.29861838653E+03 -0.48151807374E+03  0.72140454969E+03  0.00000000000E+00 0.  1.
        -13    1    5    5    0    0 -0.45350424124E+03 -0.20519549988E+03 -0.50216604955E+03  0.70706578994E+03  0.00000000000E+00 0. -1.
          1    1    6    6  503    0 -0.15761127769E+03  0.34467823573E+02 -0.13594236995E+03  0.21097315864E+03  0.00000000000E+00 0. -1.
         -1    1    6    6    0  503 -0.25483800801E+03  0.83659047028E+02 -0.90902913447E+02  0.28320414218E+03  0.00000000000E+00 0.  1.
<mgrwt>
<rscale>  0 0.14165722E+04</rscale>
<asrwt>0</asrwt>
<pdfrwt beam="1">  1        2 0.17712626E+00 0.14165722E+04</pdfrwt>
<pdfrwt beam="2">  1       -2 0.33192579E+00 0.14165722E+04</pdfrwt>
<totfact> 0.39067822E-01</totfact>
</mgrwt>
</event>
<event>
12    1  0.3147868E-008  0.1931318E+04  0.7818608E-02  0.8639423E-01
         -1   -1    0    0    0  501 -0.00000000000E+00  0.00000000000E+00  0.12041438804E+04  0.12041438804E+04  0.00000000000E+00 0.  1.
          1   -1    0    0  501    0  0.00000000000E+00 -0.00000000000E+00 -0.36676246343E+04  0.36676246343E+04  0.00000000000E+00 0. -1.
         23    2    1    2    0    0  0.12079377889E+04  0.14894533221E+04 -0.20723207503E+04  0.28249372870E+04  0.90401785946E+02 0.  0.
    5000000    2    1    2    0    0 -0.12079377889E+04 -0.14894533221E+04 -0.39116000362E+03  0.20468312277E+04  0.59910518750E+03 0.  0.
         23    2    4    4    0    0 -0.49412183526E+03 -0.84175557335E+03 -0.44711933866E+03  0.10772287338E+04  0.88301803845E+02 0.  0.
         23    2    4    4    0    0 -0.71381595366E+03 -0.64769774877E+03  0.55959335040E+02  0.96960249393E+03  0.89173760720E+02 0.  0.
          5    1    3    3  502    0  0.69457211737E+03  0.90203515159E+03 -0.11800750005E+04  0.16397246530E+04  0.47000000000E+01 0. -1.
         -5    1    3    3    0  502  0.51336567155E+03  0.58741817054E+03 -0.89224574974E+03  0.11852126340E+04  0.47000000000E+01 0.  1.
         11    1    5    5    0    0 -0.31196449493E+03 -0.45869561525E+03 -0.27927655374E+03  0.62106272389E+03  0.00000000000E+00 0. -1.
        -11    1    5    5    0    0 -0.18215734034E+03 -0.38305995811E+03 -0.16784278493E+03  0.45616600991E+03  0.00000000000E+00 0.  1.
          3    1    6    6  503    0 -0.28724295194E+03 -0.29347332769E+03 -0.13004673670E+02  0.41085791831E+03  0.00000000000E+00 0. -1.
         -3    1    6    6    0  503 -0.42657300171E+03 -0.35422442109E+03  0.68964008710E+02  0.55874457562E+03  0.00000000000E+00 0.  1.
<mgrwt>
<rscale>  0 0.19313179E+04</rscale>
<asrwt>0</asrwt>
<pdfrwt beam="1">  1        1 0.56424992E+00 0.19313179E+04</pdfrwt>
<pdfrwt beam="2">  1       -1 0.18525291E+00 0.19313179E+04</pdfrwt>
<totfact> 0.31628914E-02</totfact>
</mgrwt>
</event>
<event>
12    1  0.3147868E-008  0.1856851E+04  0.7818608E-02  0.8676638E-01
          1   -1    0    0  501    0  0.00000000000E+00  0.00000000000E+00  0.20494305567E+04  0.20494305567E+04  0.00000000000E+00 0. -1.
         -1   -1    0    0    0  501 -0.00000000000E+00 -0.00000000000E+00 -0.17881707187E+04  0.17881707187E+04  0.00000000000E+00 0.  1.
         23    2    1    2    0    0  0.64579959419E+03 -0.17332404054E+04  0.37621352574E+03  0.18897018398E+04  0.90868079119E+02 0.  0.
    5000000    2    1    2    0    0 -0.64579959419E+03  0.17332404054E+04 -0.11495368772E+03  0.19478994356E+04  0.59993203143E+03 0.  0.
         23    2    4    4    0    0 -0.36791519893E+03  0.73228068958E+03 -0.32135896216E+03  0.88478617461E+03  0.89321835419E+02 0.  0.
         23    2    4    4    0    0 -0.27788439526E+03  0.10009597158E+04  0.20640527444E+03  0.10631132610E+04  0.92014013485E+02 0.  0.
          5    1    3    3  502    0  0.32652483397E+03 -0.93748867601E+03  0.16133564531E+03  0.10057607893E+04  0.47000000000E+01 0. -1.
         -5    1    3    3    0  502  0.31927476022E+03 -0.79575172934E+03  0.21487788044E+03  0.88394105050E+03  0.47000000000E+01 0.  1.
         13    1    5    5    0    0 -0.30542145255E+03  0.51986063692E+03 -0.23555438392E+03  0.64732002385E+03  0.00000000000E+00 0.  1.
        -13    1    5    5    0    0 -0.62493746387E+02  0.21242005266E+03 -0.85804578236E+02  0.23746615075E+03  0.00000000000E+00 0. -1.
          2    1    6    6  503    0 -0.44476434310E+02  0.20097071978E+03  0.77090024152E+02  0.21979594000E+03  0.00000000000E+00 0. -1.
         -2    1    6    6    0  503 -0.23340796095E+03  0.79998899600E+03  0.12931525029E+03  0.84331732101E+03  0.00000000000E+00 0.  1.
<mgrwt>
<rscale>  0 0.18568511E+04</rscale>
<asrwt>0</asrwt>
<pdfrwt beam="1">  1        1 0.31529701E+00 0.18568511E+04</pdfrwt>
<pdfrwt beam="2">  1       -1 0.27510319E+00 0.18568511E+04</pdfrwt>
<totfact> 0.11962491E-01</totfact>
</mgrwt>
</event>
<event>
12    1  0.3147868E-008  0.7772546E+03  0.7818608E-02  0.9593536E-01
         -2   -1    0    0    0  501 -0.00000000000E+00  0.00000000000E+00  0.27442572147E+04  0.27442572147E+04  0.00000000000E+00 0.  1.
          2   -1    0    0  501    0  0.00000000000E+00 -0.00000000000E+00 -0.38640404670E+03  0.38640404670E+03  0.00000000000E+00 0. -1.
         23    2    1    2    0    0 -0.66173572028E+03  0.12467028255E+03  0.20782637727E+04  0.21863998968E+04  0.87905386656E+02 0.  0.
    5000000    2    1    2    0    0  0.66173572028E+03 -0.12467028255E+03  0.27958939529E+03  0.94426136458E+03  0.60001870956E+03 0.  0.
         23    2    4    4    0    0  0.69016305894E+03  0.53933311099E+02  0.20113279497E+03  0.72665747843E+03  0.91339147032E+02 0.  0.
         23    2    4    4    0    0 -0.28427338657E+02 -0.17860359365E+03  0.78456600323E+02  0.21760388614E+03  0.92133901915E+02 0.  0.
          5    1    3    3  502    0 -0.18931465539E+03  0.74732155946E+02  0.65957207978E+03  0.69027701128E+03  0.47000000000E+01 0. -1.
         -5    1    3    3    0  502 -0.47242106489E+03  0.49938126607E+02  0.14186916929E+04  0.14961228855E+04  0.47000000000E+01 0.  1.
         13    1    5    5    0    0  0.18252785989E+03  0.23966266242E+02  0.13362436889E+02  0.18457886194E+03  0.00000000000E+00 0. -1.
        -13    1    5    5    0    0  0.50763519905E+03  0.29967044857E+02  0.18777035808E+03  0.54207861650E+03  0.00000000000E+00 0.  1.
          2    1    6    6  503    0  0.18911769510E+01 -0.81173949381E+02 -0.10958569507E+02  0.81932147866E+02  0.00000000000E+00 0. -1.
         -2    1    6    6    0  503 -0.30318515608E+02 -0.97429644272E+02  0.89415169830E+02  0.13567173828E+03  0.00000000000E+00 0.  1.
<mgrwt>
<rscale>  0 0.77725462E+03</rscale>
<asrwt>0</asrwt>
<pdfrwt beam="1">  1        2 0.59446778E-01 0.77725462E+03</pdfrwt>
<pdfrwt beam="2">  1       -2 0.42219341E+00 0.77725462E+03</pdfrwt>
<totfact> 0.46472087E-01</totfact>
</mgrwt>
</event>
<event>
12    1  0.3147868E-008  0.6805846E+03  0.7818608E-02  0.9751024E-01
          1   -1    0    0  501    0  0.00000000000E+00  0.00000000000E+00  0.16063119079E+04  0.16063119079E+04  0.00000000000E+00 0. -1.
         -1   -1    0    0    0  501 -0.00000000000E+00 -0.00000000000E+00 -0.34538382451E+03  0.34538382451E+03  0.00000000000E+00 0.  1.
         23    2    1    2    0    0 -0.16424323976E+03  0.59049702751E+03  0.65367787247E+03  0.90081723839E+03  0.92273261085E+02 0.  0.
    5000000    2    1    2    0    0  0.16424323976E+03 -0.59049702751E+03  0.60725021097E+03  0.10508784941E+04  0.59994183825E+03 0.  0.
         23    2    4    4    0    0 -0.12278565092E+03 -0.29793080186E+03  0.52652705036E+03  0.62394792846E+03  0.90781076764E+02 0.  0.
         23    2    4    4    0    0  0.28702889068E+03 -0.29256622565E+03  0.80723160603E+02  0.42693056561E+03  0.88164044351E+02 0.  0.
          5    1    3    3  502    0 -0.14333361265E+03  0.36330144148E+03  0.38722761475E+03  0.54999979775E+03  0.47000000000E+01 0. -1.
         -5    1    3    3    0  502 -0.20909627110E+02  0.22719558603E+03  0.26645025772E+03  0.35081744064E+03  0.47000000000E+01 0.  1.
         11    1    5    5    0    0 -0.88703653078E+02 -0.18397616117E+03  0.24930105557E+03  0.32228338812E+03  0.00000000000E+00 0. -1.
        -11    1    5    5    0    0 -0.34081997842E+02 -0.11395464069E+03  0.27722599479E+03  0.30166454034E+03  0.00000000000E+00 0.  1.
          1    1    6    6  503    0  0.16697573470E+03 -0.22882919932E+03  0.52037464005E+02  0.28801318737E+03  0.00000000000E+00 0. -1.
         -1    1    6    6    0  503  0.12005315598E+03 -0.63737026325E+02  0.28685696597E+02  0.13891737823E+03  0.00000000000E+00 0.  1.
<mgrwt>
<rscale>  0 0.68058457E+03</rscale>
<asrwt>0</asrwt>
<pdfrwt beam="1">  1        1 0.24712491E+00 0.68058457E+03</pdfrwt>
<pdfrwt beam="2">  1       -1 0.53135974E-01 0.68058457E+03</pdfrwt>
<totfact> 0.20638427E+01</totfact>
</mgrwt>
</event>
<event>
12    1  0.3147868E-008  0.8587206E+03  0.7818608E-02  0.9478707E-01
          2   -1    0    0  501    0  0.00000000000E+00  0.00000000000E+00  0.18189985947E+04  0.18189985947E+04  0.00000000000E+00 0. -1.
         -2   -1    0    0    0  501 -0.00000000000E+00 -0.00000000000E+00 -0.43970537409E+03  0.43970537409E+03  0.00000000000E+00 0.  1.
         23    2    1    2    0    0 -0.56145753178E+03 -0.55655611446E+03  0.65117563671E+03  0.10275522328E+04  0.82732174707E+02 0.  0.
    5000000    2    1    2    0    0  0.56145753178E+03  0.55655611446E+03  0.72811758390E+03  0.12311517360E+04  0.60049155910E+03 0.  0.
         23    2    4    4    0    0 -0.21798343787E+02  0.25204802963E+03  0.36824233650E+02  0.27236690909E+03  0.93937915402E+02 0.  0.
         23    2    4    4    0    0  0.58325587557E+03  0.30450808483E+03  0.69129335025E+03  0.95878482692E+03  0.92028572262E+02 0.  0.
          5    1    3    3  502    0 -0.40122028310E+03 -0.38179360757E+03  0.40827012095E+03  0.68807750728E+03  0.47000000000E+01 0. -1.
         -5    1    3    3    0  502 -0.16023724868E+03 -0.17476250689E+03  0.24290551576E+03  0.33947472552E+03  0.47000000000E+01 0.  1.
         11    1    5    5    0    0 -0.14577043804E+02 -0.14300211498E+01 -0.47555680806E+01  0.15399694618E+02  0.00000000000E+00 0. -1.
        -11    1    5    5    0    0 -0.72212999828E+01  0.25347805078E+03  0.41579801731E+02  0.25696721447E+03  0.00000000000E+00 0.  1.
          1    1    6    6  503    0  0.15513997800E+03  0.89879391298E+02  0.13305299457E+03  0.22327072607E+03  0.00000000000E+00 0. -1.
         -1    1    6    6    0  503  0.42811589757E+03  0.21462869353E+03  0.55824035569E+03  0.73551410085E+03  0.00000000000E+00 0.  1.
<mgrwt>
<rscale>  0 0.85872055E+03</rscale>
<asrwt>0</asrwt>
<pdfrwt beam="1">  1        2 0.27984593E+00 0.85872055E+03</pdfrwt>
<pdfrwt beam="2">  1       -2 0.67646981E-01 0.85872055E+03</pdfrwt>
<totfact> 0.17142491E+01</totfact>
</mgrwt>
</event>
<event>
12    1  0.3147868E-008  0.6430416E+03  0.7818608E-02  0.9819924E-01
          1   -1    0    0  501    0  0.00000000000E+00  0.00000000000E+00  0.16014633824E+04  0.16014633824E+04  0.00000000000E+00 0. -1.
         -1   -1    0    0    0  501 -0.00000000000E+00 -0.00000000000E+00 -0.13312183570E+04  0.13312183570E+04  0.00000000000E+00 0.  1.
         23    2    1    2    0    0 -0.30586716029E+03  0.53090484719E+03 -0.11311171261E+04  0.12897299803E+04  0.92535358237E+02 0.  0.
    5000000    2    1    2    0    0  0.30586716029E+03 -0.53090484719E+03  0.14013621515E+04  0.16429517592E+04  0.60004993707E+03 0.  0.
         23    2    4    4    0    0  0.29365022819E+03 -0.25790020943E+03  0.29089276059E+03  0.49583613675E+03  0.92151515461E+02 0.  0.
         23    2    4    4    0    0  0.12216932100E+02 -0.27300463776E+03  0.11104693909E+04  0.11471156225E+04  0.89728465501E+02 0.  0.
          5    1    3    3  502    0 -0.22310773295E+03  0.33374545236E+03 -0.66327874056E+03  0.77532178168E+03  0.47000000000E+01 0. -1.
         -5    1    3    3    0  502 -0.82759427337E+02  0.19715939483E+03 -0.46783838554E+03  0.51440819858E+03  0.47000000000E+01 0.  1.
         13    1    5    5    0    0  0.17223045064E+03 -0.11608170800E+03  0.19942305937E+03  0.28793722870E+03  0.00000000000E+00 0. -1.
        -13    1    5    5    0    0  0.12141977755E+03 -0.14181850143E+03  0.91469701219E+02  0.20789890805E+03  0.00000000000E+00 0.  1.
          2    1    6    6  503    0  0.24794259346E+02 -0.10615638784E+03  0.29124120814E+03  0.31097487888E+03  0.00000000000E+00 0.  1.
         -2    1    6    6    0  503 -0.12577327245E+02 -0.16684824992E+03  0.81922818276E+03  0.83614074359E+03  0.00000000000E+00 0. -1.
<mgrwt>
<rscale>  0 0.64304163E+03</rscale>
<asrwt>0</asrwt>
<pdfrwt beam="1">  1        1 0.24637898E+00 0.64304163E+03</pdfrwt>
<pdfrwt beam="2">  1       -1 0.20480282E+00 0.64304163E+03</pdfrwt>
<totfact> 0.84057752E-01</totfact>
</mgrwt>
</event>
<event>
12    1  0.3147868E-008  0.1599170E+04  0.7818608E-02  0.8821058E-01
          1   -1    0    0  501    0  0.00000000000E+00  0.00000000000E+00  0.21654449562E+04  0.21654449562E+04  0.00000000000E+00 0. -1.
         -1   -1    0    0    0  501 -0.00000000000E+00 -0.00000000000E+00 -0.16363914997E+04  0.16363914997E+04  0.00000000000E+00 0.  1.
         23    2    1    2    0    0  0.11439685941E+04  0.11137773507E+04  0.11681220394E+04  0.19804049197E+04  0.91271110750E+02 0.  0.
    5000000    2    1    2    0    0 -0.11439685941E+04 -0.11137773507E+04 -0.63906858284E+03  0.18214315362E+04  0.60003337913E+03 0.  0.
         23    2    4    4    0    0 -0.65122552004E+03 -0.65084825040E+03 -0.61994108023E+02  0.92733796498E+03  0.91729541938E+02 0.  0.
         23    2    4    4    0    0 -0.49274307408E+03 -0.46292910033E+03 -0.57707447481E+03  0.89409357120E+03  0.96380888064E+02 0.  0.
          5    1    3    3  502    0  0.84595923771E+03  0.84843499926E+03  0.91885814833E+03  0.15099044230E+04  0.47000000000E+01 0. -1.
         -5    1    3    3    0  502  0.29800935642E+03  0.26534235147E+03  0.24926389104E+03  0.47050049667E+03  0.47000000000E+01 0.  1.
         13    1    5    5    0    0 -0.18998738489E+03 -0.24173191183E+03 -0.43554088968E+02  0.31052613783E+03  0.00000000000E+00 0.  1.
        -13    1    5    5    0    0 -0.46123813515E+03 -0.40911633857E+03 -0.18440019055E+02  0.61681182714E+03  0.00000000000E+00 0. -1.
          1    1    6    6  503    0 -0.27927758349E+03 -0.23621026110E+03 -0.36903880446E+03  0.51959685843E+03  0.00000000000E+00 0. -1.
         -1    1    6    6    0  503 -0.21346549059E+03 -0.22671883923E+03 -0.20803567035E+03  0.37449671277E+03  0.00000000000E+00 0.  1.
<mgrwt>
<rscale>  0 0.15991704E+04</rscale>
<asrwt>0</asrwt>
<pdfrwt beam="1">  1        1 0.33314538E+00 0.15991704E+04</pdfrwt>
<pdfrwt beam="2">  1       -1 0.25175254E+00 0.15991704E+04</pdfrwt>
<totfact> 0.14555908E-01</totfact>
</mgrwt>
</event>
<event>
12    1  0.3147868E-008  0.1003785E+04  0.7818608E-02  0.9304403E-01
         -1   -1    0    0    0  501 -0.00000000000E+00  0.00000000000E+00  0.65759600622E+03  0.65759600622E+03  0.00000000000E+00 0.  1.
          1   -1    0    0  501    0  0.00000000000E+00 -0.00000000000E+00 -0.24894182902E+04  0.24894182902E+04  0.00000000000E+00 0. -1.
         23    2    1    2    0    0  0.80095917082E+03  0.52505529071E+03  0.37255288627E+02  0.96285242883E+03  0.92077095696E+02 0.  0.
    5000000    2    1    2    0    0 -0.80095917082E+03 -0.52505529071E+03 -0.18690775726E+04  0.21841618676E+04  0.59991119328E+03 0.  0.
         23    2    4    4    0    0 -0.79135803471E+03 -0.53058483271E+03 -0.18611748428E+04  0.20928432567E+04  0.90847663105E+02 0.  0.
         23    2    4    4    0    0 -0.96011361081E+01  0.55295420074E+01 -0.79027297503E+01  0.91318610835E+02  0.90298825562E+02 0.  0.
          5    1    3    3  502    0  0.64175764050E+03  0.45961120037E+03  0.43184142837E+02  0.79055821091E+03  0.47000000000E+01 0. -1.
         -5    1    3    3    0  502  0.15920153032E+03  0.65444090341E+02 -0.59288542105E+01  0.17229421792E+03  0.47000000000E+01 0.  1.
         11    1    5    5    0    0 -0.56737529057E+03 -0.33269390507E+03 -0.13102557611E+04  0.14660730249E+04  0.00000000000E+00 0.  1.
        -11    1    5    5    0    0 -0.22398274414E+03 -0.19789092765E+03 -0.55091908174E+03  0.62677023186E+03  0.00000000000E+00 0. -1.
          2    1    6    6  503    0  0.38715099994E+02  0.12271463897E+02 -0.12036409645E+02  0.42359449370E+02  0.00000000000E+00 0. -1.
         -2    1    6    6    0  503 -0.48316236103E+02 -0.67419218900E+01  0.41336798946E+01  0.48959161465E+02  0.00000000000E+00 0.  1.
<mgrwt>
<rscale>  0 0.10037854E+04</rscale>
<asrwt>0</asrwt>
<pdfrwt beam="1">  1        1 0.38298743E+00 0.10037854E+04</pdfrwt>
<pdfrwt beam="2">  1       -1 0.10116862E+00 0.10037854E+04</pdfrwt>
<totfact> 0.13014270E+00</totfact>
</mgrwt>
</event>
<event>
12    1  0.3147868E-008  0.6144788E+03  0.7818608E-02  0.9875814E-01
         -1   -1    0    0    0  501 -0.00000000000E+00  0.00000000000E+00  0.33149425490E+03  0.33149425490E+03  0.00000000000E+00 0.  1.
          1   -1    0    0  501    0  0.00000000000E+00 -0.00000000000E+00 -0.12969739697E+04  0.12969739697E+04  0.00000000000E+00 0. -1.
         23    2    1    2    0    0 -0.46646257840E+03 -0.17276244122E+03 -0.54310444568E+03  0.74205306434E+03  0.90808112138E+02 0.  0.
    5000000    2    1    2    0    0  0.46646257840E+03  0.17276244122E+03 -0.42237526913E+03  0.88641516028E+03  0.59991396905E+03 0.  0.
         23    2    4    4    0    0  0.10243730499E+01 -0.13851736893E+03  0.17515232045E+02  0.16834545919E+03  0.94049452109E+02 0.  0.
         23    2    4    4    0    0  0.46543820535E+03  0.31127981015E+03 -0.43989050117E+03  0.71806970108E+03  0.92696274920E+02 0.  0.
          5    1    3    3  502    0 -0.38304213178E+03 -0.10299988059E+03 -0.43284016624E+03  0.58711408571E+03  0.47000000000E+01 0. -1.
         -5    1    3    3    0  502 -0.83420446618E+02 -0.69762560625E+02 -0.11026427944E+03  0.15493897863E+03  0.47000000000E+01 0.  1.
         13    1    5    5    0    0  0.37086256258E+02 -0.40316799705E+02 -0.18325006759E+02  0.57763661712E+02  0.00000000000E+00 0.  1.
        -13    1    5    5    0    0 -0.36061883208E+02 -0.98200569226E+02  0.35840238804E+02  0.11058179748E+03  0.00000000000E+00 0. -1.
          4    1    6    6  503    0  0.11292425147E+03  0.42146672431E+02 -0.62746293488E+02  0.13588718083E+03  0.00000000000E+00 0. -1.
         -4    1    6    6    0  503  0.35251395388E+03  0.26913313772E+03 -0.37714420768E+03  0.58218252025E+03  0.00000000000E+00 0.  1.
<mgrwt>
<rscale>  0 0.61447876E+03</rscale>
<asrwt>0</asrwt>
<pdfrwt beam="1">  1        1 0.19953446E+00 0.61447876E+03</pdfrwt>
<pdfrwt beam="2">  1       -1 0.50999115E-01 0.61447876E+03</pdfrwt>
<totfact> 0.36757480E+01</totfact>
</mgrwt>
</event>
<event>
12    1  0.3147868E-008  0.4513428E+03  0.7818608E-02  0.1027322E+00
         -1   -1    0    0    0  501 -0.00000000000E+00  0.00000000000E+00  0.56341309708E+02  0.56341309708E+02  0.00000000000E+00 0.  1.
          1   -1    0    0  501    0  0.00000000000E+00 -0.00000000000E+00 -0.38094322217E+04  0.38094322217E+04  0.00000000000E+00 0. -1.
         23    2    1    2    0    0 -0.20514080479E+03  0.15458388726E+03 -0.95391161529E+03  0.99152075026E+03  0.84776768146E+02 0.  0.
    5000000    2    1    2    0    0  0.20514080479E+03 -0.15458388726E+03 -0.27991792967E+04  0.28742527812E+04  0.59995448733E+03 0.  0.
         23    2    4    4    0    0 -0.18283969660E+03 -0.12892788308E+03 -0.82229207365E+03  0.85711204928E+03  0.91782661413E+02 0.  0.
         23    2    4    4    0    0  0.38798050140E+03 -0.25656004185E+02 -0.19768872231E+04  0.20171407319E+04  0.97910875313E+02 0.  0.
          5    1    3    3  502    0 -0.13436453324E+03  0.73167178811E+02 -0.68171744231E+03  0.69869022106E+03  0.47000000000E+01 0. -1.
         -5    1    3    3    0  502 -0.70776271548E+02  0.81416708451E+02 -0.27219417298E+03  0.29283052920E+03  0.47000000000E+01 0.  1.
         11    1    5    5    0    0 -0.34439841172E+02 -0.77412029529E+02 -0.29080162287E+03  0.30289323010E+03  0.00000000000E+00 0.  1.
        -11    1    5    5    0    0 -0.14839985543E+03 -0.51515853548E+02 -0.53149045079E+03  0.55421881918E+03  0.00000000000E+00 0. -1.
          4    1    6    6  503    0  0.25472562592E+03  0.27815418700E+02 -0.11923299933E+04  0.12195530554E+04  0.00000000000E+00 0. -1.
         -4    1    6    6    0  503  0.13325487548E+03 -0.53471422884E+02 -0.78455722982E+03  0.79758767654E+03  0.00000000000E+00 0.  1.
<mgrwt>
<rscale>  0 0.45134277E+03</rscale>
<asrwt>0</asrwt>
<pdfrwt beam="1">  1        1 0.58606656E+00 0.45134277E+03</pdfrwt>
<pdfrwt beam="2">  1       -1 0.86678929E-02 0.45134277E+03</pdfrwt>
<totfact> 0.12838291E+01</totfact>
</mgrwt>
</event>
<event>
12    1  0.3147868E-008  0.1595072E+04  0.7818608E-02  0.8823581E-01
         -2   -1    0    0    0  501 -0.00000000000E+00  0.00000000000E+00  0.25821530528E+04  0.25821530528E+04  0.00000000000E+00 0.  1.
          2   -1    0    0  501    0  0.00000000000E+00 -0.00000000000E+00 -0.10822478541E+04  0.10822478541E+04  0.00000000000E+00 0. -1.
         23    2    1    2    0    0  0.11048587137E+04  0.11342425010E+04  0.10823838796E+04  0.19203997030E+04  0.95714827514E+02 0.  0.
    5000000    2    1    2    0    0 -0.11048587137E+04 -0.11342425010E+04  0.41752131911E+03  0.17440012039E+04  0.59999776595E+03 0.  0.
         23    2    4    4    0    0 -0.66322748045E+03 -0.81766515293E+03  0.64102965298E+01  0.10567305357E+04  0.90506022311E+02 0.  0.
         23    2    4    4    0    0 -0.44163123324E+03 -0.31657734802E+03  0.41111102258E+03  0.68727066819E+03  0.89829477453E+02 0.  0.
          5    1    3    3  502    0  0.92412911473E+03  0.99400045528E+03  0.93860187210E+03  0.16501657766E+04  0.47000000000E+01 0.  1.
         -5    1    3    3    0  502  0.18072959895E+03  0.14024204568E+03  0.14378200754E+03  0.27023392645E+03  0.47000000000E+01 0. -1.
         11    1    5    5    0    0 -0.58287554238E+03 -0.74434134710E+03  0.28052836537E+02  0.94581969770E+03  0.00000000000E+00 0. -1.
        -11    1    5    5    0    0 -0.80351938072E+02 -0.73323805830E+02 -0.21642540007E+02  0.11091083802E+03  0.00000000000E+00 0.  1.
          3    1    6    6  503    0 -0.11127429163E+03 -0.12772092724E+03  0.10946738313E+03  0.20168716171E+03  0.00000000000E+00 0. -1.
         -3    1    6    6    0  503 -0.33035694161E+03 -0.18885642079E+03  0.30164363945E+03  0.48558350648E+03  0.00000000000E+00 0.  1.
<mgrwt>
<rscale>  0 0.15950722E+04</rscale>
<asrwt>0</asrwt>
<pdfrwt beam="1">  1        2 0.16649967E+00 0.15950722E+04</pdfrwt>
<pdfrwt beam="2">  1       -2 0.39725432E+00 0.15950722E+04</pdfrwt>
<totfact> 0.16223456E-01</totfact>
</mgrwt>
</event>
<event>
12    1  0.3147868E-008  0.6915568E+03  0.7818608E-02  0.9731781E-01
         -1   -1    0    0    0  501 -0.00000000000E+00  0.00000000000E+00  0.59305152009E+03  0.59305152009E+03  0.00000000000E+00 0.  1.
          1   -1    0    0  501    0  0.00000000000E+00 -0.00000000000E+00 -0.14131582299E+04  0.14131582299E+04  0.00000000000E+00 0. -1.
         23    2    1    2    0    0 -0.66567642233E+03  0.54892777733E+02  0.14276826851E+03  0.68970111539E+03  0.95742016801E+02 0.  0.
    5000000    2    1    2    0    0  0.66567642233E+03 -0.54892777733E+02 -0.96287497829E+03  0.13165086346E+04  0.59994036767E+03 0.  0.
         23    2    4    4    0    0  0.49683964184E+02  0.21277177895E+02 -0.56242129938E+03  0.57222663373E+03  0.90578075467E+02 0.  0.
         23    2    4    4    0    0  0.61599245815E+03 -0.76169955627E+02 -0.40045367891E+03  0.74428200083E+03  0.91345373033E+02 0.  0.
          5    1    3    3  502    0 -0.37096824630E+03  0.77871688545E+02  0.83950760270E+02  0.38826699549E+03  0.47000000000E+01 0. -1.
         -5    1    3    3    0  502 -0.29470817603E+03 -0.22978910812E+02  0.58817508244E+02  0.30143411990E+03  0.47000000000E+01 0.  1.
         11    1    5    5    0    0  0.59811671820E+02  0.32575671429E+02 -0.54450766629E+03  0.54875058916E+03  0.00000000000E+00 0. -1.
        -11    1    5    5    0    0 -0.10127707636E+02 -0.11298493534E+02 -0.17913633092E+02  0.23476044570E+02  0.00000000000E+00 0.  1.
          4    1    6    6  503    0  0.14427258967E+03  0.13644883091E+02 -0.12027621335E+03  0.18832718992E+03  0.00000000000E+00 0. -1.
         -4    1    6    6    0  503  0.47171986848E+03 -0.89814838718E+02 -0.28017746556E+03  0.55595481091E+03  0.00000000000E+00 0.  1.
<mgrwt>
<rscale>  0 0.69155677E+03</rscale>
<asrwt>0</asrwt>
<pdfrwt beam="1">  1        1 0.21740896E+00 0.69155677E+03</pdfrwt>
<pdfrwt beam="2">  1       -1 0.91238695E-01 0.69155677E+03</pdfrwt>
<totfact> 0.92303296E+00</totfact>
</mgrwt>
</event>
<event>
12    1  0.3147868E-008  0.1144416E+04  0.7818608E-02  0.9162951E-01
         -1   -1    0    0    0  501 -0.00000000000E+00  0.00000000000E+00  0.19285845141E+04  0.19285845141E+04  0.00000000000E+00 0.  1.
          1   -1    0    0  501    0  0.00000000000E+00 -0.00000000000E+00 -0.82062665322E+03  0.82062665322E+03  0.00000000000E+00 0. -1.
         23    2    1    2    0    0  0.79151283650E+03  0.81889067882E+03  0.87939806623E+03  0.14418103786E+04  0.91660759489E+02 0.  0.
    5000000    2    1    2    0    0 -0.79151283650E+03 -0.81889067882E+03  0.22855979462E+03  0.13074007887E+04  0.59998560672E+03 0.  0.
         23    2    4    4    0    0 -0.37291726751E+03 -0.44126153000E+03  0.40273683883E+03  0.71039181832E+03  0.93169458082E+02 0.  0.
         23    2    4    4    0    0 -0.41859556899E+03 -0.37762914882E+03 -0.17417704421E+03  0.59700897034E+03  0.90862773021E+02 0.  0.
          5    1    3    3  502    0  0.12118337341E+03  0.10550076765E+03  0.16153204835E+03  0.22788267729E+03  0.47000000000E+01 0. -1.
         -5    1    3    3    0  502  0.67032946309E+03  0.71338991117E+03  0.71786601788E+03  0.12139277013E+04  0.47000000000E+01 0.  1.
         13    1    5    5    0    0 -0.66416381143E+02 -0.11251045797E+03  0.13178852979E+03  0.18557466265E+03  0.00000000000E+00 0.  1.
        -13    1    5    5    0    0 -0.30650088637E+03 -0.32875107203E+03  0.27094830905E+03  0.52481715567E+03  0.00000000000E+00 0. -1.
          3    1    6    6  503    0 -0.30782271217E+03 -0.22889576540E+03 -0.14052915472E+03  0.40852972581E+03  0.00000000000E+00 0. -1.
         -3    1    6    6    0  503 -0.11077285682E+03 -0.14873338342E+03 -0.33647889495E+02  0.18847924453E+03  0.00000000000E+00 0.  1.
<mgrwt>
<rscale>  0 0.11444160E+04</rscale>
<asrwt>0</asrwt>
<pdfrwt beam="1">  1        1 0.12625026E+00 0.11444160E+04</pdfrwt>
<pdfrwt beam="2">  1       -1 0.29670531E+00 0.11444160E+04</pdfrwt>
<totfact> 0.73118005E-01</totfact>
</mgrwt>
</event>
<event>
12    1  0.3147868E-008  0.6190927E+03  0.7818608E-02  0.9866568E-01
          2   -1    0    0  501    0  0.00000000000E+00  0.00000000000E+00  0.15571151678E+04  0.15571151678E+04  0.00000000000E+00 0. -1.
         -2   -1    0    0    0  501 -0.00000000000E+00 -0.00000000000E+00 -0.47274360033E+03  0.47274360033E+03  0.00000000000E+00 0.  1.
         23    2    1    2    0    0  0.39469704558E+03  0.37016133758E+03  0.10917528522E+04  0.12218353357E+04  0.90289111728E+02 0.  0.
    5000000    2    1    2    0    0 -0.39469704558E+03 -0.37016133758E+03 -0.73812847214E+01  0.80802343241E+03  0.60003517425E+03 0.  0.
         23    2    4    4    0    0 -0.46909453748E+03 -0.28985866310E+03  0.16548489865E+03  0.58421822445E+03  0.99287221913E+02 0.  0.
         23    2    4    4    0    0  0.74397491898E+02 -0.80302674485E+02 -0.17286618337E+03  0.22380520796E+03  0.90678263261E+02 0.  0.
          5    1    3    3  502    0  0.38368100898E+03  0.34086224870E+03  0.98793533189E+03  0.11132998245E+04  0.47000000000E+01 0. -1.
         -5    1    3    3    0  502  0.11016036602E+02  0.29299088880E+02  0.10381752033E+03  0.10853551124E+03  0.47000000000E+01 0.  1.
         13    1    5    5    0    0 -0.39009865151E+03 -0.23946235530E+03  0.96328093995E+02  0.46775878315E+03  0.00000000000E+00 0. -1.
        -13    1    5    5    0    0 -0.78995885964E+02 -0.50396307803E+02  0.69156804653E+02  0.11645944131E+03  0.00000000000E+00 0.  1.
          1    1    6    6  503    0  0.94350168283E+02 -0.76666388945E+02 -0.14284004485E+03  0.18757123410E+03  0.00000000000E+00 0. -1.
         -1    1    6    6    0  503 -0.19952676385E+02 -0.36362855401E+01 -0.30026138523E+02  0.36233973865E+02  0.00000000000E+00 0.  1.
<mgrwt>
<rscale>  0 0.61909272E+03</rscale>
<asrwt>0</asrwt>
<pdfrwt beam="1">  1        2 0.23955618E+00 0.61909272E+03</pdfrwt>
<pdfrwt beam="2">  1       -2 0.72729785E-01 0.61909272E+03</pdfrwt>
<totfact> 0.21020400E+01</totfact>
</mgrwt>
</event>
<event>
12    1  0.3147868E-008  0.6844664E+03  0.7818608E-02  0.9744172E-01
         -2   -1    0    0    0  501 -0.00000000000E+00  0.00000000000E+00  0.38798248261E+03  0.38798248261E+03  0.00000000000E+00 0. -1.
          2   -1    0    0  501    0  0.00000000000E+00 -0.00000000000E+00 -0.13963641903E+04  0.13963641903E+04  0.00000000000E+00 0.  1.
         23    2    1    2    0    0 -0.14918943764E+03 -0.57157834534E+03 -0.59553721377E+03  0.84655463211E+03  0.11415287558E+03 0.  0.
    5000000    2    1    2    0    0  0.14918943764E+03  0.57157834534E+03 -0.41284449393E+03  0.93779204081E+03  0.60004503370E+03 0.  0.
         23    2    4    4    0    0  0.31500805223E+03  0.42689184181E+03 -0.44548354538E+03  0.69860475177E+03  0.90145950669E+02 0.  0.
         23    2    4    4    0    0 -0.16581861459E+03  0.14468650354E+03  0.32639051449E+02  0.23918728904E+03  0.87836520358E+02 0.  0.
          5    1    3    3  502    0 -0.38548758237E+02 -0.36442149054E+03 -0.35043004962E+03  0.50706246086E+03  0.47000000000E+01 0. -1.
         -5    1    3    3    0  502 -0.11064067940E+03 -0.20715685480E+03 -0.24510716415E+03  0.33949217126E+03  0.47000000000E+01 0.  1.
         11    1    5    5    0    0  0.31063237978E+03  0.41862421801E+03 -0.44959649358E+03  0.68838631473E+03  0.00000000000E+00 0. -1.
        -11    1    5    5    0    0  0.43756724494E+01  0.82676237915E+01  0.41129481998E+01  0.10218437035E+02  0.00000000000E+00 0.  1.
          2    1    6    6  503    0 -0.16320900302E+03  0.98457803707E+02  0.24505870597E+02  0.19217610536E+03  0.00000000000E+00 0. -1.
         -2    1    6    6    0  503 -0.26096115727E+01  0.46228699829E+02  0.81331808511E+01  0.47011183682E+02  0.00000000000E+00 0.  1.
<mgrwt>
<rscale>  0 0.68446643E+03</rscale>
<asrwt>0</asrwt>
<pdfrwt beam="1">  1        2 0.21482526E+00 0.68446643E+03</pdfrwt>
<pdfrwt beam="2">  1       -2 0.59689612E-01 0.68446643E+03</pdfrwt>
<totfact> 0.39157698E+01</totfact>
</mgrwt>
</event>
<event>
12    1  0.3147868E-008  0.6844091E+03  0.7818608E-02  0.9744273E-01
          2   -1    0    0  501    0  0.00000000000E+00  0.00000000000E+00  0.59821767539E+03  0.59821767539E+03  0.00000000000E+00 0. -1.
         -2   -1    0    0    0  501 -0.00000000000E+00 -0.00000000000E+00 -0.82450944127E+03  0.82450944127E+03  0.00000000000E+00 0.  1.
         23    2    1    2    0    0 -0.33033260934E+03  0.45621347489E+03 -0.62232963438E+01  0.57081718636E+03  0.92429234352E+02 0.  0.
    5000000    2    1    2    0    0  0.33033260934E+03 -0.45621347489E+03 -0.22006846953E+03  0.85190993029E+03  0.60005835598E+03 0.  0.
         23    2    4    4    0    0  0.39227786509E+03 -0.62557435166E+02 -0.53745520980E+02  0.41128485397E+03  0.92039632471E+02 0.  0.
         23    2    4    4    0    0 -0.61945255749E+02 -0.39365603973E+03 -0.16632294855E+03  0.44062507632E+03  0.87663232583E+02 0.  0.
          5    1    3    3  502    0 -0.16551707631E+03  0.21378480933E+03 -0.48101505827E+02  0.27465558817E+03  0.47000000000E+01 0. -1.
         -5    1    3    3    0  502 -0.16481553303E+03  0.24242866556E+03  0.41878209483E+02  0.29616159819E+03  0.47000000000E+01 0.  1.
         11    1    5    5    0    0  0.22438901294E+03 -0.73468914627E+02 -0.57457010141E+02  0.24300086123E+03  0.00000000000E+00 0. -1.
        -11    1    5    5    0    0  0.16788885215E+03  0.10911479461E+02  0.37114891609E+01  0.16828399274E+03  0.00000000000E+00 0.  1.
          4    1    6    6  503    0 -0.21344061239E+02 -0.26726746035E+03 -0.14903163147E+03  0.30675379621E+03  0.00000000000E+00 0. -1.
         -4    1    6    6    0  503 -0.40601194509E+02 -0.12638857938E+03 -0.17291317087E+02  0.13387128012E+03  0.00000000000E+00 0.  1.
<mgrwt>
<rscale>  0 0.68440908E+03</rscale>
<asrwt>0</asrwt>
<pdfrwt beam="1">  1        2 0.92033488E-01 0.68440908E+03</pdfrwt>
<pdfrwt beam="2">  1       -2 0.12684761E+00 0.68440908E+03</pdfrwt>
<totfact> 0.23443108E+01</totfact>
</mgrwt>
</event>
<event>
12    1  0.3147868E-008  0.8192153E+03  0.7818608E-02  0.9532613E-01
         -1   -1    0    0    0  501 -0.00000000000E+00  0.00000000000E+00  0.58518728825E+03  0.58518728825E+03  0.00000000000E+00 0.  1.
          1   -1    0    0  501    0  0.00000000000E+00 -0.00000000000E+00 -0.11612832690E+04  0.11612832690E+04  0.00000000000E+00 0. -1.
         23    2    1    2    0    0 -0.26342493383E+03 -0.66053934270E+03 -0.28907736829E+03  0.77291966406E+03  0.90189595968E+02 0.  0.
    5000000    2    1    2    0    0  0.26342493383E+03  0.66053934270E+03 -0.28701861249E+03  0.97355089323E+03  0.59976390253E+03 0.  0.
         23    2    4    4    0    0  0.32208373964E+03  0.72807429229E+03 -0.27020858058E+03  0.84560647549E+03  0.90595385847E+02 0.  0.
         23    2    4    4    0    0 -0.58658805812E+02 -0.67534949594E+02 -0.16810031912E+02  0.12794441774E+03  0.89918696287E+02 0.  0.
          5    1    3    3  502    0 -0.15296330121E+03 -0.48009903479E+03 -0.22466572183E+03  0.55171517225E+03  0.47000000000E+01 0. -1.
         -5    1    3    3    0  502 -0.11046163262E+03 -0.18044030791E+03 -0.64411646457E+02  0.22120449181E+03  0.47000000000E+01 0.  1.
         13    1    5    5    0    0  0.18837884972E+03  0.48231212582E+03 -0.13630372451E+03  0.53543466740E+03  0.00000000000E+00 0. -1.
        -13    1    5    5    0    0  0.13370488992E+03  0.24576216647E+03 -0.13390485607E+03  0.31017180809E+03  0.00000000000E+00 0.  1.
          1    1    6    6  503    0  0.22769399617E+02 -0.23682703340E+02 -0.13148550929E+02  0.35386443562E+02  0.00000000000E+00 0. -1.
         -1    1    6    6    0  503 -0.81428205429E+02 -0.43852246253E+02 -0.36614809835E+01  0.92557974178E+02  0.00000000000E+00 0.  1.
<mgrwt>
<rscale>  0 0.81921530E+03</rscale>
<asrwt>0</asrwt>
<pdfrwt beam="1">  1        1 0.17865896E+00 0.81921530E+03</pdfrwt>
<pdfrwt beam="2">  1       -1 0.90028814E-01 0.81921530E+03</pdfrwt>
<totfact> 0.14095997E+01</totfact>
</mgrwt>
</event>
<event>
12    1  0.3147868E-008  0.8567988E+03  0.7818608E-02  0.9481257E-01
         -2   -1    0    0    0  501 -0.00000000000E+00  0.00000000000E+00  0.15625794573E+04  0.15625794573E+04  0.00000000000E+00 0.  1.
          2   -1    0    0  501    0  0.00000000000E+00 -0.00000000000E+00 -0.59247843951E+03  0.59247843951E+03  0.00000000000E+00 0. -1.
         23    2    1    2    0    0  0.24523472141E+03 -0.71752274363E+03 -0.29392029459E+02  0.76428106500E+03  0.91009333101E+02 0.  0.
    5000000    2    1    2    0    0 -0.24523472141E+03  0.71752274363E+03  0.99949304728E+03  0.13907768318E+04  0.60024568985E+03 0.  0.
         23    2    4    4    0    0 -0.30000247998E+03  0.85749262299E+02  0.28968673196E+03  0.43480329960E+03  0.88210445469E+02 0.  0.
         23    2    4    4    0    0  0.54767758577E+02  0.63177348133E+03  0.70980631531E+03  0.95597353223E+03  0.89012077612E+02 0.  0.
          5    1    3    3  502    0  0.52892800736E+02 -0.21961021442E+03 -0.44479117996E+02  0.23027543635E+03  0.47000000000E+01 0. -1.
         -5    1    3    3    0  502  0.19234192067E+03 -0.49791252921E+03  0.15087088537E+02  0.53400562865E+03  0.47000000000E+01 0.  1.
         11    1    5    5    0    0 -0.27155900244E+03  0.60687682674E+02  0.28190578539E+03  0.39610372186E+03  0.00000000000E+00 0. -1.
        -11    1    5    5    0    0 -0.28443477540E+02  0.25061579624E+02  0.77809465734E+01  0.38699577742E+02  0.00000000000E+00 0.  1.
          1    1    6    6  503    0  0.70598353358E+02  0.53537386751E+03  0.63050034619E+03  0.83014456094E+03  0.00000000000E+00 0. -1.
         -1    1    6    6    0  503 -0.15830594781E+02  0.96399613824E+02  0.79305969119E+02  0.12582897128E+03  0.00000000000E+00 0.  1.
<mgrwt>
<rscale>  0 0.85679883E+03</rscale>
<asrwt>0</asrwt>
<pdfrwt beam="1">  1        2 0.91150530E-01 0.85679883E+03</pdfrwt>
<pdfrwt beam="2">  1       -2 0.24039684E+00 0.85679883E+03</pdfrwt>
<totfact> 0.37604725E+00</totfact>
</mgrwt>
</event>
<event>
12    1  0.3147868E-008  0.1177513E+04  0.7818608E-02  0.9132770E-01
          2   -1    0    0  501    0  0.00000000000E+00  0.00000000000E+00  0.29998442714E+04  0.29998442714E+04  0.00000000000E+00 0. -1.
         -2   -1    0    0    0  501 -0.00000000000E+00 -0.00000000000E+00 -0.59475123594E+03  0.59475123594E+03  0.00000000000E+00 0.  1.
         23    2    1    2    0    0  0.10548082065E+04 -0.40460573071E+03  0.37287772316E+03  0.11933239975E+04  0.93049538902E+02 0.  0.
    5000000    2    1    2    0    0 -0.10548082065E+04  0.40460573071E+03  0.20322153123E+04  0.24012715098E+04  0.59989969029E+03 0.  0.
         23    2    4    4    0    0  0.36499424714E+02 -0.26806201608E+02  0.19649865201E+03  0.22062084456E+03  0.89504504709E+02 0.  0.
         23    2    4    4    0    0 -0.10913076313E+04  0.43141193232E+03  0.18357166603E+04  0.21806506653E+04  0.91176014622E+02 0.  0.
          5    1    3    3  502    0  0.27703611545E+03 -0.14514194111E+03  0.12386931867E+03  0.33642367699E+03  0.47000000000E+01 0. -1.
         -5    1    3    3    0  502  0.77777209110E+03 -0.25946378960E+03  0.24900840449E+03  0.85690032052E+03  0.47000000000E+01 0.  1.
         13    1    5    5    0    0  0.28448796029E+02 -0.20269534568E+02  0.20453804262E+03  0.20749939496E+03  0.00000000000E+00 0.  1.
        -13    1    5    5    0    0  0.80506286848E+01 -0.65366670402E+01 -0.80393906140E+01  0.13121449602E+02  0.00000000000E+00 0. -1.
          2    1    6    6  503    0 -0.22741234805E+03  0.50947597609E+02  0.36685639233E+03  0.43462126770E+03  0.00000000000E+00 0. -1.
         -2    1    6    6    0  503 -0.86389528321E+03  0.38046433471E+03  0.14688602680E+04  0.17460293976E+04  0.00000000000E+00 0.  1.
<mgrwt>
<rscale>  0 0.11775135E+04</rscale>
<asrwt>0</asrwt>
<pdfrwt beam="1">  1        2 0.46151450E+00 0.11775135E+04</pdfrwt>
<pdfrwt beam="2">  1       -2 0.91500191E-01 0.11775135E+04</pdfrwt>
<totfact> 0.17620098E+00</totfact>
</mgrwt>
</event>
<event>
12    1  0.3147868E-008  0.7403833E+03  0.7818608E-02  0.9650559E-01
          2   -1    0    0  501    0  0.00000000000E+00  0.00000000000E+00  0.18879971483E+04  0.18879971483E+04  0.00000000000E+00 0. -1.
         -2   -1    0    0    0  501 -0.00000000000E+00 -0.00000000000E+00 -0.54708823965E+03  0.54708823965E+03  0.00000000000E+00 0.  1.
         23    2    1    2    0    0  0.71013617774E+03  0.14108479219E+02  0.13239439608E+04  0.15051190539E+04  0.89795962160E+02 0.  0.
    5000000    2    1    2    0    0 -0.71013617774E+03 -0.14108479219E+02  0.16964947830E+02  0.92996633407E+03  0.60004760888E+03 0.  0.
         23    2    4    4    0    0 -0.66798207915E+03 -0.92424006079E+02  0.19861688619E+03  0.70897643204E+03  0.91960093248E+02 0.  0.
         23    2    4    4    0    0 -0.42154098594E+02  0.78315526860E+02 -0.18165193836E+03  0.22098990203E+03  0.89043923498E+02 0.  0.
          5    1    3    3  502    0  0.85546574703E+02 -0.20153129388E+02  0.12618683420E+03  0.15384918652E+03  0.47000000000E+01 0. -1.
         -5    1    3    3    0  502  0.62458960304E+03  0.34261608607E+02  0.11977571267E+04  0.13512698674E+04  0.47000000000E+01 0.  1.
         11    1    5    5    0    0 -0.31678721693E+03 -0.13997635430E+02  0.56534044137E+02  0.32209652708E+03  0.00000000000E+00 0. -1.
        -11    1    5    5    0    0 -0.35119486222E+03 -0.78426370649E+02  0.14208284205E+03  0.38687990497E+03  0.00000000000E+00 0.  1.
          2    1    6    6  503    0  0.87752595005E+00  0.63868204711E+01  0.99503257507E+01  0.11856243506E+02  0.00000000000E+00 0.  1.
         -2    1    6    6    0  503 -0.43031624544E+02  0.71928706388E+02 -0.19160226411E+03  0.20913365852E+03  0.00000000000E+00 0. -1.
<mgrwt>
<rscale>  0 0.74038325E+03</rscale>
<asrwt>0</asrwt>
<pdfrwt beam="1">  1        2 0.29046110E+00 0.74038325E+03</pdfrwt>
<pdfrwt beam="2">  1       -2 0.84167422E-01 0.74038325E+03</pdfrwt>
<totfact> 0.98268473E+00</totfact>
</mgrwt>
</event>
<event>
12    1  0.3147868E-008  0.2771686E+04  0.7818608E-02  0.8312113E-01
          1   -1    0    0  501    0  0.00000000000E+00  0.00000000000E+00  0.22380265024E+04  0.22380265024E+04  0.00000000000E+00 0. -1.
         -1   -1    0    0    0  501 -0.00000000000E+00 -0.00000000000E+00 -0.34490335675E+04  0.34490335675E+04  0.00000000000E+00 0.  1.
         23    2    1    2    0    0 -0.92443417147E+03 -0.25844263551E+04 -0.64627334852E+03  0.28213227640E+04  0.91404458590E+02 0.  0.
    5000000    2    1    2    0    0  0.92443417147E+03  0.25844263551E+04 -0.56473371656E+03  0.28657373059E+04  0.59973995489E+03 0.  0.
         23    2    4    4    0    0  0.89224562076E+03  0.17744843704E+04 -0.31945808075E+03  0.20139924226E+04  0.95994709911E+02 0.  0.
         23    2    4    4    0    0  0.32188550706E+02  0.80994198470E+03 -0.24527563581E+03  0.85174488332E+03  0.90923524719E+02 0.  0.
          5    1    3    3  502    0 -0.29005722829E+03 -0.79129833563E+03 -0.24107967809E+03  0.87660011000E+03  0.47000000000E+01 0. -1.
         -5    1    3    3    0  502 -0.63437694318E+03 -0.17931280195E+04 -0.40519367044E+03  0.19447226540E+04  0.47000000000E+01 0.  1.
         13    1    5    5    0    0  0.60082459495E+03  0.12700891171E+04 -0.19768992170E+03  0.14188720395E+04  0.00000000000E+00 0. -1.
        -13    1    5    5    0    0  0.29142102581E+03  0.50439525332E+03 -0.12176815905E+03  0.59512038313E+03  0.00000000000E+00 0.  1.
          2    1    6    6  503    0  0.58342469633E+01  0.46019587381E+03 -0.93794011018E+02  0.46969308831E+03  0.00000000000E+00 0. -1.
         -2    1    6    6    0  503  0.26354303743E+02  0.34974611090E+03 -0.15148162480E+03  0.38205179500E+03  0.00000000000E+00 0.  1.
<mgrwt>
<rscale>  0 0.27716864E+04</rscale>
<asrwt>0</asrwt>
<pdfrwt beam="1">  1        1 0.34431177E+00 0.27716864E+04</pdfrwt>
<pdfrwt beam="2">  1       -1 0.53062055E+00 0.27716864E+04</pdfrwt>
<totfact> 0.16015750E-03</totfact>
</mgrwt>
</event>
<event>
12    1  0.3147868E-008  0.7743113E+03  0.7818608E-02  0.9597963E-01
          1   -1    0    0  501    0  0.00000000000E+00  0.00000000000E+00  0.59517335376E+03  0.59517335376E+03  0.00000000000E+00 0. -1.
         -1   -1    0    0    0  501 -0.00000000000E+00 -0.00000000000E+00 -0.11860888634E+04  0.11860888634E+04  0.00000000000E+00 0.  1.
         23    2    1    2    0    0  0.39964652088E+02 -0.71756224825E+03 -0.12883743521E+03  0.73728776161E+03  0.10247636401E+03 0.  0.
    5000000    2    1    2    0    0 -0.39964652088E+02  0.71756224825E+03 -0.46207807439E+03  0.10439744555E+04  0.59989479361E+03 0.  0.
         23    2    4    4    0    0  0.13724172946E+03  0.84123645342E+02 -0.31367944997E+03  0.36343538956E+03  0.88195266514E+02 0.  0.
         23    2    4    4    0    0 -0.17720638155E+03  0.63343860291E+03 -0.14839862442E+03  0.68053906596E+03  0.92003821909E+02 0.  0.
          5    1    3    3  502    0 -0.13697921780E+02 -0.35894214215E+03 -0.25155015426E+02  0.36011381433E+03  0.47000000000E+01 0. -1.
         -5    1    3    3    0  502  0.53662573868E+02 -0.35862010610E+03 -0.10368241978E+03  0.37717394728E+03  0.47000000000E+01 0.  1.
         11    1    5    5    0    0  0.13865294313E+02  0.23905463115E+02 -0.13661586137E+03  0.13938296572E+03  0.00000000000E+00 0.  1.
        -11    1    5    5    0    0  0.12337643515E+03  0.60218182227E+02 -0.17706358860E+03  0.22405242384E+03  0.00000000000E+00 0. -1.
          4    1    6    6  503    0 -0.53493532023E+02  0.32711071514E+03 -0.45780634106E+02  0.33460251701E+03  0.00000000000E+00 0. -1.
         -4    1    6    6    0  503 -0.12371284953E+03  0.30632788776E+03 -0.10261799031E+03  0.34593654895E+03  0.00000000000E+00 0.  1.
<mgrwt>
<rscale>  0 0.77431129E+03</rscale>
<asrwt>0</asrwt>
<pdfrwt beam="1">  1        1 0.91565132E-01 0.77431129E+03</pdfrwt>
<pdfrwt beam="2">  1       -1 0.18247521E+00 0.77431129E+03</pdfrwt>
<totfact> 0.71288162E+00</totfact>
</mgrwt>
</event>
<event>
12    1  0.3147868E-008  0.8971238E+03  0.7818608E-02  0.9429184E-01
          4   -1    0    0  501    0  0.00000000000E+00  0.00000000000E+00  0.11565277695E+04  0.11565277695E+04  0.00000000000E+00 0. -1.
         -4   -1    0    0    0  501 -0.00000000000E+00 -0.00000000000E+00 -0.88274462928E+03  0.88274462928E+03  0.00000000000E+00 0.  1.
         23    2    1    2    0    0 -0.20752118636E+03 -0.79446957494E+03  0.54180644331E+03  0.98783625572E+03  0.89550532141E+02 0.  0.
    5000000    2    1    2    0    0  0.20752118636E+03  0.79446957494E+03 -0.26802330313E+03  0.10514361430E+04  0.59952858442E+03 0.  0.
         23    2    4    4    0    0  0.13172693936E+03  0.85266523040E+03 -0.29357945178E+03  0.91604108269E+03  0.92479127261E+02 0.  0.
         23    2    4    4    0    0  0.75794247002E+02 -0.58195655462E+02  0.25556148650E+02  0.13539506033E+03  0.92451086717E+02 0.  0.
          5    1    3    3  502    0 -0.68481399327E+02 -0.43666862494E+03  0.28365378868E+03  0.52521495779E+03  0.47000000000E+01 0. -1.
         -5    1    3    3    0  502 -0.13903978703E+03 -0.35780095001E+03  0.25815265463E+03  0.46262129793E+03  0.47000000000E+01 0.  1.
         11    1    5    5    0    0  0.11691407716E+03  0.67951064376E+03 -0.27080058903E+03  0.74076755831E+03  0.00000000000E+00 0.  1.
        -11    1    5    5    0    0  0.14812862201E+02  0.17315458664E+03 -0.22778862752E+02  0.17527352438E+03  0.00000000000E+00 0. -1.
          3    1    6    6  503    0  0.65268410916E+01  0.72424711228E+01 -0.25492231897E+02  0.27292983159E+02  0.00000000000E+00 0. -1.
         -3    1    6    6    0  503  0.69267405910E+02 -0.65438126585E+02  0.51048380548E+02  0.10810207717E+03  0.00000000000E+00 0.  1.
<mgrwt>
<rscale>  0 0.89712383E+03</rscale>
<asrwt>0</asrwt>
<pdfrwt beam="1">  1        4 0.17792735E+00 0.89712383E+03</pdfrwt>
<pdfrwt beam="2">  1       -4 0.13580687E+00 0.89712383E+03</pdfrwt>
<totfact> 0.13906827E-01</totfact>
</mgrwt>
</event>
<event>
12    1  0.3147868E-008  0.4482584E+03  0.7818608E-02  0.1028243E+00
         -2   -1    0    0    0  501 -0.00000000000E+00  0.00000000000E+00  0.12762274718E+03  0.12762274718E+03  0.00000000000E+00 0.  1.
          2   -1    0    0  501    0  0.00000000000E+00 -0.00000000000E+00 -0.21890896274E+04  0.21890896274E+04  0.00000000000E+00 0. -1.
         23    2    1    2    0    0 -0.10461851027E+03  0.32521692689E+03 -0.53718176056E+03  0.64367671896E+03  0.95102010617E+02 0.  0.
    5000000    2    1    2    0    0  0.10461851027E+03 -0.32521692689E+03 -0.15242851196E+04  0.16730356556E+04  0.59907603586E+03 0.  0.
         23    2    4    4    0    0 -0.15300967273E+03 -0.42684414616E+02 -0.10057924082E+04  0.10222739681E+04  0.90508443136E+02 0.  0.
         23    2    4    4    0    0  0.25762818300E+03 -0.28253251227E+03 -0.51849271146E+03  0.65076168752E+03  0.91973805718E+02 0.  0.
          5    1    3    3  502    0 -0.90163490886E+02  0.19165768879E+03 -0.39357610294E+03  0.44697467889E+03  0.47000000000E+01 0. -1.
         -5    1    3    3    0  502 -0.14455019381E+02  0.13355923810E+03 -0.14360565762E+03  0.19670204007E+03  0.47000000000E+01 0.  1.
         11    1    5    5    0    0 -0.10791112142E+03 -0.34213850494E+02 -0.42986594204E+03  0.44452235693E+03  0.00000000000E+00 0.  1.
        -11    1    5    5    0    0 -0.45098551311E+02 -0.84705641224E+01 -0.57592646612E+03  0.57775161113E+03  0.00000000000E+00 0. -1.
          3    1    6    6  503    0  0.20071078258E+03 -0.26327601932E+03 -0.46136078729E+03  0.56784932565E+03  0.00000000000E+00 0. -1.
         -3    1    6    6    0  503  0.56917400419E+02 -0.19256492957E+02 -0.57131924170E+02  0.82912361870E+02  0.00000000000E+00 0.  1.
<mgrwt>
<rscale>  0 0.44825837E+03</rscale>
<asrwt>0</asrwt>
<pdfrwt beam="1">  1        2 0.33678298E+00 0.44825837E+03</pdfrwt>
<pdfrwt beam="2">  1       -2 0.19634271E-01 0.44825837E+03</pdfrwt>
<totfact> 0.12384755E+02</totfact>
</mgrwt>
</event>
<event>
12    1  0.3147868E-008  0.1033015E+04  0.7818608E-02  0.9273058E-01
         -1   -1    0    0    0  501 -0.00000000000E+00  0.00000000000E+00  0.63128565390E+03  0.63128565390E+03  0.00000000000E+00 0.  1.
          1   -1    0    0  501    0  0.00000000000E+00 -0.00000000000E+00 -0.17986085919E+04  0.17986085919E+04  0.00000000000E+00 0. -1.
         23    2    1    2    0    0  0.93618438139E+03 -0.28154381477E+03 -0.59746985332E+03  0.11492387237E+04  0.89840430056E+02 0.  0.
    5000000    2    1    2    0    0 -0.93618438139E+03  0.28154381477E+03 -0.56985308468E+03  0.12806555221E+04  0.59969818450E+03 0.  0.
         23    2    4    4    0    0 -0.41566183824E+03  0.36525745884E+03 -0.10316720433E+03  0.57031534334E+03  0.91806011741E+02 0.  0.
         23    2    4    4    0    0 -0.52052254316E+03 -0.83713644071E+02 -0.46668588034E+03  0.71034017873E+03  0.93998757817E+02 0.  0.
          5    1    3    3  502    0  0.41446868164E+03 -0.11818502185E+03 -0.31509203230E+03  0.53390735738E+03  0.47000000000E+01 0. -1.
         -5    1    3    3    0  502  0.52171569976E+03 -0.16335879292E+03 -0.28237782102E+03  0.61533136634E+03  0.47000000000E+01 0.  1.
         13    1    5    5    0    0 -0.21850067980E+03  0.13283013718E+03 -0.36186351215E+02  0.25825538607E+03  0.00000000000E+00 0. -1.
        -13    1    5    5    0    0 -0.19716115844E+03  0.23242732166E+03 -0.66980853118E+02  0.31205995727E+03  0.00000000000E+00 0.  1.
          4    1    6    6  503    0 -0.30534025212E+03 -0.61598341771E+02 -0.33334147498E+03  0.45622753557E+03  0.00000000000E+00 0. -1.
         -4    1    6    6    0  503 -0.21518229104E+03 -0.22115302300E+02 -0.13334440537E+03  0.25411264316E+03  0.00000000000E+00 0.  1.
<mgrwt>
<rscale>  0 0.10330151E+04</rscale>
<asrwt>0</asrwt>
<pdfrwt beam="1">  1        1 0.27670901E+00 0.10330151E+04</pdfrwt>
<pdfrwt beam="2">  1       -1 0.97120872E-01 0.10330151E+04</pdfrwt>
<totfact> 0.41777480E+00</totfact>
</mgrwt>
</event>
<event>
12    1  0.3147868E-008  0.1463540E+04  0.7818608E-02  0.8909067E-01
          1   -1    0    0  501    0  0.00000000000E+00  0.00000000000E+00  0.20182619925E+04  0.20182619925E+04  0.00000000000E+00 0. -1.
         -1   -1    0    0    0  501 -0.00000000000E+00 -0.00000000000E+00 -0.11989948090E+04  0.11989948090E+04  0.00000000000E+00 0.  1.
         23    2    1    2    0    0  0.13460811280E+04 -0.41894476746E+03 -0.12399970803E+03  0.14180343100E+04  0.89421783643E+02 0.  0.
    5000000    2    1    2    0    0 -0.13460811280E+04  0.41894476746E+03  0.94326689155E+03  0.17992224915E+04  0.60000001982E+03 0.  0.
         23    2    4    4    0    0 -0.10450378034E+01  0.11872268201E+03  0.11800577053E+03  0.19033645400E+03  0.90589384118E+02 0.  0.
         23    2    4    4    0    0 -0.13450360902E+04  0.30022208545E+03  0.82526112102E+03  0.16088860375E+04  0.90570299726E+02 0.  0.
          5    1    3    3  502    0  0.65584122162E+03 -0.23858339645E+03 -0.91331456753E+02  0.70385600092E+03  0.47000000000E+01 0. -1.
         -5    1    3    3    0  502  0.69023990636E+03 -0.18036137101E+03 -0.32668251273E+02  0.71417830906E+03  0.47000000000E+01 0.  1.
         13    1    5    5    0    0  0.15681874846E+02  0.11927725947E+03  0.69301471092E+02  0.13883688170E+03  0.00000000000E+00 0. -1.
        -13    1    5    5    0    0 -0.16726912649E+02 -0.55457746066E+00  0.48704299437E+02  0.51499572295E+02  0.00000000000E+00 0.  1.
          2    1    6    6  503    0 -0.10691441362E+04  0.25496062942E+03  0.61887491102E+03  0.12613803003E+04  0.00000000000E+00 0. -1.
         -2    1    6    6    0  503 -0.27589195397E+03  0.45261456025E+02  0.20638621001E+03  0.34750573715E+03  0.00000000000E+00 0.  1.
<mgrwt>
<rscale>  0 0.14635401E+04</rscale>
<asrwt>0</asrwt>
<pdfrwt beam="1">  1        1 0.31050184E+00 0.14635401E+04</pdfrwt>
<pdfrwt beam="2">  1       -1 0.18446074E+00 0.14635401E+04</pdfrwt>
<totfact> 0.53222922E-01</totfact>
</mgrwt>
</event>
<event>
12    1  0.3147868E-008  0.5250112E+03  0.7818608E-02  0.1007449E+00
          2   -1    0    0  501    0  0.00000000000E+00  0.00000000000E+00  0.95710575104E+03  0.95710575104E+03  0.00000000000E+00 0. -1.
         -2   -1    0    0    0  501 -0.00000000000E+00 -0.00000000000E+00 -0.14524273960E+04  0.14524273960E+04  0.00000000000E+00 0.  1.
         23    2    1    2    0    0  0.42131203211E+03  0.27934766016E+03 -0.12310516960E+04  0.13339533862E+04  0.91675593740E+02 0.  0.
    5000000    2    1    2    0    0 -0.42131203211E+03 -0.27934766016E+03  0.73573005104E+03  0.10755797609E+04  0.60002847471E+03 0.  0.
         23    2    4    4    0    0 -0.86747522204E+02 -0.25854417077E+02  0.61851580298E+03  0.63177460709E+03  0.91562940820E+02 0.  0.
         23    2    4    4    0    0 -0.33456450991E+03 -0.25349324308E+03  0.11721424805E+03  0.44380515383E+03  0.83854630401E+02 0.  0.
          5    1    3    3  502    0  0.23571146882E+03  0.10435462228E+03 -0.65597306172E+03  0.70482092153E+03  0.47000000000E+01 0. -1.
         -5    1    3    3    0  502  0.18560056330E+03  0.17499303788E+03 -0.57507863432E+03  0.62913246463E+03  0.47000000000E+01 0.  1.
         13    1    5    5    0    0 -0.16753161004E+01  0.16116333705E+02  0.19774467485E+02  0.25565063279E+02  0.00000000000E+00 0. -1.
        -13    1    5    5    0    0 -0.85072206104E+02 -0.41970750782E+02  0.59874133550E+03  0.60620954381E+03  0.00000000000E+00 0.  1.
          1    1    6    6  503    0 -0.53358260631E+02 -0.78086922524E+02  0.44368035391E+02  0.10446623383E+03  0.00000000000E+00 0. -1.
         -1    1    6    6    0  503 -0.28120624928E+03 -0.17540632056E+03  0.72846212661E+02  0.33933892000E+03  0.00000000000E+00 0.  1.
<mgrwt>
<rscale>  0 0.52501124E+03</rscale>
<asrwt>0</asrwt>
<pdfrwt beam="1">  1        2 0.14724704E+00 0.52501124E+03</pdfrwt>
<pdfrwt beam="2">  1       -2 0.22345037E+00 0.52501124E+03</pdfrwt>
<totfact> 0.27061878E+00</totfact>
</mgrwt>
</event>
<event>
12    1  0.3147868E-008  0.4912981E+03  0.7818608E-02  0.1016076E+00
          2   -1    0    0  501    0  0.00000000000E+00  0.00000000000E+00  0.15355935978E+04  0.15355935978E+04  0.00000000000E+00 0. -1.
         -2   -1    0    0    0  501 -0.00000000000E+00 -0.00000000000E+00 -0.33079578109E+03  0.33079578109E+03  0.00000000000E+00 0.  1.
         23    2    1    2    0    0 -0.16015734016E+03  0.40102816440E+03  0.10094873120E+04  0.11018116013E+04  0.91925021030E+02 0.  0.
    5000000    2    1    2    0    0  0.16015734016E+03 -0.40102816440E+03  0.19531050467E+03  0.76457777753E+03  0.59996585103E+03 0.  0.
         23    2    4    4    0    0  0.11866790905E+03 -0.43234133775E+03 -0.84886366395E+02  0.46524596941E+03  0.90813060075E+02 0.  0.
         23    2    4    4    0    0  0.41489431115E+02  0.31313173354E+02  0.28019687107E+03  0.29933180812E+03  0.91582515131E+02 0.  0.
          5    1    3    3  502    0 -0.57318582513E+02  0.18008898690E+03  0.55147842103E+03  0.58298199112E+03  0.47000000000E+01 0.  1.
         -5    1    3    3    0  502 -0.10283875765E+03  0.22093917750E+03  0.45800889097E+03  0.51882961021E+03  0.47000000000E+01 0. -1.
         11    1    5    5    0    0  0.12025620895E+03 -0.42228056942E+03 -0.66294065788E+02  0.44404654965E+03  0.00000000000E+00 0.  1.
        -11    1    5    5    0    0 -0.15882999039E+01 -0.10060768338E+02 -0.18592300606E+02  0.21199419756E+02  0.00000000000E+00 0. -1.
          1    1    6    6  503    0  0.24729893649E+02  0.61351704399E+02  0.13801375352E+03  0.15304703667E+03  0.00000000000E+00 0. -1.
         -1    1    6    6    0  503  0.16759537465E+02 -0.30038531045E+02  0.14218311755E+03  0.14628477145E+03  0.00000000000E+00 0.  1.
<mgrwt>
<rscale>  0 0.49129807E+03</rscale>
<asrwt>0</asrwt>
<pdfrwt beam="1">  1        2 0.23624517E+00 0.49129807E+03</pdfrwt>
<pdfrwt beam="2">  1       -2 0.50891659E-01 0.49129807E+03</pdfrwt>
<totfact> 0.46815269E+01</totfact>
</mgrwt>
</event>
<event>
12    1  0.3147868E-008  0.6704042E+03  0.7818608E-02  0.9769228E-01
         -2   -1    0    0    0  501 -0.00000000000E+00  0.00000000000E+00  0.21659981070E+03  0.21659981070E+03  0.00000000000E+00 0.  1.
          2   -1    0    0  501    0  0.00000000000E+00 -0.00000000000E+00 -0.23193198691E+04  0.23193198691E+04  0.00000000000E+00 0. -1.
         23    2    1    2    0    0  0.22686104754E+03  0.50217983495E+03 -0.55642352197E+03  0.78816701813E+03  0.89160479694E+02 0.  0.
    5000000    2    1    2    0    0 -0.22686104754E+03 -0.50217983495E+03 -0.15462965364E+04  0.17477526616E+04  0.59996322077E+03 0.  0.
         23    2    4    4    0    0  0.75549922999E+02  0.69198720499E+02 -0.46473165017E+03  0.48456119024E+03  0.91256707348E+02 0.  0.
         23    2    4    4    0    0 -0.30241097054E+03 -0.57137855545E+03 -0.10815648862E+04  0.12631914714E+04  0.89130474955E+02 0.  0.
          5    1    3    3  502    0  0.15780815809E+03  0.43045033006E+03 -0.46084452228E+03  0.65006973866E+03  0.47000000000E+01 0. -1.
         -5    1    3    3    0  502  0.69052889456E+02  0.71729504886E+02 -0.95578999692E+02  0.13809727946E+03  0.47000000000E+01 0.  1.
         13    1    5    5    0    0  0.28388896716E+02  0.82096271915E+02 -0.26233950584E+03  0.27634714336E+03  0.00000000000E+00 0. -1.
        -13    1    5    5    0    0  0.47161026284E+02 -0.12897551416E+02 -0.20239214433E+03  0.20821404688E+03  0.00000000000E+00 0.  1.
          3    1    6    6  503    0 -0.23484423522E+03 -0.42230490384E+03 -0.73060540015E+03  0.87594377522E+03  0.00000000000E+00 0. -1.
         -3    1    6    6    0  503 -0.67566735325E+02 -0.14907365161E+03 -0.35095948609E+03  0.38724769618E+03  0.00000000000E+00 0.  1.
<mgrwt>
<rscale>  0 0.67040419E+03</rscale>
<asrwt>0</asrwt>
<pdfrwt beam="1">  1        2 0.35681842E+00 0.67040419E+03</pdfrwt>
<pdfrwt beam="2">  1       -2 0.33323049E-01 0.67040419E+03</pdfrwt>
<totfact> 0.39032840E+01</totfact>
</mgrwt>
</event>
<event>
12    1  0.3147868E-008  0.1458336E+04  0.7818608E-02  0.8912641E-01
          2   -1    0    0  501    0  0.00000000000E+00  0.00000000000E+00  0.42834691819E+04  0.42834691819E+04  0.00000000000E+00 0. -1.
         -2   -1    0    0    0  501 -0.00000000000E+00 -0.00000000000E+00 -0.66651630570E+03  0.66651630570E+03  0.00000000000E+00 0.  1.
         23    2    1    2    0    0  0.38751818230E+03 -0.13600492743E+04  0.29549981491E+04  0.32771848513E+04  0.89566278346E+02 0.  0.
    5000000    2    1    2    0    0 -0.38751818230E+03  0.13600492743E+04  0.66195472713E+03  0.16728006364E+04  0.60014459772E+03 0.  0.
         23    2    4    4    0    0 -0.43359048561E+03  0.62900702757E+03  0.49907876716E+03  0.91723893406E+03  0.92720528390E+02 0.  0.
         23    2    4    4    0    0  0.46072303313E+02  0.73104224671E+03  0.16287595998E+03  0.75556170230E+03  0.88314687609E+02 0.  0.
          5    1    3    3  502    0  0.19334768752E+03 -0.59751177544E+03  0.14006239691E+04  0.15349831409E+04  0.47000000000E+01 0. -1.
         -5    1    3    3    0  502  0.19417049478E+03 -0.76253749884E+03  0.15543741800E+04  0.17422017104E+04  0.47000000000E+01 0.  1.
         13    1    5    5    0    0 -0.17016747152E+03  0.17346111345E+03  0.14475396624E+03  0.28284171719E+03  0.00000000000E+00 0.  1.
        -13    1    5    5    0    0 -0.26342301409E+03  0.45554591412E+03  0.35432480092E+03  0.63439721687E+03  0.00000000000E+00 0. -1.
          1    1    6    6  503    0  0.17878049518E+02  0.34662675420E+03  0.12221091420E+03  0.36797450853E+03  0.00000000000E+00 0. -1.
         -1    1    6    6    0  503  0.28194253795E+02  0.38441549251E+03  0.40665045780E+02  0.38758719377E+03  0.00000000000E+00 0.  1.
<mgrwt>
<rscale>  0 0.14583364E+04</rscale>
<asrwt>0</asrwt>
<pdfrwt beam="1">  1        2 0.65899524E+00 0.14583364E+04</pdfrwt>
<pdfrwt beam="2">  1       -2 0.10254097E+00 0.14583364E+04</pdfrwt>
<totfact> 0.14979351E-01</totfact>
</mgrwt>
</event>
<event>
12    1  0.3147868E-008  0.6022818E+03  0.7818608E-02  0.9900683E-01
         -1   -1    0    0    0  501 -0.00000000000E+00  0.00000000000E+00  0.13059240176E+04  0.13059240176E+04  0.00000000000E+00 0.  1.
          1   -1    0    0  501    0  0.00000000000E+00 -0.00000000000E+00 -0.40589916598E+03  0.40589916598E+03  0.00000000000E+00 0. -1.
         23    2    1    2    0    0  0.11837678900E+03  0.58528395430E+03  0.45388951395E+03  0.75572400575E+03  0.92372672672E+02 0.  0.
    5000000    2    1    2    0    0 -0.11837678900E+03 -0.58528395430E+03  0.44613533768E+03  0.95609917785E+03  0.59876416645E+03 0.  0.
         23    2    4    4    0    0 -0.57500467042E+02 -0.34222250634E+03  0.55913595061E+03  0.66463326775E+03  0.93176294078E+02 0.  0.
         23    2    4    4    0    0 -0.60876321957E+02 -0.24306144796E+03 -0.11300061293E+03  0.29146591010E+03  0.96945573234E+02 0.  0.
          5    1    3    3  502    0  0.48599757291E+01  0.25161119257E+03  0.19391667329E+03  0.31773822208E+03  0.47000000000E+01 0. -1.
         -5    1    3    3    0  502  0.11351681327E+03  0.33367276174E+03  0.25997284066E+03  0.43798578367E+03  0.47000000000E+01 0.  1.
         13    1    5    5    0    0  0.29155586187E+01 -0.10360828556E+03  0.24138476871E+03  0.26269713337E+03  0.00000000000E+00 0.  1.
        -13    1    5    5    0    0 -0.60416025661E+02 -0.23861422079E+03  0.31775118190E+03  0.40193613438E+03  0.00000000000E+00 0. -1.
          3    1    6    6  503    0 -0.41257908559E+02 -0.15949667684E+03 -0.21730427581E+02  0.16617345282E+03  0.00000000000E+00 0. -1.
         -3    1    6    6    0  503 -0.19618413398E+02 -0.83564771123E+02 -0.91270185348E+02  0.12529245728E+03  0.00000000000E+00 0.  1.
<mgrwt>
<rscale>  0 0.60228176E+03</rscale>
<asrwt>0</asrwt>
<pdfrwt beam="1">  1        1 0.62446026E-01 0.60228176E+03</pdfrwt>
<pdfrwt beam="2">  1       -1 0.20091139E+00 0.60228176E+03</pdfrwt>
<totfact> 0.91962266E+00</totfact>
</mgrwt>
</event>
<event>
12    1  0.3147868E-008  0.8567583E+03  0.7818608E-02  0.9481311E-01
          2   -1    0    0  501    0  0.00000000000E+00  0.00000000000E+00  0.27390667147E+04  0.27390667147E+04  0.00000000000E+00 0. -1.
         -2   -1    0    0    0  501 -0.00000000000E+00 -0.00000000000E+00 -0.29178090269E+03  0.29178090269E+03  0.00000000000E+00 0.  1.
         23    2    1    2    0    0  0.73621286866E+03  0.18792315542E+03  0.72002257993E+03  0.10507129567E+04  0.90778309314E+02 0.  0.
    5000000    2    1    2    0    0 -0.73621286866E+03 -0.18792315542E+03  0.17272632321E+04  0.19801346607E+04  0.60014206756E+03 0.  0.
         23    2    4    4    0    0 -0.72044010509E+03  0.20953341027E+02  0.14414031194E+04  0.16141315698E+04  0.91130589132E+02 0.  0.
         23    2    4    4    0    0 -0.15772763577E+02 -0.20887649644E+03  0.28586011268E+03  0.36600309096E+03  0.91455386568E+02 0.  0.
          5    1    3    3  502    0  0.64367709198E+03  0.13229127237E+03  0.61894156845E+03  0.90273580556E+03  0.47000000000E+01 0. -1.
         -5    1    3    3    0  502  0.92535776682E+02  0.55631883047E+02  0.10108101148E+03  0.14797715114E+03  0.47000000000E+01 0.  1.
         11    1    5    5    0    0 -0.57314441651E+03  0.87947860257E+01  0.10593864254E+04  0.12045212612E+04  0.00000000000E+00 0.  1.
        -11    1    5    5    0    0 -0.14729568857E+03  0.12158555001E+02  0.38201669406E+03  0.40961030855E+03  0.00000000000E+00 0. -1.
          1    1    6    6  503    0 -0.42081322900E+02 -0.46182060297E+02  0.96584332198E+02  0.11503109865E+03  0.00000000000E+00 0.  1.
         -1    1    6    6    0  503  0.26308559322E+02 -0.16269443615E+03  0.18927578048E+03  0.25097199231E+03  0.00000000000E+00 0. -1.
<mgrwt>
<rscale>  0 0.85675829E+03</rscale>
<asrwt>0</asrwt>
<pdfrwt beam="1">  1        2 0.42139486E+00 0.85675829E+03</pdfrwt>
<pdfrwt beam="2">  1       -2 0.44889372E-01 0.85675829E+03</pdfrwt>
<totfact> 0.12279915E+01</totfact>
</mgrwt>
</event>
<event>
12    1  0.3147868E-008  0.4609019E+03  0.7818608E-02  0.1024520E+00
          2   -1    0    0  501    0  0.00000000000E+00  0.00000000000E+00  0.15937077953E+04  0.15937077953E+04  0.00000000000E+00 0. -1.
         -2   -1    0    0    0  501 -0.00000000000E+00 -0.00000000000E+00 -0.20142362851E+03  0.20142362851E+03  0.00000000000E+00 0.  1.
         23    2    1    2    0    0 -0.32257819898E+03  0.20005384895E+03  0.29956131793E+03  0.49206815216E+03  0.91191261784E+02 0.  0.
    5000000    2    1    2    0    0  0.32257819898E+03 -0.20005384895E+03  0.10927228489E+04  0.13030632717E+04  0.59987701123E+03 0.  0.
         23    2    4    4    0    0 -0.25618010722E+02 -0.17202184402E+03  0.54205141552E+02  0.20346783923E+03  0.90626524465E+02 0.  0.
         23    2    4    4    0    0  0.34819620971E+03 -0.28032004936E+02  0.10385177073E+04  0.10995954324E+04  0.92545625957E+02 0.  0.
          5    1    3    3  502    0 -0.75141141321E+02  0.86696960052E+02  0.60502069441E+02  0.12978884547E+03  0.47000000000E+01 0. -1.
         -5    1    3    3    0  502 -0.24743705766E+03  0.11335688890E+03  0.23905924849E+03  0.36227930669E+03  0.47000000000E+01 0.  1.
         11    1    5    5    0    0  0.20962993797E+02 -0.38078138326E+02 -0.14589063235E+02  0.45850108979E+02  0.00000000000E+00 0. -1.
        -11    1    5    5    0    0 -0.46581004519E+02 -0.13394370569E+03  0.68794204787E+02  0.15761773025E+03  0.00000000000E+00 0.  1.
          2    1    6    6  503    0  0.59459730256E+02 -0.68279999211E+00  0.30651666469E+03  0.31223131084E+03  0.00000000000E+00 0.  1.
         -2    1    6    6    0  503  0.28873647945E+03 -0.27349204944E+02  0.73200104264E+03  0.78736412161E+03  0.00000000000E+00 0. -1.
<mgrwt>
<rscale>  0 0.46090193E+03</rscale>
<asrwt>0</asrwt>
<pdfrwt beam="1">  1        2 0.24518581E+00 0.46090193E+03</pdfrwt>
<pdfrwt beam="2">  1       -2 0.30988252E-01 0.46090193E+03</pdfrwt>
<totfact> 0.11426392E+02</totfact>
</mgrwt>
</event>
<event>
12    1  0.3147868E-008  0.9531582E+03  0.7818608E-02  0.9361467E-01
         -1   -1    0    0    0  501 -0.00000000000E+00  0.00000000000E+00  0.91705059397E+03  0.91705059397E+03  0.00000000000E+00 0.  1.
          1   -1    0    0  501    0  0.00000000000E+00 -0.00000000000E+00 -0.11781465142E+04  0.11781465142E+04  0.00000000000E+00 0. -1.
         23    2    1    2    0    0  0.70870277418E+03 -0.53071592890E+03 -0.46744517020E+03  0.10058026703E+04  0.95994818473E+02 0.  0.
    5000000    2    1    2    0    0 -0.70870277418E+03  0.53071592890E+03  0.20634924994E+03  0.10893944379E+04  0.60023429509E+03 0.  0.
         23    2    4    4    0    0 -0.16681626946E+03 -0.87388387092E+02  0.15587557926E+03  0.26089013155E+03  0.91115676885E+02 0.  0.
         23    2    4    4    0    0 -0.54188650472E+03  0.61810431599E+03  0.50473670680E+02  0.82850430632E+03  0.90431547169E+02 0.  0.
          5    1    3    3  502    0  0.50803986387E+03 -0.32682057275E+03 -0.33060428365E+03  0.68864901976E+03  0.47000000000E+01 0. -1.
         -5    1    3    3    0  502  0.20066291031E+03 -0.20389535615E+03 -0.13684088655E+03  0.31715365056E+03  0.47000000000E+01 0.  1.
         11    1    5    5    0    0 -0.11014288717E+03 -0.48143701782E+02  0.14925048879E+03  0.19163762684E+03  0.00000000000E+00 0.  1.
        -11    1    5    5    0    0 -0.56673382285E+02 -0.39244685310E+02  0.66250904705E+01  0.69252504709E+02  0.00000000000E+00 0. -1.
          1    1    6    6  503    0 -0.13915570354E+03  0.10310378943E+03  0.95525101178E+01  0.17345302439E+03  0.00000000000E+00 0. -1.
         -1    1    6    6    0  503 -0.40273080118E+03  0.51500052656E+03  0.40921160562E+02  0.65505128193E+03  0.00000000000E+00 0.  1.
<mgrwt>
<rscale>  0 0.95315825E+03</rscale>
<asrwt>0</asrwt>
<pdfrwt beam="1">  1        1 0.18125331E+00 0.95315825E+03</pdfrwt>
<pdfrwt beam="2">  1       -1 0.14108471E+00 0.95315825E+03</pdfrwt>
<totfact> 0.45953098E+00</totfact>
</mgrwt>
</event>
<event>
12    1  0.3147868E-008  0.3233979E+03  0.7818608E-02  0.1074096E+00
          2   -1    0    0  501    0  0.00000000000E+00  0.00000000000E+00  0.13817539654E+04  0.13817539654E+04  0.00000000000E+00 0. -1.
         -2   -1    0    0    0  501 -0.00000000000E+00 -0.00000000000E+00 -0.15199973271E+03  0.15199973271E+03  0.00000000000E+00 0.  1.
         23    2    1    2    0    0  0.20643793260E+03 -0.13000518104E+03  0.47745182761E+03  0.54102188765E+03  0.72294315992E+02 0.  0.
    5000000    2    1    2    0    0 -0.20643793260E+03  0.13000518104E+03  0.75230240512E+03  0.99273181050E+03  0.60003297552E+03 0.  0.
         23    2    4    4    0    0  0.76358962163E+02  0.26613647419E+01  0.64118808957E+03  0.65199490069E+03  0.90207595863E+02 0.  0.
         23    2    4    4    0    0 -0.28279689476E+03  0.12734381630E+03  0.11111431555E+03  0.34073690981E+03  0.86975395081E+02 0.  0.
          5    1    3    3  502    0  0.77779460211E+02 -0.29093447214E+02  0.22820836265E+03  0.24289343319E+03  0.47000000000E+01 0. -1.
         -5    1    3    3    0  502  0.12865847238E+03 -0.10091173383E+03  0.24924346496E+03  0.29812845447E+03  0.47000000000E+01 0.  1.
         11    1    5    5    0    0  0.70007134196E+02 -0.39852991805E+01  0.63860784564E+03  0.64244599926E+03  0.00000000000E+00 0.  1.
        -11    1    5    5    0    0  0.63518279666E+01  0.66466639223E+01  0.25802439310E+01  0.95489014320E+01  0.00000000000E+00 0. -1.
          4    1    6    6  503    0 -0.16634914571E+03  0.11790650217E+03  0.85699343528E+02  0.22117495114E+03  0.00000000000E+00 0. -1.
         -4    1    6    6    0  503 -0.11644774905E+03  0.94373141295E+01  0.25414972022E+02  0.11956195866E+03  0.00000000000E+00 0.  1.
<mgrwt>
<rscale>  0 0.32339787E+03</rscale>
<asrwt>0</asrwt>
<pdfrwt beam="1">  1        2 0.21257753E+00 0.32339787E+03</pdfrwt>
<pdfrwt beam="2">  1       -2 0.23384575E-01 0.32339787E+03</pdfrwt>
<totfact> 0.25295651E+02</totfact>
</mgrwt>
</event>
<event>
12    1  0.3147868E-008  0.8542135E+03  0.7818608E-02  0.9484699E-01
          1   -1    0    0  501    0  0.00000000000E+00  0.00000000000E+00  0.14522526665E+04  0.14522526665E+04  0.00000000000E+00 0. -1.
         -1   -1    0    0    0  501 -0.00000000000E+00 -0.00000000000E+00 -0.64918664331E+03  0.64918664331E+03  0.00000000000E+00 0.  1.
         23    2    1    2    0    0 -0.10678505896E+03  0.74909769487E+03 -0.11203331200E+03  0.77102908798E+03  0.96870977256E+02 0.  0.
    5000000    2    1    2    0    0  0.10678505896E+03 -0.74909769487E+03  0.91509933519E+03  0.13304102218E+04  0.60002846584E+03 0.  0.
         23    2    4    4    0    0  0.30337539015E+03 -0.65120453128E+03  0.63390642861E+03  0.96237812231E+03  0.90721117555E+02 0.  0.
         23    2    4    4    0    0 -0.19659033119E+03 -0.97893163595E+02  0.28119290657E+03  0.36803209952E+03  0.90262648830E+02 0.  0.
          5    1    3    3  502    0  0.12197393272E+02  0.22507683638E+03 -0.34967564752E+02  0.22815165847E+03  0.47000000000E+01 0. -1.
         -5    1    3    3    0  502 -0.11898245223E+03  0.52402085849E+03 -0.77065747251E+02  0.54287742951E+03  0.47000000000E+01 0.  1.
         13    1    5    5    0    0  0.25297970192E+02 -0.24566036321E+02  0.13476061924E+02  0.37750254057E+02  0.00000000000E+00 0.  1.
        -13    1    5    5    0    0  0.27807741996E+03 -0.62663849495E+03  0.62043036669E+03  0.92462786826E+03  0.00000000000E+00 0. -1.
          2    1    6    6  503    0 -0.15246687236E+03 -0.51983173641E+02  0.24930309000E+03  0.29681716290E+03  0.00000000000E+00 0. -1.
         -2    1    6    6    0  503 -0.44123458823E+02 -0.45909989954E+02  0.31889816574E+02  0.71214936616E+02  0.00000000000E+00 0.  1.
<mgrwt>
<rscale>  0 0.85421350E+03</rscale>
<asrwt>0</asrwt>
<pdfrwt beam="1">  1        1 0.22342349E+00 0.85421350E+03</pdfrwt>
<pdfrwt beam="2">  1       -1 0.99874869E-01 0.85421350E+03</pdfrwt>
<totfact> 0.69107445E+00</totfact>
</mgrwt>
</event>
<event>
12    1  0.3170089E-008  0.1518810E+04  0.7818608E-02  0.8872040E-01
         -2   -1    0    0    0  501 -0.00000000000E+00  0.00000000000E+00  0.10346855007E+04  0.10346855007E+04  0.00000000000E+00 0.  1.
          2   -1    0    0  501    0  0.00000000000E+00 -0.00000000000E+00 -0.28959125376E+04  0.28959125376E+04  0.00000000000E+00 0. -1.
         23    2    1    2    0    0 -0.80624164315E+02  0.14902176860E+04 -0.33212878291E+02  0.14956515582E+04  0.92851929455E+02 0.  0.
    5000000    2    1    2    0    0  0.80624164315E+02 -0.14902176860E+04 -0.18280141586E+04  0.24349464801E+04  0.60006632092E+03 0.  0.
         23    2    4    4    0    0  0.15371757352E+03 -0.13939382838E+04 -0.17946249425E+04  0.22793870966E+04  0.90740401627E+02 0.  0.
         23    2    4    4    0    0 -0.73093409200E+02 -0.96279402115E+02 -0.33389216145E+02  0.15555938350E+03  0.92040818666E+02 0.  0.
          5    1    3    3  502    0 -0.17650815860E+02  0.76637160738E+03  0.22537521329E+02  0.76692047943E+03  0.47000000000E+01 0. -1.
         -5    1    3    3    0  502 -0.62973348455E+02  0.72384607858E+03 -0.55750399620E+02  0.72873107876E+03  0.47000000000E+01 0.  1.
         11    1    5    5    0    0  0.12149905168E+03 -0.81492538894E+03 -0.10014732479E+04  0.12968477456E+04  0.00000000000E+00 0. -1.
        -11    1    5    5    0    0  0.32218521834E+02 -0.57901289491E+03 -0.79315169462E+03  0.98253935102E+03  0.00000000000E+00 0.  1.
          2    1    6    6  503    0  0.11836991305E+02  0.48058056983E+00  0.14025729134E+02  0.18359368142E+02  0.00000000000E+00 0. -1.
         -2    1    6    6    0  503 -0.84930400505E+02 -0.96759982685E+02 -0.47414945279E+02  0.13720001536E+03  0.00000000000E+00 0.  1.
<mgrwt>
<rscale>  0 0.15188097E+04</rscale>
<asrwt>0</asrwt>
<pdfrwt beam="1">  1        2 0.44552500E+00 0.15188097E+04</pdfrwt>
<pdfrwt beam="2">  1       -2 0.15918239E+00 0.15188097E+04</pdfrwt>
<totfact> 0.48710203E-01</totfact>
</mgrwt>
</event>
<event>
12    1  0.3147868E-008  0.1353328E+04  0.7818608E-02  0.8988312E-01
          1   -1    0    0  501    0  0.00000000000E+00  0.00000000000E+00  0.16924103261E+04  0.16924103261E+04  0.00000000000E+00 0. -1.
         -1   -1    0    0    0  501 -0.00000000000E+00 -0.00000000000E+00 -0.12631803880E+04  0.12631803880E+04  0.00000000000E+00 0.  1.
         23    2    1    2    0    0 -0.30442328537E+03  0.12611872005E+04 -0.32335887647E+03  0.13401822795E+04  0.90889426592E+02 0.  0.
    5000000    2    1    2    0    0  0.30442328537E+03 -0.12611872005E+04  0.75258881458E+03  0.16154084345E+04  0.59990648852E+03 0.  0.
         23    2    4    4    0    0 -0.15608156332E+03 -0.35680618148E+03  0.30269300711E+03  0.50136705042E+03  0.89854088093E+02 0.  0.
         23    2    4    4    0    0  0.46050484869E+03 -0.90438101905E+03  0.44989580747E+03  0.11140413841E+04  0.93339298088E+02 0.  0.
          5    1    3    3  502    0 -0.68504513509E+02  0.15825605183E+03 -0.35236011703E+02  0.17607246472E+03  0.47000000000E+01 0. -1.
         -5    1    3    3    0  502 -0.23591877186E+03  0.11029311487E+04 -0.28812286477E+03  0.11641098148E+04  0.47000000000E+01 0.  1.
         11    1    5    5    0    0 -0.13526692593E+03 -0.32488640814E+03  0.30122347949E+03  0.46323201966E+03  0.00000000000E+00 0.  1.
        -11    1    5    5    0    0 -0.20814637389E+02 -0.31919773337E+02  0.14695276191E+01  0.38135030758E+02  0.00000000000E+00 0. -1.
          4    1    6    6  503    0  0.13750774043E+03 -0.21969572697E+03  0.78551142481E+02  0.27082258605E+03  0.00000000000E+00 0. -1.
         -4    1    6    6    0  503  0.32299710826E+03 -0.68468529208E+03  0.37134466499E+03  0.84321879803E+03  0.00000000000E+00 0.  1.
<mgrwt>
<rscale>  0 0.13533285E+04</rscale>
<asrwt>0</asrwt>
<pdfrwt beam="1">  1        1 0.26037082E+00 0.13533285E+04</pdfrwt>
<pdfrwt beam="2">  1       -1 0.19433544E+00 0.13533285E+04</pdfrwt>
<totfact> 0.76461498E-01</totfact>
</mgrwt>
</event>
<event>
12    1  0.3147868E-008  0.7029581E+03  0.7818608E-02  0.9712187E-01
          2   -1    0    0  501    0  0.00000000000E+00  0.00000000000E+00  0.64514379791E+03  0.64514379791E+03  0.00000000000E+00 0. -1.
         -2   -1    0    0    0  501 -0.00000000000E+00 -0.00000000000E+00 -0.92227295736E+03  0.92227295736E+03  0.00000000000E+00 0.  1.
         23    2    1    2    0    0  0.23009894395E+03  0.56931843760E+03 -0.33779889610E+03  0.70677038133E+03  0.91363397043E+02 0.  0.
    5000000    2    1    2    0    0 -0.23009894395E+03 -0.56931843760E+03  0.60669736655E+02  0.86064637395E+03  0.59996862972E+03 0.  0.
         23    2    4    4    0    0 -0.31034766874E+03 -0.58530494341E+03 -0.77943859789E+02  0.67319268973E+03  0.90639946801E+02 0.  0.
         23    2    4    4    0    0  0.80248724792E+02  0.15986505811E+02  0.13861359644E+03  0.18745368422E+03  0.96071475521E+02 0.  0.
          5    1    3    3  502    0  0.55192611398E+02  0.25387219612E+03 -0.15139363591E+03  0.30073150701E+03  0.47000000000E+01 0. -1.
         -5    1    3    3    0  502  0.17490633255E+03  0.31544624148E+03 -0.18640526019E+03  0.40603887432E+03  0.47000000000E+01 0.  1.
         11    1    5    5    0    0 -0.64577621558E+02 -0.19388230714E+03  0.75601117348E+00  0.20435554747E+03  0.00000000000E+00 0.  1.
        -11    1    5    5    0    0 -0.24577004718E+03 -0.39142263627E+03 -0.78699870963E+02  0.46883714226E+03  0.00000000000E+00 0. -1.
          3    1    6    6  503    0  0.57460894251E+02  0.51136293961E+02  0.57068966707E+02  0.95778608725E+02  0.00000000000E+00 0. -1.
         -3    1    6    6    0  503  0.22787830541E+02 -0.35149788149E+02  0.81544629737E+02  0.91675075493E+02  0.00000000000E+00 0.  1.
<mgrwt>
<rscale>  0 0.70295814E+03</rscale>
<asrwt>0</asrwt>
<pdfrwt beam="1">  1        2 0.99252891E-01 0.70295814E+03</pdfrwt>
<pdfrwt beam="2">  1       -2 0.14188815E+00 0.70295814E+03</pdfrwt>
<totfact> 0.16039893E+01</totfact>
</mgrwt>
</event>
<event>
12    1  0.3147868E-008  0.7263789E+03  0.7818608E-02  0.9673155E-01
          1   -1    0    0  501    0  0.00000000000E+00  0.00000000000E+00  0.76521592382E+03  0.76521592382E+03  0.00000000000E+00 0. -1.
         -1   -1    0    0    0  501 -0.00000000000E+00 -0.00000000000E+00 -0.89638114508E+03  0.89638114508E+03  0.00000000000E+00 0.  1.
         23    2    1    2    0    0  0.55223261517E+03 -0.26119086695E+03  0.31733499268E+03  0.69467708328E+03  0.93237450701E+02 0.  0.
    5000000    2    1    2    0    0 -0.55223261517E+03  0.26119086695E+03 -0.44850021394E+03  0.96691998562E+03  0.60050003036E+03 0.  0.
         23    2    4    4    0    0 -0.33786128665E+03  0.43127885134E+03 -0.36148845940E+03  0.66260704596E+03  0.90677971146E+02 0.  0.
         23    2    4    4    0    0 -0.21437132852E+03 -0.17008798439E+03 -0.87011754537E+02  0.30431293966E+03  0.10074885056E+03 0.  0.
          5    1    3    3  502    0  0.44199418226E+03 -0.21292570483E+03  0.21122438484E+03  0.53416668155E+03  0.47000000000E+01 0. -1.
         -5    1    3    3    0  502  0.11023843291E+03 -0.48265162121E+02  0.10611060784E+03  0.16051040173E+03  0.47000000000E+01 0.  1.
         13    1    5    5    0    0 -0.81766713734E+01  0.45930619169E+02 -0.45003094288E+02  0.64820970585E+02  0.00000000000E+00 0. -1.
        -13    1    5    5    0    0 -0.32968461527E+03  0.38534823218E+03 -0.31648536511E+03  0.59778607538E+03  0.00000000000E+00 0.  1.
          3    1    6    6  503    0 -0.74061464142E+00 -0.35302461000E+02 -0.27615514072E+02  0.44826653680E+02  0.00000000000E+00 0. -1.
         -3    1    6    6    0  503 -0.21363071388E+03 -0.13478552339E+03 -0.59396240465E+02  0.25948628598E+03  0.00000000000E+00 0.  1.
<mgrwt>
<rscale>  0 0.72637892E+03</rscale>
<asrwt>0</asrwt>
<pdfrwt beam="1">  1        1 0.11772553E+00 0.72637892E+03</pdfrwt>
<pdfrwt beam="2">  1       -1 0.13790479E+00 0.72637892E+03</pdfrwt>
<totfact> 0.10696849E+01</totfact>
</mgrwt>
</event>
<event>
12    1  0.3147868E-008  0.6497911E+03  0.7818608E-02  0.9807171E-01
          2   -1    0    0  501    0  0.00000000000E+00  0.00000000000E+00  0.48955689725E+03  0.48955689725E+03  0.00000000000E+00 0. -1.
         -2   -1    0    0    0  501 -0.00000000000E+00 -0.00000000000E+00 -0.11024695010E+04  0.11024695010E+04  0.00000000000E+00 0.  1.
         23    2    1    2    0    0  0.10147506577E+03 -0.54277763672E+03  0.19532968903E+02  0.55997646301E+03  0.91034885347E+02 0.  0.
    5000000    2    1    2    0    0 -0.10147506577E+03  0.54277763672E+03 -0.63244557265E+03  0.10320499352E+04  0.60019573022E+03 0.  0.
         23    2    4    4    0    0 -0.18897106990E+03  0.59077701427E+03 -0.64762897659E+03  0.90138763392E+03  0.91371929121E+02 0.  0.
         23    2    4    4    0    0  0.87496004135E+02 -0.47999377544E+02  0.15183403931E+02  0.13066230132E+03  0.82961498584E+02 0.  0.
          5    1    3    3  502    0 -0.25673205978E+01 -0.21573581030E+03  0.20256629906E+02  0.21675089858E+03  0.47000000000E+01 0. -1.
         -5    1    3    3    0  502  0.10404238637E+03 -0.32704182642E+03 -0.72366100244E+00  0.34322556442E+03  0.47000000000E+01 0.  1.
         13    1    5    5    0    0 -0.19193608873E+02  0.18398566365E+03 -0.16675671965E+03  0.24905204797E+03  0.00000000000E+00 0.  1.
        -13    1    5    5    0    0 -0.16977746103E+03  0.40679135062E+03 -0.48087225693E+03  0.65233558595E+03  0.00000000000E+00 0. -1.
          2    1    6    6  503    0  0.17813986647E+01 -0.26291096611E+02  0.31161154859E+02  0.40809468440E+02  0.00000000000E+00 0. -1.
         -2    1    6    6    0  503  0.85714605471E+02 -0.21708280933E+02 -0.15977750928E+02  0.89852832881E+02  0.00000000000E+00 0.  1.
<mgrwt>
<rscale>  0 0.64979110E+03</rscale>
<asrwt>0</asrwt>
<pdfrwt beam="1">  1        2 0.75316446E-01 0.64979110E+03</pdfrwt>
<pdfrwt beam="2">  1       -2 0.16961069E+00 0.64979110E+03</pdfrwt>
<totfact> 0.13887326E+01</totfact>
</mgrwt>
</event>
<event>
12    1  0.3147868E-008  0.4385067E+03  0.7818608E-02  0.1031206E+00
          1   -1    0    0  501    0  0.00000000000E+00  0.00000000000E+00  0.14281489249E+04  0.14281489249E+04  0.00000000000E+00 0.  1.
         -1   -1    0    0    0  501 -0.00000000000E+00 -0.00000000000E+00 -0.16795146585E+03  0.16795146585E+03  0.00000000000E+00 0. -1.
         23    2    1    2    0    0 -0.26811061012E+03 -0.12521549129E+03  0.42468801201E+03  0.52581089201E+03  0.92493070526E+02 0.  0.
    5000000    2    1    2    0    0  0.26811061012E+03  0.12521549129E+03  0.83550944700E+03  0.10702894987E+04  0.59990112224E+03 0.  0.
         23    2    4    4    0    0 -0.50374352588E+02 -0.13235373672E+03  0.39632751838E+02  0.17051497036E+03  0.86310561793E+02 0.  0.
         23    2    4    4    0    0  0.31848496271E+03  0.25756922801E+03  0.79587669516E+03  0.89977452833E+03  0.91651018752E+02 0.  0.
          5    1    3    3  502    0 -0.82860154110E+02 -0.22205222364E+02  0.62903024830E+02  0.10647890670E+03  0.47000000000E+01 0. -1.
         -5    1    3    3    0  502 -0.18525045601E+03 -0.10301026893E+03  0.36178498718E+03  0.41933198531E+03  0.47000000000E+01 0.  1.
         11    1    5    5    0    0 -0.64848308699E+02 -0.51609206773E+02  0.28958537899E+02  0.87791857721E+02  0.00000000000E+00 0.  1.
        -11    1    5    5    0    0  0.14473956111E+02 -0.80744529946E+02  0.10674213939E+02  0.82723112640E+02  0.00000000000E+00 0. -1.
          1    1    6    6  503    0  0.21519300058E+03  0.13563676048E+03  0.41532486219E+03  0.48703192857E+03  0.00000000000E+00 0. -1.
         -1    1    6    6    0  503  0.10329196213E+03  0.12193246753E+03  0.38055183297E+03  0.41274259976E+03  0.00000000000E+00 0.  1.
<mgrwt>
<rscale>  0 0.43850674E+03</rscale>
<asrwt>0</asrwt>
<pdfrwt beam="1">  1        1 0.21971521E+00 0.43850674E+03</pdfrwt>
<pdfrwt beam="2">  1       -1 0.25838688E-01 0.43850674E+03</pdfrwt>
<totfact> 0.10294117E+02</totfact>
</mgrwt>
</event>
<event>
12    1  0.3147868E-008  0.4724865E+03  0.7818608E-02  0.1021221E+00
          1   -1    0    0  501    0  0.00000000000E+00  0.00000000000E+00  0.26500435010E+04  0.26500435010E+04  0.00000000000E+00 0. -1.
         -1   -1    0    0    0  501 -0.00000000000E+00 -0.00000000000E+00 -0.18686832444E+03  0.18686832444E+03  0.00000000000E+00 0.  1.
         23    2    1    2    0    0  0.33117535645E+03  0.18414553219E+02  0.74785229897E+02  0.35209192736E+03  0.91431297793E+02 0.  0.
    5000000    2    1    2    0    0 -0.33117535645E+03 -0.18414553219E+02  0.23883899466E+04  0.24848198980E+04  0.59992264174E+03 0.  0.
         23    2    4    4    0    0  0.11478106278E+03 -0.10539233084E+03  0.34970429010E+03  0.39406281059E+03  0.93328304380E+02 0.  0.
         23    2    4    4    0    0 -0.44595641923E+03  0.86977777620E+02  0.20386856565E+04  0.20907570874E+04  0.92648426703E+02 0.  0.
          5    1    3    3  502    0  0.17085502009E+03  0.22882966622E+02  0.83104478381E+02  0.19142495234E+03  0.47000000000E+01 0. -1.
         -5    1    3    3    0  502  0.16032033636E+03 -0.44684134033E+01 -0.83192484840E+01  0.16066697503E+03  0.47000000000E+01 0.  1.
         11    1    5    5    0    0  0.63644721229E+02 -0.44017042217E+02  0.74196183981E+02  0.10720645626E+03  0.00000000000E+00 0.  1.
        -11    1    5    5    0    0  0.51136341555E+02 -0.61375288623E+02  0.27550810612E+03  0.28685635433E+03  0.00000000000E+00 0. -1.
          4    1    6    6  503    0 -0.52080725750E+02  0.16838900746E+02  0.41082651778E+03  0.41445672667E+03  0.00000000000E+00 0. -1.
         -4    1    6    6    0  503 -0.39387569348E+03  0.70138876874E+02  0.16278591387E+04  0.16763003608E+04  0.00000000000E+00 0.  1.
<mgrwt>
<rscale>  0 0.47248645E+03</rscale>
<asrwt>0</asrwt>
<pdfrwt beam="1">  1        1 0.40769897E+00 0.47248645E+03</pdfrwt>
<pdfrwt beam="2">  1       -1 0.28748975E-01 0.47248645E+03</pdfrwt>
<totfact> 0.13043809E+01</totfact>
</mgrwt>
</event>
<event>
12    1  0.3147868E-008  0.1262499E+04  0.7818608E-02  0.9059844E-01
         -1   -1    0    0    0  501 -0.00000000000E+00  0.00000000000E+00  0.60635215783E+03  0.60635215783E+03  0.00000000000E+00 0.  1.
          1   -1    0    0  501    0  0.00000000000E+00 -0.00000000000E+00 -0.28383272531E+04  0.28383272531E+04  0.00000000000E+00 0. -1.
         23    2    1    2    0    0  0.10410707696E+04 -0.59774664468E+03 -0.14741278011E+04  0.19033382108E+04  0.92272272874E+02 0.  0.
    5000000    2    1    2    0    0 -0.10410707696E+04  0.59774664468E+03 -0.75784729424E+03  0.15413412002E+04  0.60022560375E+03 0.  0.
         23    2    4    4    0    0 -0.49211926726E+03  0.59461321510E+03 -0.52829651641E+03  0.93960304502E+03  0.89500973079E+02 0.  0.
         23    2    4    4    0    0 -0.54895150232E+03  0.31334295769E+01 -0.22955077783E+03  0.60173815513E+03  0.89653095068E+02 0.  0.
          5    1    3    3  502    0  0.47384742588E+03 -0.25718843954E+03 -0.59306824553E+03  0.80151688086E+03  0.47000000000E+01 0. -1.
         -5    1    3    3    0  502  0.56722334371E+03 -0.34055820513E+03 -0.88105955554E+03  0.11018213299E+04  0.47000000000E+01 0.  1.
         11    1    5    5    0    0 -0.45870933381E+03  0.53367609159E+03 -0.50551308222E+03  0.86646863761E+03  0.00000000000E+00 0. -1.
        -11    1    5    5    0    0 -0.33409933452E+02  0.60937123505E+02 -0.22783434194E+02  0.73134407415E+02  0.00000000000E+00 0.  1.
          4    1    6    6  503    0 -0.46060546602E+03 -0.14806339325E+02 -0.22126474471E+03  0.51120906708E+03  0.00000000000E+00 0. -1.
         -4    1    6    6    0  503 -0.88346036307E+02  0.17939768901E+02 -0.82860331177E+01  0.90529088056E+02  0.00000000000E+00 0.  1.
<mgrwt>
<rscale>  0 0.12624986E+04</rscale>
<asrwt>0</asrwt>
<pdfrwt beam="1">  1        1 0.43666574E+00 0.12624986E+04</pdfrwt>
<pdfrwt beam="2">  1       -1 0.93284946E-01 0.12624986E+04</pdfrwt>
<totfact> 0.86077911E-01</totfact>
</mgrwt>
</event>
<event>
12    1  0.3147868E-008  0.3781303E+03  0.7818608E-02  0.1051627E+00
          2   -1    0    0  501    0  0.00000000000E+00  0.00000000000E+00  0.65447353961E+03  0.65447353961E+03  0.00000000000E+00 0.  1.
         -2   -1    0    0    0  501 -0.00000000000E+00 -0.00000000000E+00 -0.31071182273E+03  0.31071182273E+03  0.00000000000E+00 0. -1.
         23    2    1    2    0    0 -0.20066944676E+03  0.76199116110E+02  0.20946271730E+03  0.31381364639E+03  0.92357146790E+02 0.  0.
    5000000    2    1    2    0    0  0.20066944676E+03 -0.76199116110E+02  0.13429899958E+03  0.65137171596E+03  0.60014528150E+03 0.  0.
         23    2    4    4    0    0 -0.15634773684E+03  0.41605259883E+02  0.18318284274E+03  0.26104360678E+03  0.91718036950E+02 0.  0.
         23    2    4    4    0    0  0.35701718360E+03 -0.11780437599E+03 -0.48883843162E+02  0.39032810917E+03  0.92883057121E+02 0.  0.
          5    1    3    3  502    0 -0.18712609057E+03  0.75784096754E+02  0.14714324488E+03  0.24986521888E+03  0.47000000000E+01 0. -1.
         -5    1    3    3    0  502 -0.13543356186E+02  0.41501935597E+00  0.62319472420E+02  0.63948427507E+02  0.47000000000E+01 0.  1.
         11    1    5    5    0    0 -0.63509928785E+02  0.37277017874E+01  0.15196864792E+02  0.65409108803E+02  0.00000000000E+00 0.  1.
        -11    1    5    5    0    0 -0.92837808056E+02  0.37877558096E+02  0.16798597795E+03  0.19563449798E+03  0.00000000000E+00 0. -1.
          3    1    6    6  503    0  0.28324251407E+03 -0.97759958922E+02 -0.97663373063E-01  0.29963868389E+03  0.00000000000E+00 0. -1.
         -3    1    6    6    0  503  0.73774669531E+02 -0.20044417072E+02 -0.48786179789E+02  0.90689425286E+02  0.00000000000E+00 0.  1.
<mgrwt>
<rscale>  0 0.37813029E+03</rscale>
<asrwt>0</asrwt>
<pdfrwt beam="1">  1        2 0.10068824E+00 0.37813029E+03</pdfrwt>
<pdfrwt beam="2">  1       -2 0.47801819E-01 0.37813029E+03</pdfrwt>
<totfact> 0.19112025E+02</totfact>
</mgrwt>
</event>
<event>
12    1  0.3147868E-008  0.1001917E+04  0.7818608E-02  0.9306445E-01
         -1   -1    0    0    0  501 -0.00000000000E+00  0.00000000000E+00  0.76791885957E+03  0.76791885957E+03  0.00000000000E+00 0.  1.
          1   -1    0    0  501    0  0.00000000000E+00 -0.00000000000E+00 -0.15524229081E+04  0.15524229081E+04  0.00000000000E+00 0. -1.
         23    2    1    2    0    0 -0.47062514380E+02  0.99606873094E+03 -0.21248953103E+03  0.10236191783E+04  0.90975955259E+02 0.  0.
    5000000    2    1    2    0    0  0.47062514380E+02 -0.99606873094E+03 -0.57201451748E+03  0.12967225893E+04  0.59993422008E+03 0.  0.
         23    2    4    4    0    0 -0.78973042982E+01 -0.27773072991E+03 -0.48377329891E+03  0.56501917278E+03  0.89517233619E+02 0.  0.
         23    2    4    4    0    0  0.54959818678E+02 -0.71833800103E+03 -0.88241218564E+02  0.73170341653E+03  0.92592179615E+02 0.  0.
          5    1    3    3  502    0 -0.45255994513E+02  0.29366284697E+03 -0.90824497687E+02  0.31073646730E+03  0.47000000000E+01 0. -1.
         -5    1    3    3    0  502 -0.18065198667E+01  0.70240588397E+03 -0.12166503334E+03  0.71288271103E+03  0.47000000000E+01 0.  1.
         13    1    5    5    0    0 -0.82447738202E+01 -0.55013828072E+02 -0.40073774211E+02  0.68559499371E+02  0.00000000000E+00 0. -1.
        -13    1    5    5    0    0  0.34746952197E+00 -0.22271690184E+03 -0.44369952470E+03  0.49645967341E+03  0.00000000000E+00 0.  1.
          3    1    6    6  503    0 -0.19353902213E+02 -0.53016331276E+02 -0.13933480298E+02  0.58133009435E+02  0.00000000000E+00 0. -1.
         -3    1    6    6    0  503  0.74313720891E+02 -0.66532166975E+03 -0.74307738265E+02  0.67357040710E+03  0.00000000000E+00 0.  1.
<mgrwt>
<rscale>  0 0.10019168E+04</rscale>
<asrwt>0</asrwt>
<pdfrwt beam="1">  1        1 0.23883429E+00 0.10019168E+04</pdfrwt>
<pdfrwt beam="2">  1       -1 0.11814136E+00 0.10019168E+04</pdfrwt>
<totfact> 0.38921867E+00</totfact>
</mgrwt>
</event>
<event>
12    1  0.3147868E-008  0.5108382E+03  0.7818608E-02  0.1010988E+00
          1   -1    0    0  501    0  0.00000000000E+00  0.00000000000E+00  0.20257271624E+04  0.20257271624E+04  0.00000000000E+00 0. -1.
         -1   -1    0    0    0  501 -0.00000000000E+00 -0.00000000000E+00 -0.17848154945E+03  0.17848154945E+03  0.00000000000E+00 0.  1.
         23    2    1    2    0    0  0.29190293259E+03  0.33650481398E+03  0.68053902754E+03  0.81871678222E+03  0.93386238780E+02 0.  0.
    5000000    2    1    2    0    0 -0.29190293259E+03 -0.33650481398E+03  0.11667065855E+04  0.13854919297E+04  0.59995068027E+03 0.  0.
         23    2    4    4    0    0 -0.93321605031E+01  0.32095242715E+02  0.74527500291E+03  0.75166643295E+03  0.91926071601E+02 0.  0.
         23    2    4    4    0    0 -0.28257077209E+03 -0.36860005669E+03  0.42143158255E+03  0.63382549673E+03  0.91749324225E+02 0.  0.
          5    1    3    3  502    0  0.23698466410E+03  0.20812553615E+03  0.46995001431E+03  0.56599741675E+03  0.47000000000E+01 0. -1.
         -5    1    3    3    0  502  0.54918268488E+02  0.12837927782E+03  0.21058901323E+03  0.25271936546E+03  0.47000000000E+01 0.  1.
         11    1    5    5    0    0  0.20145819230E+02  0.55871783063E+02  0.49296851251E+03  0.49653344751E+03  0.00000000000E+00 0.  1.
        -11    1    5    5    0    0 -0.29477979733E+02 -0.23776540347E+02  0.25230649040E+03  0.25513298544E+03  0.00000000000E+00 0. -1.
          2    1    6    6  503    0 -0.12814642565E+03 -0.11412307856E+03  0.19550359722E+03  0.26012927554E+03  0.00000000000E+00 0. -1.
         -2    1    6    6    0  503 -0.15442434644E+03 -0.25447697813E+03  0.22592798533E+03  0.37369622119E+03  0.00000000000E+00 0.  1.
<mgrwt>
<rscale>  0 0.51083819E+03</rscale>
<asrwt>0</asrwt>
<pdfrwt beam="1">  1        1 0.31165032E+00 0.51083819E+03</pdfrwt>
<pdfrwt beam="2">  1       -1 0.27458701E-01 0.51083819E+03</pdfrwt>
<totfact> 0.36656359E+01</totfact>
</mgrwt>
</event>
<event>
12    1  0.3147868E-008  0.5418732E+03  0.7818608E-02  0.1003393E+00
         -2   -1    0    0    0  501 -0.00000000000E+00  0.00000000000E+00  0.15416530888E+04  0.15416530888E+04  0.00000000000E+00 0.  1.
          2   -1    0    0  501    0  0.00000000000E+00 -0.00000000000E+00 -0.92542314314E+03  0.92542314314E+03  0.00000000000E+00 0. -1.
         23    2    1    2    0    0  0.38385727330E+03  0.27957501420E+01 -0.79434463576E+03  0.88693541614E+03  0.91196543570E+02 0.  0.
    5000000    2    1    2    0    0 -0.38385727330E+03 -0.27957501420E+01  0.14105745815E+04  0.15801408158E+04  0.59980840733E+03 0.  0.
         23    2    4    4    0    0 -0.50417949435E+03  0.10929969561E+03  0.98918715396E+03  0.11192267907E+04  0.89632569664E+02 0.  0.
         23    2    4    4    0    0  0.12032222105E+03 -0.11209544575E+03  0.42138742751E+03  0.46091402511E+03  0.88496037429E+02 0.  0.
          5    1    3    3  502    0  0.10906277247E+03 -0.19998943774E+02 -0.15487121840E+03  0.19053039228E+03  0.47000000000E+01 0. -1.
         -5    1    3    3    0  502  0.27479450082E+03  0.22794693917E+02 -0.63947341736E+03  0.69640502386E+03  0.47000000000E+01 0.  1.
         11    1    5    5    0    0 -0.26011077650E+03  0.10981526323E+02  0.47858485970E+03  0.54481343404E+03  0.00000000000E+00 0. -1.
        -11    1    5    5    0    0 -0.24406871785E+03  0.98318169288E+02  0.51060229426E+03  0.57441335670E+03  0.00000000000E+00 0.  1.
          3    1    6    6  503    0  0.23506355242E+02 -0.58071448708E+02  0.24245057020E+03  0.25041389914E+03  0.00000000000E+00 0. -1.
         -3    1    6    6    0  503  0.96815865809E+02 -0.54023997045E+02  0.17893685731E+03  0.21050012597E+03  0.00000000000E+00 0.  1.
<mgrwt>
<rscale>  0 0.54187320E+03</rscale>
<asrwt>0</asrwt>
<pdfrwt beam="1">  1        2 0.14237279E+00 0.54187320E+03</pdfrwt>
<pdfrwt beam="2">  1       -2 0.23717740E+00 0.54187320E+03</pdfrwt>
<totfact> 0.23297117E+00</totfact>
</mgrwt>
</event>
<event>
12    1  0.3147868E-008  0.9096953E+03  0.7818608E-02  0.9413542E-01
         -2   -1    0    0    0  501 -0.00000000000E+00  0.00000000000E+00  0.91746126777E+03  0.91746126777E+03  0.00000000000E+00 0.  1.
          2   -1    0    0  501    0  0.00000000000E+00 -0.00000000000E+00 -0.93458318603E+03  0.93458318603E+03  0.00000000000E+00 0. -1.
         23    2    1    2    0    0 -0.57363946714E+03 -0.58657641043E+03 -0.10445816259E+03  0.83223777184E+03  0.92596315347E+02 0.  0.
    5000000    2    1    2    0    0  0.57363946714E+03  0.58657641043E+03  0.87336244324E+02  0.10198066820E+04  0.59936960673E+03 0.  0.
         23    2    4    4    0    0  0.91016661064E+02  0.49461445576E+03  0.97898135660E+02  0.52048851976E+03  0.91633846355E+02 0.  0.
         23    2    4    4    0    0  0.48262280607E+03  0.91961954670E+02 -0.10561891335E+02  0.49931816220E+03  0.88460722973E+02 0.  0.
          5    1    3    3  502    0 -0.65119965364E+02 -0.57063411790E+02 -0.39253830207E+02  0.95182960871E+02  0.47000000000E+01 0. -1.
         -5    1    3    3    0  502 -0.50851950177E+03 -0.52951299864E+03 -0.65204332380E+02  0.73705481097E+03  0.47000000000E+01 0.  1.
         13    1    5    5    0    0  0.13631293219E+01  0.92144537603E+02 -0.14068803181E+02  0.93222342572E+02  0.00000000000E+00 0.  1.
        -13    1    5    5    0    0  0.89653531742E+02  0.40246991816E+03  0.11196693884E+03  0.42726617719E+03  0.00000000000E+00 0. -1.
          2    1    6    6  503    0  0.39637955199E+03  0.95453351204E+02 -0.36098919370E+02  0.40930578236E+03  0.00000000000E+00 0. -1.
         -2    1    6    6    0  503  0.86243254081E+02 -0.34913965344E+01  0.25537028034E+02  0.90012379843E+02  0.00000000000E+00 0.  1.
<mgrwt>
<rscale>  0 0.90969531E+03</rscale>
<asrwt>0</asrwt>
<pdfrwt beam="1">  1        2 0.14378203E+00 0.90969531E+03</pdfrwt>
<pdfrwt beam="2">  1       -2 0.14114789E+00 0.90969531E+03</pdfrwt>
<totfact> 0.97724452E+00</totfact>
</mgrwt>
</event>
<event>
12    1  0.3147868E-008  0.5998118E+03  0.7818608E-02  0.9905797E-01
         -2   -1    0    0    0  501 -0.00000000000E+00  0.00000000000E+00  0.32489757976E+03  0.32489757976E+03  0.00000000000E+00 0.  1.
          2   -1    0    0  501    0  0.00000000000E+00 -0.00000000000E+00 -0.13532243268E+04  0.13532243268E+04  0.00000000000E+00 0. -1.
         23    2    1    2    0    0 -0.18902635025E+03  0.46685288086E+03 -0.23638324896E+03  0.56422962764E+03  0.93784107729E+02 0.  0.
    5000000    2    1    2    0    0  0.18902635025E+03 -0.46685288086E+03 -0.79194349812E+03  0.11138922790E+04  0.59991577032E+03 0.  0.
         23    2    4    4    0    0 -0.64302575419E+02 -0.42201748997E+03 -0.24170629046E+03  0.50038276301E+03  0.98627560140E+02 0.  0.
         23    2    4    4    0    0  0.25332892567E+03 -0.44835390890E+02 -0.55023720765E+03  0.61350951596E+03  0.86297071975E+02 0.  0.
          5    1    3    3  502    0 -0.45582382697E+02  0.71475601910E+02 -0.76382640266E+02  0.11420557348E+03  0.47000000000E+01 0. -1.
         -5    1    3    3    0  502 -0.14344396755E+03  0.39537727895E+03 -0.16000060869E+03  0.45002405415E+03  0.47000000000E+01 0.  1.
         11    1    5    5    0    0  0.21665207538E+02 -0.14380051467E+03 -0.61185120927E+02  0.15777068251E+03  0.00000000000E+00 0.  1.
        -11    1    5    5    0    0 -0.85967782957E+02 -0.27821697530E+03 -0.18052116954E+03  0.34261208050E+03  0.00000000000E+00 0. -1.
          1    1    6    6  503    0  0.13468491003E+03 -0.29157869528E+02 -0.38917355603E+03  0.41285138132E+03  0.00000000000E+00 0. -1.
         -1    1    6    6    0  503  0.11864401564E+03 -0.15677521362E+02 -0.16106365162E+03  0.20065813464E+03  0.00000000000E+00 0.  1.
<mgrwt>
<rscale>  0 0.59981180E+03</rscale>
<asrwt>0</asrwt>
<pdfrwt beam="1">  1        2 0.20818836E+00 0.59981180E+03</pdfrwt>
<pdfrwt beam="2">  1       -2 0.49984243E-01 0.59981180E+03</pdfrwt>
<totfact> 0.60375316E+01</totfact>
</mgrwt>
</event>
<event>
12    1  0.3147868E-008  0.7918949E+03  0.7818608E-02  0.9571824E-01
          1   -1    0    0  501    0  0.00000000000E+00  0.00000000000E+00  0.11851458570E+04  0.11851458570E+04  0.00000000000E+00 0. -1.
         -1   -1    0    0    0  501 -0.00000000000E+00 -0.00000000000E+00 -0.78556122979E+03  0.78556122979E+03  0.00000000000E+00 0.  1.
         23    2    1    2    0    0 -0.11300348549E+03  0.69793824083E+03 -0.33520224289E+03  0.78762302796E+03  0.90010637077E+02 0.  0.
    5000000    2    1    2    0    0  0.11300348549E+03 -0.69793824083E+03  0.73478687008E+03  0.11830840588E+04  0.59990713450E+03 0.  0.
         23    2    4    4    0    0  0.28890884990E+03 -0.57518051227E+03  0.68345957090E+03  0.94329021853E+03  0.91534179804E+02 0.  0.
         23    2    4    4    0    0 -0.17590536441E+03 -0.12275772856E+03  0.51327299180E+02  0.23979384028E+03  0.94098018299E+02 0.  0.
          5    1    3    3  502    0 -0.98252212608E+02  0.33266555374E+03 -0.17320177795E+03  0.38773807372E+03  0.47000000000E+01 0. -1.
         -5    1    3    3    0  502 -0.14751272885E+02  0.36527268709E+03 -0.16200046494E+03  0.39988495424E+03  0.47000000000E+01 0.  1.
         13    1    5    5    0    0  0.22399626192E+03 -0.51505586915E+03  0.58944720716E+03  0.81418970991E+03  0.00000000000E+00 0. -1.
        -13    1    5    5    0    0  0.64912587984E+02 -0.60124643117E+02  0.94012363738E+02  0.12910050861E+03  0.00000000000E+00 0.  1.
          2    1    6    6  503    0 -0.14443216995E+03 -0.12295015520E+03  0.12889910158E+02  0.19011455011E+03  0.00000000000E+00 0.  1.
         -2    1    6    6    0  503 -0.31473194457E+02  0.19242663538E+00  0.38437389022E+02  0.49679290173E+02  0.00000000000E+00 0. -1.
<mgrwt>
<rscale>  0 0.79189491E+03</rscale>
<asrwt>0</asrwt>
<pdfrwt beam="1">  1        1 0.18233013E+00 0.79189491E+03</pdfrwt>
<pdfrwt beam="2">  1       -1 0.12085557E+00 0.79189491E+03</pdfrwt>
<totfact> 0.68658281E+00</totfact>
</mgrwt>
</event>
<event>
12    1  0.3953354E-008  0.1555265E+04  0.7818608E-02  0.8848512E-01
          1   -1    0    0  501    0  0.00000000000E+00  0.00000000000E+00  0.31561072457E+04  0.31561072457E+04  0.00000000000E+00 0. -1.
         -1   -1    0    0    0  501 -0.00000000000E+00 -0.00000000000E+00 -0.87945162005E+03  0.87945162005E+03  0.00000000000E+00 0.  1.
         23    2    1    2    0    0  0.10779029739E+03  0.14988808688E+04  0.18040650669E+04  0.23498258982E+04  0.93639623886E+02 0.  0.
    5000000    2    1    2    0    0 -0.10779029739E+03 -0.14988808688E+04  0.47259055868E+03  0.16857329675E+04  0.60007599062E+03 0.  0.
         23    2    4    4    0    0 -0.30959667918E+03 -0.51733506410E+03  0.13303093403E+03  0.62381253376E+03  0.89214211643E+02 0.  0.
         23    2    4    4    0    0  0.20180638179E+03 -0.98154580469E+03  0.33955962466E+03  0.10619204337E+04  0.90643733741E+02 0.  0.
          5    1    3    3  502    0  0.33848073958E+02  0.67192828289E+03  0.87655543653E+03  0.11049908745E+04  0.47000000000E+01 0. -1.
         -5    1    3    3    0  502  0.73942223433E+02  0.82695258590E+03  0.92750963039E+03  0.12448350237E+04  0.47000000000E+01 0.  1.
         13    1    5    5    0    0 -0.11405011491E+03 -0.14198738248E+03  0.71607850012E+01  0.18226113776E+03  0.00000000000E+00 0.  1.
        -13    1    5    5    0    0 -0.19554656427E+03 -0.37534768162E+03  0.12587014902E+03  0.44155139600E+03  0.00000000000E+00 0. -1.
          1    1    6    6  503    0  0.66715328941E+02 -0.30398298533E+03  0.61889252185E+02  0.31731194434E+03  0.00000000000E+00 0. -1.
         -1    1    6    6    0  503  0.13509105285E+03 -0.67756281936E+03  0.27767037247E+03  0.74460848940E+03  0.00000000000E+00 0.  1.
<mgrwt>
<rscale>  0 0.15552648E+04</rscale>
<asrwt>0</asrwt>
<pdfrwt beam="1">  1        1 0.48555496E+00 0.15552648E+04</pdfrwt>
<pdfrwt beam="2">  1       -1 0.13530025E+00 0.15552648E+04</pdfrwt>
<totfact> 0.19916330E-01</totfact>
</mgrwt>
</event>
<event>
12    1  0.3147868E-008  0.5627359E+03  0.7818608E-02  0.9985883E-01
         -2   -1    0    0    0  501 -0.00000000000E+00  0.00000000000E+00  0.75206758666E+03  0.75206758666E+03  0.00000000000E+00 0.  1.
          2   -1    0    0  501    0  0.00000000000E+00 -0.00000000000E+00 -0.47254789368E+03  0.47254789368E+03  0.00000000000E+00 0. -1.
         23    2    1    2    0    0 -0.42393255623E+03 -0.87654812036E+02  0.17826762648E+03  0.47700708546E+03  0.91401502324E+02 0.  0.
    5000000    2    1    2    0    0  0.42393255623E+03  0.87654812036E+02  0.10125206650E+03  0.74760839488E+03  0.60105253749E+03 0.  0.
         23    2    4    4    0    0  0.55266824516E+03  0.73639391218E+02  0.14194910394E+03  0.58266896562E+03  0.92133741080E+02 0.  0.
         23    2    4    4    0    0 -0.12873568893E+03  0.14015420817E+02 -0.40697037432E+02  0.16493942926E+03  0.93698755824E+02 0.  0.
          5    1    3    3  502    0 -0.33307053058E+03 -0.81220245585E+02  0.17684880536E+03  0.38578529857E+03  0.47000000000E+01 0.  1.
         -5    1    3    3    0  502 -0.90862025645E+02 -0.64345664505E+01  0.14188211114E+01  0.91221786889E+02  0.47000000000E+01 0. -1.
         11    1    5    5    0    0  0.17005733618E+03 -0.55430058688E+00  0.69080692200E+01  0.17019849076E+03  0.00000000000E+00 0. -1.
        -11    1    5    5    0    0  0.38261090898E+03  0.74193691805E+02  0.13504103472E+03  0.41247047486E+03  0.00000000000E+00 0.  1.
          2    1    6    6  503    0 -0.57898437356E+02  0.18058863947E+02 -0.65977211830E+02  0.89617766632E+02  0.00000000000E+00 0. -1.
         -2    1    6    6    0  503 -0.70837251576E+02 -0.40434431304E+01  0.25280174398E+02  0.75321662626E+02  0.00000000000E+00 0.  1.
<mgrwt>
<rscale>  0 0.56273587E+03</rscale>
<asrwt>0</asrwt>
<pdfrwt beam="1">  1        2 0.72699676E-01 0.56273587E+03</pdfrwt>
<pdfrwt beam="2">  1       -2 0.11570271E+00 0.56273587E+03</pdfrwt>
<totfact> 0.39238885E+01</totfact>
</mgrwt>
</event>
<event>
12    1  0.3922134E-008  0.1458862E+04  0.7818608E-02  0.8912279E-01
         -2   -1    0    0    0  501 -0.00000000000E+00  0.00000000000E+00  0.14812203643E+04  0.14812203643E+04  0.00000000000E+00 0.  1.
          2   -1    0    0  501    0  0.00000000000E+00 -0.00000000000E+00 -0.20993912308E+04  0.20993912308E+04  0.00000000000E+00 0. -1.
         23    2    1    2    0    0 -0.10806910118E+04 -0.95285797513E+03  0.63675158191E+03  0.15779602275E+04  0.93137096482E+02 0.  0.
    5000000    2    1    2    0    0  0.10806910118E+04  0.95285797513E+03 -0.12549224484E+04  0.20026513675E+04  0.59995896906E+03 0.  0.
         23    2    4    4    0    0  0.80046626935E+03  0.50148724455E+03 -0.10757426058E+04  0.14344547345E+04  0.90567801717E+02 0.  0.
         23    2    4    4    0    0  0.28022474245E+03  0.45137073058E+03 -0.17917984265E+03  0.56819663301E+03  0.92089929098E+02 0.  0.
          5    1    3    3  502    0 -0.66799826139E+03 -0.60634634659E+03  0.44520705379E+03  0.10060362717E+04  0.47000000000E+01 0. -1.
         -5    1    3    3    0  502 -0.41269275041E+03 -0.34651162854E+03  0.19154452812E+03  0.57192395579E+03  0.47000000000E+01 0.  1.
         11    1    5    5    0    0  0.33485541184E+03  0.21562901182E+03 -0.38711196915E+03  0.55540948338E+03  0.00000000000E+00 0.  1.
        -11    1    5    5    0    0  0.46561085752E+03  0.28585823273E+03 -0.68863063661E+03  0.87904525113E+03  0.00000000000E+00 0. -1.
          4    1    6    6  503    0  0.88548375797E+02  0.16824340024E+03 -0.20383524404E+02  0.19121230255E+03  0.00000000000E+00 0. -1.
         -4    1    6    6    0  503  0.19167636665E+03  0.28312733035E+03 -0.15879631824E+03  0.37698433045E+03  0.00000000000E+00 0.  1.
<mgrwt>
<rscale>  0 0.14588624E+04</rscale>
<asrwt>0</asrwt>
<pdfrwt beam="1">  1        2 0.32298326E+00 0.14588624E+04</pdfrwt>
<pdfrwt beam="2">  1       -2 0.22788006E+00 0.14588624E+04</pdfrwt>
<totfact> 0.48837444E-01</totfact>
</mgrwt>
</event>
<event>
12    1  0.3147868E-008  0.5864928E+03  0.7818608E-02  0.9933832E-01
          1   -1    0    0  501    0  0.00000000000E+00  0.00000000000E+00  0.10418755691E+04  0.10418755691E+04  0.00000000000E+00 0.  1.
         -1   -1    0    0    0  501 -0.00000000000E+00 -0.00000000000E+00 -0.42626782899E+03  0.42626782899E+03  0.00000000000E+00 0. -1.
         23    2    1    2    0    0  0.49425510628E+03  0.17822248360E+03  0.28580118041E+03  0.60508105114E+03  0.91593667780E+02 0.  0.
    5000000    2    1    2    0    0 -0.49425510628E+03 -0.17822248360E+03  0.32980655971E+03  0.86306234695E+03  0.60004406851E+03 0.  0.
         23    2    4    4    0    0  0.12327670153E+02  0.31485343082E+02 -0.11461846953E+03  0.15146035747E+03  0.93056692661E+02 0.  0.
         23    2    4    4    0    0 -0.50658277644E+03 -0.20970782669E+03  0.44442502924E+03  0.71160198948E+03  0.90886208322E+02 0.  0.
          5    1    3    3  502    0  0.23800053831E+03  0.11719590403E+03  0.18276518191E+03  0.32218680587E+03  0.47000000000E+01 0. -1.
         -5    1    3    3    0  502  0.25625456797E+03  0.61026579571E+02  0.10303599850E+03  0.28289424527E+03  0.47000000000E+01 0.  1.
         11    1    5    5    0    0  0.38419562020E+02  0.50517699621E+02 -0.93015466732E+02  0.11260540738E+03  0.00000000000E+00 0.  1.
        -11    1    5    5    0    0 -0.26091891867E+02 -0.19032356540E+02 -0.21603002794E+02  0.38854950088E+02  0.00000000000E+00 0. -1.
          3    1    6    6  503    0 -0.32736669401E+03 -0.12877079727E+03  0.22812580530E+03  0.41927586816E+03  0.00000000000E+00 0. -1.
         -3    1    6    6    0  503 -0.17921608243E+03 -0.80937029419E+02  0.21629922394E+03  0.29232612132E+03  0.00000000000E+00 0.  1.
<mgrwt>
<rscale>  0 0.58649283E+03</rscale>
<asrwt>0</asrwt>
<pdfrwt beam="1">  1        1 0.16028855E+00 0.58649283E+03</pdfrwt>
<pdfrwt beam="2">  1       -1 0.65579666E-01 0.58649283E+03</pdfrwt>
<totfact> 0.34664940E+01</totfact>
</mgrwt>
</event>
<event>
12    1  0.3147868E-008  0.4732847E+03  0.7818608E-02  0.1020997E+00
          1   -1    0    0  501    0  0.00000000000E+00  0.00000000000E+00  0.13302687919E+04  0.13302687919E+04  0.00000000000E+00 0. -1.
         -1   -1    0    0    0  501 -0.00000000000E+00 -0.00000000000E+00 -0.24105667454E+03  0.24105667454E+03  0.00000000000E+00 0.  1.
         23    2    1    2    0    0  0.20699684974E+03 -0.21384676855E+03  0.24476929496E+02  0.31353281232E+03  0.95527839384E+02 0.  0.
    5000000    2    1    2    0    0 -0.20699684974E+03  0.21384676855E+03  0.10647351878E+04  0.12577926541E+04  0.59983598111E+03 0.  0.
         23    2    4    4    0    0 -0.21122715306E+03 -0.15728693780E+03  0.54900946690E+03  0.61567015895E+03  0.91006916681E+02 0.  0.
         23    2    4    4    0    0  0.42303033139E+01  0.37113370635E+03  0.51572572092E+03  0.64212249513E+03  0.92683094836E+02 0.  0.
          5    1    3    3  502    0  0.59279523679E+02 -0.81512974020E+02  0.51565556925E+02  0.11331162130E+03  0.47000000000E+01 0. -1.
         -5    1    3    3    0  502  0.14771732607E+03 -0.13233379453E+03 -0.27088627429E+02  0.20022119102E+03  0.47000000000E+01 0.  1.
         13    1    5    5    0    0 -0.14090419056E+03 -0.13486503999E+03  0.31695749706E+03  0.37216209489E+03  0.00000000000E+00 0.  1.
        -13    1    5    5    0    0 -0.70322962497E+02 -0.22421897807E+02  0.23205196984E+03  0.24350806406E+03  0.00000000000E+00 0. -1.
          2    1    6    6  503    0  0.57927218589E+01 -0.13497417141E+01  0.26912323804E+02  0.27561759773E+02  0.00000000000E+00 0. -1.
         -2    1    6    6    0  503 -0.15624185450E+01  0.37248344807E+03  0.48881339712E+03  0.61456073535E+03  0.00000000000E+00 0.  1.
<mgrwt>
<rscale>  0 0.47328473E+03</rscale>
<asrwt>0</asrwt>
<pdfrwt beam="1">  1        1 0.20465673E+00 0.47328473E+03</pdfrwt>
<pdfrwt beam="2">  1       -1 0.37085643E-01 0.47328473E+03</pdfrwt>
<totfact> 0.63846874E+01</totfact>
</mgrwt>
</event>
<event>
12    1  0.3147868E-008  0.1655177E+04  0.7818608E-02  0.8787349E-01
          1   -1    0    0  501    0  0.00000000000E+00  0.00000000000E+00  0.19513484846E+04  0.19513484846E+04  0.00000000000E+00 0. -1.
         -1   -1    0    0    0  501 -0.00000000000E+00 -0.00000000000E+00 -0.15892477852E+04  0.15892477852E+04  0.00000000000E+00 0.  1.
         23    2    1    2    0    0  0.94340289799E+03 -0.13508540457E+04  0.63106760043E+03  0.17665702448E+04  0.87797680501E+02 0.  0.
    5000000    2    1    2    0    0 -0.94340289799E+03  0.13508540457E+04 -0.26896690096E+03  0.17740260251E+04  0.60000788590E+03 0.  0.
         23    2    4    4    0    0 -0.53490021737E+03  0.87629747060E+03 -0.43678942820E+03  0.11193775842E+04  0.90585163969E+02 0.  0.
         23    2    4    4    0    0 -0.40850268062E+03  0.47455657506E+03  0.16782252725E+03  0.65464844084E+03  0.91223886309E+02 0.  0.
          5    1    3    3  502    0  0.74773433435E+03 -0.11026943841E+04  0.54066219385E+03  0.14378383906E+04  0.47000000000E+01 0. -1.
         -5    1    3    3    0  502  0.19566856363E+03 -0.24815966153E+03  0.90405406582E+02  0.32873185417E+03  0.47000000000E+01 0.  1.
         13    1    5    5    0    0 -0.21078443314E+03  0.42688272290E+03 -0.21847046046E+03  0.52382084576E+03  0.00000000000E+00 0. -1.
        -13    1    5    5    0    0 -0.32411578423E+03  0.44941474771E+03 -0.21831896774E+03  0.59555673845E+03  0.00000000000E+00 0.  1.
          4    1    6    6  503    0 -0.38557553092E+03  0.47084132286E+03  0.16830797334E+03  0.63141714837E+03  0.00000000000E+00 0. -1.
         -4    1    6    6    0  503 -0.22927149693E+02  0.37152522015E+01 -0.48544609568E+00  0.23231292471E+02  0.00000000000E+00 0.  1.
<mgrwt>
<rscale>  0 0.16551774E+04</rscale>
<asrwt>0</asrwt>
<pdfrwt beam="1">  1        1 0.30020746E+00 0.16551774E+04</pdfrwt>
<pdfrwt beam="2">  1       -1 0.24449966E+00 0.16551774E+04</pdfrwt>
<totfact> 0.22586464E-01</totfact>
</mgrwt>
</event>
<event>
12    1  0.3147868E-008  0.1088474E+04  0.7818608E-02  0.9216499E-01
         -2   -1    0    0    0  501 -0.00000000000E+00  0.00000000000E+00  0.11353195337E+04  0.11353195337E+04  0.00000000000E+00 0.  1.
          2   -1    0    0  501    0  0.00000000000E+00 -0.00000000000E+00 -0.16808831964E+04  0.16808831964E+04  0.00000000000E+00 0. -1.
         23    2    1    2    0    0  0.83282541255E+03 -0.67603561629E+03  0.51446228849E+03  0.11931812896E+04  0.91585049347E+02 0.  0.
    5000000    2    1    2    0    0 -0.83282541255E+03  0.67603561629E+03 -0.10600259512E+04  0.16230214406E+04  0.59993437740E+03 0.  0.
         23    2    4    4    0    0 -0.31129655429E+03  0.13962455766E+03 -0.70823833244E+03  0.79136913281E+03  0.90901083705E+02 0.  0.
         23    2    4    4    0    0 -0.52152885826E+03  0.53641105863E+03 -0.35178761875E+03  0.83165230779E+03  0.90343004905E+02 0.  0.
          5    1    3    3  502    0  0.48811054777E+03 -0.37402034394E+03  0.34068359712E+03  0.70301531126E+03  0.47000000000E+01 0. -1.
         -5    1    3    3    0  502  0.34471486478E+03 -0.30201527234E+03  0.17377869137E+03  0.49016597833E+03  0.47000000000E+01 0.  1.
         11    1    5    5    0    0 -0.27805999602E+03  0.93755400818E+02 -0.62772800689E+03  0.69292848636E+03  0.00000000000E+00 0.  1.
        -11    1    5    5    0    0 -0.33236558276E+02  0.45869156840E+02 -0.80510325545E+02  0.98440646456E+02  0.00000000000E+00 0. -1.
          1    1    6    6  503    0 -0.42761196891E+03  0.38490065184E+03 -0.26789740531E+03  0.63464125891E+03  0.00000000000E+00 0. -1.
         -1    1    6    6    0  503 -0.93916889352E+02  0.15151040679E+03 -0.83890213442E+02  0.19701104888E+03  0.00000000000E+00 0.  1.
<mgrwt>
<rscale>  0 0.10884740E+04</rscale>
<asrwt>0</asrwt>
<pdfrwt beam="1">  1        2 0.25859741E+00 0.10884740E+04</pdfrwt>
<pdfrwt beam="2">  1       -2 0.17466454E+00 0.10884740E+04</pdfrwt>
<totfact> 0.19518564E+00</totfact>
</mgrwt>
</event>
<event>
12    1  0.3147868E-008  0.4276530E+03  0.7818608E-02  0.1034604E+00
         -2   -1    0    0    0  501 -0.00000000000E+00  0.00000000000E+00  0.18482572130E+03  0.18482572130E+03  0.00000000000E+00 0. -1.
          2   -1    0    0  501    0  0.00000000000E+00 -0.00000000000E+00 -0.36633460414E+04  0.36633460414E+04  0.00000000000E+00 0.  1.
         23    2    1    2    0    0  0.25291754466E+03 -0.17577604391E+03 -0.18445155630E+02  0.32297845197E+03  0.95448177885E+02 0.  0.
    5000000    2    1    2    0    0 -0.25291754466E+03  0.17577604391E+03 -0.34600751645E+04  0.35251933108E+04  0.60000269350E+03 0.  0.
         23    2    4    4    0    0 -0.34000243059E+03  0.23727597991E+03 -0.32126190915E+04  0.32405162779E+04  0.90126447157E+02 0.  0.
         23    2    4    4    0    0  0.87084885929E+02 -0.61499936001E+02 -0.24745607296E+03  0.28467703287E+03  0.91872114994E+02 0.  0.
          5    1    3    3  502    0  0.84157920800E+02 -0.19838413164E+02  0.22661836494E+02  0.89508475037E+02  0.47000000000E+01 0. -1.
         -5    1    3    3    0  502  0.16875962386E+03 -0.15593763074E+03 -0.41106992124E+02  0.23346997693E+03  0.47000000000E+01 0.  1.
         11    1    5    5    0    0 -0.74311355530E+02  0.28114949620E+02 -0.41510368640E+03  0.42263896935E+03  0.00000000000E+00 0. -1.
        -11    1    5    5    0    0 -0.26569107506E+03  0.20916103029E+03 -0.27975154051E+04  0.28178773085E+04  0.00000000000E+00 0.  1.
          3    1    6    6  503    0  0.60974306228E+02 -0.76521411043E+01 -0.52769334634E+02  0.81000147908E+02  0.00000000000E+00 0. -1.
         -3    1    6    6    0  503  0.26110579701E+02 -0.53847794897E+02 -0.19468673833E+03  0.20367688496E+03  0.00000000000E+00 0.  1.
<mgrwt>
<rscale>  0 0.42765297E+03</rscale>
<asrwt>0</asrwt>
<pdfrwt beam="1">  1        2 0.56359173E+00 0.42765297E+03</pdfrwt>
<pdfrwt beam="2">  1       -2 0.28434725E-01 0.42765297E+03</pdfrwt>
<totfact> 0.83383398E+00</totfact>
</mgrwt>
</event>
<event>
12    1  0.3147868E-008  0.6226545E+03  0.7818608E-02  0.9859489E-01
          1   -1    0    0  501    0  0.00000000000E+00  0.00000000000E+00  0.31354484242E+04  0.31354484242E+04  0.00000000000E+00 0. -1.
         -1   -1    0    0    0  501 -0.00000000000E+00 -0.00000000000E+00 -0.16958129106E+03  0.16958129106E+03  0.00000000000E+00 0.  1.
         23    2    1    2    0    0 -0.15579779066E+03 -0.50789215778E+03  0.59583650817E+03  0.80318440025E+03  0.88637694200E+02 0.  0.
    5000000    2    1    2    0    0  0.15579779066E+03  0.50789215778E+03  0.23700306250E+04  0.25018453150E+04  0.59996451682E+03 0.  0.
         23    2    4    4    0    0 -0.10036739745E+03 -0.41885132134E+01  0.10663107715E+04  0.10751785583E+04  0.94335108618E+02 0.  0.
         23    2    4    4    0    0  0.25616518811E+03  0.51208067099E+03  0.13037198535E+04  0.14266667567E+04  0.88574043284E+02 0.  0.
          5    1    3    3  502    0 -0.74064503147E+02 -0.35060582036E+03  0.43674475240E+03  0.56495845922E+03  0.47000000000E+01 0. -1.
         -5    1    3    3    0  502 -0.81733287511E+02 -0.15728633742E+03  0.15909175577E+03  0.23822594103E+03  0.47000000000E+01 0.  1.
         13    1    5    5    0    0 -0.97942970055E+02  0.29783235837E+02  0.86062293428E+03  0.86669008390E+03  0.00000000000E+00 0. -1.
        -13    1    5    5    0    0 -0.24244273928E+01 -0.33971749050E+02  0.20568783723E+03  0.20848847442E+03  0.00000000000E+00 0.  1.
          4    1    6    6  503    0  0.25471633544E+03  0.50120089349E+03  0.12974594543E+04  0.14140310403E+04  0.00000000000E+00 0. -1.
         -4    1    6    6    0  503  0.14488526690E+01  0.10879777508E+02  0.62603991311E+01  0.12635716441E+02  0.00000000000E+00 0.  1.
<mgrwt>
<rscale>  0 0.62265452E+03</rscale>
<asrwt>0</asrwt>
<pdfrwt beam="1">  1        1 0.48237664E+00 0.62265452E+03</pdfrwt>
<pdfrwt beam="2">  1       -1 0.26089432E-01 0.62265452E+03</pdfrwt>
<totfact> 0.67694396E+00</totfact>
</mgrwt>
</event>
<event>
12    1  0.4144748E-008  0.1321432E+04  0.7818608E-02  0.9012740E-01
          2   -1    0    0  501    0  0.00000000000E+00  0.00000000000E+00  0.19161769785E+04  0.19161769785E+04  0.00000000000E+00 0. -1.
         -2   -1    0    0    0  501 -0.00000000000E+00 -0.00000000000E+00 -0.99614296350E+03  0.99614296350E+03  0.00000000000E+00 0.  1.
         23    2    1    2    0    0  0.41189079426E+03  0.12040929933E+04  0.90272761062E+02  0.12789776332E+04  0.90225561105E+02 0.  0.
    5000000    2    1    2    0    0 -0.41189079426E+03 -0.12040929933E+04  0.82976125390E+03  0.16333423088E+04  0.59984114259E+03 0.  0.
         23    2    4    4    0    0  0.75567658160E+02 -0.49784993727E+03  0.48213703501E+03  0.70300689562E+03  0.90540288079E+02 0.  0.
         23    2    4    4    0    0 -0.48745845242E+03 -0.70624305602E+03  0.34762421889E+03  0.93033541317E+03  0.91029590980E+02 0.  0.
          5    1    3    3  502    0  0.20620367286E+03  0.50782038326E+03  0.67018635049E+01  0.54815007190E+03  0.47000000000E+01 0. -1.
         -5    1    3    3    0  502  0.20568712140E+03  0.69627261003E+03  0.83570897557E+02  0.73082756127E+03  0.47000000000E+01 0.  1.
         11    1    5    5    0    0  0.55576641451E+02 -0.18259954721E+03  0.22966064969E+03  0.29862245685E+03  0.00000000000E+00 0.  1.
        -11    1    5    5    0    0  0.19991016710E+02 -0.31525039006E+03  0.25247638532E+03  0.40438443878E+03  0.00000000000E+00 0. -1.
          1    1    6    6  503    0 -0.20391189251E+03 -0.36688709833E+03  0.14712455582E+03  0.44478291082E+03  0.00000000000E+00 0. -1.
         -1    1    6    6    0  503 -0.28354655990E+03 -0.33935595769E+03  0.20049966307E+03  0.48555250236E+03  0.00000000000E+00 0.  1.
<mgrwt>
<rscale>  0 0.13214323E+04</rscale>
<asrwt>0</asrwt>
<pdfrwt beam="1">  1        2 0.29479646E+00 0.13214323E+04</pdfrwt>
<pdfrwt beam="2">  1       -2 0.15325276E+00 0.13214323E+04</pdfrwt>
<totfact> 0.20212842E+00</totfact>
</mgrwt>
</event>
<event>
12    1  0.3147868E-008  0.1101991E+04  0.7818608E-02  0.9203253E-01
         -1   -1    0    0    0  501 -0.00000000000E+00  0.00000000000E+00  0.61948263279E+03  0.61948263279E+03  0.00000000000E+00 0.  1.
          1   -1    0    0  501    0  0.00000000000E+00 -0.00000000000E+00 -0.28604656540E+04  0.28604656540E+04  0.00000000000E+00 0. -1.
         23    2    1    2    0    0  0.66730517981E+03  0.83349241185E+03 -0.19433270853E+04  0.22196118891E+04  0.10075204167E+03 0.  0.
    5000000    2    1    2    0    0 -0.66730517981E+03 -0.83349241185E+03 -0.29765593590E+03  0.12603363977E+04  0.59986913212E+03 0.  0.
         23    2    4    4    0    0 -0.57501059818E+03 -0.45150237259E+03 -0.41071621978E+03  0.84309466216E+03  0.87345381719E+02 0.  0.
         23    2    4    4    0    0 -0.92294581634E+02 -0.38199003926E+03  0.11306028388E+03  0.41724173557E+03  0.82905718871E+02 0.  0.
          5    1    3    3  502    0  0.38645670669E+03  0.48100443517E+03 -0.12242093703E+04  0.13709211229E+04  0.47000000000E+01 0. -1.
         -5    1    3    3    0  502  0.28084847312E+03  0.35248797668E+03 -0.71911771498E+03  0.84869076615E+03  0.47000000000E+01 0.  1.
         11    1    5    5    0    0 -0.18630498847E+03 -0.19565206526E+03 -0.16958900436E+03  0.31898230322E+03  0.00000000000E+00 0.  1.
        -11    1    5    5    0    0 -0.38870560971E+03 -0.25585030734E+03 -0.24112721542E+03  0.52411235895E+03  0.00000000000E+00 0. -1.
          1    1    6    6  503    0 -0.71534914006E+01 -0.19632099152E+03  0.41317650177E+02  0.20074922756E+03  0.00000000000E+00 0. -1.
         -1    1    6    6    0  503 -0.85141090234E+02 -0.18566904773E+03  0.71742633702E+02  0.21649250801E+03  0.00000000000E+00 0.  1.
<mgrwt>
<rscale>  0 0.11019911E+04</rscale>
<asrwt>0</asrwt>
<pdfrwt beam="1">  1        1 0.44007164E+00 0.11019911E+04</pdfrwt>
<pdfrwt beam="2">  1       -1 0.95305020E-01 0.11019911E+04</pdfrwt>
<totfact> 0.80895036E-01</totfact>
</mgrwt>
</event>
<event>
12    1  0.3147868E-008  0.7327401E+03  0.7818608E-02  0.9662824E-01
         -2   -1    0    0    0  501 -0.00000000000E+00  0.00000000000E+00  0.34774933241E+03  0.34774933241E+03  0.00000000000E+00 0.  1.
          2   -1    0    0  501    0  0.00000000000E+00 -0.00000000000E+00 -0.21076584509E+04  0.21076584509E+04  0.00000000000E+00 0. -1.
         23    2    1    2    0    0 -0.37420956314E+03  0.58179602943E+03 -0.11821593213E+04  0.13725817552E+04  0.89222175797E+02 0.  0.
    5000000    2    1    2    0    0  0.37420956314E+03 -0.58179602943E+03 -0.57774979722E+03  0.10828260282E+04  0.60016494578E+03 0.  0.
         23    2    4    4    0    0  0.15341930052E+03 -0.27321253090E+02  0.73904434065E+02  0.19449522868E+03  0.89903258895E+02 0.  0.
         23    2    4    4    0    0  0.22079026261E+03 -0.55447477634E+03 -0.65165423129E+03  0.88833079952E+03  0.91037105365E+02 0.  0.
          5    1    3    3  502    0 -0.26669197508E+03  0.33819424754E+03 -0.70655130434E+03  0.82748824421E+03  0.47000000000E+01 0. -1.
         -5    1    3    3    0  502 -0.10751758806E+03  0.24360178189E+03 -0.47560801696E+03  0.54509351095E+03  0.47000000000E+01 0.  1.
         13    1    5    5    0    0  0.84535164387E+02 -0.42120547383E+02  0.29370713267E+01  0.94493179213E+02  0.00000000000E+00 0. -1.
        -13    1    5    5    0    0  0.68884136137E+02  0.14799294293E+02  0.70967362739E+02  0.10000204946E+03  0.00000000000E+00 0.  1.
          3    1    6    6  503    0  0.13680952869E+03 -0.22326429019E+03 -0.29355645639E+03  0.39336901696E+03  0.00000000000E+00 0. -1.
         -3    1    6    6    0  503  0.83980733918E+02 -0.33121048615E+03 -0.35809777490E+03  0.49496178256E+03  0.00000000000E+00 0.  1.
<mgrwt>
<rscale>  0 0.73274009E+03</rscale>
<asrwt>0</asrwt>
<pdfrwt beam="1">  1        2 0.32425515E+00 0.73274009E+03</pdfrwt>
<pdfrwt beam="2">  1       -2 0.53499896E-01 0.73274009E+03</pdfrwt>
<totfact> 0.19904478E+01</totfact>
</mgrwt>
</event>
<event>
12    1  0.3147868E-008  0.7028616E+03  0.7818608E-02  0.9712351E-01
          1   -1    0    0  501    0  0.00000000000E+00  0.00000000000E+00  0.31036691222E+04  0.31036691222E+04  0.00000000000E+00 0. -1.
         -1   -1    0    0    0  501 -0.00000000000E+00 -0.00000000000E+00 -0.19098741281E+03  0.19098741281E+03  0.00000000000E+00 0.  1.
         23    2    1    2    0    0  0.64302258783E+03 -0.88873372430E+02  0.12818611647E+04  0.14396884142E+04  0.90322529918E+02 0.  0.
    5000000    2    1    2    0    0 -0.64302258783E+03  0.88873372430E+02  0.16308205446E+04  0.18549681208E+04  0.59996212859E+03 0.  0.
         23    2    4    4    0    0 -0.55925484005E+03  0.18953505114E+03  0.74757080366E+03  0.95697578435E+03  0.90835200339E+02 0.  0.
         23    2    4    4    0    0 -0.83767747784E+02 -0.10066167871E+03  0.88324974096E+03  0.89799233648E+03  0.95448008532E+02 0.  0.
          5    1    3    3  502    0  0.41035193483E+03 -0.92296566208E+02  0.77005973750E+03  0.87745168293E+03  0.47000000000E+01 0. -1.
         -5    1    3    3    0  502  0.23267065300E+03  0.34231937777E+01  0.51180142724E+03  0.56223673123E+03  0.47000000000E+01 0.  1.
         11    1    5    5    0    0  0.11172376682E+01  0.80356830630E+01  0.69810476288E+01  0.10703057894E+02  0.00000000000E+00 0. -1.
        -11    1    5    5    0    0 -0.56037207772E+03  0.18149936808E+03  0.74058975603E+03  0.94627272646E+03  0.00000000000E+00 0.  1.
          4    1    6    6  503    0 -0.16970484197E+02  0.14335816919E+02  0.24672609023E+03  0.24772419458E+03  0.00000000000E+00 0. -1.
         -4    1    6    6    0  503 -0.66797263587E+02 -0.11499749563E+03  0.63652365073E+03  0.65026814190E+03  0.00000000000E+00 0.  1.
<mgrwt>
<rscale>  0 0.70286163E+03</rscale>
<asrwt>0</asrwt>
<pdfrwt beam="1">  1        1 0.47748752E+00 0.70286163E+03</pdfrwt>
<pdfrwt beam="2">  1       -1 0.29382681E-01 0.70286163E+03</pdfrwt>
<totfact> 0.57219367E+00</totfact>
</mgrwt>
</event>
<event>
12    1  0.3147868E-008  0.7012468E+03  0.7818608E-02  0.9715102E-01
          1   -1    0    0  501    0  0.00000000000E+00  0.00000000000E+00  0.44718002087E+03  0.44718002087E+03  0.00000000000E+00 0. -1.
         -1   -1    0    0    0  501 -0.00000000000E+00 -0.00000000000E+00 -0.11145090479E+04  0.11145090479E+04  0.00000000000E+00 0.  1.
         23    2    1    2    0    0 -0.47158068538E+03  0.32620558759E+03 -0.23011700548E+03  0.62379929460E+03  0.85867895843E+02 0.  0.
    5000000    2    1    2    0    0  0.47158068538E+03 -0.32620558759E+03 -0.43721202159E+03  0.93788977421E+03  0.59973698281E+03 0.  0.
         23    2    4    4    0    0  0.32575227654E+03  0.11643887550E+03 -0.18796497944E+03  0.40149927873E+03  0.78729155549E+02 0.  0.
         23    2    4    4    0    0  0.14582840884E+03 -0.44264446309E+03 -0.24924704216E+03  0.53639049548E+03  0.91600382560E+02 0.  0.
          5    1    3    3  502    0 -0.14140601403E+03  0.12563763786E+03 -0.40819454941E+02  0.19356857894E+03  0.47000000000E+01 0. -1.
         -5    1    3    3    0  502 -0.33017467135E+03  0.20056794973E+03 -0.18929755054E+03  0.43023071567E+03  0.47000000000E+01 0.  1.
         13    1    5    5    0    0  0.25581029288E+03  0.61027182555E+02 -0.16067417725E+03  0.30818730374E+03  0.00000000000E+00 0. -1.
        -13    1    5    5    0    0  0.69941983654E+02  0.55411692944E+02 -0.27290802189E+02  0.93311974990E+02  0.00000000000E+00 0.  1.
          1    1    6    6  503    0  0.12586835693E+03 -0.23926877765E+03 -0.13323049431E+03  0.30140132025E+03  0.00000000000E+00 0. -1.
         -1    1    6    6    0  503  0.19960051916E+02 -0.20337568543E+03 -0.11601654784E+03  0.23498917522E+03  0.00000000000E+00 0.  1.
<mgrwt>
<rscale>  0 0.70124682E+03</rscale>
<asrwt>0</asrwt>
<pdfrwt beam="1">  1        1 0.68796928E-01 0.70124682E+03</pdfrwt>
<pdfrwt beam="2">  1       -1 0.17146293E+00 0.70124682E+03</pdfrwt>
<totfact> 0.12831354E+01</totfact>
</mgrwt>
</event>
<event>
12    1  0.3147868E-008  0.1108026E+04  0.7818608E-02  0.9197404E-01
         -3   -1    0    0    0  501 -0.00000000000E+00  0.00000000000E+00  0.12863899389E+04  0.12863899389E+04  0.00000000000E+00 0.  1.
          3   -1    0    0  501    0  0.00000000000E+00 -0.00000000000E+00 -0.27673170389E+04  0.27673170389E+04  0.00000000000E+00 0. -1.
         23    2    1    2    0    0 -0.58502888221E+02 -0.10427700630E+04 -0.23466788139E+04  0.25703518992E+04  0.94949659566E+02 0.  0.
    5000000    2    1    2    0    0  0.58502888221E+02  0.10427700630E+04  0.86575171384E+03  0.14833550786E+04  0.60002022210E+03 0.  0.
         23    2    4    4    0    0 -0.21560160917E+03  0.61691280950E+03  0.32095403043E+03  0.73370673308E+03  0.90821870207E+02 0.  0.
         23    2    4    4    0    0  0.27410449739E+03  0.42585725353E+03  0.54479768342E+03  0.74964834554E+03  0.93168933869E+02 0.  0.
          5    1    3    3  502    0 -0.81824342841E+02 -0.65374051361E+03 -0.14917700134E+04  0.16307886880E+04  0.47000000000E+01 0. -1.
         -5    1    3    3    0  502  0.23321454620E+02 -0.38902954942E+03 -0.85490880051E+03  0.93956321115E+03  0.47000000000E+01 0.  1.
         13    1    5    5    0    0 -0.85070879703E+02  0.33741099371E+03  0.13326754178E+03  0.37261705669E+03  0.00000000000E+00 0.  1.
        -13    1    5    5    0    0 -0.13053072946E+03  0.27950181580E+03  0.18768648865E+03  0.36108967638E+03  0.00000000000E+00 0. -1.
          3    1    6    6  503    0  0.21539704305E+03  0.27642768376E+03  0.41518378776E+03  0.54330997426E+03  0.00000000000E+00 0. -1.
         -3    1    6    6    0  503  0.58707454334E+02  0.14942956977E+03  0.12961389565E+03  0.20633837128E+03  0.00000000000E+00 0.  1.
<mgrwt>
<rscale>  0 0.11080261E+04</rscale>
<asrwt>0</asrwt>
<pdfrwt beam="1">  1        3 0.42574108E+00 0.11080261E+04</pdfrwt>
<pdfrwt beam="2">  1       -3 0.19790615E+00 0.11080261E+04</pdfrwt>
<totfact> 0.30889324E-03</totfact>
</mgrwt>
</event>
<event>
12    1  0.3147868E-008  0.1160813E+04  0.7818608E-02  0.9147865E-01
          2   -1    0    0  501    0  0.00000000000E+00  0.00000000000E+00  0.74882363140E+03  0.74882363140E+03  0.00000000000E+00 0.  1.
         -2   -1    0    0    0  501 -0.00000000000E+00 -0.00000000000E+00 -0.20376164490E+04  0.20376164490E+04  0.00000000000E+00 0. -1.
         23    2    1    2    0    0 -0.97815833473E+03  0.47352413078E+03 -0.14835057126E+03  0.11007299601E+04  0.92626793181E+02 0.  0.
    5000000    2    1    2    0    0  0.97815833473E+03 -0.47352413078E+03 -0.11404422463E+04  0.16857101203E+04  0.59999271848E+03 0.  0.
         23    2    4    4    0    0  0.27848236793E+03 -0.44715398535E+03 -0.52010838108E+03  0.74576869146E+03  0.90327721262E+02 0.  0.
         23    2    4    4    0    0  0.69967596679E+03 -0.26370145429E+02 -0.62033386522E+03  0.93994142881E+03  0.91836497018E+02 0.  0.
          5    1    3    3  502    0 -0.39399016984E+03  0.19419282998E+03 -0.10558766388E+03  0.45178529625E+03  0.47000000000E+01 0. -1.
         -5    1    3    3    0  502 -0.58416816489E+03  0.27933130080E+03 -0.42762907388E+02  0.64894466384E+03  0.47000000000E+01 0.  1.
         11    1    5    5    0    0  0.42289022051E+02 -0.10237787071E+03 -0.15698224805E+03  0.19212760343E+03  0.00000000000E+00 0. -1.
        -11    1    5    5    0    0  0.23619334588E+03 -0.34477611464E+03 -0.36312613303E+03  0.55364108803E+03  0.00000000000E+00 0.  1.
          3    1    6    6  503    0  0.34495640304E+03  0.32788259606E+02 -0.29941978852E+03  0.45795436424E+03  0.00000000000E+00 0. -1.
         -3    1    6    6    0  503  0.35471956375E+03 -0.59158405035E+02 -0.32091407670E+03  0.48198706458E+03  0.00000000000E+00 0.  1.
<mgrwt>
<rscale>  0 0.11608134E+04</rscale>
<asrwt>0</asrwt>
<pdfrwt beam="1">  1        2 0.11520364E+00 0.11608134E+04</pdfrwt>
<pdfrwt beam="2">  1       -2 0.31347945E+00 0.11608134E+04</pdfrwt>
<totfact> 0.97423122E-01</totfact>
</mgrwt>
</event>
<event>
12    1  0.3147868E-008  0.1027769E+04  0.7818608E-02  0.9278602E-01
         -2   -1    0    0    0  501 -0.00000000000E+00  0.00000000000E+00  0.89788979133E+03  0.89788979133E+03  0.00000000000E+00 0.  1.
          2   -1    0    0  501    0  0.00000000000E+00 -0.00000000000E+00 -0.18190590965E+04  0.18190590965E+04  0.00000000000E+00 0. -1.
         23    2    1    2    0    0 -0.50590255101E+03  0.79159420374E+03  0.36769971321E+03  0.10129065168E+04  0.90651850949E+02 0.  0.
    5000000    2    1    2    0    0  0.50590255101E+03 -0.79159420374E+03 -0.12888690184E+04  0.17040423711E+04  0.60001523425E+03 0.  0.
         23    2    4    4    0    0  0.49726859338E+03 -0.86716892543E+03 -0.11663253046E+04  0.15389230663E+04  0.93335355218E+02 0.  0.
         23    2    4    4    0    0  0.86339576385E+01  0.75574721690E+02 -0.12254371380E+03  0.16511930482E+03  0.80382456101E+02 0.  0.
          5    1    3    3  502    0 -0.13081917128E+03  0.27509919856E+03  0.13858335635E+03  0.33469487788E+03  0.47000000000E+01 0. -1.
         -5    1    3    3    0  502 -0.37508337973E+03  0.51649500518E+03  0.22911635687E+03  0.67821163888E+03  0.47000000000E+01 0.  1.
         11    1    5    5    0    0  0.26687332691E+03 -0.39387222126E+03 -0.59996218119E+03  0.76570968269E+03  0.00000000000E+00 0. -1.
        -11    1    5    5    0    0  0.23039526647E+03 -0.47329670417E+03 -0.56636312344E+03  0.77321338360E+03  0.00000000000E+00 0.  1.
          1    1    6    6  503    0 -0.14693787275E+02 -0.12484380491E+02 -0.17069043313E+02  0.25751104450E+02  0.00000000000E+00 0. -1.
         -1    1    6    6    0  503  0.23327744914E+02  0.88059102181E+02 -0.10547467049E+03  0.13936820037E+03  0.00000000000E+00 0.  1.
<mgrwt>
<rscale>  0 0.10277688E+04</rscale>
<asrwt>0</asrwt>
<pdfrwt beam="1">  1        2 0.27985524E+00 0.10277688E+04</pdfrwt>
<pdfrwt beam="2">  1       -2 0.13813689E+00 0.10277688E+04</pdfrwt>
<totfact> 0.31079738E+00</totfact>
</mgrwt>
</event>
<event>
12    1  0.3147868E-008  0.5317819E+03  0.7818608E-02  0.1005801E+00
          1   -1    0    0  501    0  0.00000000000E+00  0.00000000000E+00  0.11497756097E+04  0.11497756097E+04  0.00000000000E+00 0. -1.
         -1   -1    0    0    0  501 -0.00000000000E+00 -0.00000000000E+00 -0.25402366814E+03  0.25402366814E+03  0.00000000000E+00 0.  1.
         23    2    1    2    0    0  0.28823118163E+01 -0.36618179930E+03  0.29246622027E+03  0.47756222593E+03  0.91824679546E+02 0.  0.
    5000000    2    1    2    0    0 -0.28823118163E+01  0.36618179930E+03  0.60328572126E+03  0.92623705187E+03  0.59988665339E+03 0.  0.
         23    2    4    4    0    0 -0.28471643035E+03  0.22710950997E+03  0.34661381665E+03  0.51079072364E+03  0.90132403884E+02 0.  0.
         23    2    4    4    0    0  0.28183411854E+03  0.13907228933E+03  0.25667190461E+03  0.41544632823E+03  0.89126948749E+02 0.  0.
          5    1    3    3  502    0  0.11030118854E+02 -0.26492884999E+03  0.25852209656E+03  0.37035756167E+03  0.47000000000E+01 0. -1.
         -5    1    3    3    0  502 -0.81478070378E+01 -0.10125294931E+03  0.33944123710E+02  0.10720466425E+03  0.47000000000E+01 0.  1.
         11    1    5    5    0    0 -0.34415377602E+02  0.65897028496E+02  0.44570885334E+02  0.86679873094E+02  0.00000000000E+00 0.  1.
        -11    1    5    5    0    0 -0.25030105275E+03  0.16121248147E+03  0.30204293132E+03  0.42411085055E+03  0.00000000000E+00 0. -1.
          3    1    6    6  503    0  0.25318445668E+03  0.91765506221E+02  0.22949599879E+03  0.35382437833E+03  0.00000000000E+00 0. -1.
         -3    1    6    6    0  503  0.28649661855E+02  0.47306783112E+02  0.27175905811E+02  0.61621949900E+02  0.00000000000E+00 0.  1.
<mgrwt>
<rscale>  0 0.53178188E+03</rscale>
<asrwt>0</asrwt>
<pdfrwt beam="1">  1        1 0.17688855E+00 0.53178188E+03</pdfrwt>
<pdfrwt beam="2">  1       -1 0.39080565E-01 0.53178188E+03</pdfrwt>
<totfact> 0.77392617E+01</totfact>
</mgrwt>
</event>
<event>
12    1  0.3147868E-008  0.3068336E+03  0.7818608E-02  0.1081874E+00
          2   -1    0    0  501    0  0.00000000000E+00  0.00000000000E+00  0.45657131521E+03  0.45657131521E+03  0.00000000000E+00 0.  1.
         -2   -1    0    0    0  501 -0.00000000000E+00 -0.00000000000E+00 -0.32912489326E+03  0.32912489326E+03  0.00000000000E+00 0. -1.
         23    2    1    2    0    0 -0.36380014371E+02 -0.11042796332E+03 -0.38025588936E+02  0.15258063822E+03  0.91197945234E+02 0.  0.
    5000000    2    1    2    0    0  0.36380014371E+02  0.11042796332E+03  0.16547201089E+03  0.63311557025E+03  0.59994707964E+03 0.  0.
         23    2    4    4    0    0  0.22784253365E+03 -0.53917313945E+01  0.27468881352E+03  0.36884723227E+03  0.93021747850E+02 0.  0.
         23    2    4    4    0    0 -0.19146251928E+03  0.11581969472E+03 -0.10921680263E+03  0.26426833798E+03  0.88528789155E+02 0.  0.
          5    1    3    3  502    0  0.24248745689E+02 -0.51757395664E+02 -0.36669257551E+02  0.68070214652E+02  0.47000000000E+01 0. -1.
         -5    1    3    3    0  502 -0.60628760061E+02 -0.58670567659E+02 -0.13563313849E+01  0.84510423563E+02  0.47000000000E+01 0.  1.
         11    1    5    5    0    0  0.35045273256E+02  0.22809642556E+02  0.94987202133E+02  0.10378352249E+03  0.00000000000E+00 0. -1.
        -11    1    5    5    0    0  0.19279726039E+03 -0.28201373950E+02  0.17970161138E+03  0.26506370978E+03  0.00000000000E+00 0.  1.
          1    1    6    6  503    0 -0.71289194435E+02  0.46394901445E+01 -0.60061200944E+02  0.93332855795E+02  0.00000000000E+00 0. -1.
         -1    1    6    6    0  503 -0.12017332484E+03  0.11118020457E+03 -0.49155601686E+02  0.17093548219E+03  0.00000000000E+00 0.  1.
<mgrwt>
<rscale>  0 0.30683362E+03</rscale>
<asrwt>0</asrwt>
<pdfrwt beam="1">  1        2 0.70241740E-01 0.30683362E+03</pdfrwt>
<pdfrwt beam="2">  1       -2 0.50634599E-01 0.30683362E+03</pdfrwt>
<totfact> 0.25962219E+02</totfact>
</mgrwt>
</event>
<event>
12    1  0.3147868E-008  0.9786089E+03  0.7818608E-02  0.9332322E-01
          1   -1    0    0  501    0  0.00000000000E+00  0.00000000000E+00  0.76032627955E+03  0.76032627955E+03  0.00000000000E+00 0. -1.
         -1   -1    0    0    0  501 -0.00000000000E+00 -0.00000000000E+00 -0.13589336882E+04  0.13589336882E+04  0.00000000000E+00 0.  1.
         23    2    1    2    0    0 -0.67525775703E+03  0.58879937500E+03 -0.51580004566E+03  0.10378398701E+04  0.91674240507E+02 0.  0.
    5000000    2    1    2    0    0  0.67525775703E+03 -0.58879937500E+03 -0.82807363015E+02  0.10814200977E+04  0.59996218709E+03 0.  0.
         23    2    4    4    0    0  0.75038296229E+03 -0.44301366806E+03 -0.13422117392E+03  0.88647682132E+03  0.92141907026E+02 0.  0.
         23    2    4    4    0    0 -0.75125205262E+02 -0.14578570694E+03  0.51413810905E+02  0.19494327639E+03  0.91990392125E+02 0.  0.
          5    1    3    3  502    0 -0.25055659145E+03  0.25341611463E+03 -0.16366498520E+03  0.39218190938E+03  0.47000000000E+01 0. -1.
         -5    1    3    3    0  502 -0.42470116559E+03  0.33538326037E+03 -0.35213506046E+03  0.64565796068E+03  0.47000000000E+01 0.  1.
         11    1    5    5    0    0  0.52168290774E+03 -0.31874446807E+03 -0.52194494473E+02  0.61357587747E+03  0.00000000000E+00 0.  1.
        -11    1    5    5    0    0  0.22870005455E+03 -0.12426919999E+03 -0.82026679447E+02  0.27290094386E+03  0.00000000000E+00 0. -1.
          3    1    6    6  503    0 -0.84202228639E+02 -0.64118954003E+02  0.30822937202E+02  0.11023297614E+03  0.00000000000E+00 0. -1.
         -3    1    6    6    0  503  0.90770233769E+01 -0.81666752940E+02  0.20590873702E+02  0.84710300253E+02  0.00000000000E+00 0.  1.
<mgrwt>
<rscale>  0 0.97860888E+03</rscale>
<asrwt>0</asrwt>
<pdfrwt beam="1">  1        1 0.11697327E+00 0.97860888E+03</pdfrwt>
<pdfrwt beam="2">  1       -1 0.20906672E+00 0.97860888E+03</pdfrwt>
<totfact> 0.31497513E+00</totfact>
</mgrwt>
</event>
<event>
12    1  0.3147868E-008  0.1028302E+04  0.7818608E-02  0.9278037E-01
          2   -1    0    0  501    0  0.00000000000E+00  0.00000000000E+00  0.26202221692E+04  0.26202221692E+04  0.00000000000E+00 0.  1.
         -2   -1    0    0    0  501 -0.00000000000E+00 -0.00000000000E+00 -0.45019940494E+03  0.45019940494E+03  0.00000000000E+00 0. -1.
         23    2    1    2    0    0  0.90006006751E+03  0.34703903105E+03  0.13838554875E+04  0.16893285183E+04  0.90722754924E+02 0.  0.
    5000000    2    1    2    0    0 -0.90006006751E+03 -0.34703903105E+03  0.78616727679E+03  0.13810930559E+04  0.59901154218E+03 0.  0.
         23    2    4    4    0    0 -0.10898980827E+03  0.11193947449E+03  0.27513393289E+03  0.32944546204E+03  0.91795463776E+02 0.  0.
         23    2    4    4    0    0 -0.79107025924E+03 -0.45897850554E+03  0.51103334390E+03  0.10516475938E+04  0.91401090966E+02 0.  0.
          5    1    3    3  502    0  0.68858320128E+03  0.24625394280E+03  0.98599107002E+03  0.12275945216E+04  0.47000000000E+01 0. -1.
         -5    1    3    3    0  502  0.21147686623E+03  0.10078508825E+03  0.39786441750E+03  0.46173399666E+03  0.47000000000E+01 0.  1.
         13    1    5    5    0    0 -0.63855826530E+02  0.12771920789E+02  0.61204518046E+02  0.89368235810E+02  0.00000000000E+00 0.  1.
        -13    1    5    5    0    0 -0.45133981740E+02  0.99167553703E+02  0.21392941485E+03  0.24007722623E+03  0.00000000000E+00 0. -1.
          4    1    6    6  503    0 -0.18787026266E+03 -0.14198096172E+03  0.99877740322E+02  0.25579169669E+03  0.00000000000E+00 0. -1.
         -4    1    6    6    0  503 -0.60319999658E+03 -0.31699754382E+03  0.41115560358E+03  0.79585589715E+03  0.00000000000E+00 0.  1.
<mgrwt>
<rscale>  0 0.10283024E+04</rscale>
<asrwt>0</asrwt>
<pdfrwt beam="1">  1        2 0.40311109E+00 0.10283024E+04</pdfrwt>
<pdfrwt beam="2">  1       -2 0.69261448E-01 0.10283024E+04</pdfrwt>
<totfact> 0.56881005E+00</totfact>
</mgrwt>
</event>
<event>
12    1  0.3147868E-008  0.7619708E+03  0.7818608E-02  0.9616755E-01
         -2   -1    0    0    0  501 -0.00000000000E+00  0.00000000000E+00  0.63417457715E+03  0.63417457715E+03  0.00000000000E+00 0. -1.
          2   -1    0    0  501    0  0.00000000000E+00 -0.00000000000E+00 -0.10113605514E+04  0.10113605514E+04  0.00000000000E+00 0.  1.
         23    2    1    2    0    0 -0.65520461150E+03  0.68781218683E+02  0.30111684351E+02  0.66575369158E+03  0.91089655528E+02 0.  0.
    5000000    2    1    2    0    0  0.65520461150E+03 -0.68781218683E+02 -0.40729765861E+03  0.97978143698E+03  0.60004695030E+03 0.  0.
         23    2    4    4    0    0  0.37508911388E+02  0.17634296039E+03 -0.18146816766E+03  0.27189808301E+03  0.92163515333E+02 0.  0.
         23    2    4    4    0    0  0.61769570011E+03 -0.24512417907E+03 -0.22582949096E+03  0.70788335397E+03  0.92011101187E+02 0.  0.
          5    1    3    3  502    0 -0.24504919635E+03 -0.16819549607E+02  0.22031993170E+02  0.24665665327E+03  0.47000000000E+01 0. -1.
         -5    1    3    3    0  502 -0.41015541516E+03  0.85600768290E+02  0.80796911809E+01  0.41909703831E+03  0.47000000000E+01 0.  1.
         11    1    5    5    0    0 -0.14508298739E+02  0.27443014453E+02  0.55450150412E+00  0.31047016709E+02  0.00000000000E+00 0.  1.
        -11    1    5    5    0    0  0.52017210128E+02  0.14889994594E+03 -0.18202266916E+03  0.24085106630E+03  0.00000000000E+00 0. -1.
          1    1    6    6  503    0  0.19343933121E+03 -0.12210200917E+03 -0.65365380496E+02  0.23790819337E+03  0.00000000000E+00 0. -1.
         -1    1    6    6    0  503  0.42425636891E+03 -0.12302216990E+03 -0.16046411046E+03  0.46997516061E+03  0.00000000000E+00 0.  1.
<mgrwt>
<rscale>  0 0.76197080E+03</rscale>
<asrwt>0</asrwt>
<pdfrwt beam="1">  1        2 0.15559393E+00 0.76197080E+03</pdfrwt>
<pdfrwt beam="2">  1       -2 0.97565319E-01 0.76197080E+03</pdfrwt>
<totfact> 0.22017802E+01</totfact>
</mgrwt>
</event>
<event>
12    1  0.3147868E-008  0.2233869E+04  0.7818608E-02  0.8504462E-01
          2   -1    0    0  501    0  0.00000000000E+00  0.00000000000E+00  0.22918036697E+04  0.22918036697E+04  0.00000000000E+00 0. -1.
         -2   -1    0    0    0  501 -0.00000000000E+00 -0.00000000000E+00 -0.22196875386E+04  0.22196875386E+04  0.00000000000E+00 0.  1.
         23    2    1    2    0    0  0.19657281631E+04 -0.99139249275E+03 -0.20421868542E+03  0.22129249711E+04  0.91571667148E+02 0.  0.
    5000000    2    1    2    0    0 -0.19657281631E+04  0.99139249275E+03  0.27633481655E+03  0.22985662373E+04  0.60008293634E+03 0.  0.
         23    2    4    4    0    0 -0.72284158645E+03  0.64523929492E+03  0.25004924629E+03  0.10049751748E+04  0.92826556582E+02 0.  0.
         23    2    4    4    0    0 -0.12428865766E+04  0.34615319783E+03  0.26285570263E+02  0.12935910625E+04  0.89987926646E+02 0.  0.
          5    1    3    3  502    0  0.14077121564E+04 -0.75538705425E+03 -0.15007147480E+03  0.16046204082E+04  0.47000000000E+01 0. -1.
         -5    1    3    3    0  502  0.55801600673E+03 -0.23600543850E+03 -0.54147210619E+02  0.60830456286E+03  0.47000000000E+01 0.  1.
         13    1    5    5    0    0 -0.34601534438E+03  0.36468886881E+03  0.10815221117E+03  0.51421930181E+03  0.00000000000E+00 0. -1.
        -13    1    5    5    0    0 -0.37682624207E+03  0.28055042612E+03  0.14189703512E+03  0.49075587300E+03  0.00000000000E+00 0.  1.
          3    1    6    6  503    0 -0.83783712721E+03  0.20231306271E+03 -0.12550306818E+02  0.86200878028E+03  0.00000000000E+00 0. -1.
         -3    1    6    6    0  503 -0.40504944942E+03  0.14384013512E+03  0.38835877081E+02  0.43158228218E+03  0.00000000000E+00 0.  1.
<mgrwt>
<rscale>  0 0.22338687E+04</rscale>
<asrwt>0</asrwt>
<pdfrwt beam="1">  1        2 0.35258518E+00 0.22338687E+04</pdfrwt>
<pdfrwt beam="2">  1       -2 0.34149039E+00 0.22338687E+04</pdfrwt>
<totfact> 0.69894271E-02</totfact>
</mgrwt>
</event>
<event>
12    1  0.3147868E-008  0.4797090E+03  0.7818608E-02  0.1019215E+00
          2   -1    0    0  501    0  0.00000000000E+00  0.00000000000E+00  0.39143551701E+04  0.39143551701E+04  0.00000000000E+00 0. -1.
         -2   -1    0    0    0  501 -0.00000000000E+00 -0.00000000000E+00 -0.75199925152E+02  0.75199925152E+02  0.00000000000E+00 0.  1.
         23    2    1    2    0    0 -0.30231639552E+03 -0.17066595639E+03  0.87882667505E+03  0.94925201652E+03  0.90669699577E+02 0.  0.
    5000000    2    1    2    0    0  0.30231639552E+03  0.17066595639E+03  0.29603285699E+04  0.30403030787E+04  0.59947935504E+03 0.  0.
         23    2    4    4    0    0  0.40606169952E+02  0.30038173306E+03  0.21615952614E+04  0.21846629202E+04  0.91542089192E+02 0.  0.
         23    2    4    4    0    0  0.26171022557E+03 -0.12971577668E+03  0.79873330847E+03  0.85564015852E+03  0.93950827218E+02 0.  0.
          5    1    3    3  502    0 -0.10523568394E+03 -0.35101609956E+02  0.19008101993E+03  0.22013531369E+03  0.47000000000E+01 0. -1.
         -5    1    3    3    0  502 -0.19708071158E+03 -0.13556434643E+03  0.68874565513E+03  0.72911670283E+03  0.47000000000E+01 0.  1.
         11    1    5    5    0    0  0.43024555970E+02  0.49050362759E+02  0.43054885525E+03  0.43546454190E+03  0.00000000000E+00 0. -1.
        -11    1    5    5    0    0 -0.24183860178E+01  0.25133137031E+03  0.17310464062E+04  0.17491983783E+04  0.00000000000E+00 0.  1.
          2    1    6    6  503    0  0.11175840158E+03 -0.46471078933E+02  0.20946009008E+03  0.24191533816E+03  0.00000000000E+00 0. -1.
         -2    1    6    6    0  503  0.14995182399E+03 -0.83244697747E+02  0.58927321839E+03  0.61372482036E+03  0.00000000000E+00 0.  1.
<mgrwt>
<rscale>  0 0.47970895E+03</rscale>
<asrwt>0</asrwt>
<pdfrwt beam="1">  1        2 0.60220833E+00 0.47970895E+03</pdfrwt>
<pdfrwt beam="2">  1       -2 0.11569222E-01 0.47970895E+03</pdfrwt>
<totfact> 0.25232945E+01</totfact>
</mgrwt>
</event>
<event>
12    1  0.3147868E-008  0.8699186E+03  0.7818608E-02  0.9463986E-01
         -1   -1    0    0    0  501 -0.00000000000E+00  0.00000000000E+00  0.11526839844E+04  0.11526839844E+04  0.00000000000E+00 0.  1.
          1   -1    0    0  501    0  0.00000000000E+00 -0.00000000000E+00 -0.14637929386E+04  0.14637929386E+04  0.00000000000E+00 0. -1.
         23    2    1    2    0    0  0.41337207765E+03 -0.70439271307E+03  0.77598532300E+03  0.11302650439E+04  0.91105867297E+02 0.  0.
    5000000    2    1    2    0    0 -0.41337207765E+03  0.70439271307E+03 -0.10870942772E+04  0.14862118791E+04  0.60000517787E+03 0.  0.
         23    2    4    4    0    0  0.62828931191E+02  0.69191916512E+02  0.11717565293E+02  0.12767477217E+03  0.86189037633E+02 0.  0.
         23    2    4    4    0    0 -0.47620100884E+03  0.63520079655E+03 -0.10988118425E+04  0.13585371070E+04  0.89376468531E+02 0.  0.
          5    1    3    3  502    0  0.88223717259E+02 -0.12010264272E+03  0.10066533295E+03  0.17989905040E+03  0.47000000000E+01 0. -1.
         -5    1    3    3    0  502  0.32514836039E+03 -0.58429007034E+03  0.67531999005E+03  0.95036599346E+03  0.47000000000E+01 0.  1.
         11    1    5    5    0    0  0.71121653867E+02  0.18857179884E+02 -0.56259477927E+01  0.73793862689E+02  0.00000000000E+00 0.  1.
        -11    1    5    5    0    0 -0.82927226762E+01  0.50334736628E+02  0.17343513085E+02  0.53880909485E+02  0.00000000000E+00 0. -1.
          1    1    6    6  503    0 -0.21894948528E+03  0.23044407321E+03 -0.39855943212E+03  0.50979698794E+03  0.00000000000E+00 0. -1.
         -1    1    6    6    0  503 -0.25725152356E+03  0.40475672334E+03 -0.70025241034E+03  0.84874011903E+03  0.00000000000E+00 0.  1.
<mgrwt>
<rscale>  0 0.86991862E+03</rscale>
<asrwt>0</asrwt>
<pdfrwt beam="1">  1        1 0.22519891E+00 0.86991862E+03</pdfrwt>
<pdfrwt beam="2">  1       -1 0.17733600E+00 0.86991862E+03</pdfrwt>
<totfact> 0.15474690E+00</totfact>
</mgrwt>
</event>
<event>
12    1  0.3147868E-008  0.6648124E+03  0.7818608E-02  0.9779375E-01
          2   -1    0    0  501    0  0.00000000000E+00  0.00000000000E+00  0.91750496711E+03  0.91750496711E+03  0.00000000000E+00 0. -1.
         -2   -1    0    0    0  501 -0.00000000000E+00 -0.00000000000E+00 -0.65332165084E+03  0.65332165084E+03  0.00000000000E+00 0.  1.
         23    2    1    2    0    0 -0.29635175180E+03  0.57405488270E+03  0.63694985644E+01  0.65232802356E+03  0.90154925927E+02 0.  0.
    5000000    2    1    2    0    0  0.29635175180E+03 -0.57405488270E+03  0.25781381770E+03  0.91849859439E+03  0.59984025720E+03 0.  0.
         23    2    4    4    0    0  0.19888074568E+03 -0.22749002464E+03 -0.16486584691E+03  0.35580329275E+03  0.90055390427E+02 0.  0.
         23    2    4    4    0    0  0.97471006118E+02 -0.34656485806E+03  0.42267966462E+03  0.56269530164E+03  0.91433613769E+02 0.  0.
          5    1    3    3  502    0 -0.23532509980E+03  0.37604015352E+03  0.24311955946E+02  0.44429411527E+03  0.47000000000E+01 0. -1.
         -5    1    3    3    0  502 -0.61026651999E+02  0.19801472918E+03 -0.17942457382E+02  0.20803390830E+03  0.47000000000E+01 0.  1.
         11    1    5    5    0    0  0.24843129721E+02 -0.70874433862E+02 -0.11663943263E+02  0.76002723912E+02  0.00000000000E+00 0. -1.
        -11    1    5    5    0    0  0.17403761596E+03 -0.15661559077E+03 -0.15320190365E+03  0.27980056884E+03  0.00000000000E+00 0.  1.
          3    1    6    6  503    0  0.33584549267E+02 -0.25868487286E+03  0.27131845041E+03  0.37637678851E+03  0.00000000000E+00 0. -1.
         -3    1    6    6    0  503  0.63886456850E+02 -0.87879985204E+02  0.15136121421E+03  0.18631851313E+03  0.00000000000E+00 0.  1.
<mgrwt>
<rscale>  0 0.66481238E+03</rscale>
<asrwt>0</asrwt>
<pdfrwt beam="1">  1        2 0.14115461E+00 0.66481238E+03</pdfrwt>
<pdfrwt beam="2">  1       -2 0.10051102E+00 0.66481238E+03</pdfrwt>
<totfact> 0.23858059E+01</totfact>
</mgrwt>
</event>
<event>
12    1  0.3147868E-008  0.5599055E+03  0.7818608E-02  0.9992268E-01
          2   -1    0    0  501    0  0.00000000000E+00  0.00000000000E+00  0.41929030654E+04  0.41929030654E+04  0.00000000000E+00 0. -1.
         -2   -1    0    0    0  501 -0.00000000000E+00 -0.00000000000E+00 -0.95608685039E+02  0.95608685039E+02  0.00000000000E+00 0.  1.
         23    2    1    2    0    0 -0.40805152964E+03  0.22570688248E+03  0.20622537927E+04  0.21162213575E+04  0.89735618164E+02 0.  0.
    5000000    2    1    2    0    0  0.40805152964E+03 -0.22570688248E+03  0.20350405877E+04  0.21722903929E+04  0.60000475814E+03 0.  0.
         23    2    4    4    0    0  0.94652572349E+02 -0.30367963575E+03  0.15329201593E+04  0.15681973152E+04  0.90654145875E+02 0.  0.
         23    2    4    4    0    0  0.31339895729E+03  0.77972753266E+02  0.50212042841E+03  0.60409307764E+03  0.92221825746E+02 0.  0.
          5    1    3    3  502    0 -0.19013217263E+03  0.92698077363E+02  0.11296035084E+04  0.11492472984E+04  0.47000000000E+01 0. -1.
         -5    1    3    3    0  502 -0.21791935701E+03  0.13300880512E+03  0.93265028422E+03  0.96697405915E+03  0.47000000000E+01 0.  1.
         13    1    5    5    0    0  0.44173281849E+02 -0.66518551672E+02  0.55239346435E+03  0.55813487259E+03  0.00000000000E+00 0. -1.
        -13    1    5    5    0    0  0.50479290500E+02 -0.23716108408E+03  0.98052669490E+03  0.10100624426E+04  0.00000000000E+00 0.  1.
          3    1    6    6  503    0  0.26029462015E+03  0.91245238616E+02  0.45395194758E+03  0.53117921040E+03  0.00000000000E+00 0. -1.
         -3    1    6    6    0  503  0.53104337145E+02 -0.13272485351E+02  0.48168480835E+02  0.72913867247E+02  0.00000000000E+00 0.  1.
<mgrwt>
<rscale>  0 0.55990552E+03</rscale>
<asrwt>0</asrwt>
<pdfrwt beam="1">  1        2 0.64506187E+00 0.55990552E+03</pdfrwt>
<pdfrwt beam="2">  1       -2 0.14709032E-01 0.55990552E+03</pdfrwt>
<totfact> 0.99456443E+00</totfact>
</mgrwt>
</event>
<event>
12    1  0.3147868E-008  0.6537418E+03  0.7818608E-02  0.9799783E-01
          2   -1    0    0  501    0  0.00000000000E+00  0.00000000000E+00  0.10442271375E+04  0.10442271375E+04  0.00000000000E+00 0. -1.
         -2   -1    0    0    0  501 -0.00000000000E+00 -0.00000000000E+00 -0.46543862325E+03  0.46543862325E+03  0.00000000000E+00 0.  1.
         23    2    1    2    0    0 -0.20741496470E+03 -0.52322488209E+03  0.20456625458E+03  0.60583840318E+03  0.91692821051E+02 0.  0.
    5000000    2    1    2    0    0  0.20741496470E+03  0.52322488209E+03  0.37422225967E+03  0.90382735758E+03  0.60006361984E+03 0.  0.
         23    2    4    4    0    0 -0.87301487069E+02 -0.13993472987E+02  0.23867091676E+03  0.26974026173E+03  0.89323207292E+02 0.  0.
         23    2    4    4    0    0  0.29471645177E+03  0.53721835507E+03  0.13555134291E+03  0.63408709585E+03  0.90724476207E+02 0.  0.
          5    1    3    3  502    0 -0.19062330225E+03 -0.43696124919E+03  0.14064721327E+03  0.49706750573E+03  0.47000000000E+01 0. -1.
         -5    1    3    3    0  502 -0.16791662450E+02 -0.86263632899E+02  0.63919041311E+02  0.10877089744E+03  0.47000000000E+01 0.  1.
         11    1    5    5    0    0 -0.55941993907E+02  0.34367800127E+02  0.15291444530E+03  0.16641358103E+03  0.00000000000E+00 0.  1.
        -11    1    5    5    0    0 -0.31359493162E+02 -0.48361273114E+02  0.85756471456E+02  0.10332668070E+03  0.00000000000E+00 0. -1.
          3    1    6    6  503    0  0.13078259115E+03  0.15042947382E+03  0.44403229595E+02  0.20421743202E+03  0.00000000000E+00 0. -1.
         -3    1    6    6    0  503  0.16393386062E+03  0.38678888125E+03  0.91148113313E+02  0.42986966383E+03  0.00000000000E+00 0.  1.
<mgrwt>
<rscale>  0 0.65374180E+03</rscale>
<asrwt>0</asrwt>
<pdfrwt beam="1">  1        2 0.16065033E+00 0.65374180E+03</pdfrwt>
<pdfrwt beam="2">  1       -2 0.71605942E-01 0.65374180E+03</pdfrwt>
<totfact> 0.42832401E+01</totfact>
</mgrwt>
</event>
<event>
12    1  0.3147868E-008  0.8795497E+03  0.7818608E-02  0.9451513E-01
         -2   -1    0    0    0  501 -0.00000000000E+00  0.00000000000E+00  0.86329122022E+03  0.86329122022E+03  0.00000000000E+00 0.  1.
          2   -1    0    0  501    0  0.00000000000E+00 -0.00000000000E+00 -0.15216704246E+04  0.15216704246E+04  0.00000000000E+00 0. -1.
         23    2    1    2    0    0 -0.38472948616E+03 -0.73221319248E+03  0.39176242445E+03  0.91971434451E+03  0.90795052299E+02 0.  0.
    5000000    2    1    2    0    0  0.38472948616E+03  0.73221319248E+03 -0.10501416288E+04  0.14652473003E+04  0.59999939477E+03 0.  0.
         23    2    4    4    0    0  0.31628276625E+03  0.18906988965E+03 -0.73394401395E+03  0.82643777081E+03  0.92430308912E+02 0.  0.
         23    2    4    4    0    0  0.68446719914E+02  0.54314330282E+03 -0.31619761489E+03  0.63880952952E+03  0.91690143817E+02 0.  0.
          5    1    3    3  502    0 -0.19913658623E+03 -0.40548885997E+03  0.16587737222E+03  0.48126290959E+03  0.47000000000E+01 0. -1.
         -5    1    3    3    0  502 -0.18559289993E+03 -0.32672433251E+03  0.22588505224E+03  0.43845143492E+03  0.47000000000E+01 0.  1.
         11    1    5    5    0    0  0.37456044839E+02 -0.49068562836E+01 -0.48734194567E+02  0.61660799976E+02  0.00000000000E+00 0. -1.
        -11    1    5    5    0    0  0.27882672141E+03  0.19397674594E+03 -0.68520981938E+03  0.76477697083E+03  0.00000000000E+00 0.  1.
          1    1    6    6  503    0  0.53550126513E+02  0.12878988409E+03 -0.63522312673E+02  0.15326295867E+03  0.00000000000E+00 0. -1.
         -1    1    6    6    0  503  0.14896593401E+02  0.41435341873E+03 -0.25267530222E+03  0.48554657085E+03  0.00000000000E+00 0.  1.
<mgrwt>
<rscale>  0 0.87954971E+03</rscale>
<asrwt>0</asrwt>
<pdfrwt beam="1">  1        2 0.23410314E+00 0.87954971E+03</pdfrwt>
<pdfrwt beam="2">  1       -2 0.13281403E+00 0.87954971E+03</pdfrwt>
<totfact> 0.51154210E+00</totfact>
</mgrwt>
</event>
<event>
12    1  0.3147868E-008  0.5119041E+03  0.7818608E-02  0.1010718E+00
         -1   -1    0    0    0  501 -0.00000000000E+00  0.00000000000E+00  0.24016198905E+03  0.24016198905E+03  0.00000000000E+00 0. -1.
          1   -1    0    0  501    0  0.00000000000E+00 -0.00000000000E+00 -0.18150169417E+04  0.18150169417E+04  0.00000000000E+00 0.  1.
         23    2    1    2    0    0 -0.32368267093E+03  0.34601836086E+03 -0.95678741333E+03  0.10721131012E+04  0.97391837040E+02 0.  0.
    5000000    2    1    2    0    0  0.32368267093E+03 -0.34601836086E+03 -0.61806753936E+03  0.98306582960E+03  0.59992646600E+03 0.  0.
         23    2    4    4    0    0  0.28060996913E+03 -0.11724706412E+03  0.95452624004E+00  0.31701627728E+03  0.89496257562E+02 0.  0.
         23    2    4    4    0    0  0.43072701798E+02 -0.22877129675E+03 -0.61902206560E+03  0.66604955232E+03  0.79007117378E+02 0.  0.
          5    1    3    3  502    0 -0.28635581511E+03  0.34007484038E+03 -0.89850359209E+03  0.10024875784E+04  0.47000000000E+01 0. -1.
         -5    1    3    3    0  502 -0.37326855822E+02  0.59435204800E+01 -0.58283821238E+02  0.69625522758E+02  0.47000000000E+01 0.  1.
         11    1    5    5    0    0  0.10868928804E+03 -0.24319025447E+02  0.38829573759E+02  0.11795131255E+03  0.00000000000E+00 0. -1.
        -11    1    5    5    0    0  0.17192068109E+03 -0.92928038669E+02 -0.37875047519E+02  0.19906496473E+03  0.00000000000E+00 0.  1.
          1    1    6    6  503    0  0.21418924923E+02 -0.17556735018E+03 -0.36475637572E+03  0.40537621837E+03  0.00000000000E+00 0. -1.
         -1    1    6    6    0  503  0.21653776875E+02 -0.53203946569E+02 -0.25426568988E+03  0.26067333395E+03  0.00000000000E+00 0.  1.
<mgrwt>
<rscale>  0 0.51190409E+03</rscale>
<asrwt>0</asrwt>
<pdfrwt beam="1">  1        1 0.27923337E+00 0.51190409E+03</pdfrwt>
<pdfrwt beam="2">  1       -1 0.36947999E-01 0.51190409E+03</pdfrwt>
<totfact> 0.30096724E+01</totfact>
</mgrwt>
</event>
<event>
12    1  0.3147868E-008  0.7398352E+03  0.7818608E-02  0.9651434E-01
          2   -1    0    0  501    0  0.00000000000E+00  0.00000000000E+00  0.84493616811E+03  0.84493616811E+03  0.00000000000E+00 0. -1.
         -2   -1    0    0    0  501 -0.00000000000E+00 -0.00000000000E+00 -0.12666168763E+04  0.12666168763E+04  0.00000000000E+00 0.  1.
         23    2    1    2    0    0  0.65449966576E+03 -0.25178670709E+03 -0.84016535314E+03  0.10981985784E+04  0.91629355024E+02 0.  0.
    5000000    2    1    2    0    0 -0.65449966576E+03  0.25178670709E+03  0.41848464492E+03  0.10133544660E+04  0.59999293111E+03 0.  0.
         23    2    4    4    0    0 -0.17785100715E+03 -0.59848900883E+02  0.38345216636E+03  0.43576617493E+03  0.87428391528E+02 0.  0.
         23    2    4    4    0    0 -0.47664865861E+03  0.31163560797E+03  0.35032478565E+02  0.57758829107E+03  0.89834645422E+02 0.  0.
          5    1    3    3  502    0  0.28952954839E+03 -0.11955050049E+03 -0.44529098233E+03  0.54445002572E+03  0.47000000000E+01 0. -1.
         -5    1    3    3    0  502  0.36497011737E+03 -0.13223620660E+03 -0.39487437080E+03  0.55374855271E+03  0.47000000000E+01 0.  1.
         13    1    5    5    0    0 -0.83264164179E+02  0.13392890994E+02  0.12277259854E+03  0.14894764690E+03  0.00000000000E+00 0. -1.
        -13    1    5    5    0    0 -0.94586842973E+02 -0.73241791877E+02  0.26067956782E+03  0.28681852803E+03  0.00000000000E+00 0.  1.
          1    1    6    6  503    0 -0.24848058028E+03  0.20606098461E+03  0.45301658408E+02  0.32596927525E+03  0.00000000000E+00 0. -1.
         -1    1    6    6    0  503 -0.22816807833E+03  0.10557462336E+03 -0.10269179842E+02  0.25161901582E+03  0.00000000000E+00 0.  1.
<mgrwt>
<rscale>  0 0.73983521E+03</rscale>
<asrwt>0</asrwt>
<pdfrwt beam="1">  1        2 0.12999018E+00 0.73983521E+03</pdfrwt>
<pdfrwt beam="2">  1       -2 0.19486413E+00 0.73983521E+03</pdfrwt>
<totfact> 0.47077465E+00</totfact>
</mgrwt>
</event>
<event>
12    1  0.3147868E-008  0.4933179E+03  0.7818608E-02  0.1015538E+00
         -1   -1    0    0    0  501 -0.00000000000E+00  0.00000000000E+00  0.57134618477E+03  0.57134618477E+03  0.00000000000E+00 0.  1.
          1   -1    0    0  501    0  0.00000000000E+00 -0.00000000000E+00 -0.71754943496E+03  0.71754943496E+03  0.00000000000E+00 0. -1.
         23    2    1    2    0    0  0.29703565687E+03  0.12462620042E+03  0.32173226217E+03  0.46280193604E+03  0.83139113525E+02 0.  0.
    5000000    2    1    2    0    0 -0.29703565687E+03 -0.12462620042E+03 -0.46793551235E+03  0.82609368369E+03  0.59975433240E+03 0.  0.
         23    2    4    4    0    0  0.15974149902E+03  0.19037510144E+02 -0.80131404186E+02  0.20261513911E+03  0.93552548638E+02 0.  0.
         23    2    4    4    0    0 -0.45677715589E+03 -0.14366371057E+03 -0.38780410816E+03  0.62347854458E+03  0.95125377104E+02 0.  0.
          5    1    3    3  502    0  0.65673871189E+02  0.62904889472E+02  0.66223467473E+02  0.11259538232E+03  0.47000000000E+01 0. -1.
         -5    1    3    3    0  502  0.23136178569E+03  0.61721310953E+02  0.25550879469E+03  0.35020655372E+03  0.47000000000E+01 0.  1.
         13    1    5    5    0    0  0.26831589906E+02 -0.15705492954E+02 -0.54681187186E+02  0.62901740500E+02  0.00000000000E+00 0. -1.
        -13    1    5    5    0    0  0.13290990911E+03  0.34743003099E+02 -0.25450217000E+02  0.13971339861E+03  0.00000000000E+00 0.  1.
          3    1    6    6  503    0 -0.29953817224E+03 -0.13921136177E+03 -0.27679809676E+03  0.43095255684E+03  0.00000000000E+00 0. -1.
         -3    1    6    6    0  503 -0.15723898366E+03 -0.44523487981E+01 -0.11100601140E+03  0.19252598775E+03  0.00000000000E+00 0.  1.
<mgrwt>
<rscale>  0 0.49331795E+03</rscale>
<asrwt>0</asrwt>
<pdfrwt beam="1">  1        1 0.11039222E+00 0.49331795E+03</pdfrwt>
<pdfrwt beam="2">  1       -1 0.87899413E-01 0.49331795E+03</pdfrwt>
<totfact> 0.35284311E+01</totfact>
</mgrwt>
</event>
<event>
12    1  0.3147868E-008  0.5805167E+03  0.7818608E-02  0.9946673E-01
          2   -1    0    0  501    0  0.00000000000E+00  0.00000000000E+00  0.15113813588E+04  0.15113813588E+04  0.00000000000E+00 0.  1.
         -2   -1    0    0    0  501 -0.00000000000E+00 -0.00000000000E+00 -0.25922897293E+03  0.25922897293E+03  0.00000000000E+00 0. -1.
         23    2    1    2    0    0  0.19753016453E+03 -0.38883061018E+03  0.75755988743E+03  0.87916270361E+03  0.93929053409E+02 0.  0.
    5000000    2    1    2    0    0 -0.19753016453E+03  0.38883061018E+03  0.49459249843E+03  0.89144762811E+03  0.59987475763E+03 0.  0.
         23    2    4    4    0    0  0.76811725154E+01 -0.13933996718E+03  0.15515219927E+03  0.22510748893E+03  0.84418894630E+02 0.  0.
         23    2    4    4    0    0 -0.20521133705E+03  0.52817057736E+03  0.33944029916E+03  0.66634013917E+03  0.87827175369E+02 0.  0.
          5    1    3    3  502    0  0.65359825880E+02 -0.15405727568E+03  0.20723852021E+03  0.26641217180E+03  0.47000000000E+01 0. -1.
         -5    1    3    3    0  502  0.13217033865E+03 -0.23477333450E+03  0.55032136722E+03  0.61275053181E+03  0.47000000000E+01 0.  1.
         13    1    5    5    0    0 -0.25514010773E+02 -0.26590319741E+02  0.97068926703E+01  0.38108183044E+02  0.00000000000E+00 0.  1.
        -13    1    5    5    0    0  0.33195183288E+02 -0.11274964744E+03  0.14544530660E+03  0.18699930589E+03  0.00000000000E+00 0. -1.
          2    1    6    6  503    0 -0.57932051582E+02  0.23036007913E+03  0.10494802505E+03  0.25968437885E+03  0.00000000000E+00 0. -1.
         -2    1    6    6    0  503 -0.14727928546E+03  0.29781049824E+03  0.23449227412E+03  0.40665576033E+03  0.00000000000E+00 0.  1.
<mgrwt>
<rscale>  0 0.58051668E+03</rscale>
<asrwt>0</asrwt>
<pdfrwt beam="1">  1        2 0.23252020E+00 0.58051668E+03</pdfrwt>
<pdfrwt beam="2">  1       -2 0.39881381E-01 0.58051668E+03</pdfrwt>
<totfact> 0.77305845E+01</totfact>
</mgrwt>
</event>
<event>
12    1  0.3147868E-008  0.9851498E+03  0.7818608E-02  0.9324984E-01
         -1   -1    0    0    0  501 -0.00000000000E+00  0.00000000000E+00  0.46270363469E+03  0.46270363469E+03  0.00000000000E+00 0.  1.
          1   -1    0    0  501    0  0.00000000000E+00 -0.00000000000E+00 -0.21977414878E+04  0.21977414878E+04  0.00000000000E+00 0. -1.
         23    2    1    2    0    0 -0.28093003077E+03 -0.86785256586E+03 -0.67355828944E+03  0.11376786066E+04  0.92423397884E+02 0.  0.
    5000000    2    1    2    0    0  0.28093003077E+03  0.86785256586E+03 -0.10614795637E+04  0.15227665158E+04  0.59999103280E+03 0.  0.
         23    2    4    4    0    0 -0.34590124415E+02 -0.52250907429E+02 -0.72877974889E+02  0.13286353803E+03  0.91732690359E+02 0.  0.
         23    2    4    4    0    0  0.31552015519E+03  0.92010347329E+03 -0.98860158878E+03  0.13899029778E+04  0.91399215038E+02 0.  0.
          5    1    3    3  502    0 -0.11430456358E+03 -0.45814615481E+03 -0.38822172060E+03  0.61131139918E+03  0.47000000000E+01 0. -1.
         -5    1    3    3    0  502 -0.16662546719E+03 -0.40970641105E+03 -0.28533656884E+03  0.52636720746E+03  0.47000000000E+01 0.  1.
         11    1    5    5    0    0 -0.51470191784E+01 -0.53241044555E+02 -0.85468240593E+02  0.10082619095E+03  0.00000000000E+00 0.  1.
        -11    1    5    5    0    0 -0.29443105236E+02  0.99013712574E+00  0.12590265704E+02  0.32037347081E+02  0.00000000000E+00 0. -1.
          4    1    6    6  503    0  0.18772065748E+03  0.52412740768E+03 -0.62858719426E+03  0.83968472983E+03  0.00000000000E+00 0.  1.
         -4    1    6    6    0  503  0.12779949771E+03  0.39597606562E+03 -0.36001439452E+03  0.55021824798E+03  0.00000000000E+00 0. -1.
<mgrwt>
<rscale>  0 0.98514982E+03</rscale>
<asrwt>0</asrwt>
<pdfrwt beam="1">  1        1 0.33811407E+00 0.98514982E+03</pdfrwt>
<pdfrwt beam="2">  1       -1 0.71185176E-01 0.98514982E+03</pdfrwt>
<totfact> 0.44277645E+00</totfact>
</mgrwt>
</event>
<event>
12    1  0.3147868E-008  0.6545537E+03  0.7818608E-02  0.9798272E-01
         -2   -1    0    0    0  501 -0.00000000000E+00  0.00000000000E+00  0.38861573075E+03  0.38861573075E+03  0.00000000000E+00 0. -1.
          2   -1    0    0  501    0  0.00000000000E+00 -0.00000000000E+00 -0.13073615702E+04  0.13073615702E+04  0.00000000000E+00 0.  1.
         23    2    1    2    0    0  0.33649276538E+03  0.44426104224E+03 -0.58120521924E+03  0.81021046350E+03  0.89700799839E+02 0.  0.
    5000000    2    1    2    0    0 -0.33649276538E+03 -0.44426104224E+03 -0.33754062025E+03  0.88576683749E+03  0.60004496938E+03 0.  0.
         23    2    4    4    0    0 -0.40352364718E+03 -0.15864662154E+03 -0.36896428675E+03  0.57660010084E+03  0.91284977053E+02 0.  0.
         23    2    4    4    0    0  0.67030881803E+02 -0.28561442070E+03  0.31423666492E+02  0.30916673665E+03  0.92346563606E+02 0.  0.
          5    1    3    3  502    0  0.94874546862E+02  0.19414440638E+03 -0.20545252020E+03  0.29820472537E+03  0.47000000000E+01 0. -1.
         -5    1    3    3    0  502  0.24161821852E+03  0.25011663586E+03 -0.37575269904E+03  0.51200573814E+03  0.47000000000E+01 0.  1.
         13    1    5    5    0    0 -0.20978169452E+03 -0.36679794634E+02 -0.19898904688E+03  0.29146253184E+03  0.00000000000E+00 0. -1.
        -13    1    5    5    0    0 -0.19374195266E+03 -0.12196682691E+03 -0.16997523987E+03  0.28513756900E+03  0.00000000000E+00 0.  1.
          2    1    6    6  503    0  0.70977696778E+02 -0.13422553197E+03 -0.99933130100E+01  0.15216501956E+03  0.00000000000E+00 0. -1.
         -2    1    6    6    0  503 -0.39468149749E+01 -0.15138888873E+03  0.41416979502E+02  0.15700171709E+03  0.00000000000E+00 0.  1.
<mgrwt>
<rscale>  0 0.65455372E+03</rscale>
<asrwt>0</asrwt>
<pdfrwt beam="1">  1        2 0.20113255E+00 0.65455372E+03</pdfrwt>
<pdfrwt beam="2">  1       -2 0.59787035E-01 0.65455372E+03</pdfrwt>
<totfact> 0.43995700E+01</totfact>
</mgrwt>
</event>
<event>
12    1  0.3147868E-008  0.1176913E+04  0.7818608E-02  0.9133308E-01
         -2   -1    0    0    0  501 -0.00000000000E+00  0.00000000000E+00  0.73544791258E+03  0.73544791258E+03  0.00000000000E+00 0.  1.
          2   -1    0    0  501    0  0.00000000000E+00 -0.00000000000E+00 -0.22600698326E+04  0.22600698326E+04  0.00000000000E+00 0. -1.
         23    2    1    2    0    0  0.88139523784E+03 -0.70897935335E+03 -0.12453309222E+04  0.16848143937E+04  0.90780761322E+02 0.  0.
    5000000    2    1    2    0    0 -0.88139523784E+03  0.70897935335E+03 -0.27929099775E+03  0.13107033514E+04  0.60035866388E+03 0.  0.
         23    2    4    4    0    0  0.60263945612E+01  0.16816237278E+03  0.79889413494E+02  0.20765585716E+03  0.91780910712E+02 0.  0.
         23    2    4    4    0    0 -0.88742163240E+03  0.54081698057E+03 -0.35918041125E+03  0.11030474943E+04  0.87767002374E+02 0.  0.
          5    1    3    3  502    0  0.41015368415E+03 -0.27329076433E+03 -0.52990951352E+03  0.72369888007E+03  0.47000000000E+01 0. -1.
         -5    1    3    3    0  502  0.47124155369E+03 -0.43568858902E+03 -0.71542140871E+03  0.96111551365E+03  0.47000000000E+01 0.  1.
         13    1    5    5    0    0 -0.27602894870E+02  0.81368080401E+02  0.75646870692E+02  0.11447765441E+03  0.00000000000E+00 0. -1.
        -13    1    5    5    0    0  0.33629289431E+02  0.86794292382E+02  0.42425428021E+01  0.93178202747E+02  0.00000000000E+00 0.  1.
          2    1    6    6  503    0 -0.55005801621E+03  0.31047374805E+03 -0.17846439090E+03  0.65635913054E+03  0.00000000000E+00 0. -1.
         -2    1    6    6    0  503 -0.33736361619E+03  0.23034323252E+03 -0.18071602034E+03  0.44668836375E+03  0.00000000000E+00 0.  1.
<mgrwt>
<rscale>  0 0.11769134E+04</rscale>
<asrwt>0</asrwt>
<pdfrwt beam="1">  1        2 0.34770306E+00 0.11769134E+04</pdfrwt>
<pdfrwt beam="2">  1       -2 0.11314583E+00 0.11769134E+04</pdfrwt>
<totfact> 0.28764619E+00</totfact>
</mgrwt>
</event>
<event>
12    1  0.3147868E-008  0.5639507E+03  0.7818608E-02  0.9983155E-01
         -2   -1    0    0    0  501 -0.00000000000E+00  0.00000000000E+00  0.62790985615E+03  0.62790985615E+03  0.00000000000E+00 0.  1.
          2   -1    0    0  501    0  0.00000000000E+00 -0.00000000000E+00 -0.94085028503E+03  0.94085028503E+03  0.00000000000E+00 0. -1.
         23    2    1    2    0    0 -0.45014490877E+03 -0.90789922064E+02 -0.59951530167E+03  0.76081424891E+03  0.92447150103E+02 0.  0.
    5000000    2    1    2    0    0  0.45014490877E+03  0.90789922064E+02  0.28657487278E+03  0.80794589228E+03  0.59981510342E+03 0.  0.
         23    2    4    4    0    0  0.52375486801E+03 -0.59881110949E+01  0.59904908623E+02  0.53515028777E+03  0.91881517107E+02 0.  0.
         23    2    4    4    0    0 -0.73609959237E+02  0.96778033159E+02  0.22666996416E+03  0.27279560451E+03  0.90850180982E+02 0.  0.
          5    1    3    3  502    0 -0.23439325035E+03 -0.52889325645E+00 -0.29385276347E+03  0.37591490013E+03  0.47000000000E+01 0. -1.
         -5    1    3    3    0  502 -0.21575165842E+03 -0.90261028808E+02 -0.30566253820E+03  0.38489934878E+03  0.47000000000E+01 0.  1.
         13    1    5    5    0    0  0.15348588808E+03  0.18143728343E+02  0.55044146696E+02  0.16406392291E+03  0.00000000000E+00 0.  1.
        -13    1    5    5    0    0  0.37026897994E+03 -0.24131839438E+02  0.48607619274E+01  0.37108636486E+03  0.00000000000E+00 0. -1.
          1    1    6    6  503    0 -0.61027472327E+02  0.33905546054E+02  0.52955547268E+02  0.87625500959E+02  0.00000000000E+00 0. -1.
         -1    1    6    6    0  503 -0.12582486910E+02  0.62872487105E+02  0.17371441689E+03  0.18517010355E+03  0.00000000000E+00 0.  1.
<mgrwt>
<rscale>  0 0.56395072E+03</rscale>
<asrwt>0</asrwt>
<pdfrwt beam="1">  1        2 0.14474620E+00 0.56395072E+03</pdfrwt>
<pdfrwt beam="2">  1       -2 0.96601516E-01 0.56395072E+03</pdfrwt>
<totfact> 0.25590503E+01</totfact>
</mgrwt>
</event>
<event>
12    1  0.3147868E-008  0.7648552E+03  0.7818608E-02  0.9612329E-01
         -2   -1    0    0    0  501 -0.00000000000E+00  0.00000000000E+00  0.94440506110E+03  0.94440506110E+03  0.00000000000E+00 0. -1.
          2   -1    0    0  501    0  0.00000000000E+00 -0.00000000000E+00 -0.10988824823E+04  0.10988824823E+04  0.00000000000E+00 0.  1.
         23    2    1    2    0    0 -0.56053918792E+03 -0.49031354373E+03  0.48436539430E+03  0.89317734303E+03  0.92435807673E+02 0.  0.
    5000000    2    1    2    0    0  0.56053918792E+03  0.49031354373E+03 -0.63884281545E+03  0.11501102003E+04  0.60001814779E+03 0.  0.
         23    2    4    4    0    0  0.51769503956E+03  0.45876399413E+03 -0.73061318319E+03  0.10102421745E+04  0.91219906368E+02 0.  0.
         23    2    4    4    0    0  0.42844148357E+02  0.31549549600E+02  0.91770367736E+02  0.13986802586E+03  0.91160677575E+02 0.  0.
          5    1    3    3  502    0 -0.52195762795E+03 -0.42337847068E+03  0.42022325755E+03  0.79265299532E+03  0.47000000000E+01 0. -1.
         -5    1    3    3    0  502 -0.38581559970E+02 -0.66935073051E+02  0.64142136751E+02  0.10052434770E+03  0.47000000000E+01 0.  1.
         11    1    5    5    0    0  0.29286247891E+03  0.20561200852E+03 -0.34463386964E+03  0.49680703870E+03  0.00000000000E+00 0. -1.
        -11    1    5    5    0    0  0.22483256066E+03  0.25315198561E+03 -0.38597931354E+03  0.51343513576E+03  0.00000000000E+00 0.  1.
          4    1    6    6  503    0 -0.12299253356E+02 -0.90966018580E+01  0.64243309832E+02  0.66039553728E+02  0.00000000000E+00 0. -1.
         -4    1    6    6    0  503  0.55143401712E+02  0.40646151458E+02  0.27527057904E+02  0.73828472134E+02  0.00000000000E+00 0.  1.
<mgrwt>
<rscale>  0 0.76485520E+03</rscale>
<asrwt>0</asrwt>
<pdfrwt beam="1">  1        2 0.16905884E+00 0.76485520E+03</pdfrwt>
<pdfrwt beam="2">  1       -2 0.14529309E+00 0.76485520E+03</pdfrwt>
<totfact> 0.72370156E+00</totfact>
</mgrwt>
</event>
<event>
12    1  0.3147868E-008  0.5727771E+03  0.7818608E-02  0.9963552E-01
          1   -1    0    0  501    0  0.00000000000E+00  0.00000000000E+00  0.10086617016E+04  0.10086617016E+04  0.00000000000E+00 0. -1.
         -1   -1    0    0    0  501 -0.00000000000E+00 -0.00000000000E+00 -0.84023848966E+03  0.84023848966E+03  0.00000000000E+00 0.  1.
         23    2    1    2    0    0  0.52900607165E+03 -0.14858281555E+03 -0.53549165294E+03  0.77319342126E+03  0.95668591483E+02 0.  0.
    5000000    2    1    2    0    0 -0.52900607165E+03  0.14858281555E+03  0.70391486486E+03  0.10757067700E+04  0.59977049035E+03 0.  0.
         23    2    4    4    0    0 -0.38653244050E+03  0.36739708136E+02  0.76596114707E+03  0.86343910620E+03  0.89852532468E+02 0.  0.
         23    2    4    4    0    0 -0.14247363116E+03  0.11184310741E+03 -0.62046282212E+02  0.21226766378E+03  0.91652625157E+02 0.  0.
          5    1    3    3  502    0  0.48826749180E+03 -0.15600464954E+03 -0.46937198974E+03  0.69503578971E+03  0.47000000000E+01 0. -1.
         -5    1    3    3    0  502  0.40738579852E+02  0.74218339929E+01 -0.66119663200E+02  0.78157631552E+02  0.47000000000E+01 0.  1.
         13    1    5    5    0    0 -0.26212243245E+03  0.12236234727E+02  0.42292995230E+03  0.49772245236E+03  0.00000000000E+00 0. -1.
        -13    1    5    5    0    0 -0.12441000805E+03  0.24503473408E+02  0.34303119477E+03  0.36571665384E+03  0.00000000000E+00 0.  1.
          1    1    6    6  503    0 -0.63891262014E+02  0.10535683321E+03 -0.27861483406E+02  0.12632663189E+03  0.00000000000E+00 0. -1.
         -1    1    6    6    0  503 -0.78582369144E+02  0.64862742027E+01 -0.34184798805E+02  0.85941031892E+02  0.00000000000E+00 0.  1.
<mgrwt>
<rscale>  0 0.57277714E+03</rscale>
<asrwt>0</asrwt>
<pdfrwt beam="1">  1        1 0.15517872E+00 0.57277714E+03</pdfrwt>
<pdfrwt beam="2">  1       -1 0.12926746E+00 0.57277714E+03</pdfrwt>
<totfact> 0.81593365E+00</totfact>
</mgrwt>
</event>
<event>
12    1  0.3147868E-008  0.7110333E+03  0.7818608E-02  0.9698548E-01
         -2   -1    0    0    0  501 -0.00000000000E+00  0.00000000000E+00  0.23954600870E+03  0.23954600870E+03  0.00000000000E+00 0.  1.
          2   -1    0    0  501    0  0.00000000000E+00 -0.00000000000E+00 -0.26144398536E+04  0.26144398536E+04  0.00000000000E+00 0. -1.
         23    2    1    2    0    0  0.65367643797E+03  0.15951728223E+03 -0.10982305048E+04  0.12911314710E+04  0.90396818793E+02 0.  0.
    5000000    2    1    2    0    0 -0.65367643797E+03 -0.15951728223E+03 -0.12766633401E+04  0.15628543913E+04  0.59992159119E+03 0.  0.
         23    2    4    4    0    0 -0.94313264888E+02  0.83315347383E+02 -0.70437124592E+03  0.72156790909E+03  0.93193112940E+02 0.  0.
         23    2    4    4    0    0 -0.55936317309E+03 -0.24283262961E+03 -0.57229209421E+03  0.84128648225E+03  0.91596171874E+02 0.  0.
          5    1    3    3  502    0  0.43097961133E+03  0.94456503743E+02 -0.79573873404E+03  0.90988333282E+03  0.47000000000E+01 0. -1.
         -5    1    3    3    0  502  0.22269682665E+03  0.65060778482E+02 -0.30249177077E+03  0.38124813820E+03  0.47000000000E+01 0.  1.
         13    1    5    5    0    0 -0.77680434690E+02  0.42791936087E+02 -0.62183894582E+03  0.62813141480E+03  0.00000000000E+00 0. -1.
        -13    1    5    5    0    0 -0.16632830198E+02  0.40523411297E+02 -0.82532300106E+02  0.93436494285E+02  0.00000000000E+00 0.  1.
          3    1    6    6  503    0 -0.18438203211E+03 -0.12676355217E+03 -0.19419797931E+03  0.29627451306E+03  0.00000000000E+00 0. -1.
         -3    1    6    6    0  503 -0.37498114098E+03 -0.11606907744E+03 -0.37809411491E+03  0.54501196919E+03  0.00000000000E+00 0.  1.
<mgrwt>
<rscale>  0 0.71103327E+03</rscale>
<asrwt>0</asrwt>
<pdfrwt beam="1">  1        2 0.40222151E+00 0.71103327E+03</pdfrwt>
<pdfrwt beam="2">  1       -2 0.36853233E-01 0.71103327E+03</pdfrwt>
<totfact> 0.21831554E+01</totfact>
</mgrwt>
</event>
<event>
12    1  0.3147868E-008  0.6479174E+03  0.7818608E-02  0.9810695E-01
         -1   -1    0    0    0  501 -0.00000000000E+00  0.00000000000E+00  0.40954163451E+03  0.40954163451E+03  0.00000000000E+00 0.  1.
          1   -1    0    0  501    0  0.00000000000E+00 -0.00000000000E+00 -0.17502276117E+04  0.17502276117E+04  0.00000000000E+00 0. -1.
         23    2    1    2    0    0 -0.15275261803E+03 -0.60302274730E+03 -0.10925724646E+04  0.12605562971E+04  0.91201928061E+02 0.  0.
    5000000    2    1    2    0    0  0.15275261803E+03  0.60302274730E+03 -0.24811351256E+03  0.89921294908E+03  0.60004484550E+03 0.  0.
         23    2    4    4    0    0 -0.54873874827E+02  0.19460497992E+03 -0.35691977255E+03  0.42005766222E+03  0.90412804437E+02 0.  0.
         23    2    4    4    0    0  0.20762649286E+03  0.40841776738E+03  0.10880626000E+03  0.47915528686E+03  0.88527698830E+02 0.  0.
          5    1    3    3  502    0 -0.24406852133E+02 -0.16549900281E+03 -0.22455348858E+03  0.28005708989E+03  0.47000000000E+01 0. -1.
         -5    1    3    3    0  502 -0.12834576590E+03 -0.43752374448E+03 -0.86801897602E+03  0.98049920721E+03  0.47000000000E+01 0.  1.
         11    1    5    5    0    0 -0.65204603577E+02  0.13811009393E+03 -0.19146181084E+03  0.24491562503E+03  0.00000000000E+00 0.  1.
        -11    1    5    5    0    0  0.10330728750E+02  0.56494885991E+02 -0.16545796171E+03  0.17514203719E+03  0.00000000000E+00 0. -1.
          4    1    6    6  503    0  0.81262481690E+02  0.98815281921E+02  0.59665194674E+02  0.14116651985E+03  0.00000000000E+00 0. -1.
         -4    1    6    6    0  503  0.12636401117E+03  0.30960248546E+03  0.49141065323E+02  0.33798876701E+03  0.00000000000E+00 0.  1.
<mgrwt>
<rscale>  0 0.64791735E+03</rscale>
<asrwt>0</asrwt>
<pdfrwt beam="1">  1        1 0.26926578E+00 0.64791735E+03</pdfrwt>
<pdfrwt beam="2">  1       -1 0.63006407E-01 0.64791735E+03</pdfrwt>
<totfact> 0.11911600E+01</totfact>
</mgrwt>
</event>
<event>
12    1  0.3147868E-008  0.5435553E+03  0.7818608E-02  0.1002997E+00
          2   -1    0    0  501    0  0.00000000000E+00  0.00000000000E+00  0.14942776903E+04  0.14942776903E+04  0.00000000000E+00 0. -1.
         -2   -1    0    0    0  501 -0.00000000000E+00 -0.00000000000E+00 -0.36298106397E+03  0.36298106397E+03  0.00000000000E+00 0.  1.
         23    2    1    2    0    0 -0.40906174073E+03  0.10989328427E+02 -0.97034107389E+02  0.43019530345E+03  0.90554447948E+02 0.  0.
    5000000    2    1    2    0    0  0.40906174073E+03 -0.10989328427E+02  0.12283307337E+04  0.14270634508E+04  0.60021781730E+03 0.  0.
         23    2    4    4    0    0  0.28482811196E+03  0.23660439851E+03  0.42390938628E+03  0.57038765450E+03  0.92380808970E+02 0.  0.
         23    2    4    4    0    0  0.12423362877E+03 -0.24759372694E+03  0.80442134740E+03  0.85667579629E+03  0.10031484268E+03 0.  0.
          5    1    3    3  502    0 -0.24543051021E+03 -0.22530862251E+02 -0.91712136064E+02  0.26301517256E+03  0.47000000000E+01 0. -1.
         -5    1    3    3    0  502 -0.16363123052E+03  0.33520190678E+02 -0.53219713246E+01  0.16718013089E+03  0.47000000000E+01 0.  1.
         11    1    5    5    0    0  0.59976991985E+02  0.11493075995E+02  0.93617941362E+02  0.11177499411E+03  0.00000000000E+00 0. -1.
        -11    1    5    5    0    0  0.22485111998E+03  0.22511132252E+03  0.33029144492E+03  0.45861266039E+03  0.00000000000E+00 0.  1.
          2    1    6    6  503    0  0.10071297671E+03 -0.90429682262E+02  0.39088626494E+03  0.41365771264E+03  0.00000000000E+00 0. -1.
         -2    1    6    6    0  503  0.23520652060E+02 -0.15716404468E+03  0.41353508246E+03  0.44301808365E+03  0.00000000000E+00 0.  1.
<mgrwt>
<rscale>  0 0.54355528E+03</rscale>
<asrwt>0</asrwt>
<pdfrwt beam="1">  1        2 0.22988887E+00 0.54355528E+03</pdfrwt>
<pdfrwt beam="2">  1       -2 0.55843241E-01 0.54355528E+03</pdfrwt>
<totfact> 0.40438219E+01</totfact>
</mgrwt>
</event>
<event>
12    1  0.3147868E-008  0.9768137E+03  0.7818608E-02  0.9334347E-01
         -2   -1    0    0    0  501 -0.00000000000E+00  0.00000000000E+00  0.70248217400E+03  0.70248217400E+03  0.00000000000E+00 0.  1.
          2   -1    0    0  501    0  0.00000000000E+00 -0.00000000000E+00 -0.15820355312E+04  0.15820355312E+04  0.00000000000E+00 0. -1.
         23    2    1    2    0    0  0.96541380099E+03 -0.21962780999E+02 -0.35902496028E+03  0.10341005542E+04  0.89212460688E+02 0.  0.
    5000000    2    1    2    0    0 -0.96541380099E+03  0.21962780999E+02 -0.52052839695E+03  0.12504171511E+04  0.60007255292E+03 0.  0.
         23    2    4    4    0    0 -0.12033372876E+03 -0.19244772415E+02 -0.35104653496E+03  0.38265812058E+03  0.91340024029E+02 0.  0.
         23    2    4    4    0    0 -0.84508007222E+03  0.41207553414E+02 -0.16948186199E+03  0.86775903049E+03  0.91778224724E+02 0.  0.
          5    1    3    3  502    0  0.60606266762E+03 -0.56011737084E+02 -0.23324813148E+03  0.65182517028E+03  0.47000000000E+01 0. -1.
         -5    1    3    3    0  502  0.35935113337E+03  0.34048956086E+02 -0.12577682880E+03  0.38227538388E+03  0.47000000000E+01 0.  1.
         13    1    5    5    0    0 -0.47244546888E+02 -0.34546809688E+02 -0.67017241416E+02  0.88976625680E+02  0.00000000000E+00 0. -1.
        -13    1    5    5    0    0 -0.73089181876E+02  0.15302037273E+02 -0.28402929355E+03  0.29368149490E+03  0.00000000000E+00 0.  1.
          1    1    6    6  503    0 -0.22766159875E+03 -0.28462852522E+02 -0.55548110054E+02  0.23606255537E+03  0.00000000000E+00 0. -1.
         -1    1    6    6    0  503 -0.61741847347E+03  0.69670405936E+02 -0.11393375194E+03  0.63169647512E+03  0.00000000000E+00 0.  1.
<mgrwt>
<rscale>  0 0.97681375E+03</rscale>
<asrwt>0</asrwt>
<pdfrwt beam="1">  1        2 0.24339008E+00 0.97681375E+03</pdfrwt>
<pdfrwt beam="2">  1       -2 0.10807418E+00 0.97681375E+03</pdfrwt>
<totfact> 0.78102811E+00</totfact>
</mgrwt>
</event>
<event>
12    1  0.3147868E-008  0.1842655E+04  0.7818608E-02  0.8683939E-01
         -2   -1    0    0    0  501 -0.00000000000E+00  0.00000000000E+00  0.16019827602E+04  0.16019827602E+04  0.00000000000E+00 0.  1.
          2   -1    0    0  501    0  0.00000000000E+00 -0.00000000000E+00 -0.22803768890E+04  0.22803768890E+04  0.00000000000E+00 0. -1.
         23    2    1    2    0    0 -0.13435565229E+04 -0.12211557318E+04  0.93647000812E+02  0.18202417140E+04  0.90247908364E+02 0.  0.
    5000000    2    1    2    0    0  0.13435565229E+04  0.12211557318E+04 -0.77204112968E+03  0.20621179352E+04  0.59993118046E+03 0.  0.
         23    2    4    4    0    0  0.72775223748E+03  0.94713823907E+03 -0.67358122460E+03  0.13747994044E+04  0.98323817725E+02 0.  0.
         23    2    4    4    0    0  0.61580428542E+03  0.27401749272E+03 -0.98459905077E+02  0.68731853081E+03  0.91716441456E+02 0.  0.
          5    1    3    3  502    0 -0.84954774530E+03 -0.79166053938E+03  0.10050167763E+03  0.11655815966E+04  0.47000000000E+01 0. -1.
         -5    1    3    3    0  502 -0.49400877759E+03 -0.42949519241E+03 -0.68546768220E+01  0.65466011734E+03  0.47000000000E+01 0.  1.
         13    1    5    5    0    0  0.61955326563E+03  0.79611882152E+03 -0.60767773450E+03  0.11776772291E+04  0.00000000000E+00 0. -1.
        -13    1    5    5    0    0  0.10819897185E+03  0.15101941755E+03 -0.65903490095E+02  0.19712217530E+03  0.00000000000E+00 0.  1.
          4    1    6    6  503    0  0.44708505782E+03  0.18211021623E+03 -0.10899103204E+03  0.49490223766E+03  0.00000000000E+00 0. -1.
         -4    1    6    6    0  503  0.16871922760E+03  0.91907276498E+02  0.10531126958E+02  0.19241629315E+03  0.00000000000E+00 0.  1.
<mgrwt>
<rscale>  0 0.18426553E+04</rscale>
<asrwt>0</asrwt>
<pdfrwt beam="1">  1        2 0.35082722E+00 0.18426553E+04</pdfrwt>
<pdfrwt beam="2">  1       -2 0.24645888E+00 0.18426553E+04</pdfrwt>
<totfact> 0.28430631E-01</totfact>
</mgrwt>
</event>
<event>
12    1  0.3147868E-008  0.4588620E+03  0.7818608E-02  0.1025112E+00
          2   -1    0    0  501    0  0.00000000000E+00  0.00000000000E+00  0.47563376268E+03  0.47563376268E+03  0.00000000000E+00 0. -1.
         -2   -1    0    0    0  501 -0.00000000000E+00 -0.00000000000E+00 -0.49287093401E+03  0.49287093401E+03  0.00000000000E+00 0.  1.
         23    2    1    2    0    0 -0.26891747582E+03 -0.68409846765E+02  0.73949540113E+02  0.30136327149E+03  0.91404436337E+02 0.  0.
    5000000    2    1    2    0    0  0.26891747582E+03  0.68409846765E+02 -0.91186711451E+02  0.66714142520E+03  0.59980509246E+03 0.  0.
         23    2    4    4    0    0  0.32806816146E+03 -0.17670567879E+03  0.12933123884E+01  0.38383097104E+03  0.92037634679E+02 0.  0.
         23    2    4    4    0    0 -0.59150685636E+02  0.24511552555E+03 -0.92480023839E+02  0.28331045416E+03  0.90176682947E+02 0.  0.
          5    1    3    3  502    0 -0.24201085315E+03 -0.60928273383E+02  0.93939496220E+02  0.26669875608E+03  0.47000000000E+01 0. -1.
         -5    1    3    3    0  502 -0.26906622666E+02 -0.74815733824E+01 -0.19989956107E+02  0.34664515412E+02  0.47000000000E+01 0.  1.
         11    1    5    5    0    0  0.17599891684E+03 -0.10182978245E+03 -0.44717701038E+02  0.20819365050E+03  0.00000000000E+00 0.  1.
        -11    1    5    5    0    0  0.15206924462E+03 -0.74875896337E+02  0.46011013426E+02  0.17563732054E+03  0.00000000000E+00 0. -1.
          3    1    6    6  503    0 -0.34897959877E+02  0.23954616568E+03 -0.90155597806E+02  0.25831814669E+03  0.00000000000E+00 0. -1.
         -3    1    6    6    0  503 -0.24252725758E+02  0.55693598768E+01 -0.23244260331E+01  0.24992307467E+02  0.00000000000E+00 0.  1.
<mgrwt>
<rscale>  0 0.45886196E+03</rscale>
<asrwt>0</asrwt>
<pdfrwt beam="1">  1        2 0.73174425E-01 0.45886196E+03</pdfrwt>
<pdfrwt beam="2">  1       -2 0.75826297E-01 0.45886196E+03</pdfrwt>
<totfact> 0.10473003E+02</totfact>
</mgrwt>
</event>
<event>
12    1  0.3147868E-008  0.2217844E+04  0.7818608E-02  0.8511038E-01
         -2   -1    0    0    0  501 -0.00000000000E+00  0.00000000000E+00  0.30337617704E+04  0.30337617704E+04  0.00000000000E+00 0.  1.
          2   -1    0    0  501    0  0.00000000000E+00 -0.00000000000E+00 -0.22157172429E+04  0.22157172429E+04  0.00000000000E+00 0. -1.
         23    2    1    2    0    0  0.81620822314E+03 -0.20213593336E+04  0.17555089422E+04  0.28018375143E+04  0.12803277305E+03 0.  0.
    5000000    2    1    2    0    0 -0.81620822314E+03  0.20213593336E+04 -0.93746441477E+03  0.24476414991E+04  0.60001663295E+03 0.  0.
         23    2    4    4    0    0 -0.49401671705E+03  0.53124224121E+03 -0.36625676468E+03  0.81761822560E+03  0.89915013167E+02 0.  0.
         23    2    4    4    0    0 -0.32219150609E+03  0.14901170924E+04 -0.57120765009E+03  0.16300232735E+04  0.80258188337E+02 0.  0.
          5    1    3    3  502    0  0.56396784672E+03 -0.12638997176E+04  0.10666048897E+04  0.17473323407E+04  0.47000000000E+01 0. -1.
         -5    1    3    3    0  502  0.25224037641E+03 -0.75745961606E+03  0.68890405246E+03  0.10545051735E+04  0.47000000000E+01 0.  1.
         13    1    5    5    0    0 -0.24685461778E+03  0.21670417872E+03 -0.13171946723E+03  0.35390383078E+03  0.00000000000E+00 0. -1.
        -13    1    5    5    0    0 -0.24716209927E+03  0.31453806248E+03 -0.23453729745E+03  0.46371439482E+03  0.00000000000E+00 0.  1.
          2    1    6    6  503    0 -0.25875059684E+03  0.12439468053E+04 -0.44537042754E+03  0.13463693191E+04  0.00000000000E+00 0. -1.
         -2    1    6    6    0  503 -0.63440909256E+02  0.24617028711E+03 -0.12583722255E+03  0.28365395432E+03  0.00000000000E+00 0.  1.
<mgrwt>
<rscale>  0 0.22178435E+04</rscale>
<asrwt>0</asrwt>
<pdfrwt beam="1">  1        2 0.34087958E+00 0.22178435E+04</pdfrwt>
<pdfrwt beam="2">  1       -2 0.46673258E+00 0.22178435E+04</pdfrwt>
<totfact> 0.11707422E-02</totfact>
</mgrwt>
</event>
<event>
12    1  0.3147868E-008  0.8749308E+03  0.7818608E-02  0.9457473E-01
         -2   -1    0    0    0  501 -0.00000000000E+00  0.00000000000E+00  0.10490499504E+04  0.10490499504E+04  0.00000000000E+00 0.  1.
          2   -1    0    0  501    0  0.00000000000E+00 -0.00000000000E+00 -0.10456623014E+04  0.10456623014E+04  0.00000000000E+00 0. -1.
         23    2    1    2    0    0  0.59912893114E+03 -0.57061410651E+03 -0.48399630343E+03  0.96241304021E+03  0.86200368641E+02 0.  0.
    5000000    2    1    2    0    0 -0.59912893114E+03  0.57061410651E+03  0.48738395242E+03  0.11322992115E+04  0.60000204392E+03 0.  0.
         23    2    4    4    0    0 -0.58080964469E+03  0.62598371759E+03  0.53785585232E+03  0.10133517139E+04  0.91636892636E+02 0.  0.
         23    2    4    4    0    0 -0.18319286447E+02 -0.55369611086E+02 -0.50471899903E+02  0.11894749766E+03  0.90552219362E+02 0.  0.
          5    1    3    3  502    0  0.20624550076E+03 -0.25392419313E+03 -0.19509700102E+03  0.38091945638E+03  0.47000000000E+01 0. -1.
         -5    1    3    3    0  502  0.39288343038E+03 -0.31668991338E+03 -0.28889930241E+03  0.58149358383E+03  0.47000000000E+01 0.  1.
         13    1    5    5    0    0 -0.37556606014E+03  0.43127031283E+03  0.40523701273E+03  0.70090012465E+03  0.00000000000E+00 0.  1.
        -13    1    5    5    0    0 -0.20524358456E+03  0.19471340477E+03  0.13261883959E+03  0.31245158923E+03  0.00000000000E+00 0. -1.
          3    1    6    6  503    0  0.60699573879E+01 -0.88221288513E+01 -0.63833422174E+02  0.64725421023E+02  0.00000000000E+00 0. -1.
         -3    1    6    6    0  503 -0.24389243835E+02 -0.46547482234E+02  0.13361522270E+02  0.54222076635E+02  0.00000000000E+00 0.  1.
<mgrwt>
<rscale>  0 0.87493081E+03</rscale>
<asrwt>0</asrwt>
<pdfrwt beam="1">  1        2 0.16087112E+00 0.87493081E+03</pdfrwt>
<pdfrwt beam="2">  1       -2 0.16139230E+00 0.87493081E+03</pdfrwt>
<totfact> 0.58201758E+00</totfact>
</mgrwt>
</event>
<event>
12    1  0.3147868E-008  0.1286057E+04  0.7818608E-02  0.9040696E-01
         -2   -1    0    0    0  501 -0.00000000000E+00  0.00000000000E+00  0.83687345696E+03  0.83687345696E+03  0.00000000000E+00 0. -1.
          2   -1    0    0  501    0  0.00000000000E+00 -0.00000000000E+00 -0.21276280314E+04  0.21276280314E+04  0.00000000000E+00 0.  1.
         23    2    1    2    0    0  0.10672076802E+04  0.64011805469E+03 -0.86692490641E+03  0.15193830426E+04  0.91009231091E+02 0.  0.
    5000000    2    1    2    0    0 -0.10672076802E+04 -0.64011805469E+03 -0.42382966805E+03  0.14451184458E+04  0.60004364679E+03 0.  0.
         23    2    4    4    0    0 -0.95014381841E+03 -0.35351414051E+03 -0.46656734081E+03  0.11195511994E+04  0.89242822594E+02 0.  0.
         23    2    4    4    0    0 -0.11706386182E+03 -0.28660391418E+03  0.42737672768E+02  0.32556724634E+03  0.91223746081E+02 0.  0.
          5    1    3    3  502    0  0.43167374803E+03  0.20848996071E+03 -0.34307050540E+03  0.58951653932E+03  0.47000000000E+01 0. -1.
         -5    1    3    3    0  502  0.63553393220E+03  0.43162809399E+03 -0.52385440101E+03  0.92986650330E+03  0.47000000000E+01 0.  1.
         11    1    5    5    0    0 -0.49792787012E+03 -0.20748505978E+03 -0.29126013333E+03  0.61303725755E+03  0.00000000000E+00 0.  1.
        -11    1    5    5    0    0 -0.45221594829E+03 -0.14602908073E+03 -0.17530720749E+03  0.50651394186E+03  0.00000000000E+00 0. -1.
          4    1    6    6  503    0 -0.27059307413E+02 -0.79876106274E+02  0.53442192556E+02  0.99842207590E+02  0.00000000000E+00 0. -1.
         -4    1    6    6    0  503 -0.90004554406E+02 -0.20672780791E+03 -0.10704519788E+02  0.22572503875E+03  0.00000000000E+00 0.  1.
<mgrwt>
<rscale>  0 0.12860572E+04</rscale>
<asrwt>0</asrwt>
<pdfrwt beam="1">  1        2 0.32732739E+00 0.12860572E+04</pdfrwt>
<pdfrwt beam="2">  1       -2 0.12874976E+00 0.12860572E+04</pdfrwt>
<totfact> 0.24408228E+00</totfact>
</mgrwt>
</event>
<event>
12    1  0.3147868E-008  0.7367365E+03  0.7818608E-02  0.9656392E-01
         -1   -1    0    0    0  501 -0.00000000000E+00  0.00000000000E+00  0.11905664902E+04  0.11905664902E+04  0.00000000000E+00 0.  1.
          1   -1    0    0  501    0  0.00000000000E+00 -0.00000000000E+00 -0.11565006304E+04  0.11565006304E+04  0.00000000000E+00 0. -1.
         23    2    1    2    0    0  0.57072820336E+03  0.28287545393E+03 -0.87492692675E+03  0.10853212153E+04  0.81705622529E+02 0.  0.
    5000000    2    1    2    0    0 -0.57072820336E+03 -0.28287545393E+03  0.90899278654E+03  0.12617459052E+04  0.59998803228E+03 0.  0.
         23    2    4    4    0    0 -0.27695162379E+03  0.13657309736E+03  0.52042117449E+03  0.61185098460E+03  0.90382607084E+02 0.  0.
         23    2    4    4    0    0 -0.29377657957E+03 -0.41944855129E+03  0.38857161205E+03  0.64989492064E+03  0.95570624696E+02 0.  0.
          5    1    3    3  502    0  0.55198090517E+03  0.25594775755E+03 -0.81852316182E+03  0.10198992258E+04  0.47000000000E+01 0. -1.
         -5    1    3    3    0  502  0.18747298192E+02  0.26927696376E+02 -0.56403764926E+02  0.65421989571E+02  0.47000000000E+01 0.  1.
         11    1    5    5    0    0 -0.69431952468E+02  0.62821574383E+02  0.98464885557E+02  0.13587744448E+03  0.00000000000E+00 0. -1.
        -11    1    5    5    0    0 -0.20751967132E+03  0.73751522973E+02  0.42195628893E+03  0.47597354012E+03  0.00000000000E+00 0.  1.
          2    1    6    6  503    0 -0.11528048860E+03 -0.10254003578E+03  0.85093182782E+02  0.17619562919E+03  0.00000000000E+00 0. -1.
         -2    1    6    6    0  503 -0.17849609098E+03 -0.31690851550E+03  0.30347842927E+03  0.47369929145E+03  0.00000000000E+00 0.  1.
<mgrwt>
<rscale>  0 0.73673652E+03</rscale>
<asrwt>0</asrwt>
<pdfrwt beam="1">  1        1 0.17792317E+00 0.73673652E+03</pdfrwt>
<pdfrwt beam="2">  1       -1 0.18316408E+00 0.73673652E+03</pdfrwt>
<totfact> 0.23759399E+00</totfact>
</mgrwt>
</event>
<event>
12    1  0.3147868E-008  0.7865671E+03  0.7818608E-02  0.9579667E-01
          1   -1    0    0  501    0  0.00000000000E+00  0.00000000000E+00  0.11313086610E+04  0.11313086610E+04  0.00000000000E+00 0. -1.
         -1   -1    0    0    0  501 -0.00000000000E+00 -0.00000000000E+00 -0.59550091826E+03  0.59550091826E+03  0.00000000000E+00 0.  1.
         23    2    1    2    0    0 -0.15029244844E+03  0.69151661289E+03  0.21115722800E+03  0.74389810699E+03  0.89520794704E+02 0.  0.
    5000000    2    1    2    0    0  0.15029244844E+03 -0.69151661289E+03  0.32465051469E+03  0.98291147222E+03  0.59994496380E+03 0.  0.
         23    2    4    4    0    0 -0.16120595575E+03 -0.17391918207E+03  0.26706902090E+03  0.36904374910E+03  0.92909551516E+02 0.  0.
         23    2    4    4    0    0  0.31149840420E+03 -0.51759743081E+03  0.57581493790E+02  0.61386772312E+03  0.92626113285E+02 0.  0.
          5    1    3    3  502    0 -0.61286463469E+02  0.12148242477E+03  0.47142654171E+02  0.14407820785E+03  0.47000000000E+01 0. -1.
         -5    1    3    3    0  502 -0.89005984976E+02  0.57003418811E+03  0.16401457383E+03  0.59981989914E+03  0.47000000000E+01 0.  1.
         11    1    5    5    0    0 -0.15847773622E+03 -0.11900839299E+03  0.19149588616E+03  0.27558821618E+03  0.00000000000E+00 0.  1.
        -11    1    5    5    0    0 -0.27282195309E+01 -0.54910789077E+02  0.75573134741E+02  0.93455532920E+02  0.00000000000E+00 0. -1.
          4    1    6    6  503    0  0.54700015076E+00 -0.20578017169E+02 -0.11427832667E+02  0.23544624849E+02  0.00000000000E+00 0. -1.
         -4    1    6    6    0  503  0.31095140405E+03 -0.49701941364E+03  0.69009326457E+02  0.59032309828E+03  0.00000000000E+00 0.  1.
<mgrwt>
<rscale>  0 0.78656713E+03</rscale>
<asrwt>0</asrwt>
<pdfrwt beam="1">  1        1 0.17404749E+00 0.78656713E+03</pdfrwt>
<pdfrwt beam="2">  1       -1 0.91615526E-01 0.78656713E+03</pdfrwt>
<totfact> 0.14327557E+01</totfact>
</mgrwt>
</event>
<event>
12    1  0.3147868E-008  0.2015292E+04  0.7818608E-02  0.8599504E-01
          1   -1    0    0  501    0  0.00000000000E+00  0.00000000000E+00  0.25400107556E+04  0.25400107556E+04  0.00000000000E+00 0. -1.
         -1   -1    0    0    0  501 -0.00000000000E+00 -0.00000000000E+00 -0.17549462545E+04  0.17549462545E+04  0.00000000000E+00 0.  1.
         23    2    1    2    0    0  0.16575711184E+04  0.10976549111E+04 -0.19310770164E+03  0.19994866269E+04  0.90927830705E+02 0.  0.
    5000000    2    1    2    0    0 -0.16575711184E+04 -0.10976549111E+04  0.97817220270E+03  0.22954703832E+04  0.59997925422E+03 0.  0.
         23    2    4    4    0    0 -0.69721992304E+03 -0.71780479958E+03  0.69274679817E+03  0.12204482197E+04  0.90754500179E+02 0.  0.
         23    2    4    4    0    0 -0.96035119534E+03 -0.37985011151E+03  0.28542540453E+03  0.10750221634E+04  0.87432629430E+02 0.  0.
          5    1    3    3  502    0  0.50325268329E+03  0.29096996296E+03 -0.77623936144E+02  0.58649326343E+03  0.47000000000E+01 0. -1.
         -5    1    3    3    0  502  0.11543184351E+04  0.80668494812E+03 -0.11548376550E+03  0.14129933635E+04  0.47000000000E+01 0.  1.
         11    1    5    5    0    0 -0.60041015150E+03 -0.56865989888E+03  0.56765306891E+03  0.10030435869E+04  0.00000000000E+00 0. -1.
        -11    1    5    5    0    0 -0.96809771540E+02 -0.14914490070E+03  0.12509372926E+03  0.21740463282E+03  0.00000000000E+00 0.  1.
          1    1    6    6  503    0 -0.11578021774E+03 -0.76710071448E+02  0.45950977214E+02  0.14629075906E+03  0.00000000000E+00 0. -1.
         -1    1    6    6    0  503 -0.84457097761E+03 -0.30314004006E+03  0.23947442732E+03  0.92873140436E+03  0.00000000000E+00 0.  1.
<mgrwt>
<rscale>  0 0.20152923E+04</rscale>
<asrwt>0</asrwt>
<pdfrwt beam="1">  1        1 0.39077089E+00 0.20152923E+04</pdfrwt>
<pdfrwt beam="2">  1       -1 0.26999173E+00 0.20152923E+04</pdfrwt>
<totfact> 0.58332467E-02</totfact>
</mgrwt>
</event>
<event>
12    1  0.3147868E-008  0.9790360E+03  0.7818608E-02  0.9331841E-01
          2   -1    0    0  501    0  0.00000000000E+00  0.00000000000E+00  0.17333526879E+04  0.17333526879E+04  0.00000000000E+00 0. -1.
         -2   -1    0    0    0  501 -0.00000000000E+00 -0.00000000000E+00 -0.57957977666E+03  0.57957977666E+03  0.00000000000E+00 0.  1.
         23    2    1    2    0    0  0.66943215373E+03  0.60677638993E+03  0.39338262476E+03  0.98866280165E+03  0.79920273211E+02 0.  0.
    5000000    2    1    2    0    0 -0.66943215373E+03 -0.60677638993E+03  0.76039028647E+03  0.13242696629E+04  0.59931607394E+03 0.  0.
         23    2    4    4    0    0 -0.70033589617E+03 -0.64827561213E+03  0.74066358163E+03  0.12113762059E+04  0.90100689735E+02 0.  0.
         23    2    4    4    0    0  0.30903742436E+02  0.41499222202E+02  0.19726704841E+02  0.11289345701E+03  0.98379688002E+02 0.  0.
          5    1    3    3  502    0  0.28631326451E+03  0.25997190802E+03  0.21140072456E+03  0.44076414865E+03  0.47000000000E+01 0. -1.
         -5    1    3    3    0  502  0.38311888922E+03  0.34680448191E+03  0.18198190020E+03  0.54789865299E+03  0.47000000000E+01 0.  1.
         11    1    5    5    0    0 -0.23970289880E+02 -0.25275470922E+02  0.51724740387E+02  0.62360829014E+02  0.00000000000E+00 0.  1.
        -11    1    5    5    0    0 -0.67636560629E+03 -0.62300014121E+03  0.68893884124E+03  0.11490153769E+04  0.00000000000E+00 0. -1.
          3    1    6    6  503    0 -0.23056134281E+02  0.39964407945E+02 -0.15223931202E+02  0.48585052348E+02  0.00000000000E+00 0. -1.
         -3    1    6    6    0  503  0.53959876717E+02  0.15348142567E+01  0.34950636043E+02  0.64308404660E+02  0.00000000000E+00 0.  1.
<mgrwt>
<rscale>  0 0.97903596E+03</rscale>
<asrwt>0</asrwt>
<pdfrwt beam="1">  1        2 0.26666964E+00 0.97903596E+03</pdfrwt>
<pdfrwt beam="2">  1       -2 0.89166120E-01 0.97903596E+03</pdfrwt>
<totfact> 0.10151675E+01</totfact>
</mgrwt>
</event>
<event>
12    1  0.3147868E-008  0.1052047E+04  0.7818608E-02  0.9253233E-01
          2   -1    0    0  501    0  0.00000000000E+00  0.00000000000E+00  0.10682302998E+04  0.10682302998E+04  0.00000000000E+00 0. -1.
         -2   -1    0    0    0  501 -0.00000000000E+00 -0.00000000000E+00 -0.11213373756E+04  0.11213373756E+04  0.00000000000E+00 0.  1.
         23    2    1    2    0    0  0.57030181275E+03 -0.81243771394E+03 -0.20582266668E+03  0.10196713246E+04  0.10985191590E+03 0.  0.
    5000000    2    1    2    0    0 -0.57030181275E+03  0.81243771394E+03  0.15271559089E+03  0.11698963508E+04  0.60003018520E+03 0.  0.
         23    2    4    4    0    0 -0.49726797703E+03  0.29664957020E+03 -0.80811740797E+02  0.59183273718E+03  0.91973055155E+02 0.  0.
         23    2    4    4    0    0 -0.73033835726E+02  0.51578814374E+03  0.23352733169E+03  0.57806361357E+03  0.90835985774E+02 0.  0.
          5    1    3    3  502    0  0.24677846965E+03 -0.44225000630E+03 -0.12148528123E+03  0.52083149359E+03  0.47000000000E+01 0. -1.
         -5    1    3    3    0  502  0.32352334310E+03 -0.37018770764E+03 -0.84337385454E+02  0.49883983101E+03  0.47000000000E+01 0.  1.
         11    1    5    5    0    0 -0.30800388055E+03  0.19830122302E+03 -0.93826737323E+02  0.37814444610E+03  0.00000000000E+00 0. -1.
        -11    1    5    5    0    0 -0.18926409648E+03  0.98348347184E+02  0.13014996526E+02  0.21368829108E+03  0.00000000000E+00 0.  1.
          1    1    6    6  503    0 -0.57311093528E+01  0.30570189970E+03  0.10813915998E+03  0.32431554852E+03  0.00000000000E+00 0. -1.
         -1    1    6    6    0  503 -0.67302726373E+02  0.21008624404E+03  0.12538817171E+03  0.25374806505E+03  0.00000000000E+00 0.  1.
<mgrwt>
<rscale>  0 0.10520468E+04</rscale>
<asrwt>0</asrwt>
<pdfrwt beam="1">  1        2 0.16434312E+00 0.10520468E+04</pdfrwt>
<pdfrwt beam="2">  1       -2 0.17251344E+00 0.10520468E+04</pdfrwt>
<totfact> 0.45983518E+00</totfact>
</mgrwt>
</event>
<event>
12    1  0.3147868E-008  0.5296947E+03  0.7818608E-02  0.1006306E+00
          1   -1    0    0  501    0  0.00000000000E+00  0.00000000000E+00  0.14738804970E+04  0.14738804970E+04  0.00000000000E+00 0. -1.
         -1   -1    0    0    0  501 -0.00000000000E+00 -0.00000000000E+00 -0.28683629261E+03  0.28683629261E+03  0.00000000000E+00 0.  1.
         23    2    1    2    0    0 -0.41172224708E+03  0.13179195560E+03  0.82850646305E+03  0.93888290292E+03  0.90519709297E+02 0.  0.
    5000000    2    1    2    0    0  0.41172224708E+03 -0.13179195560E+03  0.35853774134E+03  0.82183388670E+03  0.59998108059E+03 0.  0.
         23    2    4    4    0    0  0.20107547481E+03  0.14543506438E+03 -0.59418241200E+02  0.27005297410E+03  0.88404620425E+02 0.  0.
         23    2    4    4    0    0  0.21064677227E+03 -0.27722701998E+03  0.41795598254E+03  0.55178091260E+03  0.92455875390E+02 0.  0.
          5    1    3    3  502    0 -0.31767425936E+03  0.13747751120E+03  0.67779041816E+03  0.76107748758E+03  0.47000000000E+01 0. -1.
         -5    1    3    3    0  502 -0.94047987716E+02 -0.56855556078E+01  0.15071604489E+03  0.17780541534E+03  0.47000000000E+01 0.  1.
         13    1    5    5    0    0  0.77866388332E+02  0.11057825022E+03 -0.35030991655E+02  0.13970645737E+03  0.00000000000E+00 0. -1.
        -13    1    5    5    0    0  0.12320908648E+03  0.34856814158E+02 -0.24387249545E+02  0.13034651673E+03  0.00000000000E+00 0.  1.
          3    1    6    6  503    0  0.12531328554E+03 -0.21887613119E+03  0.33446552970E+03  0.41890019204E+03  0.00000000000E+00 0. -1.
         -3    1    6    6    0  503  0.85333486730E+02 -0.58350888787E+02  0.83490452844E+02  0.13288072056E+03  0.00000000000E+00 0.  1.
<mgrwt>
<rscale>  0 0.52969472E+03</rscale>
<asrwt>0</asrwt>
<pdfrwt beam="1">  1        1 0.22675084E+00 0.52969472E+03</pdfrwt>
<pdfrwt beam="2">  1       -1 0.44128661E-01 0.52969472E+03</pdfrwt>
<totfact> 0.36810986E+01</totfact>
</mgrwt>
</event>
<event>
12    1  0.3147868E-008  0.1705183E+04  0.7818608E-02  0.8758414E-01
         -1   -1    0    0    0  501 -0.00000000000E+00  0.00000000000E+00  0.14536243536E+04  0.14536243536E+04  0.00000000000E+00 0.  1.
          1   -1    0    0  501    0  0.00000000000E+00 -0.00000000000E+00 -0.21914275989E+04  0.21914275989E+04  0.00000000000E+00 0. -1.
         23    2    1    2    0    0 -0.42325740391E+03 -0.16151564642E+04  0.11483902603E+03  0.16762565827E+04  0.93653058123E+02 0.  0.
    5000000    2    1    2    0    0  0.42325740391E+03  0.16151564642E+04 -0.85264227133E+03  0.19687953698E+04  0.60106499771E+03 0.  0.
         23    2    4    4    0    0  0.30714957468E+03  0.15445649148E+04 -0.86907632902E+03  0.18011007689E+04  0.92998262545E+02 0.  0.
         23    2    4    4    0    0  0.11610782923E+03  0.70591549343E+02  0.16434057688E+02  0.16769460084E+03  0.96887594941E+02 0.  0.
          5    1    3    3  502    0 -0.35240727317E+03 -0.12062787468E+04  0.66745650284E+02  0.12584817730E+04  0.47000000000E+01 0. -1.
         -5    1    3    3    0  502 -0.70850130743E+02 -0.40887771741E+03  0.48093375747E+02  0.41777480969E+03  0.47000000000E+01 0.  1.
         11    1    5    5    0    0  0.93936736221E+02  0.34989111722E+03 -0.16491763377E+03  0.39805242149E+03  0.00000000000E+00 0.  1.
        -11    1    5    5    0    0  0.21321283846E+03  0.11946737976E+04 -0.70415869525E+03  0.14030483475E+04  0.00000000000E+00 0. -1.
          3    1    6    6  503    0 -0.62254637324E+01 -0.13168822006E+02 -0.92083425279E+01  0.17232754969E+02  0.00000000000E+00 0. -1.
         -3    1    6    6    0  503  0.12233329296E+03  0.83760371349E+02  0.25642400216E+02  0.15046184588E+03  0.00000000000E+00 0.  1.
<mgrwt>
<rscale>  0 0.17051835E+04</rscale>
<asrwt>0</asrwt>
<pdfrwt beam="1">  1        1 0.33714270E+00 0.17051835E+04</pdfrwt>
<pdfrwt beam="2">  1       -1 0.22363452E+00 0.17051835E+04</pdfrwt>
<totfact> 0.21197468E-01</totfact>
</mgrwt>
</event>
<event>
12    1  0.3147868E-008  0.2243542E+04  0.7818608E-02  0.8500521E-01
          2   -1    0    0  501    0  0.00000000000E+00  0.00000000000E+00  0.32180782242E+04  0.32180782242E+04  0.00000000000E+00 0. -1.
         -2   -1    0    0    0  501 -0.00000000000E+00 -0.00000000000E+00 -0.15896219098E+04  0.15896219098E+04  0.00000000000E+00 0.  1.
         23    2    1    2    0    0  0.54818807976E+02 -0.22098179738E+04  0.56970005969E+03  0.22843653722E+04  0.86408431032E+02 0.  0.
    5000000    2    1    2    0    0 -0.54818807976E+02  0.22098179738E+04  0.10587562547E+04  0.25233347618E+04  0.59996077733E+03 0.  0.
         23    2    4    4    0    0  0.62928805562E+02  0.20711868871E+04  0.88094740508E+03  0.22534780841E+04  0.91213973342E+02 0.  0.
         23    2    4    4    0    0 -0.11774761354E+03  0.13863108665E+03  0.17780884960E+03  0.26985667772E+03  0.90130798481E+02 0.  0.
          5    1    3    3  502    0 -0.22160894316E+02 -0.41245124677E+03  0.11453893473E+03  0.42865883144E+03  0.47000000000E+01 0. -1.
         -5    1    3    3    0  502  0.76979702292E+02 -0.17973667270E+04  0.45516112496E+03  0.18557065408E+04  0.47000000000E+01 0.  1.
         11    1    5    5    0    0  0.37502848114E+01  0.56480356619E+01  0.73959355945E+01  0.10033185253E+02  0.00000000000E+00 0.  1.
        -11    1    5    5    0    0  0.59178520750E+02  0.20655388514E+04  0.87355146948E+03  0.22434448988E+04  0.00000000000E+00 0. -1.
          1    1    6    6  503    0 -0.12303687745E+03  0.88854302899E+02  0.14571396322E+03  0.21039420010E+03  0.00000000000E+00 0. -1.
         -1    1    6    6    0  503  0.52892639146E+01  0.49776783752E+02  0.32094886373E+02  0.59462477620E+02  0.00000000000E+00 0.  1.
<mgrwt>
<rscale>  0 0.22435417E+04</rscale>
<asrwt>0</asrwt>
<pdfrwt beam="1">  1        2 0.49508896E+00 0.22435417E+04</pdfrwt>
<pdfrwt beam="2">  1       -2 0.24455722E+00 0.22435417E+04</pdfrwt>
<totfact> 0.76025209E-02</totfact>
</mgrwt>
</event>
<event>
12    1  0.3147868E-008  0.5747561E+03  0.7818608E-02  0.9959209E-01
          1   -1    0    0  501    0  0.00000000000E+00  0.00000000000E+00  0.20433232359E+04  0.20433232359E+04  0.00000000000E+00 0. -1.
         -1   -1    0    0    0  501 -0.00000000000E+00 -0.00000000000E+00 -0.17349987834E+03  0.17349987834E+03  0.00000000000E+00 0.  1.
         23    2    1    2    0    0 -0.35348097148E+03 -0.25656763311E+03  0.77243979482E+03  0.89207045270E+03  0.91382210541E+02 0.  0.
    5000000    2    1    2    0    0  0.35348097148E+03  0.25656763311E+03  0.10973835627E+04  0.13247526615E+04  0.59995265055E+03 0.  0.
         23    2    4    4    0    0  0.29301772537E+02  0.35720198404E+03  0.71714690444E+03  0.80689763241E+03  0.91281188464E+02 0.  0.
         23    2    4    4    0    0  0.32417919894E+03 -0.10063435092E+03  0.38023665826E+03  0.51785502909E+03  0.91512235545E+02 0.  0.
          5    1    3    3  502    0 -0.21297673830E+03 -0.10072797986E+03  0.38330639645E+03  0.44994566399E+03  0.47000000000E+01 0. -1.
         -5    1    3    3    0  502 -0.14050423318E+03 -0.15583965325E+03  0.38913339836E+03  0.44212478871E+03  0.47000000000E+01 0.  1.
         13    1    5    5    0    0  0.27124961982E+02  0.90218361795E+02  0.11830213926E+03  0.15122999875E+03  0.00000000000E+00 0.  1.
        -13    1    5    5    0    0  0.21768105545E+01  0.26698362224E+03  0.59884476518E+03  0.65566763366E+03  0.00000000000E+00 0. -1.
          3    1    6    6  503    0  0.18350741859E+03 -0.81614773959E+02  0.16450914465E+03  0.25961356413E+03  0.00000000000E+00 0. -1.
         -3    1    6    6    0  503  0.14067178035E+03 -0.19019576962E+02  0.21572751362E+03  0.25824146496E+03  0.00000000000E+00 0.  1.
<mgrwt>
<rscale>  0 0.57475614E+03</rscale>
<asrwt>0</asrwt>
<pdfrwt beam="1">  1        1 0.31435740E+00 0.57475614E+03</pdfrwt>
<pdfrwt beam="2">  1       -1 0.26692290E-01 0.57475614E+03</pdfrwt>
<totfact> 0.37034862E+01</totfact>
</mgrwt>
</event>
<event>
12    1  0.3147868E-008  0.7671183E+03  0.7818608E-02  0.9608871E-01
          1   -1    0    0  501    0  0.00000000000E+00  0.00000000000E+00  0.12978727727E+04  0.12978727727E+04  0.00000000000E+00 0. -1.
         -1   -1    0    0    0  501 -0.00000000000E+00 -0.00000000000E+00 -0.47085494432E+03  0.47085494432E+03  0.00000000000E+00 0.  1.
         23    2    1    2    0    0  0.59656246571E+03  0.28346853421E+03  0.29331956777E+03  0.72898794109E+03  0.95634010906E+02 0.  0.
    5000000    2    1    2    0    0 -0.59656246571E+03 -0.28346853421E+03  0.53369826058E+03  0.10397397759E+04  0.59998648556E+03 0.  0.
         23    2    4    4    0    0 -0.11543265322E+03  0.16619840445E+03  0.18438216137E+03  0.28844588682E+03  0.90871563871E+02 0.  0.
         23    2    4    4    0    0 -0.48112981249E+03 -0.44966693866E+03  0.34931609920E+03  0.75129388907E+03  0.93458645378E+02 0.  0.
          5    1    3    3  502    0  0.52682974980E+03  0.22455365789E+03  0.22700750359E+03  0.61605878553E+03  0.47000000000E+01 0. -1.
         -5    1    3    3    0  502  0.69732715908E+02  0.58914876319E+02  0.66312064176E+02  0.11292915556E+03  0.47000000000E+01 0.  1.
         13    1    5    5    0    0 -0.19727496090E+02  0.75113748224E+02  0.25353591890E+02  0.81694882924E+02  0.00000000000E+00 0.  1.
        -13    1    5    5    0    0 -0.95705157130E+02  0.91084656231E+02  0.15902856948E+03  0.20675100390E+03  0.00000000000E+00 0. -1.
          3    1    6    6  503    0 -0.42477957913E+03 -0.37379569540E+03  0.32934831880E+03  0.65469934156E+03  0.00000000000E+00 0. -1.
         -3    1    6    6    0  503 -0.56350233362E+02 -0.75871243265E+02  0.19967780409E+02  0.96594547512E+02  0.00000000000E+00 0.  1.
<mgrwt>
<rscale>  0 0.76711829E+03</rscale>
<asrwt>0</asrwt>
<pdfrwt beam="1">  1        1 0.19967273E+00 0.76711829E+03</pdfrwt>
<pdfrwt beam="2">  1       -1 0.72439223E-01 0.76711829E+03</pdfrwt>
<totfact> 0.17981377E+01</totfact>
</mgrwt>
</event>
<event>
12    1  0.3147868E-008  0.6864537E+03  0.7818608E-02  0.9740683E-01
         -1   -1    0    0    0  501 -0.00000000000E+00  0.00000000000E+00  0.46633070084E+03  0.46633070084E+03  0.00000000000E+00 0.  1.
          1   -1    0    0  501    0  0.00000000000E+00 -0.00000000000E+00 -0.18167855120E+04  0.18167855120E+04  0.00000000000E+00 0. -1.
         23    2    1    2    0    0  0.32619524107E+03 -0.45532600687E+03 -0.13476442351E+04  0.14622915047E+04  0.91795165158E+02 0.  0.
    5000000    2    1    2    0    0 -0.32619524107E+03  0.45532600687E+03 -0.28105760200E+01  0.82082470815E+03  0.60001682838E+03 0.  0.
         23    2    4    4    0    0  0.12567209050E+03  0.28274752487E+03  0.47558071735E+02  0.32575357814E+03  0.90077668311E+02 0.  0.
         23    2    4    4    0    0 -0.45186733156E+03  0.17257848199E+03 -0.50368647755E+02  0.49507113001E+03  0.92687676158E+02 0.  0.
          5    1    3    3  502    0  0.13773231799E+03 -0.26785095713E+03 -0.68549580555E+03  0.74875958497E+03  0.47000000000E+01 0. -1.
         -5    1    3    3    0  502  0.18846292308E+03 -0.18747504974E+03 -0.66214842958E+03  0.71353191971E+03  0.47000000000E+01 0.  1.
         11    1    5    5    0    0  0.11373240496E+02  0.87724659796E+02 -0.18246784838E+02  0.90321158610E+02  0.00000000000E+00 0.  1.
        -11    1    5    5    0    0  0.11429885000E+03  0.19502286508E+03  0.65804856573E+02  0.23543241953E+03  0.00000000000E+00 0. -1.
          4    1    6    6  503    0 -0.24659668566E+03  0.48113444521E+02 -0.43006963287E+02  0.25490081956E+03  0.00000000000E+00 0. -1.
         -4    1    6    6    0  503 -0.20527064590E+03  0.12446503747E+03 -0.73616844672E+01  0.24017031045E+03  0.00000000000E+00 0.  1.
<mgrwt>
<rscale>  0 0.68645373E+03</rscale>
<asrwt>0</asrwt>
<pdfrwt beam="1">  1        1 0.27950546E+00 0.68645373E+03</pdfrwt>
<pdfrwt beam="2">  1       -1 0.71743186E-01 0.68645373E+03</pdfrwt>
<totfact> 0.82137530E+00</totfact>
</mgrwt>
</event>
<event>
12    1  0.3147868E-008  0.6858995E+03  0.7818608E-02  0.9741655E-01
          1   -1    0    0  501    0  0.00000000000E+00  0.00000000000E+00  0.13972517886E+04  0.13972517886E+04  0.00000000000E+00 0. -1.
         -1   -1    0    0    0  501 -0.00000000000E+00 -0.00000000000E+00 -0.62633957281E+03  0.62633957281E+03  0.00000000000E+00 0.  1.
         23    2    1    2    0    0  0.32142393815E+03  0.58007928864E+03 -0.20575018435E+03  0.69933680196E+03  0.83267611266E+02 0.  0.
    5000000    2    1    2    0    0 -0.32142393815E+03 -0.58007928864E+03  0.97666240019E+03  0.13242545595E+04  0.59997947072E+03 0.  0.
         23    2    4    4    0    0 -0.27628094235E+03 -0.29810657125E+03  0.93253287229E+03  0.10214033409E+04  0.91915939458E+02 0.  0.
         23    2    4    4    0    0 -0.45142995800E+02 -0.28197271739E+03  0.44129527901E+02  0.30285121862E+03  0.90691465787E+02 0.  0.
          5    1    3    3  502    0  0.11144775590E+03  0.24040972889E+03 -0.44909584043E+02  0.26880550734E+03  0.47000000000E+01 0. -1.
         -5    1    3    3    0  502  0.20997618225E+03  0.33966955975E+03 -0.16084060030E+03  0.43053129461E+03  0.47000000000E+01 0.  1.
         11    1    5    5    0    0 -0.17758736581E+03 -0.23443188886E+03  0.73402202981E+03  0.79074896349E+03  0.00000000000E+00 0.  1.
        -11    1    5    5    0    0 -0.98693576535E+02 -0.63674682395E+02  0.19851084248E+03  0.23065437739E+03  0.00000000000E+00 0. -1.
          3    1    6    6  503    0 -0.67262271512E+01  0.36583291756E+01 -0.67312108963E+01  0.10194837133E+02  0.00000000000E+00 0. -1.
         -3    1    6    6    0  503 -0.38416768649E+02 -0.28563104656E+03  0.50860738798E+02  0.29265638149E+03  0.00000000000E+00 0.  1.
<mgrwt>
<rscale>  0 0.68589945E+03</rscale>
<asrwt>0</asrwt>
<pdfrwt beam="1">  1        1 0.21496181E+00 0.68589945E+03</pdfrwt>
<pdfrwt beam="2">  1       -1 0.96359934E-01 0.68589945E+03</pdfrwt>
<totfact> 0.83916868E+00</totfact>
</mgrwt>
</event>
<event>
12    1  0.3147868E-008  0.7520775E+03  0.7818608E-02  0.9632097E-01
          2   -1    0    0  501    0  0.00000000000E+00  0.00000000000E+00  0.22305464488E+04  0.22305464488E+04  0.00000000000E+00 0. -1.
         -2   -1    0    0    0  501 -0.00000000000E+00 -0.00000000000E+00 -0.26207922380E+03  0.26207922380E+03  0.00000000000E+00 0.  1.
         23    2    1    2    0    0 -0.53206662651E+02 -0.63434079254E+03  0.68630543479E+03  0.94038471210E+03  0.89939240043E+02 0.  0.
    5000000    2    1    2    0    0  0.53206662651E+02  0.63434079254E+03  0.12821617902E+04  0.15522409605E+04  0.60024491097E+03 0.  0.
         23    2    4    4    0    0 -0.11935166617E+03 -0.42390344956E+02  0.14325363516E+03  0.21313657792E+03  0.94147943691E+02 0.  0.
         23    2    4    4    0    0  0.17255832882E+03  0.67673113749E+03  0.11389081551E+04  0.13391043826E+04  0.91363846741E+02 0.  0.
          5    1    3    3  502    0 -0.70886746073E+02 -0.34033921360E+03  0.35047673767E+03  0.49367169731E+03  0.47000000000E+01 0.  1.
         -5    1    3    3    0  502  0.17680083421E+02 -0.29400157894E+03  0.33582869712E+03  0.44671301479E+03  0.47000000000E+01 0. -1.
         13    1    5    5    0    0  0.13387065946E+02 -0.18316897545E+02  0.16780972671E+02  0.28219201160E+02  0.00000000000E+00 0.  1.
        -13    1    5    5    0    0 -0.13273873211E+03 -0.24073447411E+02  0.12647266249E+03  0.18491737676E+03  0.00000000000E+00 0. -1.
          3    1    6    6  503    0  0.82519425625E+02  0.49131507374E+03  0.80131196033E+03  0.94355753139E+03  0.00000000000E+00 0. -1.
         -3    1    6    6    0  503  0.90038903192E+02  0.18541606376E+03  0.33759619473E+03  0.39554685119E+03  0.00000000000E+00 0.  1.
<mgrwt>
<rscale>  0 0.75207746E+03</rscale>
<asrwt>0</asrwt>
<pdfrwt beam="1">  1        2 0.34316098E+00 0.75207746E+03</pdfrwt>
<pdfrwt beam="2">  1       -2 0.40319882E-01 0.75207746E+03</pdfrwt>
<totfact> 0.29968681E+01</totfact>
</mgrwt>
</event>
<event>
12    1  0.3147868E-008  0.1072874E+04  0.7818608E-02  0.9232041E-01
          2   -1    0    0  501    0  0.00000000000E+00  0.00000000000E+00  0.11249622721E+04  0.11249622721E+04  0.00000000000E+00 0. -1.
         -2   -1    0    0    0  501 -0.00000000000E+00 -0.00000000000E+00 -0.12002169000E+04  0.12002169000E+04  0.00000000000E+00 0.  1.
         23    2    1    2    0    0  0.90512080307E+03  0.52872838112E+03  0.23511130462E+03  0.10781531119E+04  0.91320522821E+02 0.  0.
    5000000    2    1    2    0    0 -0.90512080307E+03 -0.52872838112E+03 -0.31036593247E+03  0.12470260603E+04  0.59995801002E+03 0.  0.
         23    2    4    4    0    0 -0.59266959735E+03 -0.17941916402E+03  0.80288229087E+02  0.63044073253E+03  0.86953030206E+02 0.  0.
         23    2    4    4    0    0 -0.31245120572E+03 -0.34930921710E+03 -0.39065416155E+03  0.61658532774E+03  0.89017455194E+02 0.  0.
          5    1    3    3  502    0  0.54087000813E+03  0.31553817250E+03  0.18591814209E+03  0.65321692381E+03  0.47000000000E+01 0. -1.
         -5    1    3    3    0  502  0.36425079494E+03  0.21319020862E+03  0.49193162530E+02  0.42493618805E+03  0.47000000000E+01 0.  1.
         11    1    5    5    0    0 -0.46359913902E+03 -0.15997572379E+03  0.93461639437E+02  0.49925091081E+03  0.00000000000E+00 0.  1.
        -11    1    5    5    0    0 -0.12907045833E+03 -0.19443440229E+02 -0.13173410350E+02  0.13118982172E+03  0.00000000000E+00 0. -1.
          1    1    6    6  503    0 -0.23834995820E+03 -0.20536243123E+03 -0.27144318955E+03  0.41553078814E+03  0.00000000000E+00 0. -1.
         -1    1    6    6    0  503 -0.74101247518E+02 -0.14394678587E+03 -0.11921097200E+03  0.20105453960E+03  0.00000000000E+00 0.  1.
<mgrwt>
<rscale>  0 0.10728745E+04</rscale>
<asrwt>0</asrwt>
<pdfrwt beam="1">  1        2 0.17307112E+00 0.10728745E+04</pdfrwt>
<pdfrwt beam="2">  1       -2 0.18464875E+00 0.10728745E+04</pdfrwt>
<totfact> 0.34854995E+00</totfact>
</mgrwt>
</event>
<event>
12    1  0.3147868E-008  0.6066338E+03  0.7818608E-02  0.9891738E-01
          1   -1    0    0  501    0  0.00000000000E+00  0.00000000000E+00  0.11852022743E+04  0.11852022743E+04  0.00000000000E+00 0. -1.
         -1   -1    0    0    0  501 -0.00000000000E+00 -0.00000000000E+00 -0.10585326710E+04  0.10585326710E+04  0.00000000000E+00 0.  1.
         23    2    1    2    0    0  0.46540363506E+03 -0.14190839022E+01 -0.86987565330E+03  0.99081194748E+03  0.91772031368E+02 0.  0.
    5000000    2    1    2    0    0 -0.46540363506E+03  0.14190839022E+01  0.99654525661E+03  0.12529229978E+04  0.60009252012E+03 0.  0.
         23    2    4    4    0    0 -0.24575442470E+03  0.27790268704E+03  0.62187403133E+03  0.73019283183E+03  0.93963397560E+02 0.  0.
         23    2    4    4    0    0 -0.21964921036E+03 -0.27648360313E+03  0.37467122527E+03  0.52273016600E+03  0.90439709140E+02 0.  0.
          5    1    3    3  502    0  0.22450910891E+03 -0.45978688182E+02 -0.43178526570E+03  0.48885476926E+03  0.47000000000E+01 0. -1.
         -5    1    3    3    0  502  0.24089452615E+03  0.44559604280E+02 -0.43809038760E+03  0.50195717822E+03  0.47000000000E+01 0.  1.
         13    1    5    5    0    0 -0.16322132514E+03  0.24000119835E+03  0.44355567897E+03  0.53007868900E+03  0.00000000000E+00 0.  1.
        -13    1    5    5    0    0 -0.82533099553E+02  0.37901488686E+02  0.17831835237E+03  0.20011414282E+03  0.00000000000E+00 0. -1.
          3    1    6    6  503    0 -0.11309655252E+03 -0.95889883298E+02  0.20496587615E+03  0.25297571088E+03  0.00000000000E+00 0. -1.
         -3    1    6    6    0  503 -0.10655265784E+03 -0.18059371984E+03  0.16970534912E+03  0.26975445512E+03  0.00000000000E+00 0.  1.
<mgrwt>
<rscale>  0 0.60663378E+03</rscale>
<asrwt>0</asrwt>
<pdfrwt beam="1">  1        1 0.18233881E+00 0.60663378E+03</pdfrwt>
<pdfrwt beam="2">  1       -1 0.16285118E+00 0.60663378E+03</pdfrwt>
<totfact> 0.32602911E+00</totfact>
</mgrwt>
</event>
<event>
12    1  0.3147868E-008  0.5779781E+03  0.7818608E-02  0.9952178E-01
         -2   -1    0    0    0  501 -0.00000000000E+00  0.00000000000E+00  0.25178305882E+03  0.25178305882E+03  0.00000000000E+00 0.  1.
          2   -1    0    0  501    0  0.00000000000E+00 -0.00000000000E+00 -0.15527639270E+04  0.15527639270E+04  0.00000000000E+00 0. -1.
         23    2    1    2    0    0 -0.10372769515E+02 -0.47447647549E+03 -0.45604241015E+03  0.66459956923E+03  0.92099877445E+02 0.  0.
    5000000    2    1    2    0    0  0.10372769515E+02  0.47447647549E+03 -0.84493845806E+03  0.11399474166E+04  0.60026960162E+03 0.  0.
         23    2    4    4    0    0  0.18063565245E+02  0.56112559582E+03 -0.84178439110E+03  0.10160926056E+04  0.93032227179E+02 0.  0.
         23    2    4    4    0    0 -0.76907957303E+01 -0.86649120333E+02 -0.31540669595E+01  0.12385481107E+03  0.88107024088E+02 0.  0.
          5    1    3    3  502    0 -0.17214593116E+02 -0.77780815136E+02 -0.12275191103E+03  0.14641147182E+03  0.47000000000E+01 0. -1.
         -5    1    3    3    0  502  0.68418236011E+01 -0.39669566035E+03 -0.33329049913E+03  0.51818809741E+03  0.47000000000E+01 0.  1.
         11    1    5    5    0    0 -0.34085801006E+02  0.15964535009E+03 -0.21557810325E+03  0.27041153495E+03  0.00000000000E+00 0. -1.
        -11    1    5    5    0    0  0.52149366251E+02  0.40148024573E+03 -0.62620628785E+03  0.74568107060E+03  0.00000000000E+00 0.  1.
          1    1    6    6  503    0 -0.50788730686E+01  0.11771412367E+02  0.19016332723E+02  0.22934297700E+02  0.00000000000E+00 0. -1.
         -1    1    6    6    0  503 -0.26119226617E+01 -0.98420532701E+02 -0.22170399682E+02  0.10092051337E+03  0.00000000000E+00 0.  1.
<mgrwt>
<rscale>  0 0.57797809E+03</rscale>
<asrwt>0</asrwt>
<pdfrwt beam="1">  1        2 0.23888675E+00 0.57797809E+03</pdfrwt>
<pdfrwt beam="2">  1       -2 0.38735856E-01 0.57797809E+03</pdfrwt>
<totfact> 0.77642670E+01</totfact>
</mgrwt>
</event>
<event>
12    1  0.3147868E-008  0.6453469E+03  0.7818608E-02  0.9815550E-01
         -2   -1    0    0    0  501 -0.00000000000E+00  0.00000000000E+00  0.17487564889E+03  0.17487564889E+03  0.00000000000E+00 0.  1.
          2   -1    0    0  501    0  0.00000000000E+00 -0.00000000000E+00 -0.35302906747E+04  0.35302906747E+04  0.00000000000E+00 0. -1.
         23    2    1    2    0    0  0.51426134515E+03  0.65472872152E+02 -0.45015116668E+03  0.69366367470E+03  0.98902945487E+02 0.  0.
    5000000    2    1    2    0    0 -0.51426134515E+03 -0.65472872152E+02 -0.29052638591E+04  0.30115026489E+04  0.59986555581E+03 0.  0.
         23    2    4    4    0    0 -0.62917945508E+03 -0.95531510389E+02 -0.23966768482E+04  0.24814396475E+04  0.92139857229E+02 0.  0.
         23    2    4    4    0    0  0.11491810992E+03  0.30058638237E+02 -0.50858701087E+03  0.53006300135E+03  0.90533662520E+02 0.  0.
          5    1    3    3  502    0  0.37210893335E+03  0.67688073197E+02 -0.27301822588E+03  0.46648448548E+03  0.47000000000E+01 0. -1.
         -5    1    3    3    0  502  0.14215241181E+03 -0.22152010455E+01 -0.17713294080E+03  0.22717918922E+03  0.47000000000E+01 0.  1.
         11    1    5    5    0    0 -0.59749719201E+03 -0.10985579851E+03 -0.22373364834E+04  0.23183497862E+04  0.00000000000E+00 0. -1.
        -11    1    5    5    0    0 -0.31682263070E+02  0.14324288119E+02 -0.15934036482E+03  0.16308986138E+03  0.00000000000E+00 0.  1.
          1    1    6    6  503    0  0.80622632914E+02 -0.24575029585E+01 -0.43633303487E+03  0.44372577745E+03  0.00000000000E+00 0. -1.
         -1    1    6    6    0  503  0.34295477011E+02  0.32516141195E+02 -0.72253976003E+02  0.86337223895E+02  0.00000000000E+00 0.  1.
<mgrwt>
<rscale>  0 0.64534689E+03</rscale>
<asrwt>0</asrwt>
<pdfrwt beam="1">  1        2 0.54312156E+00 0.64534689E+03</pdfrwt>
<pdfrwt beam="2">  1       -2 0.26903950E-01 0.64534689E+03</pdfrwt>
<totfact> 0.10719726E+01</totfact>
</mgrwt>
</event>
<event>
12    1  0.3147868E-008  0.4913890E+03  0.7818608E-02  0.1016051E+00
         -2   -1    0    0    0  501 -0.00000000000E+00  0.00000000000E+00  0.11090652194E+04  0.11090652194E+04  0.00000000000E+00 0.  1.
          2   -1    0    0  501    0  0.00000000000E+00 -0.00000000000E+00 -0.41242582670E+03  0.41242582670E+03  0.00000000000E+00 0. -1.
         23    2    1    2    0    0  0.32534387065E+03 -0.15484295870E+03  0.73188422931E+03  0.82066959753E+03  0.89549356051E+02 0.  0.
    5000000    2    1    2    0    0 -0.32534387065E+03  0.15484295870E+03 -0.35244836560E+02  0.70082144862E+03  0.60006960289E+03 0.  0.
         23    2    4    4    0    0 -0.12380018543E+03 -0.17134931131E+03  0.14201926624E+03  0.26871045102E+03  0.85724921127E+02 0.  0.
         23    2    4    4    0    0 -0.20154368522E+03  0.32619227002E+03 -0.17726410280E+03  0.43211099760E+03  0.90973062145E+02 0.  0.
          5    1    3    3  502    0  0.25194178076E+03 -0.10531536485E+03  0.62309353387E+03  0.68031877008E+03  0.47000000000E+01 0. -1.
         -5    1    3    3    0  502  0.73402089889E+02 -0.49527593853E+02  0.10879069544E+03  0.14035082745E+03  0.47000000000E+01 0.  1.
         13    1    5    5    0    0  0.93843759424E+01 -0.39097731094E+02  0.20717759159E+02  0.45231898403E+02  0.00000000000E+00 0.  1.
        -13    1    5    5    0    0 -0.13318456137E+03 -0.13225158022E+03  0.12130150709E+03  0.22347855262E+03  0.00000000000E+00 0. -1.
          1    1    6    6  503    0 -0.71185123272E+02  0.47945497283E+02 -0.51562023013E+02  0.10012359713E+03  0.00000000000E+00 0. -1.
         -1    1    6    6    0  503 -0.13035856195E+03  0.27824677273E+03 -0.12570207979E+03  0.33198740047E+03  0.00000000000E+00 0.  1.
<mgrwt>
<rscale>  0 0.49138901E+03</rscale>
<asrwt>0</asrwt>
<pdfrwt beam="1">  1        2 0.63450128E-01 0.49138901E+03</pdfrwt>
<pdfrwt beam="2">  1       -2 0.17062542E+00 0.49138901E+03</pdfrwt>
<totfact> 0.16915944E+01</totfact>
</mgrwt>
</event>
<event>
12    1  0.3147868E-008  0.5030052E+03  0.7818608E-02  0.1012997E+00
          1   -1    0    0  501    0  0.00000000000E+00  0.00000000000E+00  0.72828770876E+03  0.72828770876E+03  0.00000000000E+00 0. -1.
         -1   -1    0    0    0  501 -0.00000000000E+00 -0.00000000000E+00 -0.11467227550E+04  0.11467227550E+04  0.00000000000E+00 0.  1.
         23    2    1    2    0    0 -0.44194881599E+03  0.79135079195E+02  0.50767698282E+03  0.68371323262E+03  0.90259342230E+02 0.  0.
    5000000    2    1    2    0    0  0.44194881599E+03 -0.79135079195E+02 -0.92611202902E+03  0.11912972311E+04  0.59993706822E+03 0.  0.
         23    2    4    4    0    0  0.82580046769E+02  0.92536113744E+02 -0.71247648093E+03  0.72875191563E+03  0.89856675807E+02 0.  0.
         23    2    4    4    0    0  0.35936876922E+03 -0.17167119294E+03 -0.21363554809E+03  0.46254531547E+03  0.98443438983E+02 0.  0.
          5    1    3    3  502    0 -0.13500923134E+03  0.64589031143E+02  0.18681308519E+03  0.23941690477E+03  0.47000000000E+01 0. -1.
         -5    1    3    3    0  502 -0.30693958465E+03  0.14546048052E+02  0.32086389762E+03  0.44429632784E+03  0.47000000000E+01 0.  1.
         11    1    5    5    0    0  0.33594580829E+01  0.61480451559E+02 -0.40758104311E+03  0.41220557806E+03  0.00000000000E+00 0. -1.
        -11    1    5    5    0    0  0.79220588686E+02  0.31055662185E+02 -0.30489543782E+03  0.31654633757E+03  0.00000000000E+00 0.  1.
          3    1    6    6  503    0  0.72099683790E+02 -0.60993337744E+02 -0.13602378009E+02  0.95412663411E+02  0.00000000000E+00 0. -1.
         -3    1    6    6    0  503  0.28726908543E+03 -0.11067785520E+03 -0.20003317008E+03  0.36713265206E+03  0.00000000000E+00 0.  1.
<mgrwt>
<rscale>  0 0.50300524E+03</rscale>
<asrwt>0</asrwt>
<pdfrwt beam="1">  1        1 0.11204426E+00 0.50300524E+03</pdfrwt>
<pdfrwt beam="2">  1       -1 0.17641889E+00 0.50300524E+03</pdfrwt>
<totfact> 0.61205690E+00</totfact>
</mgrwt>
</event>
<event>
12    1  0.3147868E-008  0.4429889E+03  0.7818608E-02  0.1029834E+00
          2   -1    0    0  501    0  0.00000000000E+00  0.00000000000E+00  0.20147793949E+03  0.20147793949E+03  0.00000000000E+00 0. -1.
         -2   -1    0    0    0  501 -0.00000000000E+00 -0.00000000000E+00 -0.18492933732E+04  0.18492933732E+04  0.00000000000E+00 0.  1.
         23    2    1    2    0    0 -0.28030723547E+02 -0.33712336044E+03 -0.11270900076E+03  0.36822158356E+03  0.91901763484E+02 0.  0.
    5000000    2    1    2    0    0  0.28030723547E+02  0.33712336044E+03 -0.15351064329E+04  0.16825497291E+04  0.59998662392E+03 0.  0.
         23    2    4    4    0    0  0.58399347422E+02 -0.77845001925E+02 -0.94662167490E+03  0.95592189773E+03  0.90684899844E+02 0.  0.
         23    2    4    4    0    0 -0.30368623876E+02  0.41496836237E+03 -0.58848475803E+03  0.72662783139E+03  0.92480807870E+02 0.  0.
          5    1    3    3  502    0 -0.14833170886E+00 -0.28432974333E+03 -0.65125986648E+02  0.29173088469E+03  0.47000000000E+01 0. -1.
         -5    1    3    3    0  502 -0.27882391838E+02 -0.52793617112E+02 -0.47583014113E+02  0.76490698875E+02  0.47000000000E+01 0.  1.
         11    1    5    5    0    0  0.25151186824E+02  0.56525832897E+01 -0.48193207552E+03  0.48262103074E+03  0.00000000000E+00 0. -1.
        -11    1    5    5    0    0  0.33248160598E+02 -0.83497585215E+02 -0.46468959938E+03  0.47330086699E+03  0.00000000000E+00 0.  1.
          2    1    6    6  503    0 -0.12528501887E+02  0.40583021331E+03 -0.55631830014E+03  0.68872721485E+03  0.00000000000E+00 0. -1.
         -2    1    6    6    0  503 -0.17840121989E+02  0.91381490528E+01 -0.32166457893E+02  0.37900616540E+02  0.00000000000E+00 0.  1.
<mgrwt>
<rscale>  0 0.44298887E+03</rscale>
<asrwt>0</asrwt>
<pdfrwt beam="1">  1        2 0.30996607E-01 0.44298887E+03</pdfrwt>
<pdfrwt beam="2">  1       -2 0.28450666E+00 0.44298887E+03</pdfrwt>
<totfact> 0.73432051E+00</totfact>
</mgrwt>
</event>
<event>
12    1  0.3147868E-008  0.6825925E+03  0.7818608E-02  0.9747473E-01
          1   -1    0    0  501    0  0.00000000000E+00  0.00000000000E+00  0.32784585397E+04  0.32784585397E+04  0.00000000000E+00 0. -1.
         -1   -1    0    0    0  501 -0.00000000000E+00 -0.00000000000E+00 -0.18655842980E+03  0.18655842980E+03  0.00000000000E+00 0.  1.
         23    2    1    2    0    0  0.95172285721E+02  0.56720797153E+03  0.59209894163E+03  0.83059699068E+03  0.92344774140E+02 0.  0.
    5000000    2    1    2    0    0 -0.95172285721E+02 -0.56720797153E+03  0.24998011682E+04  0.26344199788E+04  0.60031666393E+03 0.  0.
         23    2    4    4    0    0 -0.30741933053E+03 -0.40550985658E+03  0.12386503614E+04  0.13420897435E+04  0.89472192843E+02 0.  0.
         23    2    4    4    0    0  0.21224704481E+03 -0.16169811495E+03  0.12611508069E+04  0.12923302353E+04  0.91765957726E+02 0.  0.
          5    1    3    3  502    0  0.56178065089E+02  0.31206899958E+03  0.26071646665E+03  0.41053404424E+03  0.47000000000E+01 0. -1.
         -5    1    3    3    0  502  0.38994220632E+02  0.25513897196E+03  0.33138247498E+03  0.42006294645E+03  0.47000000000E+01 0.  1.
         13    1    5    5    0    0 -0.23934553714E+03 -0.26499334521E+03  0.92993185135E+03  0.99613302691E+03  0.00000000000E+00 0.  1.
        -13    1    5    5    0    0 -0.68073793393E+02 -0.14051651138E+03  0.30871851001E+03  0.34595671657E+03  0.00000000000E+00 0. -1.
          1    1    6    6  503    0  0.99975679083E+02 -0.31587375034E+02  0.36081796013E+03  0.37574259677E+03  0.00000000000E+00 0. -1.
         -1    1    6    6    0  503  0.11227136573E+03 -0.13011073991E+03  0.90033284674E+03  0.91658763854E+03  0.00000000000E+00 0.  1.
<mgrwt>
<rscale>  0 0.68259246E+03</rscale>
<asrwt>0</asrwt>
<pdfrwt beam="1">  1        1 0.50437819E+00 0.68259246E+03</pdfrwt>
<pdfrwt beam="2">  1       -1 0.28701299E-01 0.68259246E+03</pdfrwt>
<totfact> 0.44526330E+00</totfact>
</mgrwt>
</event>
<event>
12    1  0.3147868E-008  0.1799521E+04  0.7818608E-02  0.8706554E-01
         -1   -1    0    0    0  501 -0.00000000000E+00  0.00000000000E+00  0.14080876705E+04  0.14080876705E+04  0.00000000000E+00 0.  1.
          1   -1    0    0  501    0  0.00000000000E+00 -0.00000000000E+00 -0.23939430116E+04  0.23939430116E+04  0.00000000000E+00 0. -1.
         23    2    1    2    0    0 -0.89677085048E+03  0.15219542227E+04 -0.75080205524E+03  0.19216652915E+04  0.92472439114E+02 0.  0.
    5000000    2    1    2    0    0  0.89677085048E+03 -0.15219542227E+04 -0.23505328587E+03  0.18803653906E+04  0.59998445029E+03 0.  0.
         23    2    4    4    0    0  0.46805770306E+03 -0.11940725561E+04 -0.32387565810E+03  0.13256677373E+04  0.87248067711E+02 0.  0.
         23    2    4    4    0    0  0.42871314742E+03 -0.32788166669E+03  0.88822372226E+02  0.55469765329E+03  0.92188516872E+02 0.  0.
          5    1    3    3  502    0 -0.48570239839E+03  0.87638904390E+03 -0.46590980756E+03  0.11050152102E+04  0.47000000000E+01 0. -1.
         -5    1    3    3    0  502 -0.41106845209E+03  0.64556517885E+03 -0.28489224769E+03  0.81665008127E+03  0.47000000000E+01 0.  1.
         13    1    5    5    0    0  0.38924688285E+03 -0.10635645446E+04 -0.29709985267E+03  0.11708761672E+04  0.00000000000E+00 0.  1.
        -13    1    5    5    0    0  0.78810820211E+02 -0.13050801141E+03 -0.26775805429E+02  0.15479157012E+03  0.00000000000E+00 0. -1.
          2    1    6    6  503    0  0.27191938727E+03 -0.25867131605E+03  0.75255975050E+02  0.38277207931E+03  0.00000000000E+00 0. -1.
         -2    1    6    6    0  503  0.15679376015E+03 -0.69210350639E+02  0.13566397176E+02  0.17192557398E+03  0.00000000000E+00 0.  1.
<mgrwt>
<rscale>  0 0.17995208E+04</rscale>
<asrwt>0</asrwt>
<pdfrwt beam="1">  1        1 0.36829892E+00 0.17995208E+04</pdfrwt>
<pdfrwt beam="2">  1       -1 0.21662888E+00 0.17995208E+04</pdfrwt>
<totfact> 0.16984322E-01</totfact>
</mgrwt>
</event>
<event>
12    1  0.3147868E-008  0.1086864E+04  0.7818608E-02  0.9218090E-01
         -1   -1    0    0    0  501 -0.00000000000E+00  0.00000000000E+00  0.56798943179E+03  0.56798943179E+03  0.00000000000E+00 0.  1.
          1   -1    0    0  501    0  0.00000000000E+00 -0.00000000000E+00 -0.22199947338E+04  0.22199947338E+04  0.00000000000E+00 0. -1.
         23    2    1    2    0    0  0.10049881046E+04  0.22283150974E+03 -0.95401937861E+03  0.14070851219E+04  0.10040215747E+03 0.  0.
    5000000    2    1    2    0    0 -0.10049881046E+04 -0.22283150974E+03 -0.69798592344E+03  0.13808990438E+04  0.60003570524E+03 0.  0.
         23    2    4    4    0    0 -0.40237320065E+03 -0.33690099657E+03 -0.49980084691E+03  0.73010294510E+03  0.88560430157E+02 0.  0.
         23    2    4    4    0    0 -0.60261490399E+03  0.11406948683E+03 -0.19818507653E+03  0.65079609867E+03  0.90009261410E+02 0.  0.
          5    1    3    3  502    0  0.29441087104E+03  0.35945467680E+02 -0.32310778845E+03  0.43862349526E+03  0.47000000000E+01 0. -1.
         -5    1    3    3    0  502  0.71057723359E+03  0.18688604206E+03 -0.63091159016E+03  0.96846162661E+03  0.47000000000E+01 0.  1.
         11    1    5    5    0    0 -0.45720100889E+02 -0.54106366578E+02 -0.11001314922E+03  0.13084616743E+03  0.00000000000E+00 0. -1.
        -11    1    5    5    0    0 -0.35665309976E+03 -0.28279462999E+03 -0.38978769769E+03  0.59925677767E+03  0.00000000000E+00 0.  1.
          1    1    6    6  503    0 -0.18593526607E+03  0.64083165144E+02 -0.31203231613E+02  0.19912864406E+03  0.00000000000E+00 0. -1.
         -1    1    6    6    0  503 -0.41667963793E+03  0.49986321686E+02 -0.16698184492E+03  0.45166745461E+03  0.00000000000E+00 0.  1.
<mgrwt>
<rscale>  0 0.10868641E+04</rscale>
<asrwt>0</asrwt>
<pdfrwt beam="1">  1        1 0.34153765E+00 0.10868641E+04</pdfrwt>
<pdfrwt beam="2">  1       -1 0.87382989E-01 0.10868641E+04</pdfrwt>
<totfact> 0.27281637E+00</totfact>
</mgrwt>
</event>
<event>
12    1  0.3147868E-008  0.3833541E+03  0.7818608E-02  0.1049701E+00
          2   -1    0    0  501    0  0.00000000000E+00  0.00000000000E+00  0.38495586952E+03  0.38495586952E+03  0.00000000000E+00 0. -1.
         -2   -1    0    0    0  501 -0.00000000000E+00 -0.00000000000E+00 -0.54532897965E+03  0.54532897965E+03  0.00000000000E+00 0.  1.
         23    2    1    2    0    0 -0.20925700371E+03  0.42847501379E+02  0.86184368822E+02  0.24749649150E+03  0.90566913931E+02 0.  0.
    5000000    2    1    2    0    0  0.20925700371E+03 -0.42847501379E+02 -0.24655747895E+03  0.68278835767E+03  0.59982076403E+03 0.  0.
         23    2    4    4    0    0  0.33191679186E+03 -0.13066801394E+03 -0.32299272014E+03  0.48997705776E+03  0.92251467645E+02 0.  0.
         23    2    4    4    0    0 -0.12265978815E+03  0.87820512559E+02  0.76435241190E+02  0.19281129991E+03  0.92606615430E+02 0.  0.
          5    1    3    3  502    0 -0.10468151492E+03  0.57341127475E+02  0.75425992466E+02  0.14127064382E+03  0.47000000000E+01 0. -1.
         -5    1    3    3    0  502 -0.10457548879E+03 -0.14493626097E+02  0.10758376356E+02  0.10622584768E+03  0.47000000000E+01 0.  1.
         11    1    5    5    0    0  0.21206204324E+03 -0.43404420085E+02 -0.15690871312E+03  0.26734733610E+03  0.00000000000E+00 0. -1.
        -11    1    5    5    0    0  0.11985474862E+03 -0.87263593853E+02 -0.16608400703E+03  0.22262972167E+03  0.00000000000E+00 0.  1.
          3    1    6    6  503    0 -0.72577971992E+02  0.10165555651E+03  0.57574491963E+02  0.13753630907E+03  0.00000000000E+00 0. -1.
         -3    1    6    6    0  503 -0.50081816156E+02 -0.13835043951E+02  0.18860749228E+02  0.55274990837E+02  0.00000000000E+00 0.  1.
<mgrwt>
<rscale>  0 0.38335413E+03</rscale>
<asrwt>0</asrwt>
<pdfrwt beam="1">  1        2 0.59223980E-01 0.38335413E+03</pdfrwt>
<pdfrwt beam="2">  1       -2 0.83896767E-01 0.38335413E+03</pdfrwt>
<totfact> 0.10654887E+02</totfact>
</mgrwt>
</event>
<event>
12    1  0.3147868E-008  0.4017688E+03  0.7818608E-02  0.1043169E+00
          2   -1    0    0  501    0  0.00000000000E+00  0.00000000000E+00  0.15045620342E+04  0.15045620342E+04  0.00000000000E+00 0. -1.
         -2   -1    0    0    0  501 -0.00000000000E+00 -0.00000000000E+00 -0.25958142674E+03  0.25958142674E+03  0.00000000000E+00 0.  1.
         23    2    1    2    0    0  0.35854173150E+03  0.22929983217E+02  0.42104198158E+02  0.37273881809E+03  0.89908318049E+02 0.  0.
    5000000    2    1    2    0    0 -0.35854173150E+03 -0.22929983217E+02  0.12028764093E+04  0.13914046428E+04  0.60001438877E+03 0.  0.
         23    2    4    4    0    0 -0.46675337737E+02  0.62230401783E+02  0.98398823409E+03  0.99081167077E+03  0.86160965942E+02 0.  0.
         23    2    4    4    0    0 -0.31186639376E+03 -0.85160384999E+02  0.21888817521E+03  0.40059297207E+03  0.89720439688E+02 0.  0.
          5    1    3    3  502    0  0.30591844062E+03  0.11626340113E+02  0.32542530379E+01  0.30619265873E+03  0.47000000000E+01 0.  1.
         -5    1    3    3    0  502  0.52623290873E+02  0.11303643103E+02  0.38849945120E+02  0.66546159360E+02  0.47000000000E+01 0.  1.
         11    1    5    5    0    0 -0.28063458012E+02  0.82685682372E+02  0.68388081281E+03  0.68943269858E+03  0.00000000000E+00 0. -1.
        -11    1    5    5    0    0 -0.18611879725E+02 -0.20455280589E+02  0.30010742129E+03  0.30137897220E+03  0.00000000000E+00 0.  1.
          4    1    6    6  503    0 -0.12212895401E+03 -0.45637716187E+01  0.12245311906E+03  0.17300599928E+03  0.00000000000E+00 0. -1.
         -4    1    6    6    0  503 -0.18973743975E+03 -0.80596613381E+02  0.96435056151E+02  0.22758697280E+03  0.00000000000E+00 0.  1.
<mgrwt>
<rscale>  0 0.40176876E+03</rscale>
<asrwt>0</asrwt>
<pdfrwt beam="1">  1        2 0.23147108E+00 0.40176876E+03</pdfrwt>
<pdfrwt beam="2">  1       -2 0.39935605E-01 0.40176876E+03</pdfrwt>
<totfact> 0.79867997E+01</totfact>
</mgrwt>
</event>
<event>
12    1  0.3147868E-008  0.2561195E+04  0.7818608E-02  0.8381503E-01
          1   -1    0    0  501    0  0.00000000000E+00  0.00000000000E+00  0.28929335413E+04  0.28929335413E+04  0.00000000000E+00 0. -1.
         -1   -1    0    0    0  501 -0.00000000000E+00 -0.00000000000E+00 -0.24463983402E+04  0.24463983402E+04  0.00000000000E+00 0.  1.
         23    2    1    2    0    0  0.24134882770E+04 -0.81914033464E+03  0.85378936883E+03  0.26894607405E+04  0.91248216838E+02 0.  0.
    5000000    2    1    2    0    0 -0.24134882770E+04  0.81914033464E+03 -0.40725416775E+03  0.26498711411E+04  0.60003712888E+03 0.  0.
         23    2    4    4    0    0 -0.10323691886E+04  0.52391477788E+03 -0.42009712732E+03  0.12350148840E+04  0.92235195249E+02 0.  0.
         23    2    4    4    0    0 -0.13811190884E+04  0.29522555676E+03  0.12842959561E+02  0.14148562571E+04  0.83697197507E+02 0.  0.
          5    1    3    3  502    0  0.16543183945E+04 -0.52498820066E+03  0.55540862349E+03  0.18223289468E+04  0.47000000000E+01 0. -1.
         -5    1    3    3    0  502  0.75916988251E+03 -0.29415213398E+03  0.29838074533E+03  0.86713179368E+03  0.47000000000E+01 0.  1.
         13    1    5    5    0    0 -0.76824131125E+03  0.37992961811E+03 -0.35235132060E+03  0.92665672186E+03  0.00000000000E+00 0. -1.
        -13    1    5    5    0    0 -0.26412787737E+03  0.14398515977E+03 -0.67745806716E+02  0.30835816215E+03  0.00000000000E+00 0.  1.
          3    1    6    6  503    0 -0.10697290103E+04  0.19325461758E+03  0.30806364612E+01  0.10870496736E+04  0.00000000000E+00 0. -1.
         -3    1    6    6    0  503 -0.31139007813E+03  0.10197093918E+03  0.97623230994E+01  0.32780658344E+03  0.00000000000E+00 0.  1.
<mgrwt>
<rscale>  0 0.25611954E+04</rscale>
<asrwt>0</asrwt>
<pdfrwt beam="1">  1        1 0.44506670E+00 0.25611954E+04</pdfrwt>
<pdfrwt beam="2">  1       -1 0.37636898E+00 0.25611954E+04</pdfrwt>
<totfact> 0.61563296E-03</totfact>
</mgrwt>
</event>
<event>
12    1  0.3147868E-008  0.6083893E+03  0.7818608E-02  0.9888152E-01
         -2   -1    0    0    0  501 -0.00000000000E+00  0.00000000000E+00  0.14330993634E+03  0.14330993634E+03  0.00000000000E+00 0.  1.
          2   -1    0    0  501    0  0.00000000000E+00 -0.00000000000E+00 -0.27710098634E+04  0.27710098634E+04  0.00000000000E+00 0. -1.
         23    2    1    2    0    0  0.35654116171E+03 -0.31761805472E+03 -0.87260447208E+03  0.99891511047E+03  0.91596967936E+02 0.  0.
    5000000    2    1    2    0    0 -0.35654116171E+03  0.31761805472E+03 -0.17550954549E+04  0.19154046892E+04  0.60034343416E+03 0.  0.
         23    2    4    4    0    0 -0.48453056014E+03  0.35208493862E+03 -0.13259652591E+04  0.14578686666E+04  0.91997352415E+02 0.  0.
         23    2    4    4    0    0  0.12798939843E+03 -0.34466883894E+02 -0.42913019583E+03  0.45753602268E+03  0.87276771731E+02 0.  0.
          5    1    3    3  502    0  0.95321256872E+02 -0.54560082882E+02 -0.14158253128E+03  0.17925023799E+03  0.47000000000E+01 0. -1.
         -5    1    3    3    0  502  0.26121990484E+03 -0.26305797184E+03 -0.73102194081E+03  0.81966487248E+03  0.47000000000E+01 0.  1.
         13    1    5    5    0    0 -0.68653821416E+02  0.31203099184E+02 -0.11076795544E+03  0.13400194232E+03  0.00000000000E+00 0.  1.
        -13    1    5    5    0    0 -0.41587673873E+03  0.32088183943E+03 -0.12151973037E+04  0.13238667242E+04  0.00000000000E+00 0. -1.
          2    1    6    6  503    0  0.66819509859E+02 -0.32243225613E+02 -0.34846750862E+03  0.35627808951E+03  0.00000000000E+00 0. -1.
         -2    1    6    6    0  503  0.61169888570E+02 -0.22236582804E+01 -0.80662687204E+02  0.10125793318E+03  0.00000000000E+00 0.  1.
<mgrwt>
<rscale>  0 0.60838926E+03</rscale>
<asrwt>0</asrwt>
<pdfrwt beam="1">  1        2 0.42630920E+00 0.60838926E+03</pdfrwt>
<pdfrwt beam="2">  1       -2 0.22047683E-01 0.60838926E+03</pdfrwt>
<totfact> 0.46371037E+01</totfact>
</mgrwt>
</event>
<event>
12    1  0.3147868E-008  0.7869851E+03  0.7818608E-02  0.9579049E-01
          1   -1    0    0  501    0  0.00000000000E+00  0.00000000000E+00  0.24976508494E+04  0.24976508494E+04  0.00000000000E+00 0. -1.
         -1   -1    0    0    0  501 -0.00000000000E+00 -0.00000000000E+00 -0.36902800222E+03  0.36902800222E+03  0.00000000000E+00 0.  1.
         23    2    1    2    0    0  0.19607801392E+03  0.72295033168E+03  0.32157452460E+03  0.82027590567E+03  0.91316027828E+02 0.  0.
    5000000    2    1    2    0    0 -0.19607801392E+03 -0.72295033168E+03  0.18070483226E+04  0.20464029460E+04  0.60103045469E+03 0.  0.
         23    2    4    4    0    0 -0.57330920507E+02 -0.62272253549E+03  0.79059441803E+03  0.10120033009E+04  0.89671380629E+02 0.  0.
         23    2    4    4    0    0 -0.13874709341E+03 -0.10022779619E+03  0.10164539046E+04  0.10343996451E+04  0.86647092369E+02 0.  0.
          5    1    3    3  502    0  0.40208008290E+02  0.30614612556E+03  0.11342839780E+03  0.32898362506E+03  0.47000000000E+01 0. -1.
         -5    1    3    3    0  502  0.15587000563E+03  0.41680420611E+03  0.20814612680E+03  0.49129228062E+03  0.47000000000E+01 0.  1.
         13    1    5    5    0    0  0.11003963836E+02 -0.18008872979E+03  0.18101677014E+03  0.25557798984E+03  0.00000000000E+00 0. -1.
        -13    1    5    5    0    0 -0.68334884344E+02 -0.44263380569E+03  0.60957764789E+03  0.75642531103E+03  0.00000000000E+00 0.  1.
          1    1    6    6  503    0 -0.82848494558E+02 -0.10722355568E+03  0.72207082487E+03  0.73467478525E+03  0.00000000000E+00 0. -1.
         -1    1    6    6    0  503 -0.55898598857E+02  0.69957594931E+01  0.29438307968E+03  0.29972485985E+03  0.00000000000E+00 0.  1.
<mgrwt>
<rscale>  0 0.78698515E+03</rscale>
<asrwt>0</asrwt>
<pdfrwt beam="1">  1        1 0.38425397E+00 0.78698515E+03</pdfrwt>
<pdfrwt beam="2">  1       -1 0.56773540E-01 0.78698515E+03</pdfrwt>
<totfact> 0.44944284E+00</totfact>
</mgrwt>
</event>
<event>
12    1  0.3147868E-008  0.1053621E+04  0.7818608E-02  0.9251613E-01
         -2   -1    0    0    0  501 -0.00000000000E+00  0.00000000000E+00  0.13765625718E+04  0.13765625718E+04  0.00000000000E+00 0.  1.
          2   -1    0    0  501    0  0.00000000000E+00 -0.00000000000E+00 -0.10105846690E+04  0.10105846690E+04  0.00000000000E+00 0. -1.
         23    2    1    2    0    0  0.29816211985E+03  0.98786413528E+03  0.56018555129E+03  0.11778049700E+04  0.92954267767E+02 0.  0.
    5000000    2    1    2    0    0 -0.29816211985E+03 -0.98786413528E+03 -0.19420764848E+03  0.12093422708E+04  0.60001326454E+03 0.  0.
         23    2    4    4    0    0  0.66158851343E+01 -0.44485100378E+03  0.16573522285E+03  0.48428222192E+03  0.95524451712E+02 0.  0.
         23    2    4    4    0    0 -0.30477800498E+03 -0.54301313150E+03 -0.35994287133E+03  0.72506004884E+03  0.91653207761E+02 0.  0.
          5    1    3    3  502    0  0.23882438026E+03  0.86533136983E+03  0.45989074287E+03  0.10086411897E+04  0.47000000000E+01 0. -1.
         -5    1    3    3    0  502  0.59337739590E+02  0.12253276545E+03  0.10029480843E+03  0.16916378024E+03  0.47000000000E+01 0.  1.
         13    1    5    5    0    0  0.11012882384E+02 -0.34600438028E+03  0.84704749200E+02  0.35639193213E+03  0.00000000000E+00 0. -1.
        -13    1    5    5    0    0 -0.43969972501E+01 -0.98846623502E+02  0.81030473654E+02  0.12789028979E+03  0.00000000000E+00 0.  1.
          1    1    6    6  503    0 -0.98177030458E+01 -0.70485203389E+02 -0.55592551730E+02  0.90305498159E+02  0.00000000000E+00 0. -1.
         -1    1    6    6    0  503 -0.29496030194E+03 -0.47252792811E+03 -0.30435031960E+03  0.63475455068E+03  0.00000000000E+00 0.  1.
<mgrwt>
<rscale>  0 0.10536211E+04</rscale>
<asrwt>0</asrwt>
<pdfrwt beam="1">  1        2 0.15547456E+00 0.10536211E+04</pdfrwt>
<pdfrwt beam="2">  1       -2 0.21177886E+00 0.10536211E+04</pdfrwt>
<totfact> 0.27297869E+00</totfact>
</mgrwt>
</event>
<event>
12    1  0.3147868E-008  0.1793127E+04  0.7818608E-02  0.8709963E-01
          1   -1    0    0  501    0  0.00000000000E+00  0.00000000000E+00  0.20730295314E+04  0.20730295314E+04  0.00000000000E+00 0. -1.
         -1   -1    0    0    0  501 -0.00000000000E+00 -0.00000000000E+00 -0.27146477526E+04  0.27146477526E+04  0.00000000000E+00 0.  1.
         23    2    1    2    0    0  0.16905431574E+04 -0.46638486311E+03  0.12375161112E+04  0.21482605057E+04  0.90144701802E+02 0.  0.
    5000000    2    1    2    0    0 -0.16905431574E+04  0.46638486311E+03 -0.18791343324E+04  0.26394167784E+04  0.59993673270E+03 0.  0.
         23    2    4    4    0    0 -0.59900923542E+03 -0.86263782981E+02 -0.78767440054E+03  0.99744672018E+03  0.90639362079E+02 0.  0.
         23    2    4    4    0    0 -0.10915339220E+04  0.55264864609E+03 -0.10914599319E+04  0.16419700582E+04  0.88961004537E+02 0.  0.
          5    1    3    3  502    0  0.13731127690E+04 -0.39226909787E+03  0.96718466985E+03  0.17247556340E+04  0.47000000000E+01 0. -1.
         -5    1    3    3    0  502  0.31743038842E+03 -0.74115765235E+02  0.27033144135E+03  0.42350487167E+03  0.47000000000E+01 0.  1.
         11    1    5    5    0    0 -0.44860993472E+03 -0.80285418118E+02 -0.64722358707E+03  0.79157753477E+03  0.00000000000E+00 0. -1.
        -11    1    5    5    0    0 -0.15039930069E+03 -0.59783648623E+01 -0.14045081347E+03  0.20586918541E+03  0.00000000000E+00 0.  1.
          1    1    6    6  503    0 -0.70193961876E+03  0.39681438169E+03 -0.74496019340E+03  0.10977916795E+04  0.00000000000E+00 0. -1.
         -1    1    6    6    0  503 -0.38959430319E+03  0.15583426439E+03 -0.34649973845E+03  0.54417837865E+03  0.00000000000E+00 0.  1.
<mgrwt>
<rscale>  0 0.17931266E+04</rscale>
<asrwt>0</asrwt>
<pdfrwt beam="1">  1        1 0.31892762E+00 0.17931266E+04</pdfrwt>
<pdfrwt beam="2">  1       -1 0.41763811E+00 0.17931266E+04</pdfrwt>
<totfact> 0.13053495E-02</totfact>
</mgrwt>
</event>
<event>
12    1  0.3187210E-008  0.1642046E+04  0.7818608E-02  0.8795126E-01
         -2   -1    0    0    0  501 -0.00000000000E+00  0.00000000000E+00  0.12288622171E+04  0.12288622171E+04  0.00000000000E+00 0. -1.
          2   -1    0    0  501    0  0.00000000000E+00 -0.00000000000E+00 -0.22469958445E+04  0.22469958445E+04  0.00000000000E+00 0.  1.
         23    2    1    2    0    0  0.76255738934E+03  0.14122074883E+04 -0.55739268307E+03  0.17015930948E+04  0.94385884958E+02 0.  0.
    5000000    2    1    2    0    0 -0.76255738934E+03 -0.14122074883E+04 -0.46074094431E+03  0.17742649668E+04  0.59992515584E+03 0.  0.
         23    2    4    4    0    0 -0.37010890729E+03 -0.11190937279E+04 -0.16260463224E+03  0.11934236577E+04  0.92023830002E+02 0.  0.
         23    2    4    4    0    0 -0.39244848206E+03 -0.29311376041E+03 -0.29813631207E+03  0.58084130911E+03  0.92519609677E+02 0.  0.
          5    1    3    3  502    0  0.52283389949E+03  0.92315027291E+03 -0.40928255042E+03  0.11371437943E+04  0.47000000000E+01 0. -1.
         -5    1    3    3    0  502  0.23972348986E+03  0.48905721538E+03 -0.14811013265E+03  0.56444930056E+03  0.47000000000E+01 0.  1.
         13    1    5    5    0    0 -0.10790070793E+03 -0.46027332992E+03 -0.81374307304E+02  0.47970394922E+03  0.00000000000E+00 0.  1.
        -13    1    5    5    0    0 -0.26220819936E+03 -0.65882039795E+03 -0.81230324935E+02  0.71371970847E+03  0.00000000000E+00 0. -1.
          2    1    6    6  503    0 -0.16991987754E+03 -0.77356881598E+02 -0.13648680063E+03  0.23126932062E+03  0.00000000000E+00 0. -1.
         -2    1    6    6    0  503 -0.22252860452E+03 -0.21575687882E+03 -0.16164951144E+03  0.34957198849E+03  0.00000000000E+00 0.  1.
<mgrwt>
<rscale>  0 0.16420458E+04</rscale>
<asrwt>0</asrwt>
<pdfrwt beam="1">  1        2 0.34569167E+00 0.16420458E+04</pdfrwt>
<pdfrwt beam="2">  1       -2 0.18905573E+00 0.16420458E+04</pdfrwt>
<totfact> 0.70833606E-01</totfact>
</mgrwt>
</event>
<event>
12    1  0.3147868E-008  0.5692912E+03  0.7818608E-02  0.9971248E-01
          2   -1    0    0  501    0  0.00000000000E+00  0.00000000000E+00  0.13212623525E+04  0.13212623525E+04  0.00000000000E+00 0.  1.
         -2   -1    0    0    0  501 -0.00000000000E+00 -0.00000000000E+00 -0.29438002594E+03  0.29438002594E+03  0.00000000000E+00 0. -1.
         23    2    1    2    0    0  0.10786087630E+03  0.41364027792E+03  0.13159779277E+03  0.45625585754E+03  0.90106494345E+02 0.  0.
    5000000    2    1    2    0    0 -0.10786087630E+03 -0.41364027792E+03  0.89528453375E+03  0.11593865209E+04  0.59992537890E+03 0.  0.
         23    2    4    4    0    0  0.22489512076E+03 -0.22177573046E+03  0.51725147522E+03  0.61292756676E+03  0.91481274092E+02 0.  0.
         23    2    4    4    0    0 -0.33275599706E+03 -0.19186454747E+03  0.37803305853E+03  0.54645895411E+03  0.90387150827E+02 0.  0.
          5    1    3    3  502    0  0.25530308889E+02  0.23659286493E+03  0.43325548623E+02  0.24192390037E+03  0.47000000000E+01 0. -1.
         -5    1    3    3    0  502  0.82330567410E+02  0.17704741299E+03  0.88272244144E+02  0.21433195717E+03  0.47000000000E+01 0.  1.
         11    1    5    5    0    0  0.14294149576E+03 -0.10591833428E+03  0.35698932701E+03  0.39886381680E+03  0.00000000000E+00 0.  1.
        -11    1    5    5    0    0  0.81953625004E+02 -0.11585739617E+03  0.16026214821E+03  0.21406374996E+03  0.00000000000E+00 0. -1.
          3    1    6    6  503    0 -0.17451694726E+03 -0.82150926292E+02  0.13064191362E+03  0.23296405123E+03  0.00000000000E+00 0. -1.
         -3    1    6    6    0  503 -0.15823904980E+03 -0.10971362117E+03  0.24739114491E+03  0.31349490288E+03  0.00000000000E+00 0.  1.
<mgrwt>
<rscale>  0 0.56929122E+03</rscale>
<asrwt>0</asrwt>
<pdfrwt beam="1">  1        2 0.20327113E+00 0.56929122E+03</pdfrwt>
<pdfrwt beam="2">  1       -2 0.45289235E-01 0.56929122E+03</pdfrwt>
<totfact> 0.77019382E+01</totfact>
</mgrwt>
</event>
<event>
12    1  0.3147868E-008  0.1074939E+04  0.7818608E-02  0.9229968E-01
         -1   -1    0    0    0  501 -0.00000000000E+00  0.00000000000E+00  0.14403702244E+04  0.14403702244E+04  0.00000000000E+00 0.  1.
          1   -1    0    0  501    0  0.00000000000E+00 -0.00000000000E+00 -0.14444016721E+04  0.14444016721E+04  0.00000000000E+00 0. -1.
         23    2    1    2    0    0 -0.52434156586E+03 -0.86238283310E+03 -0.94084209638E+03  0.13829008422E+04  0.92696605075E+02 0.  0.
    5000000    2    1    2    0    0  0.52434156586E+03  0.86238283310E+03  0.93681064875E+03  0.15018710543E+04  0.59946996883E+03 0.  0.
         23    2    4    4    0    0  0.47015196314E+03  0.27130244313E+03  0.30214794329E+03  0.62813223860E+03  0.92783864137E+02 0.  0.
         23    2    4    4    0    0  0.54189602715E+02  0.59108038998E+03  0.63466270546E+03  0.87373881567E+03  0.91160451095E+02 0.  0.
          5    1    3    3  502    0 -0.38742144420E+03 -0.65596551911E+03 -0.65565775567E+03  0.10051344787E+04  0.47000000000E+01 0. -1.
         -5    1    3    3    0  502 -0.13692012166E+03 -0.20641731399E+03 -0.28518434071E+03  0.37776636353E+03  0.47000000000E+01 0.  1.
         13    1    5    5    0    0  0.92240703850E+02  0.66286856774E+02  0.24097472618E+02  0.11611624785E+03  0.00000000000E+00 0.  1.
        -13    1    5    5    0    0  0.37791125929E+03  0.20501558635E+03  0.27805047067E+03  0.51201599075E+03  0.00000000000E+00 0. -1.
          4    1    6    6  503    0  0.59473295303E+02  0.31133527400E+03  0.28814003233E+03  0.42835896620E+03  0.00000000000E+00 0. -1.
         -4    1    6    6    0  503 -0.52836925885E+01  0.27974511598E+03  0.34652267313E+03  0.44537984947E+03  0.00000000000E+00 0.  1.
<mgrwt>
<rscale>  0 0.10749389E+04</rscale>
<asrwt>0</asrwt>
<pdfrwt beam="1">  1        1 0.22221564E+00 0.10749389E+04</pdfrwt>
<pdfrwt beam="2">  1       -1 0.22159542E+00 0.10749389E+04</pdfrwt>
<totfact> 0.76550307E-01</totfact>
</mgrwt>
</event>
<event>
12    1  0.3147868E-008  0.6751857E+03  0.7818608E-02  0.9760635E-01
          2   -1    0    0  501    0  0.00000000000E+00  0.00000000000E+00  0.23710574275E+04  0.23710574275E+04  0.00000000000E+00 0. -1.
         -2   -1    0    0    0  501 -0.00000000000E+00 -0.00000000000E+00 -0.25357368453E+03  0.25357368453E+03  0.00000000000E+00 0.  1.
         23    2    1    2    0    0 -0.21938937024E+03 -0.60360150394E+03  0.11272018104E+04  0.13005703431E+04  0.91830411559E+02 0.  0.
    5000000    2    1    2    0    0  0.21938937024E+03  0.60360150394E+03  0.99028193259E+03  0.13240607690E+04  0.60001011881E+03 0.  0.
         23    2    4    4    0    0  0.15334646226E+03  0.56982605953E+03  0.39223438633E+03  0.71431626273E+03  0.90460122558E+02 0.  0.
         23    2    4    4    0    0  0.66042907987E+02  0.33775444413E+02  0.59804754626E+03  0.60974450628E+03  0.92871141982E+02 0.  0.
          5    1    3    3  502    0 -0.92530941827E+02 -0.20212339481E+03  0.47173202838E+03  0.52150650861E+03  0.47000000000E+01 0. -1.
         -5    1    3    3    0  502 -0.12685842842E+03 -0.40147810913E+03  0.65546978204E+03  0.77906383445E+03  0.47000000000E+01 0.  1.
         13    1    5    5    0    0  0.97528913320E+02  0.32216792042E+03  0.17088539617E+03  0.37749950531E+03  0.00000000000E+00 0.  1.
        -13    1    5    5    0    0  0.55817548937E+02  0.24765813911E+03  0.22134899016E+03  0.33681675742E+03  0.00000000000E+00 0. -1.
          4    1    6    6  503    0  0.55360436374E+02  0.63882198398E+02  0.48312179719E+03  0.49046139920E+03  0.00000000000E+00 0. -1.
         -4    1    6    6    0  503  0.10682471613E+02 -0.30106753985E+02  0.11492574907E+03  0.11928310708E+03  0.00000000000E+00 0.  1.
<mgrwt>
<rscale>  0 0.67518570E+03</rscale>
<asrwt>0</asrwt>
<pdfrwt beam="1">  1        2 0.36477805E+00 0.67518570E+03</pdfrwt>
<pdfrwt beam="2">  1       -2 0.39011338E-01 0.67518570E+03</pdfrwt>
<totfact> 0.27010780E+01</totfact>
</mgrwt>
</event>
<event>
12    1  0.3147868E-008  0.5237416E+03  0.7818608E-02  0.1007761E+00
          2   -1    0    0  501    0  0.00000000000E+00  0.00000000000E+00  0.32870416673E+04  0.32870416673E+04  0.00000000000E+00 0. -1.
         -2   -1    0    0    0  501 -0.00000000000E+00 -0.00000000000E+00 -0.14717642614E+03  0.14717642614E+03  0.00000000000E+00 0.  1.
         23    2    1    2    0    0 -0.20036013449E+03 -0.33861175225E+03  0.29517034984E+03  0.50038312837E+03  0.91954540296E+02 0.  0.
    5000000    2    1    2    0    0  0.20036013449E+03  0.33861175225E+03  0.28446948913E+04  0.29338349651E+04  0.60024701191E+03 0.  0.
         23    2    4    4    0    0  0.35872546947E+03  0.13672601845E+03  0.11231223815E+04  0.11904413798E+04  0.91481300853E+02 0.  0.
         23    2    4    4    0    0 -0.15836533499E+03  0.20188573379E+03  0.17215725098E+04  0.17433935852E+04  0.98852706912E+02 0.  0.
          5    1    3    3  502    0 -0.17114269475E+02 -0.54030329611E+02  0.83891803155E+02  0.10135136592E+03  0.47000000000E+01 0. -1.
         -5    1    3    3    0  502 -0.18324586501E+03 -0.28458142263E+03  0.21127854669E+03  0.39903176245E+03  0.47000000000E+01 0.  1.
         11    1    5    5    0    0  0.17088179621E+03  0.19996816898E+02  0.44150047963E+03  0.47383872201E+03  0.00000000000E+00 0. -1.
        -11    1    5    5    0    0  0.18784367326E+03  0.11672920156E+03  0.68162190189E+03  0.71660265783E+03  0.00000000000E+00 0.  1.
          2    1    6    6  503    0 -0.10372961047E+03  0.10454953729E+03  0.67469812292E+03  0.69058525535E+03  0.00000000000E+00 0. -1.
         -2    1    6    6    0  503 -0.54635724513E+02  0.97336196502E+02  0.10468743869E+04  0.10528083299E+04  0.00000000000E+00 0.  1.
<mgrwt>
<rscale>  0 0.52374157E+03</rscale>
<asrwt>0</asrwt>
<pdfrwt beam="1">  1        2 0.50569866E+00 0.52374157E+03</pdfrwt>
<pdfrwt beam="2">  1       -2 0.22642529E-01 0.52374157E+03</pdfrwt>
<totfact> 0.21785986E+01</totfact>
</mgrwt>
</event>
<event>
12    1  0.3147868E-008  0.7337841E+03  0.7818608E-02  0.9661140E-01
          2   -1    0    0  501    0  0.00000000000E+00  0.00000000000E+00  0.95637208182E+03  0.95637208182E+03  0.00000000000E+00 0. -1.
         -2   -1    0    0    0  501 -0.00000000000E+00 -0.00000000000E+00 -0.70012655795E+03  0.70012655795E+03  0.00000000000E+00 0.  1.
         23    2    1    2    0    0  0.48775390865E+03 -0.41136562931E+03 -0.19263429633E+03  0.67230114983E+03  0.88064224084E+02 0.  0.
    5000000    2    1    2    0    0 -0.48775390865E+03  0.41136562931E+03  0.44887982020E+03  0.98419748994E+03  0.60002170780E+03 0.  0.
         23    2    4    4    0    0 -0.17189471195E+03  0.45690709276E+03  0.10842537328E+03  0.50831779561E+03  0.91208751527E+02 0.  0.
         23    2    4    4    0    0 -0.31585919670E+03 -0.45541463448E+02  0.34045444692E+03  0.47587969432E+03  0.93333788145E+02 0.  0.
          5    1    3    3  502    0  0.34091189414E+03 -0.32262307336E+03 -0.16975209066E+03  0.49914369606E+03  0.47000000000E+01 0. -1.
         -5    1    3    3    0  502  0.14684201451E+03 -0.88742555947E+02 -0.22882205672E+02  0.17315745377E+03  0.47000000000E+01 0.  1.
         13    1    5    5    0    0 -0.15463237240E+03  0.30025643307E+03  0.90855618151E+02  0.34974253322E+03  0.00000000000E+00 0.  1.
        -13    1    5    5    0    0 -0.17262339554E+02  0.15665065969E+03  0.17569755128E+02  0.15857526239E+03  0.00000000000E+00 0. -1.
          1    1    6    6  503    0 -0.16310930811E+03 -0.68178738486E+02  0.16073669632E+03  0.23893361488E+03  0.00000000000E+00 0. -1.
         -1    1    6    6    0  503 -0.15274988858E+03  0.22637275038E+02  0.17971775060E+03  0.23694607945E+03  0.00000000000E+00 0.  1.
<mgrwt>
<rscale>  0 0.73378408E+03</rscale>
<asrwt>0</asrwt>
<pdfrwt beam="1">  1        2 0.14713417E+00 0.73378408E+03</pdfrwt>
<pdfrwt beam="2">  1       -2 0.10771178E+00 0.73378408E+03</pdfrwt>
<totfact> 0.18919839E+01</totfact>
</mgrwt>
</event>
<event>
12    1  0.3147868E-008  0.8477637E+03  0.7818608E-02  0.9493343E-01
          1   -1    0    0  501    0  0.00000000000E+00  0.00000000000E+00  0.16941731597E+04  0.16941731597E+04  0.00000000000E+00 0. -1.
         -1   -1    0    0    0  501 -0.00000000000E+00 -0.00000000000E+00 -0.44898696923E+03  0.44898696923E+03  0.00000000000E+00 0.  1.
         23    2    1    2    0    0 -0.74754484960E+03 -0.56810640521E+02  0.74279616195E+03  0.10594796062E+04  0.93274576470E+02 0.  0.
    5000000    2    1    2    0    0  0.74754484960E+03  0.56810640521E+02  0.50239002851E+03  0.10836805228E+04  0.59993081571E+03 0.  0.
         23    2    4    4    0    0  0.82776032974E+02 -0.20285363848E+03  0.16416183866E+03  0.28854103348E+03  0.91133684506E+02 0.  0.
         23    2    4    4    0    0  0.66476881663E+03  0.25966427900E+03  0.33822818984E+03  0.79513948929E+03  0.92224626148E+02 0.  0.
          5    1    3    3  502    0 -0.65344352959E+03 -0.78059800779E+02  0.66335134144E+03  0.93441900187E+03  0.47000000000E+01 0. -1.
         -5    1    3    3    0  502 -0.94101320013E+02  0.21249160258E+02  0.79444820503E+02  0.12506060429E+03  0.47000000000E+01 0.  1.
         13    1    5    5    0    0  0.65538146218E+02 -0.11935399788E+03  0.47850409479E+02  0.14432701447E+03  0.00000000000E+00 0.  1.
        -13    1    5    5    0    0  0.17237886756E+02 -0.83499640596E+02  0.11631142919E+03  0.14421401901E+03  0.00000000000E+00 0. -1.
          4    1    6    6  503    0  0.57676608066E+03  0.19026926222E+03  0.27858506747E+03  0.66818496224E+03  0.00000000000E+00 0. -1.
         -4    1    6    6    0  503  0.88002735968E+02  0.69395016771E+02  0.59643122375E+02  0.12695452705E+03  0.00000000000E+00 0.  1.
<mgrwt>
<rscale>  0 0.84776373E+03</rscale>
<asrwt>0</asrwt>
<pdfrwt beam="1">  1        1 0.26064202E+00 0.84776373E+03</pdfrwt>
<pdfrwt beam="2">  1       -1 0.69074919E-01 0.84776373E+03</pdfrwt>
<totfact> 0.10469797E+01</totfact>
</mgrwt>
</event>
<event>
12    1  0.3147868E-008  0.7008980E+03  0.7818608E-02  0.9715698E-01
         -2   -1    0    0    0  501 -0.00000000000E+00  0.00000000000E+00  0.67020709399E+03  0.67020709399E+03  0.00000000000E+00 0.  1.
          2   -1    0    0  501    0  0.00000000000E+00 -0.00000000000E+00 -0.79934567820E+03  0.79934567820E+03  0.00000000000E+00 0. -1.
         23    2    1    2    0    0  0.47216326986E+03 -0.35993021439E+03  0.61471733896E+02  0.60435102173E+03  0.94728405247E+02 0.  0.
    5000000    2    1    2    0    0 -0.47216326986E+03  0.35993021439E+03 -0.19061031811E+03  0.86520175046E+03  0.59979485076E+03 0.  0.
         23    2    4    4    0    0 -0.40981487978E+02  0.36725726354E+03  0.10605201426E+02  0.38084933977E+03  0.91522507231E+02 0.  0.
         23    2    4    4    0    0 -0.43118178188E+03 -0.73270491446E+01 -0.20121551954E+03  0.48435241069E+03  0.90211738523E+02 0.  0.
          5    1    3    3  502    0  0.13144565393E+03 -0.90305448993E+02 -0.24472292728E+02  0.16141256818E+03  0.47000000000E+01 0. -1.
         -5    1    3    3    0  502  0.34071761593E+03 -0.26962476540E+03  0.85944026624E+02  0.44293845355E+03  0.47000000000E+01 0.  1.
         11    1    5    5    0    0  0.12998447462E+02  0.46665939957E+02  0.26763580262E+02  0.55344004345E+02  0.00000000000E+00 0.  1.
        -11    1    5    5    0    0 -0.53979935440E+02  0.32059132358E+03 -0.16158378836E+02  0.32550533543E+03  0.00000000000E+00 0. -1.
          4    1    6    6  503    0 -0.43003519888E+02 -0.16063496157E+02  0.23171186174E+01  0.45964199875E+02  0.00000000000E+00 0. -1.
         -4    1    6    6    0  503 -0.38817826199E+03  0.87364470122E+01 -0.20353263815E+03  0.43838821081E+03  0.00000000000E+00 0.  1.
<mgrwt>
<rscale>  0 0.70089797E+03</rscale>
<asrwt>0</asrwt>
<pdfrwt beam="1">  1        2 0.12297626E+00 0.70089797E+03</pdfrwt>
<pdfrwt beam="2">  1       -2 0.10310878E+00 0.70089797E+03</pdfrwt>
<totfact> 0.26980320E+01</totfact>
</mgrwt>
</event>
<event>
12    1  0.3147868E-008  0.1063024E+04  0.7818608E-02  0.9242000E-01
         -2   -1    0    0    0  501 -0.00000000000E+00  0.00000000000E+00  0.65775598334E+03  0.65775598334E+03  0.00000000000E+00 0.  1.
          2   -1    0    0  501    0  0.00000000000E+00 -0.00000000000E+00 -0.19092847518E+04  0.19092847518E+04  0.00000000000E+00 0. -1.
         23    2    1    2    0    0 -0.40603437726E+03  0.93546315636E+03 -0.35838511426E+03  0.10845914172E+04  0.89125864281E+02 0.  0.
    5000000    2    1    2    0    0  0.40603437726E+03 -0.93546315636E+03 -0.89314365418E+03  0.14824493179E+04  0.59999596736E+03 0.  0.
         23    2    4    4    0    0  0.24339032717E+03 -0.90296349974E+03 -0.88766236759E+03  0.12925348934E+04  0.90111256378E+02 0.  0.
         23    2    4    4    0    0  0.16264405008E+03 -0.32499656618E+02 -0.54812865919E+01  0.18991442457E+03  0.92347871931E+02 0.  0.
          5    1    3    3  502    0 -0.33788729819E+03  0.71289232046E+03 -0.30426613105E+03  0.84556682489E+03  0.47000000000E+01 0. -1.
         -5    1    3    3    0  502 -0.68147079069E+02  0.22257083589E+03 -0.54118983217E+02  0.23902459229E+03  0.47000000000E+01 0.  1.
         13    1    5    5    0    0  0.38124290326E+01 -0.10373934479E+03 -0.12101351186E+03  0.15943856599E+03  0.00000000000E+00 0. -1.
        -13    1    5    5    0    0  0.23957789814E+03 -0.79922415495E+03 -0.76664885573E+03  0.11330963274E+04  0.00000000000E+00 0.  1.
          2    1    6    6  503    0  0.94869153238E+02 -0.14144949428E+02 -0.48587709669E+02  0.10752209708E+03  0.00000000000E+00 0. -1.
         -2    1    6    6    0  503  0.67774896843E+02 -0.18354707190E+02  0.43106423077E+02  0.82392327487E+02  0.00000000000E+00 0.  1.
<mgrwt>
<rscale>  0 0.10630238E+04</rscale>
<asrwt>0</asrwt>
<pdfrwt beam="1">  1        2 0.29373611E+00 0.10630238E+04</pdfrwt>
<pdfrwt beam="2">  1       -2 0.10119323E+00 0.10630238E+04</pdfrwt>
<totfact> 0.59782755E+00</totfact>
</mgrwt>
</event>
<event>
12    1  0.3147868E-008  0.8582533E+03  0.7818608E-02  0.9479326E-01
          2   -1    0    0  501    0  0.00000000000E+00  0.00000000000E+00  0.30162442364E+04  0.30162442364E+04  0.00000000000E+00 0. -1.
         -2   -1    0    0    0  501 -0.00000000000E+00 -0.00000000000E+00 -0.27142978203E+03  0.27142978203E+03  0.00000000000E+00 0.  1.
         23    2    1    2    0    0  0.27661144635E+03 -0.72604051607E+03  0.85907053619E+03  0.11617797102E+04  0.89895415626E+02 0.  0.
    5000000    2    1    2    0    0 -0.27661144635E+03  0.72604051607E+03  0.18857439182E+04  0.21258943082E+04  0.59978976434E+03 0.  0.
         23    2    4    4    0    0 -0.64559544623E+02  0.70754890306E+03  0.16295175371E+04  0.17797356669E+04  0.85663616500E+02 0.  0.
         23    2    4    4    0    0 -0.21205190173E+03  0.18491613010E+02  0.25622638104E+03  0.34615864129E+03  0.94158896626E+02 0.  0.
          5    1    3    3  502    0  0.11504998426E+03 -0.41648142548E+03  0.50130858126E+03  0.66183507031E+03  0.47000000000E+01 0. -1.
         -5    1    3    3    0  502  0.16156146209E+03 -0.30955909060E+03  0.35776195493E+03  0.49994463994E+03  0.47000000000E+01 0.  1.
         13    1    5    5    0    0 -0.25732159968E+02  0.42919822757E+03  0.10819483107E+04  0.11642531553E+04  0.00000000000E+00 0. -1.
        -13    1    5    5    0    0 -0.38827384656E+02  0.27835067549E+03  0.54756922639E+03  0.61548251156E+03  0.00000000000E+00 0.  1.
          4    1    6    6  503    0 -0.17954844826E+03  0.41582620620E+02  0.16816553077E+03  0.24949229517E+03  0.00000000000E+00 0. -1.
         -4    1    6    6    0  503 -0.32503453472E+02 -0.23091007610E+02  0.88060850279E+02  0.96666346119E+02  0.00000000000E+00 0.  1.
<mgrwt>
<rscale>  0 0.85825328E+03</rscale>
<asrwt>0</asrwt>
<pdfrwt beam="1">  1        2 0.46403755E+00 0.85825328E+03</pdfrwt>
<pdfrwt beam="2">  1       -2 0.41758430E-01 0.85825328E+03</pdfrwt>
<totfact> 0.96539005E+00</totfact>
</mgrwt>
</event>
<event>
12    1  0.3147868E-008  0.8783301E+03  0.7818608E-02  0.9453083E-01
         -2   -1    0    0    0  501 -0.00000000000E+00  0.00000000000E+00  0.83300980560E+03  0.83300980560E+03  0.00000000000E+00 0.  1.
          2   -1    0    0  501    0  0.00000000000E+00 -0.00000000000E+00 -0.10447232223E+04  0.10447232223E+04  0.00000000000E+00 0. -1.
         23    2    1    2    0    0 -0.78480933566E+03  0.22079272628E+03  0.76936856596E+02  0.82512935625E+03  0.10121291081E+03 0.  0.
    5000000    2    1    2    0    0  0.78480933566E+03 -0.22079272628E+03 -0.28865027334E+03  0.10526036717E+04  0.59998365647E+03 0.  0.
         23    2    4    4    0    0  0.74770863145E+03 -0.32402190763E+03 -0.10992464793E+03  0.82719094488E+03  0.90016870041E+02 0.  0.
         23    2    4    4    0    0  0.37100704208E+02  0.10322918135E+03 -0.17872562541E+03  0.22541272681E+03  0.82676006772E+02 0.  0.
          5    1    3    3  502    0 -0.59538323669E+03  0.16985168442E+03  0.14867306413E+02  0.61933344818E+03  0.47000000000E+01 0. -1.
         -5    1    3    3    0  502 -0.18942609897E+03  0.50941041863E+02  0.62069550183E+02  0.20579590807E+03  0.47000000000E+01 0.  1.
         11    1    5    5    0    0  0.72341002907E+03 -0.31702545582E+03 -0.89881945440E+02  0.79492513730E+03  0.00000000000E+00 0.  1.
        -11    1    5    5    0    0  0.24298602388E+02 -0.69964518162E+01 -0.20042702487E+02  0.32265807583E+02  0.00000000000E+00 0. -1.
          2    1    6    6  503    0  0.54234972634E+02  0.67787713899E+02 -0.75919008563E+02  0.11532693646E+03  0.00000000000E+00 0. -1.
         -2    1    6    6    0  503 -0.17134268426E+02  0.35441467448E+02 -0.10280661685E+03  0.11008579035E+03  0.00000000000E+00 0.  1.
<mgrwt>
<rscale>  0 0.87833009E+03</rscale>
<asrwt>0</asrwt>
<pdfrwt beam="1">  1        2 0.16072665E+00 0.87833009E+03</pdfrwt>
<pdfrwt beam="2">  1       -2 0.12815535E+00 0.87833009E+03</pdfrwt>
<totfact> 0.10659751E+01</totfact>
</mgrwt>
</event>
<event>
12    1  0.3147868E-008  0.6263180E+03  0.7818608E-02  0.9852260E-01
          1   -1    0    0  501    0  0.00000000000E+00  0.00000000000E+00  0.55801313580E+03  0.55801313580E+03  0.00000000000E+00 0. -1.
         -1   -1    0    0    0  501 -0.00000000000E+00 -0.00000000000E+00 -0.14992775447E+04  0.14992775447E+04  0.00000000000E+00 0.  1.
         23    2    1    2    0    0  0.30040481109E+03  0.40899410468E+03 -0.11361506308E+04  0.12476591159E+04  0.91081202624E+02 0.  0.
    5000000    2    1    2    0    0 -0.30040481109E+03 -0.40899410468E+03  0.19488622195E+03  0.80963156454E+03  0.60000283549E+03 0.  0.
         23    2    4    4    0    0 -0.38310100656E+03 -0.46226031381E+03  0.50291549484E+02  0.60931537289E+03  0.91022001394E+02 0.  0.
         23    2    4    4    0    0  0.82696195468E+02  0.53266209134E+02  0.14459467247E+03  0.20031619165E+03  0.97688318393E+02 0.  0.
          5    1    3    3  502    0  0.22867377996E+03  0.35561909586E+03 -0.98609357915E+03  0.10729209085E+04  0.47000000000E+01 0. -1.
         -5    1    3    3    0  502  0.71731031130E+02  0.53375008821E+02 -0.15005705167E+03  0.17473820747E+03  0.47000000000E+01 0.  1.
         11    1    5    5    0    0 -0.13577167984E+03 -0.19676824817E+03  0.59478832457E+02  0.24635223572E+03  0.00000000000E+00 0. -1.
        -11    1    5    5    0    0 -0.24732932672E+03 -0.26549206564E+03 -0.91872829735E+01  0.36296313717E+03  0.00000000000E+00 0.  1.
          4    1    6    6  503    0  0.25691720224E+02 -0.28705988588E+02  0.34840151784E+02  0.51941644614E+02  0.00000000000E+00 0. -1.
         -4    1    6    6    0  503  0.57004475244E+02  0.81972197722E+02  0.10975452068E+03  0.14837454703E+03  0.00000000000E+00 0.  1.
<mgrwt>
<rscale>  0 0.62631797E+03</rscale>
<asrwt>0</asrwt>
<pdfrwt beam="1">  1        1 0.85848175E-01 0.62631797E+03</pdfrwt>
<pdfrwt beam="2">  1       -1 0.23065808E+00 0.62631797E+03</pdfrwt>
<totfact> 0.37712269E+00</totfact>
</mgrwt>
</event>
<event>
12    1  0.3147868E-008  0.1201254E+04  0.7818608E-02  0.9111760E-01
          1   -1    0    0  501    0  0.00000000000E+00  0.00000000000E+00  0.14204354876E+04  0.14204354876E+04  0.00000000000E+00 0. -1.
         -1   -1    0    0    0  501 -0.00000000000E+00 -0.00000000000E+00 -0.11377701642E+04  0.11377701642E+04  0.00000000000E+00 0.  1.
         23    2    1    2    0    0 -0.48110122757E+03  0.10560368346E+04  0.43556176967E+03  0.12428913961E+04  0.91612118070E+02 0.  0.
    5000000    2    1    2    0    0  0.48110122757E+03 -0.10560368346E+04 -0.15289644622E+03  0.13153142557E+04  0.60000173406E+03 0.  0.
         23    2    4    4    0    0  0.50697326858E+03 -0.60748228475E+03 -0.27212314830E+03  0.84174228907E+03  0.91773918069E+02 0.  0.
         23    2    4    4    0    0 -0.25872041014E+02 -0.44855454984E+03  0.11922670208E+03  0.47357196665E+03  0.90470185255E+02 0.  0.
          5    1    3    3  502    0 -0.22212131679E+03  0.43015261289E+03  0.22239128673E+03  0.53277492824E+03  0.47000000000E+01 0. -1.
         -5    1    3    3    0  502 -0.25897991077E+03  0.62588422169E+03  0.21317048295E+03  0.71011646788E+03  0.47000000000E+01 0.  1.
         11    1    5    5    0    0  0.37793160000E+03 -0.43633692064E+03 -0.15598192742E+03  0.59795699199E+03  0.00000000000E+00 0. -1.
        -11    1    5    5    0    0  0.12904166858E+03 -0.17114536411E+03 -0.11614122088E+03  0.24378529708E+03  0.00000000000E+00 0.  1.
          3    1    6    6  503    0 -0.10338258222E+02 -0.10669057390E+03  0.69528741272E+02  0.12776542570E+03  0.00000000000E+00 0. -1.
         -3    1    6    6    0  503 -0.15533782791E+02 -0.34186397594E+03  0.49697960807E+02  0.34580654095E+03  0.00000000000E+00 0.  1.
<mgrwt>
<rscale>  0 0.12012540E+04</rscale>
<asrwt>0</asrwt>
<pdfrwt beam="1">  1        1 0.21852854E+00 0.12012540E+04</pdfrwt>
<pdfrwt beam="2">  1       -1 0.17504156E+00 0.12012540E+04</pdfrwt>
<totfact> 0.16464964E+00</totfact>
</mgrwt>
</event>
<event>
12    1  0.3147868E-008  0.1375111E+04  0.7818608E-02  0.8972034E-01
          1   -1    0    0  501    0  0.00000000000E+00  0.00000000000E+00  0.21952202307E+04  0.21952202307E+04  0.00000000000E+00 0. -1.
         -1   -1    0    0    0  501 -0.00000000000E+00 -0.00000000000E+00 -0.94258192675E+03  0.94258192675E+03  0.00000000000E+00 0.  1.
         23    2    1    2    0    0 -0.99118060314E+03  0.87145632804E+03  0.18124580103E+03  0.13351029311E+04  0.88174125992E+02 0.  0.
    5000000    2    1    2    0    0  0.99118060314E+03 -0.87145632804E+03  0.10713925029E+04  0.18026992264E+04  0.59997290412E+03 0.  0.
         23    2    4    4    0    0  0.82989063235E+03 -0.39519958728E+03  0.56372481972E+03  0.10821424837E+04  0.91353747186E+02 0.  0.
         23    2    4    4    0    0  0.16128997079E+03 -0.47625674076E+03  0.50766768322E+03  0.72055674271E+03  0.92954855094E+02 0.  0.
          5    1    3    3  502    0 -0.91979030488E+03  0.77988614905E+03  0.15374595958E+03  0.12156876739E+04  0.47000000000E+01 0. -1.
         -5    1    3    3    0  502 -0.71390298263E+02  0.91570178985E+02  0.27499841451E+02  0.11941525717E+03  0.47000000000E+01 0.  1.
         13    1    5    5    0    0  0.16845098160E+03 -0.75498643391E+02  0.15752711650E+03  0.24267379502E+03  0.00000000000E+00 0. -1.
        -13    1    5    5    0    0  0.66143965075E+03 -0.31970094389E+03  0.40619770321E+03  0.83946868864E+03  0.00000000000E+00 0.  1.
          1    1    6    6  503    0  0.50529893831E+02 -0.61728596002E+02  0.10729657351E+03  0.13370207337E+03  0.00000000000E+00 0. -1.
         -1    1    6    6    0  503  0.11076007696E+03 -0.41452814476E+03  0.40037110971E+03  0.58685466935E+03  0.00000000000E+00 0.  1.
<mgrwt>
<rscale>  0 0.13751109E+04</rscale>
<asrwt>0</asrwt>
<pdfrwt beam="1">  1        1 0.33772619E+00 0.13751109E+04</pdfrwt>
<pdfrwt beam="2">  1       -1 0.14501260E+00 0.13751109E+04</pdfrwt>
<totfact> 0.80775534E-01</totfact>
</mgrwt>
</event>
<event>
12    1  0.3147868E-008  0.5987953E+03  0.7818608E-02  0.9907909E-01
          1   -1    0    0  501    0  0.00000000000E+00  0.00000000000E+00  0.11736138331E+04  0.11736138331E+04  0.00000000000E+00 0. -1.
         -1   -1    0    0    0  501 -0.00000000000E+00 -0.00000000000E+00 -0.36868887798E+03  0.36868887798E+03  0.00000000000E+00 0.  1.
         23    2    1    2    0    0 -0.15887735330E+03 -0.48153281644E+03  0.20787889374E+03  0.55543543932E+03  0.90437968169E+02 0.  0.
    5000000    2    1    2    0    0  0.15887735330E+03  0.48153281644E+03  0.59704606141E+03  0.98686727179E+03  0.60027255974E+03 0.  0.
         23    2    4    4    0    0  0.30679351670E+03  0.24616289090E+03  0.56211566298E+03  0.69191129762E+03  0.89715073708E+02 0.  0.
         23    2    4    4    0    0 -0.14791616341E+03  0.23536992554E+03  0.34930398430E+02  0.29495597417E+03  0.92199244684E+02 0.  0.
          5    1    3    3  502    0 -0.38516083168E+02 -0.21162680525E+03  0.12342218939E+03  0.24804136792E+03  0.47000000000E+01 0. -1.
         -5    1    3    3    0  502 -0.12036127013E+03 -0.26990601119E+03  0.84456704351E+02  0.30739407140E+03  0.47000000000E+01 0.  1.
         13    1    5    5    0    0  0.20612578964E+02 -0.28471053505E+01  0.53523820910E+02  0.57426333900E+02  0.00000000000E+00 0. -1.
        -13    1    5    5    0    0  0.28618093774E+03  0.24900999625E+03  0.50859184207E+03  0.63448496372E+03  0.00000000000E+00 0.  1.
          1    1    6    6  503    0 -0.59543863394E+01  0.63581331166E+02 -0.17096102546E+02  0.66108373991E+02  0.00000000000E+00 0. -1.
         -1    1    6    6    0  503 -0.14196177707E+03  0.17178859437E+03  0.52026500976E+02  0.22884760018E+03  0.00000000000E+00 0.  1.
<mgrwt>
<rscale>  0 0.59879530E+03</rscale>
<asrwt>0</asrwt>
<pdfrwt beam="1">  1        1 0.18055597E+00 0.59879530E+03</pdfrwt>
<pdfrwt beam="2">  1       -1 0.56721366E-01 0.59879530E+03</pdfrwt>
<totfact> 0.36800651E+01</totfact>
</mgrwt>
</event>
<event>
12    1  0.3147868E-008  0.1805284E+04  0.7818608E-02  0.8703495E-01
          2   -1    0    0  501    0  0.00000000000E+00  0.00000000000E+00  0.17772317926E+04  0.17772317926E+04  0.00000000000E+00 0. -1.
         -2   -1    0    0    0  501 -0.00000000000E+00 -0.00000000000E+00 -0.19293904103E+04  0.19293904103E+04  0.00000000000E+00 0.  1.
         23    2    1    2    0    0  0.98565850949E+03 -0.15004011351E+04  0.85392137037E+02  0.17989741348E+04  0.79308618596E+02 0.  0.
    5000000    2    1    2    0    0 -0.98565850949E+03  0.15004011351E+04 -0.23755075467E+03  0.19076480682E+04  0.59997043874E+03 0.  0.
         23    2    4    4    0    0 -0.59003584520E+03  0.10639745036E+04 -0.41022048118E+03  0.12871714772E+04  0.91353848823E+02 0.  0.
         23    2    4    4    0    0 -0.39562266429E+03  0.43642663151E+03  0.17266972650E+03  0.62047659093E+03  0.90503415697E+02 0.  0.
          5    1    3    3  502    0  0.57882473371E+03 -0.87611939885E+03  0.11191345313E+02  0.10501288538E+04  0.47000000000E+01 0. -1.
         -5    1    3    3    0  502  0.40683377578E+03 -0.62428173625E+03  0.74200791724E+02  0.74884528096E+03  0.47000000000E+01 0.  1.
         13    1    5    5    0    0 -0.13846559378E+03  0.18376649115E+03 -0.94323881685E+02  0.24867617213E+03  0.00000000000E+00 0. -1.
        -13    1    5    5    0    0 -0.45157025143E+03  0.88020801243E+03 -0.31589659949E+03  0.10384953051E+04  0.00000000000E+00 0.  1.
          4    1    6    6  503    0 -0.25021265109E+03  0.33732200325E+03  0.12056610386E+03  0.43695387633E+03  0.00000000000E+00 0.  1.
         -4    1    6    6    0  503 -0.14541001320E+03  0.99104628264E+02  0.52103622645E+02  0.18352271461E+03  0.00000000000E+00 0. -1.
<mgrwt>
<rscale>  0 0.18052840E+04</rscale>
<asrwt>0</asrwt>
<pdfrwt beam="1">  1        2 0.27342027E+00 0.18052840E+04</pdfrwt>
<pdfrwt beam="2">  1       -2 0.29682930E+00 0.18052840E+04</pdfrwt>
<totfact> 0.26859642E-01</totfact>
</mgrwt>
</event>
<event>
12    1  0.3147868E-008  0.1461388E+04  0.7818608E-02  0.8910543E-01
          1   -1    0    0  501    0  0.00000000000E+00  0.00000000000E+00  0.30488292984E+04  0.30488292984E+04  0.00000000000E+00 0. -1.
         -1   -1    0    0    0  501 -0.00000000000E+00 -0.00000000000E+00 -0.10103304731E+04  0.10103304731E+04  0.00000000000E+00 0.  1.
         23    2    1    2    0    0  0.47483387119E+03  0.13429415830E+04  0.20685385358E+04  0.25132313453E+04  0.92308289866E+02 0.  0.
    5000000    2    1    2    0    0 -0.47483387119E+03 -0.13429415830E+04 -0.30039710525E+02  0.15459284262E+04  0.60002751114E+03 0.  0.
         23    2    4    4    0    0 -0.81321796213E+00  0.38043315360E+00  0.70770772378E+02  0.11506048794E+03  0.90717184747E+02 0.  0.
         23    2    4    4    0    0 -0.47402065323E+03 -0.13433220161E+04 -0.10081048290E+03  0.14308679382E+04  0.89502427406E+02 0.  0.
          5    1    3    3  502    0  0.18964391849E+03  0.59038243040E+03  0.82706709300E+03  0.10337206084E+04  0.47000000000E+01 0. -1.
         -5    1    3    3    0  502  0.28518995269E+03  0.75255915256E+03  0.12414714429E+04  0.14795107369E+04  0.47000000000E+01 0.  1.
         13    1    5    5    0    0  0.91441109337E+01  0.34635375124E+02  0.16482173349E-01  0.35822119513E+02  0.00000000000E+00 0.  1.
        -13    1    5    5    0    0 -0.99573288958E+01 -0.34254941970E+02  0.70754290204E+02  0.79238368423E+02  0.00000000000E+00 0. -1.
          1    1    6    6  503    0 -0.33679134773E+03 -0.84921429553E+03 -0.39615339890E+02  0.91441932766E+03  0.00000000000E+00 0. -1.
         -1    1    6    6    0  503 -0.13722930550E+03 -0.49410772058E+03 -0.61195143013E+02  0.51644861056E+03  0.00000000000E+00 0.  1.
<mgrwt>
<rscale>  0 0.14613880E+04</rscale>
<asrwt>0</asrwt>
<pdfrwt beam="1">  1        1 0.46905066E+00 0.14613880E+04</pdfrwt>
<pdfrwt beam="2">  1       -1 0.15543546E+00 0.14613880E+04</pdfrwt>
<totfact> 0.16673666E-01</totfact>
</mgrwt>
</event>
<event>
12    1  0.3147868E-008  0.1297205E+04  0.7818608E-02  0.9031785E-01
          2   -1    0    0  501    0  0.00000000000E+00  0.00000000000E+00  0.13323174305E+04  0.13323174305E+04  0.00000000000E+00 0.  1.
         -2   -1    0    0    0  501 -0.00000000000E+00 -0.00000000000E+00 -0.13619365712E+04  0.13619365712E+04  0.00000000000E+00 0. -1.
         23    2    1    2    0    0 -0.11144635566E+04 -0.58744830784E+03 -0.23157339799E+03  0.12841830735E+04  0.91517180369E+02 0.  0.
    5000000    2    1    2    0    0  0.11144635566E+04  0.58744830784E+03  0.20195425726E+03  0.14100709282E+04  0.60032488457E+03 0.  0.
         23    2    4    4    0    0  0.19486880919E+03 -0.51751635995E+02 -0.10499957774E+03  0.24528857498E+03  0.92138423414E+02 0.  0.
         23    2    4    4    0    0  0.91959474742E+03  0.63919994384E+03  0.30695383500E+03  0.11647823532E+04  0.90918676669E+02 0.  0.
          5    1    3    3  502    0 -0.65324332844E+03 -0.36093017679E+03 -0.94091158173E+02  0.75224508952E+03  0.47000000000E+01 0. -1.
         -5    1    3    3    0  502 -0.46122022817E+03 -0.22651813106E+03 -0.13748223982E+03  0.53193798401E+03  0.47000000000E+01 0.  1.
         11    1    5    5    0    0  0.66288805438E+02  0.14679661641E+02 -0.24992398089E+01  0.67940741768E+02  0.00000000000E+00 0. -1.
        -11    1    5    5    0    0  0.12858000375E+03 -0.66431297637E+02 -0.10250033794E+03  0.17734783322E+03  0.00000000000E+00 0.  1.
          1    1    6    6  503    0  0.17527485895E+03  0.93491941512E+02  0.28014383567E+02  0.20061611350E+03  0.00000000000E+00 0. -1.
         -1    1    6    6    0  503  0.74431988847E+03  0.54570800233E+03  0.27893945143E+03  0.96416623968E+03  0.00000000000E+00 0.  1.
<mgrwt>
<rscale>  0 0.12972047E+04</rscale>
<asrwt>0</asrwt>
<pdfrwt beam="1">  1        2 0.20497191E+00 0.12972047E+04</pdfrwt>
<pdfrwt beam="2">  1       -2 0.20952870E+00 0.12972047E+04</pdfrwt>
<totfact> 0.17542356E+00</totfact>
</mgrwt>
</event>
<event>
12    1  0.3147868E-008  0.1141121E+04  0.7818608E-02  0.9166014E-01
          1   -1    0    0  501    0  0.00000000000E+00  0.00000000000E+00  0.22242067342E+04  0.22242067342E+04  0.00000000000E+00 0. -1.
         -1   -1    0    0    0  501 -0.00000000000E+00 -0.00000000000E+00 -0.84652096221E+03  0.84652096221E+03  0.00000000000E+00 0.  1.
         23    2    1    2    0    0  0.10155553317E+04 -0.46367643761E+03 -0.98994433720E+02  0.11247904980E+04  0.94896237907E+02 0.  0.
    5000000    2    1    2    0    0 -0.10155553317E+04  0.46367643761E+03  0.14766802057E+04  0.19459371985E+04  0.59978219370E+03 0.  0.
         23    2    4    4    0    0 -0.56411952602E+03  0.87004178467E+02  0.10976558404E+04  0.12408649688E+04  0.95377985786E+02 0.  0.
         23    2    4    4    0    0 -0.45143580565E+03  0.37667225914E+03  0.37902436537E+03  0.70507222967E+03  0.88267219758E+02 0.  0.
          5    1    3    3  502    0  0.92680743898E+03 -0.45055352653E+03 -0.87902305053E+02  0.10342724082E+04  0.47000000000E+01 0. -1.
         -5    1    3    3    0  502  0.88747892678E+02 -0.13122911077E+02 -0.11092128667E+02  0.90518089730E+02  0.47000000000E+01 0.  1.
         11    1    5    5    0    0 -0.64375413368E+02 -0.88358220951E+01  0.18296905383E+03  0.19416472454E+03  0.00000000000E+00 0. -1.
        -11    1    5    5    0    0 -0.49974411265E+03  0.95840000562E+02  0.91468678654E+03  0.10467002442E+04  0.00000000000E+00 0.  1.
          2    1    6    6  503    0 -0.30879635376E+03  0.26431677074E+03  0.21234997754E+03  0.45859683421E+03  0.00000000000E+00 0. -1.
         -2    1    6    6    0  503 -0.14263945189E+03  0.11235548840E+03  0.16667438782E+03  0.24647539546E+03  0.00000000000E+00 0.  1.
<mgrwt>
<rscale>  0 0.11411214E+04</rscale>
<asrwt>0</asrwt>
<pdfrwt beam="1">  1        1 0.34218565E+00 0.11411214E+04</pdfrwt>
<pdfrwt beam="2">  1       -1 0.13023400E+00 0.11411214E+04</pdfrwt>
<totfact> 0.10516482E+00</totfact>
</mgrwt>
</event>
<event>
12    1  0.3147868E-008  0.8859508E+03  0.7818608E-02  0.9443316E-01
          2   -1    0    0  501    0  0.00000000000E+00  0.00000000000E+00  0.12632549664E+04  0.12632549664E+04  0.00000000000E+00 0. -1.
         -2   -1    0    0    0  501 -0.00000000000E+00 -0.00000000000E+00 -0.12350033208E+04  0.12350033208E+04  0.00000000000E+00 0.  1.
         23    2    1    2    0    0 -0.56559359332E+03  0.55015381024E+03 -0.85761362021E+03  0.11688345721E+04  0.90043364917E+02 0.  0.
    5000000    2    1    2    0    0  0.56559359332E+03 -0.55015381024E+03  0.88586526577E+03  0.13294237151E+04  0.60003734682E+03 0.  0.
         23    2    4    4    0    0  0.63960204844E+03 -0.30062245335E+03  0.59021079599E+03  0.92512351213E+03  0.89666544349E+02 0.  0.
         23    2    4    4    0    0 -0.74008455118E+02 -0.24953135689E+03  0.29565446978E+03  0.40430020302E+03  0.91125952162E+02 0.  0.
          5    1    3    3  502    0 -0.60791344562E+02  0.42126536486E+02 -0.11756934377E+03  0.13897795956E+03  0.47000000000E+01 0. -1.
         -5    1    3    3    0  502 -0.50480224876E+03  0.50802727375E+03 -0.74004427645E+03  0.10298566125E+04  0.47000000000E+01 0.  1.
         13    1    5    5    0    0  0.54058839558E+03 -0.25297328180E+03  0.45275246375E+03  0.74914356980E+03  0.00000000000E+00 0.  1.
        -13    1    5    5    0    0  0.99013652857E+02 -0.47649171557E+02  0.13745833224E+03  0.17597994234E+03  0.00000000000E+00 0. -1.
          3    1    6    6  503    0 -0.51491095113E+02 -0.42942071024E+02  0.58536197718E+02  0.89004723375E+02  0.00000000000E+00 0. -1.
         -3    1    6    6    0  503 -0.22517360004E+02 -0.20658928586E+03  0.23711827207E+03  0.31529547964E+03  0.00000000000E+00 0.  1.
<mgrwt>
<rscale>  0 0.88595084E+03</rscale>
<asrwt>0</asrwt>
<pdfrwt beam="1">  1        2 0.19434692E+00 0.88595084E+03</pdfrwt>
<pdfrwt beam="2">  1       -2 0.19000051E+00 0.88595084E+03</pdfrwt>
<totfact> 0.27096443E+00</totfact>
</mgrwt>
</event>
<event>
12    1  0.3147868E-008  0.1892856E+03  0.7818608E-02  0.1159107E+00
         -2   -1    0    0    0  501 -0.00000000000E+00  0.00000000000E+00  0.41864303000E+03  0.41864303000E+03  0.00000000000E+00 0.  1.
          2   -1    0    0  501    0  0.00000000000E+00 -0.00000000000E+00 -0.53269927088E+03  0.53269927088E+03  0.00000000000E+00 0. -1.
         23    2    1    2    0    0 -0.11407197426E+02 -0.60203734981E+02 -0.30244806273E+03  0.31954877638E+03  0.82957675812E+02 0.  0.
    5000000    2    1    2    0    0  0.11407197426E+02  0.60203734981E+02  0.18839182185E+03  0.63179352451E+03  0.59993080035E+03 0.  0.
         23    2    4    4    0    0 -0.20975098761E+02  0.15791517232E+03 -0.16648322506E+03  0.25125128464E+03  0.10016679783E+03 0.  0.
         23    2    4    4    0    0  0.32382296186E+02 -0.97711437337E+02  0.35487504691E+03  0.38054223987E+03  0.90994281756E+02 0.  0.
          5    1    3    3  502    0  0.87635809461E+01  0.11454114639E+02 -0.13970598671E+03  0.14052704300E+03  0.47000000000E+01 0. -1.
         -5    1    3    3    0  502 -0.20170778372E+02 -0.71657849621E+02 -0.16274207603E+03  0.17902173338E+03  0.47000000000E+01 0.  1.
         11    1    5    5    0    0 -0.59029145799E+02  0.99194786072E+02 -0.82197953345E+02  0.14170585440E+03  0.00000000000E+00 0. -1.
        -11    1    5    5    0    0  0.38054047038E+02  0.58720386246E+02 -0.84285271715E+02  0.10954543023E+03  0.00000000000E+00 0.  1.
          3    1    6    6  503    0  0.93611716321E+01 -0.16211402388E+02  0.22320086852E+03  0.22398452806E+03  0.00000000000E+00 0. -1.
         -3    1    6    6    0  503  0.23021124554E+02 -0.81500034949E+02  0.13167417839E+03  0.15655771181E+03  0.00000000000E+00 0.  1.
<mgrwt>
<rscale>  0 0.18928561E+03</rscale>
<asrwt>0</asrwt>
<pdfrwt beam="1">  1        2 0.81953734E-01 0.18928561E+03</pdfrwt>
<pdfrwt beam="2">  1       -2 0.64406620E-01 0.18928561E+03</pdfrwt>
<totfact> 0.13491759E+02</totfact>
</mgrwt>
</event>
<event>
12    1  0.3147868E-008  0.6692565E+03  0.7818608E-02  0.9771302E-01
         -1   -1    0    0    0  501 -0.00000000000E+00  0.00000000000E+00  0.15262548132E+03  0.15262548132E+03  0.00000000000E+00 0.  1.
          1   -1    0    0  501    0  0.00000000000E+00 -0.00000000000E+00 -0.32249715509E+04  0.32249715509E+04  0.00000000000E+00 0. -1.
         23    2    1    2    0    0 -0.39210905101E+03 -0.39878636144E+03 -0.15115806399E+04  0.16144047716E+04  0.92987448724E+02 0.  0.
    5000000    2    1    2    0    0  0.39210905101E+03  0.39878636144E+03 -0.15607654297E+04  0.17631922607E+04  0.60006512275E+03 0.  0.
         23    2    4    4    0    0 -0.11972785342E+03  0.11677051788E+03 -0.18617388421E+03  0.26679398540E+03  0.92456491121E+02 0.  0.
         23    2    4    4    0    0  0.51183690443E+03  0.28201584355E+03 -0.13745915455E+04  0.14963982753E+04  0.90531367549E+02 0.  0.
          5    1    3    3  502    0 -0.30492846785E+03 -0.34612945190E+03 -0.13027148247E+04  0.13819822620E+04  0.47000000000E+01 0. -1.
         -5    1    3    3    0  502 -0.87180583158E+02 -0.52656909535E+02 -0.20886581524E+03  0.23242250962E+03  0.47000000000E+01 0.  1.
         11    1    5    5    0    0 -0.59884134229E+02  0.11650436315E+03 -0.13414845853E+03  0.18749716022E+03  0.00000000000E+00 0.  1.
        -11    1    5    5    0    0 -0.59843719194E+02  0.26615472856E+00 -0.52025425684E+02  0.79296825175E+02  0.00000000000E+00 0. -1.
          2    1    6    6  503    0  0.22094426237E+03  0.11924283051E+03 -0.47951149948E+03  0.54126379690E+03  0.00000000000E+00 0. -1.
         -2    1    6    6    0  503  0.29089264207E+03  0.16277301304E+03 -0.89508004604E+03  0.95513447838E+03  0.00000000000E+00 0.  1.
<mgrwt>
<rscale>  0 0.66925647E+03</rscale>
<asrwt>0</asrwt>
<pdfrwt beam="1">  1        1 0.49614945E+00 0.66925647E+03</pdfrwt>
<pdfrwt beam="2">  1       -1 0.23480844E-01 0.66925647E+03</pdfrwt>
<totfact> 0.68942435E+00</totfact>
</mgrwt>
</event>
<event>
12    1  0.3147868E-008  0.8464298E+03  0.7818608E-02  0.9495141E-01
         -1   -1    0    0    0  501 -0.00000000000E+00  0.00000000000E+00  0.10058364387E+04  0.10058364387E+04  0.00000000000E+00 0.  1.
          1   -1    0    0  501    0  0.00000000000E+00 -0.00000000000E+00 -0.86767391529E+03  0.86767391529E+03  0.00000000000E+00 0. -1.
         23    2    1    2    0    0 -0.73692189087E+03  0.87171613297E+02  0.44763164759E+03  0.87026460278E+03  0.79584065758E+02 0.  0.
    5000000    2    1    2    0    0  0.73692189087E+03 -0.87171613297E+02 -0.30946912417E+03  0.10032457512E+04  0.60006510910E+03 0.  0.
         23    2    4    4    0    0  0.18947314621E+02 -0.20094209212E+03 -0.88723286831E+02  0.23811757664E+03  0.89952396089E+02 0.  0.
         23    2    4    4    0    0  0.71797457624E+03  0.11377047882E+03 -0.22074583734E+03  0.76512817459E+03  0.90891060463E+02 0.  0.
          5    1    3    3  502    0 -0.36932102312E+03  0.82401550864E+02  0.21642796212E+03  0.43594860533E+03  0.47000000000E+01 0. -1.
         -5    1    3    3    0  502 -0.36760086775E+03  0.47700624328E+01  0.23120368547E+03  0.43431599745E+03  0.47000000000E+01 0.  1.
         13    1    5    5    0    0 -0.29096537893E+02 -0.11653289524E+03 -0.70581216750E+02  0.13931343204E+03  0.00000000000E+00 0.  1.
        -13    1    5    5    0    0  0.48043852515E+02 -0.84409196882E+02 -0.18142070081E+02  0.98804144597E+02  0.00000000000E+00 0. -1.
          3    1    6    6  503    0  0.31649945412E+03  0.19274728844E+02 -0.61427310781E+02  0.32298101204E+03  0.00000000000E+00 0. -1.
         -3    1    6    6    0  503  0.40147512212E+03  0.94495749980E+02 -0.15931852655E+03  0.44214716255E+03  0.00000000000E+00 0.  1.
<mgrwt>
<rscale>  0 0.84642979E+03</rscale>
<asrwt>0</asrwt>
<pdfrwt beam="1">  1        1 0.13348830E+00 0.84642979E+03</pdfrwt>
<pdfrwt beam="2">  1       -1 0.15474407E+00 0.84642979E+03</pdfrwt>
<totfact> 0.63327234E+00</totfact>
</mgrwt>
</event>
<event>
12    1  0.3147868E-008  0.1679218E+04  0.7818608E-02  0.8773307E-01
          1   -1    0    0  501    0  0.00000000000E+00  0.00000000000E+00  0.24832322536E+04  0.24832322536E+04  0.00000000000E+00 0. -1.
         -1   -1    0    0    0  501 -0.00000000000E+00 -0.00000000000E+00 -0.16000864031E+04  0.16000864031E+04  0.00000000000E+00 0.  1.
         23    2    1    2    0    0 -0.12769040331E+04 -0.10669189734E+04 -0.60375155648E+03  0.17725119974E+04  0.92102298491E+02 0.  0.
    5000000    2    1    2    0    0  0.12769040331E+04  0.10669189734E+04  0.14868974070E+04  0.23108066594E+04  0.60013624516E+03 0.  0.
         23    2    4    4    0    0  0.35787532854E+03  0.15545656291E+03  0.66362735892E+03  0.77403916333E+03  0.80584496857E+02 0.  0.
         23    2    4    4    0    0  0.91902870452E+03  0.91146241049E+03  0.82327004806E+03  0.15367674961E+04  0.92213228159E+02 0.  0.
          5    1    3    3  502    0 -0.11440425550E+04 -0.92362947339E+03 -0.51619442265E+03  0.15583335791E+04  0.47000000000E+01 0. -1.
         -5    1    3    3    0  502 -0.13286147807E+03 -0.14328950002E+03 -0.87557133832E+02  0.21417841827E+03  0.47000000000E+01 0.  1.
         13    1    5    5    0    0  0.30209134069E+03  0.99764169045E+02  0.50400279674E+03  0.59601248869E+03  0.00000000000E+00 0.  1.
        -13    1    5    5    0    0  0.55783987850E+02  0.55692393868E+02  0.15962456218E+03  0.17802667464E+03  0.00000000000E+00 0. -1.
          3    1    6    6  503    0  0.74551143303E+02  0.97722706894E+02  0.10414702361E+03  0.16110308172E+03  0.00000000000E+00 0. -1.
         -3    1    6    6    0  503  0.84447756122E+03  0.81373970360E+03  0.71912302445E+03  0.13756644143E+04  0.00000000000E+00 0.  1.
<mgrwt>
<rscale>  0 0.16792176E+04</rscale>
<asrwt>0</asrwt>
<pdfrwt beam="1">  1        1 0.38203573E+00 0.16792176E+04</pdfrwt>
<pdfrwt beam="2">  1       -1 0.24616714E+00 0.16792176E+04</pdfrwt>
<totfact> 0.94863485E-02</totfact>
</mgrwt>
</event>
<event>
12    1  0.3184535E-008  0.1835007E+04  0.7818608E-02  0.8687902E-01
          1   -1    0    0  501    0  0.00000000000E+00  0.00000000000E+00  0.26038208586E+04  0.26038208586E+04  0.00000000000E+00 0. -1.
         -1   -1    0    0    0  501 -0.00000000000E+00 -0.00000000000E+00 -0.12991365782E+04  0.12991365782E+04  0.00000000000E+00 0.  1.
         23    2    1    2    0    0 -0.12893736075E+04  0.12389693809E+04  0.57586077406E+03  0.18809055584E+04  0.93062676461E+02 0.  0.
    5000000    2    1    2    0    0  0.12893736075E+04 -0.12389693809E+04  0.72882350635E+03  0.20220518784E+04  0.59998389062E+03 0.  0.
         23    2    4    4    0    0  0.10271637268E+04 -0.60990779717E+03  0.44386245785E+03  0.12775659385E+04  0.90044449866E+02 0.  0.
         23    2    4    4    0    0  0.26220988072E+03 -0.62906158376E+03  0.28496104850E+03  0.74448593995E+03  0.92649975285E+02 0.  0.
          5    1    3    3  502    0 -0.99798005359E+03  0.99791811116E+03  0.48037547590E+03  0.14908344750E+04  0.47000000000E+01 0. -1.
         -5    1    3    3    0  502 -0.29139355394E+03  0.24105126977E+03  0.95485298155E+02  0.39007108339E+03  0.47000000000E+01 0.  1.
         11    1    5    5    0    0  0.20694970696E+03 -0.10357273990E+03  0.52935875221E+02  0.23739776863E+03  0.00000000000E+00 0. -1.
        -11    1    5    5    0    0  0.82021401985E+03 -0.50633505727E+03  0.39092658263E+03  0.10401681699E+04  0.00000000000E+00 0.  1.
          3    1    6    6  503    0  0.60956711204E+02 -0.23370517606E+03  0.69658068983E+02  0.25136840798E+03  0.00000000000E+00 0. -1.
         -3    1    6    6    0  503  0.20125316951E+03 -0.39535640770E+03  0.21530297951E+03  0.49311753197E+03  0.00000000000E+00 0.  1.
<mgrwt>
<rscale>  0 0.18350067E+04</rscale>
<asrwt>0</asrwt>
<pdfrwt beam="1">  1        1 0.40058782E+00 0.18350067E+04</pdfrwt>
<pdfrwt beam="2">  1       -1 0.19986717E+00 0.18350067E+04</pdfrwt>
<totfact> 0.15754245E-01</totfact>
</mgrwt>
</event>
<event>
12    1  0.3147868E-008  0.5061195E+03  0.7818608E-02  0.1012194E+00
          1   -1    0    0  501    0  0.00000000000E+00  0.00000000000E+00  0.44236057674E+03  0.44236057674E+03  0.00000000000E+00 0. -1.
         -1   -1    0    0    0  501 -0.00000000000E+00 -0.00000000000E+00 -0.11363576208E+04  0.11363576208E+04  0.00000000000E+00 0.  1.
         23    2    1    2    0    0 -0.29066955929E+03  0.37624187519E+03 -0.65183999412E+03  0.81205545285E+03  0.92151718514E+02 0.  0.
    5000000    2    1    2    0    0  0.29066955929E+03 -0.37624187519E+03 -0.42157049952E+02  0.76666274471E+03  0.59995650335E+03 0.  0.
         23    2    4    4    0    0  0.16081082736E+03 -0.40394127904E+02 -0.27187152371E+03  0.32979302792E+03  0.85775917911E+02 0.  0.
         23    2    4    4    0    0  0.12985873193E+03 -0.33584774729E+03  0.22971447376E+03  0.43686971679E+03  0.91811820447E+02 0.  0.
          5    1    3    3  502    0 -0.12553032503E+03  0.15304771115E+03 -0.34842291947E+03  0.40075189981E+03  0.47000000000E+01 0. -1.
         -5    1    3    3    0  502 -0.16513923426E+03  0.22319416404E+03 -0.30341707465E+03  0.41130355304E+03  0.47000000000E+01 0.  1.
         11    1    5    5    0    0  0.91693640394E+02 -0.29278739054E+02 -0.22720182260E+03  0.24675014984E+03  0.00000000000E+00 0.  1.
        -11    1    5    5    0    0  0.69117186966E+02 -0.11115388850E+02 -0.44669701109E+02  0.83042878085E+02  0.00000000000E+00 0. -1.
          2    1    6    6  503    0  0.10386496440E+03 -0.14888251575E+03  0.13091039203E+03  0.22381122641E+03  0.00000000000E+00 0. -1.
         -2    1    6    6    0  503  0.25993767524E+02 -0.18696523154E+03  0.98804081731E+02  0.21305849037E+03  0.00000000000E+00 0.  1.
<mgrwt>
<rscale>  0 0.50611954E+03</rscale>
<asrwt>0</asrwt>
<pdfrwt beam="1">  1        1 0.68055473E-01 0.50611954E+03</pdfrwt>
<pdfrwt beam="2">  1       -1 0.17482425E+00 0.50611954E+03</pdfrwt>
<totfact> 0.12672762E+01</totfact>
</mgrwt>
</event>
<event>
12    1  0.3848030E-008  0.1577291E+04  0.7818608E-02  0.8834622E-01
          2   -1    0    0  501    0  0.00000000000E+00  0.00000000000E+00  0.28840761233E+04  0.28840761233E+04  0.00000000000E+00 0. -1.
         -2   -1    0    0    0  501 -0.00000000000E+00 -0.00000000000E+00 -0.88881221523E+03  0.88881221523E+03  0.00000000000E+00 0.  1.
         23    2    1    2    0    0  0.96630882672E+03 -0.11847550201E+04  0.12131020870E+04  0.19537478184E+04  0.90092499643E+02 0.  0.
    5000000    2    1    2    0    0 -0.96630882672E+03  0.11847550201E+04  0.78216182113E+03  0.18191405201E+04  0.60008158716E+03 0.  0.
         23    2    4    4    0    0 -0.66383703653E+03  0.11203200466E+04  0.52536984511E+03  0.14071476125E+04  0.90853241329E+02 0.  0.
         23    2    4    4    0    0 -0.30247179018E+03  0.64434973505E+02  0.25679197602E+03  0.41199290758E+03  0.90304968177E+02 0.  0.
          5    1    3    3  502    0  0.47443449044E+03 -0.59376471563E+03  0.65935817332E+03  0.10061907940E+04  0.47000000000E+01 0. -1.
         -5    1    3    3    0  502  0.49187433627E+03 -0.59099030445E+03  0.55374391364E+03  0.94755702442E+03  0.47000000000E+01 0.  1.
         13    1    5    5    0    0 -0.30312116618E+03  0.57561052539E+03  0.22808280879E+03  0.68937049980E+03  0.00000000000E+00 0.  1.
        -13    1    5    5    0    0 -0.36071587035E+03  0.54470952118E+03  0.29728703632E+03  0.71777711273E+03  0.00000000000E+00 0. -1.
          3    1    6    6  503    0 -0.22106445247E+03  0.86545996733E+02  0.18011011363E+03  0.29799220582E+03  0.00000000000E+00 0. -1.
         -3    1    6    6    0  503 -0.81407337714E+02 -0.22111023228E+02  0.76681862387E+02  0.11400070176E+03  0.00000000000E+00 0.  1.
<mgrwt>
<rscale>  0 0.15772913E+04</rscale>
<asrwt>0</asrwt>
<pdfrwt beam="1">  1        2 0.44370401E+00 0.15772913E+04</pdfrwt>
<pdfrwt beam="2">  1       -2 0.13674034E+00 0.15772913E+04</pdfrwt>
<totfact> 0.73837875E-01</totfact>
</mgrwt>
</event>
<event>
12    1  0.3147868E-008  0.6253776E+03  0.7818608E-02  0.9854111E-01
         -1   -1    0    0    0  501 -0.00000000000E+00  0.00000000000E+00  0.19010372504E+03  0.19010372504E+03  0.00000000000E+00 0.  1.
          1   -1    0    0  501    0  0.00000000000E+00 -0.00000000000E+00 -0.24007962114E+04  0.24007962114E+04  0.00000000000E+00 0. -1.
         23    2    1    2    0    0  0.46310461447E+03  0.24095540457E+03 -0.64445265111E+03  0.83430265566E+03  0.90643867857E+02 0.  0.
    5000000    2    1    2    0    0 -0.46310461447E+03 -0.24095540457E+03 -0.15662398353E+04  0.17565972808E+04  0.60000116199E+03 0.  0.
         23    2    4    4    0    0  0.29251361985E+02  0.10252147383E+03 -0.10637046787E+03  0.17536601100E+03  0.89845793473E+02 0.  0.
         23    2    4    4    0    0 -0.49235597645E+03 -0.34347687840E+03 -0.14598693674E+04  0.15812312698E+04  0.93182536848E+02 0.  0.
          5    1    3    3  502    0  0.21132975758E+03  0.15923339717E+03 -0.30484180217E+03  0.40369066816E+03  0.47000000000E+01 0. -1.
         -5    1    3    3    0  502  0.25177485689E+03  0.81722007405E+02 -0.33961084894E+03  0.43061198749E+03  0.47000000000E+01 0.  1.
         13    1    5    5    0    0  0.34164875010E+02  0.46927593365E+02 -0.10448168051E+03  0.11952346742E+03  0.00000000000E+00 0.  1.
        -13    1    5    5    0    0 -0.49135130247E+01  0.55593880465E+02 -0.18887873641E+01  0.55842543576E+02  0.00000000000E+00 0. -1.
          2    1    6    6  503    0 -0.17582965489E+03 -0.70181786654E+02 -0.45920844448E+03  0.49670307649E+03  0.00000000000E+00 0. -1.
         -2    1    6    6    0  503 -0.31652632156E+03 -0.27329509175E+03 -0.10006609229E+04  0.10845281933E+04  0.00000000000E+00 0.  1.
<mgrwt>
<rscale>  0 0.62537759E+03</rscale>
<asrwt>0</asrwt>
<pdfrwt beam="1">  1        1 0.36935325E+00 0.62537759E+03</pdfrwt>
<pdfrwt beam="2">  1       -1 0.29246728E-01 0.62537759E+03</pdfrwt>
<totfact> 0.18091468E+01</totfact>
</mgrwt>
</event>
<event>
12    1  0.3147868E-008  0.4943409E+03  0.7818608E-02  0.1015267E+00
          1   -1    0    0  501    0  0.00000000000E+00  0.00000000000E+00  0.54985673210E+03  0.54985673210E+03  0.00000000000E+00 0. -1.
         -1   -1    0    0    0  501 -0.00000000000E+00 -0.00000000000E+00 -0.69548574912E+03  0.69548574912E+03  0.00000000000E+00 0.  1.
         23    2    1    2    0    0  0.38502380280E+03  0.13963612381E+03  0.16883270594E+03  0.45398507754E+03  0.99279364605E+02 0.  0.
    5000000    2    1    2    0    0 -0.38502380280E+03 -0.13963612381E+03 -0.31446172296E+03  0.79135740367E+03  0.59968224031E+03 0.  0.
         23    2    4    4    0    0  0.29702025479E+02  0.88491856665E+02  0.92360313248E+02  0.16015248257E+03  0.91680811503E+02 0.  0.
         23    2    4    4    0    0 -0.41472582828E+03 -0.22812798048E+03 -0.40682203620E+03  0.63120492110E+03  0.94210377135E+02 0.  0.
          5    1    3    3  502    0  0.15109713546E+03  0.85946196723E+02  0.29363901491E+02  0.17635595195E+03  0.47000000000E+01 0. -1.
         -5    1    3    3    0  502  0.23392666734E+03  0.53689927092E+02  0.13946880445E+03  0.27762912559E+03  0.47000000000E+01 0.  1.
         11    1    5    5    0    0  0.46559605414E+01  0.34330838867E+02  0.94285978399E+02  0.10044964006E+03  0.00000000000E+00 0. -1.
        -11    1    5    5    0    0  0.25046064938E+02  0.54161017798E+02 -0.19256651514E+01  0.59702842512E+02  0.00000000000E+00 0.  1.
          4    1    6    6  503    0 -0.16704881539E+03 -0.46874026566E+02 -0.11852553606E+03  0.21012087899E+03  0.00000000000E+00 0. -1.
         -4    1    6    6    0  503 -0.24767701289E+03 -0.18125395391E+03 -0.28829650015E+03  0.42108404211E+03  0.00000000000E+00 0.  1.
<mgrwt>
<rscale>  0 0.49434092E+03</rscale>
<asrwt>0</asrwt>
<pdfrwt beam="1">  1        1 0.84593344E-01 0.49434092E+03</pdfrwt>
<pdfrwt beam="2">  1       -1 0.10699781E+00 0.49434092E+03</pdfrwt>
<totfact> 0.33354357E+01</totfact>
</mgrwt>
</event>
<event>
12    1  0.3147868E-008  0.8747452E+03  0.7818608E-02  0.9457714E-01
         -2   -1    0    0    0  501 -0.00000000000E+00  0.00000000000E+00  0.98346901132E+03  0.98346901132E+03  0.00000000000E+00 0. -1.
          2   -1    0    0  501    0  0.00000000000E+00 -0.00000000000E+00 -0.10044377104E+04  0.10044377104E+04  0.00000000000E+00 0.  1.
         23    2    1    2    0    0 -0.79729895180E+03  0.15439404092E+03 -0.39944303108E+03  0.90948482075E+03  0.89915325038E+02 0.  0.
    5000000    2    1    2    0    0  0.79729895180E+03 -0.15439404092E+03  0.37847433199E+03  0.10784219010E+04  0.60018983509E+03 0.  0.
         23    2    4    4    0    0 -0.15817749603E+02 -0.73958441201E+02 -0.75133744891E+02  0.13943212033E+03  0.89867593331E+02 0.  0.
         23    2    4    4    0    0  0.81311670141E+03 -0.80435599715E+02  0.45360807688E+03  0.93898978066E+03  0.91174914151E+02 0.  0.
          5    1    3    3  502    0 -0.39773669081E+03  0.12098707492E+03 -0.21627492328E+03  0.46864622047E+03  0.47000000000E+01 0. -1.
         -5    1    3    3    0  502 -0.39956226099E+03  0.33406965994E+02 -0.18316810781E+03  0.44083860028E+03  0.47000000000E+01 0.  1.
         13    1    5    5    0    0 -0.38082142665E+02 -0.82387717269E+02 -0.71077839185E+02  0.11528245647E+03  0.00000000000E+00 0. -1.
        -13    1    5    5    0    0  0.22264393061E+02  0.84292760681E+01 -0.40559057054E+01  0.24149663859E+02  0.00000000000E+00 0.  1.
          3    1    6    6  503    0  0.27594450581E+03 -0.47453287422E+02  0.11212879381E+03  0.30161241880E+03  0.00000000000E+00 0. -1.
         -3    1    6    6    0  503  0.53717219559E+03 -0.32982312293E+02  0.34147928307E+03  0.63737736186E+03  0.00000000000E+00 0.  1.
<mgrwt>
<rscale>  0 0.87474518E+03</rscale>
<asrwt>0</asrwt>
<pdfrwt beam="1">  1        2 0.15452888E+00 0.87474518E+03</pdfrwt>
<pdfrwt beam="2">  1       -2 0.15130293E+00 0.87474518E+03</pdfrwt>
<totfact> 0.73552725E+00</totfact>
</mgrwt>
</event>
<event>
12    1  0.3147868E-008  0.5223981E+03  0.7818608E-02  0.1008093E+00
         -1   -1    0    0    0  501 -0.00000000000E+00  0.00000000000E+00  0.33016700972E+03  0.33016700972E+03  0.00000000000E+00 0.  1.
          1   -1    0    0  501    0  0.00000000000E+00 -0.00000000000E+00 -0.13045987807E+04  0.13045987807E+04  0.00000000000E+00 0. -1.
         23    2    1    2    0    0  0.84111236096E+02 -0.50485570468E+03 -0.32683503738E+03  0.61427487784E+03  0.92512168378E+02 0.  0.
    5000000    2    1    2    0    0 -0.84111236096E+02  0.50485570468E+03 -0.64759673363E+03  0.10204909126E+04  0.60005515640E+03 0.  0.
         23    2    4    4    0    0 -0.34247539282E+02  0.10458349103E+03 -0.58552602579E+03  0.60262300796E+03  0.90571310615E+02 0.  0.
         23    2    4    4    0    0 -0.49863696814E+02  0.40027221365E+03 -0.62070707844E+02  0.41786790465E+03  0.89758451888E+02 0.  0.
          5    1    3    3  502    0  0.45091783516E+02 -0.14488928834E+03 -0.54933876733E+02  0.16144966903E+03  0.47000000000E+01 0. -1.
         -5    1    3    3    0  502  0.39019452580E+02 -0.35996641634E+03 -0.27190116065E+03  0.45282520881E+03  0.47000000000E+01 0.  1.
         13    1    5    5    0    0  0.12109810455E+02  0.66207829501E+02 -0.17130395170E+03  0.18405207976E+03  0.00000000000E+00 0. -1.
        -13    1    5    5    0    0 -0.46357349737E+02  0.38375661527E+02 -0.41422207409E+03  0.41857092820E+03  0.00000000000E+00 0.  1.
          1    1    6    6  503    0 -0.21141389294E+02  0.18639363505E+03  0.16261582962E+02  0.18829228505E+03  0.00000000000E+00 0. -1.
         -1    1    6    6    0  503 -0.28722307520E+02  0.21387857860E+03 -0.78332290806E+02  0.22957561960E+03  0.00000000000E+00 0.  1.
<mgrwt>
<rscale>  0 0.52239807E+03</rscale>
<asrwt>0</asrwt>
<pdfrwt beam="1">  1        1 0.20070751E+00 0.52239807E+03</pdfrwt>
<pdfrwt beam="2">  1       -1 0.50794924E-01 0.52239807E+03</pdfrwt>
<totfact> 0.37096597E+01</totfact>
</mgrwt>
</event>
<event>
12    1  0.3147868E-008  0.4177945E+03  0.7818608E-02  0.1037787E+00
          1   -1    0    0  501    0  0.00000000000E+00  0.00000000000E+00  0.15813694600E+04  0.15813694600E+04  0.00000000000E+00 0. -1.
         -1   -1    0    0    0  501 -0.00000000000E+00 -0.00000000000E+00 -0.17095426855E+03  0.17095426855E+03  0.00000000000E+00 0.  1.
         23    2    1    2    0    0 -0.25375948085E+03  0.18797571641E+03  0.68336534737E+03  0.75818756833E+03  0.90174534651E+02 0.  0.
    5000000    2    1    2    0    0  0.25375948085E+03 -0.18797571641E+03  0.72704984402E+03  0.99413616018E+03  0.59998040401E+03 0.  0.
         23    2    4    4    0    0  0.17243207959E+03  0.93356387921E+02  0.63880733167E+03  0.67480503501E+03  0.94014844755E+02 0.  0.
         23    2    4    4    0    0  0.81327401256E+02 -0.28133210433E+03  0.88242512350E+02  0.31933112517E+03  0.91780866144E+02 0.  0.
          5    1    3    3  502    0 -0.95010386559E+02  0.95724732333E+02  0.38341718979E+03  0.40647389751E+03  0.47000000000E+01 0. -1.
         -5    1    3    3    0  502 -0.15874909429E+03  0.92250984081E+02  0.29994815758E+03  0.35171367081E+03  0.47000000000E+01 0.  1.
         11    1    5    5    0    0  0.17879003041E+03  0.75222067529E+02  0.53144982759E+03  0.56574124268E+03  0.00000000000E+00 0. -1.
        -11    1    5    5    0    0 -0.63579508241E+01  0.18134320391E+02  0.10735750408E+03  0.10906379233E+03  0.00000000000E+00 0.  1.
          3    1    6    6  503    0  0.73204064116E+02 -0.10924475897E+03  0.15832431141E+02  0.13245345688E+03  0.00000000000E+00 0. -1.
         -3    1    6    6    0  503  0.81233371404E+01 -0.17208734537E+03  0.72410081209E+02  0.18687766828E+03  0.00000000000E+00 0.  1.
<mgrwt>
<rscale>  0 0.41779453E+03</rscale>
<asrwt>0</asrwt>
<pdfrwt beam="1">  1        1 0.24328760E+00 0.41779453E+03</pdfrwt>
<pdfrwt beam="2">  1       -1 0.26300658E-01 0.41779453E+03</pdfrwt>
<totfact> 0.79039839E+01</totfact>
</mgrwt>
</event>
<event>
12    1  0.3147868E-008  0.5738091E+03  0.7818608E-02  0.9961285E-01
         -3   -1    0    0    0  501 -0.00000000000E+00  0.00000000000E+00  0.36898812172E+03  0.36898812172E+03  0.00000000000E+00 0.  1.
          3   -1    0    0  501    0  0.00000000000E+00 -0.00000000000E+00 -0.17071863243E+04  0.17071863243E+04  0.00000000000E+00 0. -1.
         23    2    1    2    0    0  0.44145645957E+03  0.22064489788E+03 -0.11795334664E+04  0.12832755035E+04  0.10921924251E+03 0.  0.
    5000000    2    1    2    0    0 -0.44145645957E+03 -0.22064489788E+03 -0.15866473618E+03  0.79289894249E+03  0.59995521320E+03 0.  0.
         23    2    4    4    0    0 -0.45144249875E+03 -0.25025944343E+02 -0.28520494269E+03  0.54222209444E+03  0.90754133730E+02 0.  0.
         23    2    4    4    0    0  0.99860391853E+01 -0.19561895354E+03  0.12654020652E+03  0.25067684805E+03  0.91978053478E+02 0.  0.
          5    1    3    3  502    0  0.30784610470E+03  0.16531269841E+03 -0.94678644830E+03  0.10092195901E+04  0.47000000000E+01 0. -1.
         -5    1    3    3    0  502  0.13361035487E+03  0.55332199476E+02 -0.23274701807E+03  0.27405591336E+03  0.47000000000E+01 0.  1.
         13    1    5    5    0    0 -0.52157774442E+02  0.19826665897E+02 -0.58660174361E+02  0.80960151750E+02  0.00000000000E+00 0.  1.
        -13    1    5    5    0    0 -0.39928472431E+03 -0.44852610239E+02 -0.22654476833E+03  0.46126194269E+03  0.00000000000E+00 0. -1.
          2    1    6    6  503    0  0.69358352975E+01 -0.14412071380E+03  0.39667293078E+02  0.14964083700E+03  0.00000000000E+00 0. -1.
         -2    1    6    6    0  503  0.30502038878E+01 -0.51498239737E+02  0.86872913438E+02  0.10103601105E+03  0.00000000000E+00 0.  1.
<mgrwt>
<rscale>  0 0.57380907E+03</rscale>
<asrwt>0</asrwt>
<pdfrwt beam="1">  1        3 0.26264405E+00 0.57380907E+03</pdfrwt>
<pdfrwt beam="2">  1       -3 0.56767403E-01 0.57380907E+03</pdfrwt>
<totfact> 0.51086557E-01</totfact>
</mgrwt>
</event>
<event>
12    1  0.3147868E-008  0.8748079E+03  0.7818608E-02  0.9457632E-01
          1   -1    0    0  501    0  0.00000000000E+00  0.00000000000E+00  0.45347249547E+03  0.45347249547E+03  0.00000000000E+00 0. -1.
         -1   -1    0    0    0  501 -0.00000000000E+00 -0.00000000000E+00 -0.17549604568E+04  0.17549604568E+04  0.00000000000E+00 0.  1.
         23    2    1    2    0    0  0.77001288070E+02  0.78350063599E+03 -0.52895649461E+03  0.95279000620E+03  0.90616652826E+02 0.  0.
    5000000    2    1    2    0    0 -0.77001288070E+02 -0.78350063599E+03 -0.77253146668E+03  0.12556429460E+04  0.60002657937E+03 0.  0.
         23    2    4    4    0    0  0.18470673705E+03 -0.74635797509E+02 -0.25264035330E+03  0.33411017940E+03  0.90085419925E+02 0.  0.
         23    2    4    4    0    0 -0.26170802512E+03 -0.70886483848E+03 -0.51989111338E+03  0.92153276663E+03  0.89193164260E+02 0.  0.
          5    1    3    3  502    0  0.97070388527E+02  0.64950770775E+03 -0.44572156786E+03  0.79370821390E+03  0.47000000000E+01 0. -1.
         -5    1    3    3    0  502 -0.20069100457E+02  0.13399292824E+03 -0.83234926742E+02  0.15908179230E+03  0.47000000000E+01 0.  1.
         13    1    5    5    0    0  0.14767641936E+03 -0.50289589917E+02 -0.12790172857E+03  0.20173304107E+03  0.00000000000E+00 0. -1.
        -13    1    5    5    0    0  0.37030317689E+02 -0.24346207591E+02 -0.12473862473E+03  0.13237713833E+03  0.00000000000E+00 0.  1.
          2    1    6    6  503    0 -0.36203757468E+02 -0.15076301229E+03 -0.70386063368E+02  0.17027740850E+03  0.00000000000E+00 0.  1.
         -2    1    6    6    0  503 -0.22550426765E+03 -0.55810182619E+03 -0.44950505001E+03  0.75125535813E+03  0.00000000000E+00 0. -1.
<mgrwt>
<rscale>  0 0.87480791E+03</rscale>
<asrwt>0</asrwt>
<pdfrwt beam="1">  1        1 0.69764998E-01 0.87480791E+03</pdfrwt>
<pdfrwt beam="2">  1       -1 0.26999392E+00 0.87480791E+03</pdfrwt>
<totfact> 0.26886811E+00</totfact>
</mgrwt>
</event>
<event>
12    1  0.3147868E-008  0.1023009E+04  0.7818608E-02  0.9283663E-01
          1   -1    0    0  501    0  0.00000000000E+00  0.00000000000E+00  0.10955115127E+04  0.10955115127E+04  0.00000000000E+00 0. -1.
         -1   -1    0    0    0  501 -0.00000000000E+00 -0.00000000000E+00 -0.10917269263E+04  0.10917269263E+04  0.00000000000E+00 0.  1.
         23    2    1    2    0    0  0.83555186724E+03  0.43654705211E+03 -0.35824169465E+03  0.10125471754E+04  0.90523030529E+02 0.  0.
    5000000    2    1    2    0    0 -0.83555186724E+03 -0.43654705211E+03  0.36202628109E+03  0.11746912636E+04  0.60009689629E+03 0.  0.
         23    2    4    4    0    0 -0.80726912640E+02  0.11740265421E+03  0.76641791374E+01  0.16943150870E+03  0.91367821792E+02 0.  0.
         23    2    4    4    0    0 -0.75482495460E+03 -0.55394970632E+03  0.35436210195E+03  0.10052597549E+04  0.91398502376E+02 0.  0.
          5    1    3    3  502    0  0.15684429076E+03  0.43971957348E+02 -0.59388978346E+02  0.17344395442E+03  0.47000000000E+01 0. -1.
         -5    1    3    3    0  502  0.67870757648E+03  0.39257509477E+03 -0.29885271630E+03  0.83910322097E+03  0.47000000000E+01 0.  1.
         11    1    5    5    0    0 -0.58104044279E+01  0.72355782416E+02  0.31034440636E+02  0.78944642341E+02  0.00000000000E+00 0. -1.
        -11    1    5    5    0    0 -0.74916508213E+02  0.45046871790E+02 -0.23370261499E+02  0.90486866358E+02  0.00000000000E+00 0.  1.
          4    1    6    6  503    0 -0.51314292250E+03 -0.33461816276E+03  0.20174055880E+03  0.64496839211E+03  0.00000000000E+00 0.  1.
         -4    1    6    6    0  503 -0.24168203210E+03 -0.21933154356E+03  0.15262154315E+03  0.36029136276E+03  0.00000000000E+00 0. -1.
<mgrwt>
<rscale>  0 0.10230093E+04</rscale>
<asrwt>0</asrwt>
<pdfrwt beam="1">  1        1 0.16854023E+00 0.10230093E+04</pdfrwt>
<pdfrwt beam="2">  1       -1 0.16795799E+00 0.10230093E+04</pdfrwt>
<totfact> 0.32567209E+00</totfact>
</mgrwt>
</event>
<event>
12    1  0.3147868E-008  0.3725780E+03  0.7818608E-02  0.1053712E+00
         -1   -1    0    0    0  501 -0.00000000000E+00  0.00000000000E+00  0.15797857341E+04  0.15797857341E+04  0.00000000000E+00 0.  1.
          1   -1    0    0  501    0  0.00000000000E+00 -0.00000000000E+00 -0.18058182871E+03  0.18058182871E+03  0.00000000000E+00 0. -1.
         23    2    1    2    0    0  0.25401783419E+03 -0.14702964211E+03  0.82196205704E+03  0.87761477523E+03  0.91887402556E+02 0.  0.
    5000000    2    1    2    0    0 -0.25401783419E+03  0.14702964211E+03  0.57724184832E+03  0.88275278756E+03  0.59991795834E+03 0.  0.
         23    2    4    4    0    0 -0.19214765095E+03  0.23434630968E+03  0.64824640957E+03  0.72199210583E+03  0.95970207522E+02 0.  0.
         23    2    4    4    0    0 -0.61870183233E+02 -0.87316667578E+02 -0.71004561248E+02  0.16076068173E+03  0.96696582468E+02 0.  0.
          5    1    3    3  502    0  0.21100428783E+03 -0.95734267768E+02  0.53732082138E+03  0.58516973144E+03  0.47000000000E+01 0. -1.
         -5    1    3    3    0  502  0.43013546356E+02 -0.51295374338E+02  0.28464123566E+03  0.29244504379E+03  0.47000000000E+01 0.  1.
         13    1    5    5    0    0 -0.83686563016E+02  0.64826979180E+02  0.31906190492E+03  0.33616436044E+03  0.00000000000E+00 0.  1.
        -13    1    5    5    0    0 -0.10846108794E+03  0.16951933050E+03  0.32918450465E+03  0.38582774539E+03  0.00000000000E+00 0. -1.
          3    1    6    6  503    0 -0.63421796936E+02 -0.12856573378E+02 -0.54202053320E+02  0.84412548769E+02  0.00000000000E+00 0. -1.
         -3    1    6    6    0  503  0.15516137037E+01 -0.74460094200E+02 -0.16802507928E+02  0.76348132957E+02  0.00000000000E+00 0.  1.
<mgrwt>
<rscale>  0 0.37257798E+03</rscale>
<asrwt>0</asrwt>
<pdfrwt beam="1">  1        1 0.27781821E-01 0.37257798E+03</pdfrwt>
<pdfrwt beam="2">  1       -1 0.24304395E+00 0.37257798E+03</pdfrwt>
<totfact> 0.14400963E+01</totfact>
</mgrwt>
</event>
<event>
12    1  0.3147868E-008  0.7103959E+03  0.7818608E-02  0.9699617E-01
         -1   -1    0    0    0  501 -0.00000000000E+00  0.00000000000E+00  0.20937893501E+04  0.20937893501E+04  0.00000000000E+00 0.  1.
          1   -1    0    0  501    0  0.00000000000E+00 -0.00000000000E+00 -0.26570064960E+03  0.26570064960E+03  0.00000000000E+00 0. -1.
         23    2    1    2    0    0 -0.50146851254E+03 -0.36189770166E+03  0.86332240374E+03  0.10659426440E+04  0.92019193927E+02 0.  0.
    5000000    2    1    2    0    0  0.50146851254E+03  0.36189770166E+03  0.96476629676E+03  0.12935473557E+04  0.60004178056E+03 0.  0.
         23    2    4    4    0    0  0.51429834769E+03  0.91534655267E+02  0.81149673738E+03  0.96923573422E+03  0.89496201870E+02 0.  0.
         23    2    4    4    0    0 -0.12829835155E+02  0.27036304639E+03  0.15326955938E+03  0.32431162143E+03  0.91791548862E+02 0.  0.
          5    1    3    3  502    0 -0.38683652027E+03 -0.30565107332E+03  0.73336823541E+03  0.88369459133E+03  0.47000000000E+01 0. -1.
         -5    1    3    3    0  502 -0.11463199226E+03 -0.56246628332E+02  0.12995416833E+03  0.18224805271E+03  0.47000000000E+01 0.  1.
         13    1    5    5    0    0  0.23011761278E+03 -0.18102898901E+01  0.32748239840E+03  0.40025256291E+03  0.00000000000E+00 0. -1.
        -13    1    5    5    0    0  0.28418073491E+03  0.93344945157E+02  0.48401433899E+03  0.56898317130E+03  0.00000000000E+00 0.  1.
          1    1    6    6  503    0 -0.28858852019E+01  0.24174382600E+02  0.52955828075E+02  0.58284207420E+02  0.00000000000E+00 0. -1.
         -1    1    6    6    0  503 -0.99439499528E+01  0.24618866379E+03  0.10031373130E+03  0.26602741401E+03  0.00000000000E+00 0.  1.
<mgrwt>
<rscale>  0 0.71039590E+03</rscale>
<asrwt>0</asrwt>
<pdfrwt beam="1">  1        1 0.40877025E-01 0.71039590E+03</pdfrwt>
<pdfrwt beam="2">  1       -1 0.32212143E+00 0.71039590E+03</pdfrwt>
<totfact> 0.25788349E+00</totfact>
</mgrwt>
</event>
<event>
12    1  0.3147868E-008  0.7900969E+03  0.7818608E-02  0.9574463E-01
          2   -1    0    0  501    0  0.00000000000E+00  0.00000000000E+00  0.26556212505E+04  0.26556212505E+04  0.00000000000E+00 0. -1.
         -2   -1    0    0    0  501 -0.00000000000E+00 -0.00000000000E+00 -0.59128293401E+03  0.59128293401E+03  0.00000000000E+00 0.  1.
         23    2    1    2    0    0 -0.11247432567E+03 -0.72226318487E+03 -0.22480056885E+03  0.77011298356E+03  0.90686986567E+02 0.  0.
    5000000    2    1    2    0    0  0.11247432567E+03  0.72226318487E+03  0.22891388853E+04  0.24767912009E+04  0.60001936184E+03 0.  0.
         23    2    4    4    0    0  0.25582042705E+03  0.32892418377E+03  0.60747537068E+03  0.74135356915E+03  0.83328140154E+02 0.  0.
         23    2    4    4    0    0 -0.14334610138E+03  0.39333900110E+03  0.16816635146E+04  0.17354376318E+04  0.92129923380E+02 0.  0.
          5    1    3    3  502    0 -0.87937432207E+02 -0.27920900965E+03 -0.85108679106E+02  0.30488725836E+03  0.47000000000E+01 0. -1.
         -5    1    3    3    0  502 -0.24536893461E+02 -0.44305417522E+03 -0.13969188975E+03  0.46522572520E+03  0.47000000000E+01 0.  1.
         11    1    5    5    0    0  0.18913053898E+03  0.24718493799E+03  0.51140936049E+03  0.59867377456E+03  0.00000000000E+00 0.  1.
        -11    1    5    5    0    0  0.66689888067E+02  0.81739245774E+02  0.96066010188E+02  0.14267979459E+03  0.00000000000E+00 0. -1.
          3    1    6    6  503    0 -0.76335258390E+02  0.31369701671E+03  0.13351598714E+04  0.13736392439E+04  0.00000000000E+00 0. -1.
         -3    1    6    6    0  503 -0.67010842990E+02  0.79641984393E+02  0.34650364319E+03  0.36179838792E+03  0.00000000000E+00 0.  1.
<mgrwt>
<rscale>  0 0.79009686E+03</rscale>
<asrwt>0</asrwt>
<pdfrwt beam="1">  1        2 0.40855711E+00 0.79009686E+03</pdfrwt>
<pdfrwt beam="2">  1       -2 0.90966607E-01 0.79009686E+03</pdfrwt>
<totfact> 0.30470012E+00</totfact>
</mgrwt>
</event>
<event>
12    1  0.3147868E-008  0.6482509E+03  0.7818608E-02  0.9810067E-01
         -2   -1    0    0    0  501 -0.00000000000E+00  0.00000000000E+00  0.17710821864E+04  0.17710821864E+04  0.00000000000E+00 0.  1.
          2   -1    0    0  501    0  0.00000000000E+00 -0.00000000000E+00 -0.33023386271E+03  0.33023386271E+03  0.00000000000E+00 0. -1.
         23    2    1    2    0    0  0.44386326137E+03 -0.35340169597E+03  0.10290364846E+04  0.11785427956E+04  0.90220180535E+02 0.  0.
    5000000    2    1    2    0    0 -0.44386326137E+03  0.35340169597E+03  0.41181183914E+03  0.92277325354E+03  0.60001177745E+03 0.  0.
         23    2    4    4    0    0 -0.37055650972E+03  0.45143554182E+03  0.47313905028E+03  0.75771543922E+03  0.95738971318E+02 0.  0.
         23    2    4    4    0    0 -0.73306751658E+02 -0.98033845846E+02 -0.61327211140E+02  0.16505781431E+03  0.92187528820E+02 0.  0.
          5    1    3    3  502    0  0.52572822511E+02 -0.25961430679E+02  0.64042903594E+02  0.86956776909E+02  0.47000000000E+01 0. -1.
         -5    1    3    3    0  502  0.39129043886E+03 -0.32744026529E+03  0.96499358098E+03  0.10915860187E+04  0.47000000000E+01 0.  1.
         11    1    5    5    0    0 -0.67517313227E+02  0.86831128915E+02  0.44764259361E+02  0.11875214293E+03  0.00000000000E+00 0. -1.
        -11    1    5    5    0    0 -0.30303919649E+03  0.36460441290E+03  0.42837479092E+03  0.63896329630E+03  0.00000000000E+00 0.  1.
          3    1    6    6  503    0 -0.64874950283E+02 -0.24523784438E+02 -0.63481806910E+00  0.69358331665E+02  0.00000000000E+00 0. -1.
         -3    1    6    6    0  503 -0.84318013750E+01 -0.73510061408E+02 -0.60692393071E+02  0.95699482649E+02  0.00000000000E+00 0.  1.
<mgrwt>
<rscale>  0 0.64825093E+03</rscale>
<asrwt>0</asrwt>
<pdfrwt beam="1">  1        2 0.50805211E-01 0.64825093E+03</pdfrwt>
<pdfrwt beam="2">  1       -2 0.27247418E+00 0.64825093E+03</pdfrwt>
<totfact> 0.48360010E+00</totfact>
</mgrwt>
</event>
<event>
12    1  0.3147868E-008  0.1232774E+04  0.7818608E-02  0.9084644E-01
         -2   -1    0    0    0  501 -0.00000000000E+00  0.00000000000E+00  0.10314522273E+04  0.10314522273E+04  0.00000000000E+00 0.  1.
          2   -1    0    0  501    0  0.00000000000E+00 -0.00000000000E+00 -0.21937799724E+04  0.21937799724E+04  0.00000000000E+00 0. -1.
         23    2    1    2    0    0  0.22406481132E+03 -0.11492587839E+04 -0.14625272757E+04  0.18757996339E+04  0.92937841456E+02 0.  0.
    5000000    2    1    2    0    0 -0.22406481132E+03  0.11492587839E+04  0.30019953065E+03  0.13494325658E+04  0.59987306926E+03 0.  0.
         23    2    4    4    0    0  0.17405618728E+03  0.50190104722E+03  0.21210776934E+03  0.57886977390E+03  0.88883585652E+02 0.  0.
         23    2    4    4    0    0 -0.39812099860E+03  0.64735773673E+03  0.88091761307E+02  0.77056279187E+03  0.91839473966E+02 0.  0.
          5    1    3    3  502    0  0.58443238747E+02 -0.44180338702E+03 -0.61372840393E+03  0.75847906282E+03  0.47000000000E+01 0. -1.
         -5    1    3    3    0  502  0.16562157258E+03 -0.70745539692E+03 -0.84879887174E+03  0.11173205711E+04  0.47000000000E+01 0.  1.
         13    1    5    5    0    0  0.83824639655E+02  0.31023597199E+03  0.16745320529E+03  0.36237205258E+03  0.00000000000E+00 0. -1.
        -13    1    5    5    0    0  0.90231547622E+02  0.19166507522E+03  0.44654564054E+02  0.21649772132E+03  0.00000000000E+00 0.  1.
          3    1    6    6  503    0 -0.58740994787E+02  0.87941129051E+02 -0.19280480183E+02  0.10749829563E+03  0.00000000000E+00 0. -1.
         -3    1    6    6    0  503 -0.33938000381E+03  0.55941660767E+03  0.10737224149E+03  0.66306449624E+03  0.00000000000E+00 0.  1.
<mgrwt>
<rscale>  0 0.12327738E+04</rscale>
<asrwt>0</asrwt>
<pdfrwt beam="1">  1        2 0.33750461E+00 0.12327738E+04</pdfrwt>
<pdfrwt beam="2">  1       -2 0.15868496E+00 0.12327738E+04</pdfrwt>
<totfact> 0.13011589E+00</totfact>
</mgrwt>
</event>
<event>
12    1  0.3147868E-008  0.7305739E+03  0.7818608E-02  0.9666330E-01
         -1   -1    0    0    0  501 -0.00000000000E+00  0.00000000000E+00  0.63351415732E+03  0.63351415732E+03  0.00000000000E+00 0. -1.
          1   -1    0    0  501    0  0.00000000000E+00 -0.00000000000E+00 -0.89323323933E+03  0.89323323933E+03  0.00000000000E+00 0.  1.
         23    2    1    2    0    0  0.14900494534E+03 -0.59553212181E+03 -0.24669884165E+03  0.66798465503E+03  0.92098854704E+02 0.  0.
    5000000    2    1    2    0    0 -0.14900494534E+03  0.59553212181E+03 -0.13020240364E+02  0.85876274162E+03  0.60036900144E+03 0.  0.
         23    2    4    4    0    0 -0.22521010948E+03  0.66981300434E+03  0.23563247793E+02  0.71441584543E+03  0.10230209857E+03 0.  0.
         23    2    4    4    0    0  0.76205164143E+02 -0.74280882526E+02 -0.36583488156E+02  0.14434689618E+03  0.90403530244E+02 0.  0.
          5    1    3    3  502    0  0.55641142084E+02 -0.32205693794E+03 -0.17255993595E+03  0.36961551573E+03  0.47000000000E+01 0. -1.
         -5    1    3    3    0  502  0.93363803255E+02 -0.27347518387E+03 -0.74138905695E+02  0.29836913930E+03  0.47000000000E+01 0.  1.
         11    1    5    5    0    0 -0.90054458378E+02  0.20137494380E+03 -0.35042608895E+02  0.22335992904E+03  0.00000000000E+00 0.  1.
        -11    1    5    5    0    0 -0.13515565110E+03  0.46843806054E+03  0.58605856688E+02  0.49105591639E+03  0.00000000000E+00 0. -1.
          2    1    6    6  503    0 -0.53653465146E+01 -0.52408418545E+02 -0.96587468451E+00  0.52691196528E+02  0.00000000000E+00 0. -1.
         -2    1    6    6    0  503  0.81570510657E+02 -0.21872463980E+02 -0.35617613472E+02  0.91655699653E+02  0.00000000000E+00 0.  1.
<mgrwt>
<rscale>  0 0.73057388E+03</rscale>
<asrwt>0</asrwt>
<pdfrwt beam="1">  1        1 0.13742050E+00 0.73057388E+03</pdfrwt>
<pdfrwt beam="2">  1       -1 0.97463717E-01 0.73057388E+03</pdfrwt>
<totfact> 0.19200921E+01</totfact>
</mgrwt>
</event>
<event>
12    1  0.3147868E-008  0.6822006E+03  0.7818608E-02  0.9748165E-01
         -2   -1    0    0    0  501 -0.00000000000E+00  0.00000000000E+00  0.45697922277E+03  0.45697922277E+03  0.00000000000E+00 0.  1.
          2   -1    0    0  501    0  0.00000000000E+00 -0.00000000000E+00 -0.14192982976E+04  0.14192982976E+04  0.00000000000E+00 0. -1.
         23    2    1    2    0    0 -0.61812942646E+03 -0.26549901041E+03 -0.24003462894E+03  0.72112281065E+03  0.99135122799E+02 0.  0.
    5000000    2    1    2    0    0  0.61812942646E+03  0.26549901041E+03 -0.72228444584E+03  0.11551547097E+04  0.60009488433E+03 0.  0.
         23    2    4    4    0    0  0.47440422305E+03  0.18257188131E+03 -0.79829194043E+03  0.95082771717E+03  0.91714049569E+02 0.  0.
         23    2    4    4    0    0  0.14372520341E+03  0.82927129105E+02  0.76007494592E+02  0.20432699251E+03  0.91861514229E+02 0.  0.
          5    1    3    3  502    0 -0.32536225002E+03 -0.18741305071E+03 -0.15621923167E+03  0.40670724564E+03  0.47000000000E+01 0. -1.
         -5    1    3    3    0  502 -0.29276717644E+03 -0.78085959703E+02 -0.83815397269E+02  0.31441556501E+03  0.47000000000E+01 0.  1.
         13    1    5    5    0    0  0.42504342298E+03  0.18624721673E+03 -0.68725899061E+03  0.82926163382E+03  0.00000000000E+00 0.  1.
        -13    1    5    5    0    0  0.49360800067E+02 -0.36753354190E+01 -0.11103294982E+03  0.12156608335E+03  0.00000000000E+00 0. -1.
          1    1    6    6  503    0  0.93826956213E+02  0.27615694441E+02  0.84628150602E+02  0.12933695592E+03  0.00000000000E+00 0. -1.
         -1    1    6    6    0  503  0.49898247192E+02  0.55311434664E+02 -0.86206560093E+01  0.74990036588E+02  0.00000000000E+00 0.  1.
<mgrwt>
<rscale>  0 0.68220064E+03</rscale>
<asrwt>0</asrwt>
<pdfrwt beam="1">  1        2 0.21835358E+00 0.68220064E+03</pdfrwt>
<pdfrwt beam="2">  1       -2 0.70304498E-01 0.68220064E+03</pdfrwt>
<totfact> 0.26769008E+01</totfact>
</mgrwt>
</event>
<event>
12    1  0.3147868E-008  0.3625351E+03  0.7818608E-02  0.1057585E+00
          2   -1    0    0  501    0  0.00000000000E+00  0.00000000000E+00  0.35350920053E+04  0.35350920053E+04  0.00000000000E+00 0. -1.
         -2   -1    0    0    0  501 -0.00000000000E+00 -0.00000000000E+00 -0.49768500499E+02  0.49768500499E+02  0.00000000000E+00 0.  1.
         23    2    1    2    0    0 -0.88457728547E+02  0.14973209890E+03  0.12166013673E+04  0.12317881511E+04  0.83298805864E+02 0.  0.
    5000000    2    1    2    0    0  0.88457728547E+02 -0.14973209890E+03  0.22687221375E+04  0.23530723547E+04  0.59967065807E+03 0.  0.
         23    2    4    4    0    0  0.26233844475E+03 -0.22217411780E+03  0.18613331132E+04  0.18950798498E+04  0.92649235217E+02 0.  0.
         23    2    4    4    0    0 -0.17388071620E+03  0.72442018908E+02  0.40738902435E+03  0.45799250492E+03  0.91153539841E+02 0.  0.
          5    1    3    3  502    0 -0.23082467837E+01  0.57558822371E+02  0.57394598946E+03  0.57684871054E+03  0.47000000000E+01 0. -1.
         -5    1    3    3    0  502 -0.86149481763E+02  0.92173276526E+02  0.64265537785E+03  0.65493944056E+03  0.47000000000E+01 0.  1.
         11    1    5    5    0    0  0.16450987174E+03 -0.12572538014E+03  0.13422364654E+04  0.13581123290E+04  0.00000000000E+00 0.  1.
        -11    1    5    5    0    0  0.97828573011E+02 -0.96448737663E+02  0.51909664771E+03  0.53696752077E+03  0.00000000000E+00 0. -1.
          2    1    6    6  503    0 -0.90650332436E+02  0.73832642491E+01  0.26854663439E+03  0.28353005167E+03  0.00000000000E+00 0.  1.
         -2    1    6    6    0  503 -0.83230383769E+02  0.65058754658E+02  0.13884238996E+03  0.17446245324E+03  0.00000000000E+00 0. -1.
<mgrwt>
<rscale>  0 0.36253509E+03</rscale>
<asrwt>0</asrwt>
<pdfrwt beam="1">  1        2 0.54386011E+00 0.36253509E+03</pdfrwt>
<pdfrwt beam="2">  1       -2 0.76566952E-02 0.36253509E+03</pdfrwt>
<totfact> 0.94458248E+01</totfact>
</mgrwt>
</event>
<event>
12    1  0.3147868E-008  0.5833292E+03  0.7818608E-02  0.9940609E-01
          2   -1    0    0  501    0  0.00000000000E+00  0.00000000000E+00  0.11048320826E+04  0.11048320826E+04  0.00000000000E+00 0. -1.
         -2   -1    0    0    0  501 -0.00000000000E+00 -0.00000000000E+00 -0.33802586431E+03  0.33802586431E+03  0.00000000000E+00 0.  1.
         23    2    1    2    0    0 -0.37404895958E+02 -0.45616411966E+03  0.27087521545E+03  0.53986682494E+03  0.92725271776E+02 0.  0.
    5000000    2    1    2    0    0  0.37404895958E+02  0.45616411966E+03  0.49593100286E+03  0.90299112198E+03  0.59996714616E+03 0.  0.
         23    2    4    4    0    0 -0.21183714124E+03  0.35825771272E+03  0.44430732989E+03  0.61574686897E+03  0.92258550342E+02 0.  0.
         23    2    4    4    0    0  0.24924203719E+03  0.97906406932E+02  0.51623672963E+02  0.28724425301E+03  0.90205319429E+02 0.  0.
          5    1    3    3  502    0 -0.15399164251E+02 -0.49345635079E+02  0.24707625733E+01  0.51964609387E+02  0.47000000000E+01 0. -1.
         -5    1    3    3    0  502 -0.22005731707E+02 -0.40681848458E+03  0.26840445287E+03  0.48790221555E+03  0.47000000000E+01 0.  1.
         11    1    5    5    0    0 -0.19115854711E+03  0.25068987629E+03  0.30630423516E+03  0.43955578563E+03  0.00000000000E+00 0. -1.
        -11    1    5    5    0    0 -0.20678594131E+02  0.10756783644E+03  0.13800309473E+03  0.17619108334E+03  0.00000000000E+00 0.  1.
          3    1    6    6  503    0  0.23243191837E+03  0.58507585955E+02  0.45720249198E+02  0.24400425299E+03  0.00000000000E+00 0. -1.
         -3    1    6    6    0  503  0.16810118824E+02  0.39398820977E+02  0.59034237647E+01  0.43240000017E+02  0.00000000000E+00 0.  1.
<mgrwt>
<rscale>  0 0.58332915E+03</rscale>
<asrwt>0</asrwt>
<pdfrwt beam="1">  1        2 0.16997417E+00 0.58332915E+03</pdfrwt>
<pdfrwt beam="2">  1       -2 0.52003979E-01 0.58332915E+03</pdfrwt>
<totfact> 0.77901228E+01</totfact>
</mgrwt>
</event>
<event>
12    1  0.3147868E-008  0.6673163E+03  0.7818608E-02  0.9774818E-01
         -2   -1    0    0    0  501 -0.00000000000E+00  0.00000000000E+00  0.26985888703E+03  0.26985888703E+03  0.00000000000E+00 0.  1.
          2   -1    0    0  501    0  0.00000000000E+00 -0.00000000000E+00 -0.35602320991E+04  0.35602320991E+04  0.00000000000E+00 0. -1.
         23    2    1    2    0    0 -0.38709525396E+03  0.43832537165E+03 -0.19479600287E+03  0.62321687103E+03  0.92097331877E+02 0.  0.
    5000000    2    1    2    0    0  0.38709525396E+03 -0.43832537165E+03 -0.30955772092E+04  0.32068741151E+04  0.59955939230E+03 0.  0.
         23    2    4    4    0    0  0.12690527560E+03 -0.45601964542E+03 -0.25484823672E+04  0.25936855925E+04  0.91562604464E+02 0.  0.
         23    2    4    4    0    0  0.26018997836E+03  0.17694273773E+02 -0.54709484203E+03  0.61318852269E+03  0.93142289060E+02 0.  0.
          5    1    3    3  502    0 -0.16307258286E+03  0.25213427044E+03 -0.10954051451E+03  0.31966478056E+03  0.47000000000E+01 0. -1.
         -5    1    3    3    0  502 -0.22402267110E+03  0.18619110120E+03 -0.85255488357E+02  0.30355209047E+03  0.47000000000E+01 0.  1.
         11    1    5    5    0    0  0.31492711216E+02 -0.89937542088E+02 -0.73594055088E+03  0.74208425853E+03  0.00000000000E+00 0.  1.
        -11    1    5    5    0    0  0.95412564385E+02 -0.36608210333E+03 -0.18125418163E+04  0.18516013339E+04  0.00000000000E+00 0. -1.
          4    1    6    6  503    0  0.21160982839E+03 -0.12850836678E+02 -0.36316644424E+03  0.42051602787E+03  0.00000000000E+00 0. -1.
         -4    1    6    6    0  503  0.48580149971E+02  0.30545110451E+02 -0.18392839779E+03  0.19267249482E+03  0.00000000000E+00 0.  1.
<mgrwt>
<rscale>  0 0.66731627E+03</rscale>
<asrwt>0</asrwt>
<pdfrwt beam="1">  1        2 0.54772799E+00 0.66731627E+03</pdfrwt>
<pdfrwt beam="2">  1       -2 0.41516754E-01 0.66731627E+03</pdfrwt>
<totfact> 0.44859944E+00</totfact>
</mgrwt>
</event>
<event>
12    1  0.3147868E-008  0.1180885E+04  0.7818608E-02  0.9129754E-01
          2   -1    0    0  501    0  0.00000000000E+00  0.00000000000E+00  0.17510929394E+04  0.17510929394E+04  0.00000000000E+00 0. -1.
         -2   -1    0    0    0  501 -0.00000000000E+00 -0.00000000000E+00 -0.10696050004E+04  0.10696050004E+04  0.00000000000E+00 0.  1.
         23    2    1    2    0    0 -0.10949612762E+04  0.22770371623E+03 -0.36044662296E+03  0.11785917381E+04  0.91474250579E+02 0.  0.
    5000000    2    1    2    0    0  0.10949612762E+04 -0.22770371623E+03  0.10419345619E+04  0.16421062017E+04  0.60007996777E+03 0.  0.
         23    2    4    4    0    0  0.20483344670E+03 -0.27890450891E+03  0.18737485014E+03  0.40366553863E+03  0.89955914947E+02 0.  0.
         23    2    4    4    0    0  0.89012782946E+03  0.51200792678E+02  0.85455971178E+03  0.12384406631E+04  0.92270802740E+02 0.  0.
          5    1    3    3  502    0 -0.54115099810E+03  0.13525388249E+03 -0.13795030122E+03  0.57462195493E+03  0.47000000000E+01 0. -1.
         -5    1    3    3    0  502 -0.55381027806E+03  0.92449833745E+02 -0.22249632174E+03  0.60396978321E+03  0.47000000000E+01 0.  1.
         11    1    5    5    0    0  0.97362270810E+02 -0.14095609758E+03  0.14325208832E+03  0.22331411516E+03  0.00000000000E+00 0. -1.
        -11    1    5    5    0    0  0.10747117589E+03 -0.13794841133E+03  0.44122761816E+02  0.18035142347E+03  0.00000000000E+00 0.  1.
          3    1    6    6  503    0  0.50758890520E+03  0.74506215190E+02  0.49756701325E+03  0.71468217094E+03  0.00000000000E+00 0.  1.
         -3    1    6    6    0  503  0.38253892426E+03 -0.23305422512E+02  0.35699269853E+03  0.52375849214E+03  0.00000000000E+00 0. -1.
<mgrwt>
<rscale>  0 0.11808852E+04</rscale>
<asrwt>0</asrwt>
<pdfrwt beam="1">  1        2 0.26939891E+00 0.11808852E+04</pdfrwt>
<pdfrwt beam="2">  1       -2 0.16455462E+00 0.11808852E+04</pdfrwt>
<totfact> 0.20854601E+00</totfact>
</mgrwt>
</event>
<event>
12    1  0.3147868E-008  0.6553124E+03  0.7818608E-02  0.9796862E-01
         -1   -1    0    0    0  501 -0.00000000000E+00  0.00000000000E+00  0.57517569199E+03  0.57517569199E+03  0.00000000000E+00 0.  1.
          1   -1    0    0  501    0  0.00000000000E+00 -0.00000000000E+00 -0.91461365482E+03  0.91461365482E+03  0.00000000000E+00 0. -1.
         23    2    1    2    0    0 -0.52598312206E+03  0.26220665582E+03 -0.25034036630E+03  0.64523789003E+03  0.90835349305E+02 0.  0.
    5000000    2    1    2    0    0  0.52598312206E+03 -0.26220665582E+03 -0.89097596527E+02  0.84455145679E+03  0.59993183480E+03 0.  0.
         23    2    4    4    0    0 -0.30620530624E+02 -0.85022710330E+02 -0.20472573316E+03  0.24216488070E+03  0.92545801943E+02 0.  0.
         23    2    4    4    0    0  0.55660365268E+03 -0.17718394549E+03  0.11562813663E+03  0.60238657609E+03  0.91093053261E+02 0.  0.
          5    1    3    3  502    0 -0.70395879712E+02  0.69825059680E+02 -0.55109835812E+02  0.11353546954E+03  0.47000000000E+01 0. -1.
         -5    1    3    3    0  502 -0.45558724235E+03  0.19238159614E+03 -0.19523053049E+03  0.53170242049E+03  0.47000000000E+01 0.  1.
         13    1    5    5    0    0 -0.57239341971E+02 -0.85303651883E+02 -0.16293511937E+03  0.19261596097E+03  0.00000000000E+00 0.  1.
        -13    1    5    5    0    0  0.26618811348E+02  0.28094155329E+00 -0.41790613788E+02  0.49548919731E+02  0.00000000000E+00 0. -1.
          1    1    6    6  503    0  0.71830722876E+02 -0.45796327335E+02 -0.66719860557E+01  0.85448649751E+02  0.00000000000E+00 0. -1.
         -1    1    6    6    0  503  0.48477292981E+03 -0.13138761815E+03  0.12230012269E+03  0.51693792634E+03  0.00000000000E+00 0.  1.
<mgrwt>
<rscale>  0 0.65531239E+03</rscale>
<asrwt>0</asrwt>
<pdfrwt beam="1">  1        1 0.14070979E+00 0.65531239E+03</pdfrwt>
<pdfrwt beam="2">  1       -1 0.88488569E-01 0.65531239E+03</pdfrwt>
<totfact> 0.23081502E+01</totfact>
</mgrwt>
</event>
<event>
12    1  0.3147868E-008  0.7978062E+03  0.7818608E-02  0.9563198E-01
         -2   -1    0    0    0  501 -0.00000000000E+00  0.00000000000E+00  0.69670782827E+03  0.69670782827E+03  0.00000000000E+00 0.  1.
          2   -1    0    0  501    0  0.00000000000E+00 -0.00000000000E+00 -0.15520476090E+04  0.15520476090E+04  0.00000000000E+00 0. -1.
         23    2    1    2    0    0 -0.71209355365E+03 -0.15396978039E+03 -0.10537665522E+04  0.12843043975E+04  0.90718886318E+02 0.  0.
    5000000    2    1    2    0    0  0.71209355365E+03  0.15396978039E+03  0.19842677152E+03  0.96445103977E+03  0.60000725165E+03 0.  0.
         23    2    4    4    0    0  0.33102172163E+03 -0.15362858442E+03  0.26736191333E+03  0.46168007692E+03  0.92135653147E+02 0.  0.
         23    2    4    4    0    0  0.38107183202E+03  0.30759836481E+03 -0.68935141810E+02  0.50277096285E+03  0.90521224694E+02 0.  0.
          5    1    3    3  502    0 -0.59890101206E+03 -0.15639542734E+03 -0.85578102686E+03  0.10561842680E+04  0.47000000000E+01 0. -1.
         -5    1    3    3    0  502 -0.11319254160E+03  0.24256469429E+01 -0.19798552536E+03  0.22812012951E+03  0.47000000000E+01 0.  1.
         11    1    5    5    0    0  0.27014607469E+03 -0.13259689976E+03  0.17203994136E+03  0.34663897778E+03  0.00000000000E+00 0. -1.
        -11    1    5    5    0    0  0.60875646946E+02 -0.21031684662E+02  0.95321971966E+02  0.11504109914E+03  0.00000000000E+00 0.  1.
          4    1    6    6  503    0  0.35011122195E+03  0.24257080130E+03 -0.56026937071E+02  0.42960153521E+03  0.00000000000E+00 0. -1.
         -4    1    6    6    0  503  0.30960610070E+02  0.65027563511E+02 -0.12908204739E+02  0.73169427644E+02  0.00000000000E+00 0.  1.
<mgrwt>
<rscale>  0 0.79780620E+03</rscale>
<asrwt>0</asrwt>
<pdfrwt beam="1">  1        2 0.23877655E+00 0.79780620E+03</pdfrwt>
<pdfrwt beam="2">  1       -2 0.10718582E+00 0.79780620E+03</pdfrwt>
<totfact> 0.84585150E+00</totfact>
</mgrwt>
</event>
<event>
12    1  0.3147868E-008  0.2035589E+04  0.7818608E-02  0.8590160E-01
          1   -1    0    0  501    0  0.00000000000E+00  0.00000000000E+00  0.15298120225E+04  0.15298120225E+04  0.00000000000E+00 0. -1.
         -1   -1    0    0    0  501 -0.00000000000E+00 -0.00000000000E+00 -0.29563146531E+04  0.29563146531E+04  0.00000000000E+00 0.  1.
         23    2    1    2    0    0 -0.92511498682E+03  0.18017835791E+04 -0.18606607313E+03  0.20364242907E+04  0.10070503070E+03 0.  0.
    5000000    2    1    2    0    0  0.92511498682E+03 -0.18017835791E+04 -0.12404365574E+04  0.24497023849E+04  0.60008092525E+03 0.  0.
         23    2    4    4    0    0  0.80898034523E+02 -0.33744219477E+03 -0.46679103559E+03  0.58873310861E+03  0.91110238004E+02 0.  0.
         23    2    4    4    0    0  0.84421695229E+03 -0.14643413843E+04 -0.77364552183E+03  0.18609692763E+04  0.87643034132E+02 0.  0.
          5    1    3    3  502    0 -0.47305820059E+03  0.10080418970E+04 -0.71742091171E+02  0.11158411826E+04  0.47000000000E+01 0. -1.
         -5    1    3    3    0  502 -0.45205678623E+03  0.79374168215E+03 -0.11432398196E+03  0.92058310804E+03  0.47000000000E+01 0.  1.
         11    1    5    5    0    0  0.56419868588E+02 -0.11414599545E+03 -0.22621009169E+03  0.25958334968E+03  0.00000000000E+00 0. -1.
        -11    1    5    5    0    0  0.24478165935E+02 -0.22329619932E+03 -0.24058094390E+03  0.32914975893E+03  0.00000000000E+00 0.  1.
          1    1    6    6  503    0  0.18912910086E+03 -0.26389712330E+03 -0.13449318353E+03  0.35142556096E+03  0.00000000000E+00 0. -1.
         -1    1    6    6    0  503  0.65508785144E+03 -0.12004442610E+04 -0.63915233830E+03  0.15095437153E+04  0.00000000000E+00 0.  1.
<mgrwt>
<rscale>  0 0.20355889E+04</rscale>
<asrwt>0</asrwt>
<pdfrwt beam="1">  1        1 0.23535570E+00 0.20355889E+04</pdfrwt>
<pdfrwt beam="2">  1       -1 0.45481764E+00 0.20355889E+04</pdfrwt>
<totfact> 0.16586601E-02</totfact>
</mgrwt>
</event>
<event>
12    1  0.3147868E-008  0.7640435E+03  0.7818608E-02  0.9613572E-01
         -1   -1    0    0    0  501 -0.00000000000E+00  0.00000000000E+00  0.30857718504E+03  0.30857718504E+03  0.00000000000E+00 0.  1.
          1   -1    0    0  501    0  0.00000000000E+00 -0.00000000000E+00 -0.25541010370E+04  0.25541010370E+04  0.00000000000E+00 0. -1.
         23    2    1    2    0    0 -0.63163136665E+03  0.23603599385E+03 -0.16404583631E+04  0.17760836647E+04  0.93265048634E+02 0.  0.
    5000000    2    1    2    0    0  0.63163136665E+03 -0.23603599385E+03 -0.60506548888E+03  0.10865945573E+04  0.59992692263E+03 0.  0.
         23    2    4    4    0    0  0.64653129928E+03 -0.32755846123E+03 -0.61753322934E+03  0.95655296350E+03  0.91372950979E+02 0.  0.
         23    2    4    4    0    0 -0.14899932634E+02  0.91522467388E+02  0.12467740452E+02  0.13004159385E+03  0.90316120094E+02 0.  0.
          5    1    3    3  502    0 -0.44309197009E+03  0.18502470336E+03 -0.12597935110E+04  0.13482085948E+04  0.47000000000E+01 0. -1.
         -5    1    3    3    0  502 -0.18853939656E+03  0.51011290485E+02 -0.38066485213E+03  0.42787506992E+03  0.47000000000E+01 0.  1.
         11    1    5    5    0    0  0.32860218288E+03 -0.18240794387E+03 -0.26300366469E+03  0.45871884659E+03  0.00000000000E+00 0. -1.
        -11    1    5    5    0    0  0.31792911639E+03 -0.14515051737E+03 -0.35452956465E+03  0.49783411690E+03  0.00000000000E+00 0.  1.
          2    1    6    6  503    0 -0.49770935387E+02  0.35265178023E+02  0.18065563629E+02  0.63617162618E+02  0.00000000000E+00 0. -1.
         -2    1    6    6    0  503  0.34871002753E+02  0.56257289365E+02 -0.55978231773E+01  0.66424431228E+02  0.00000000000E+00 0.  1.
<mgrwt>
<rscale>  0 0.76404351E+03</rscale>
<asrwt>0</asrwt>
<pdfrwt beam="1">  1        1 0.39293862E+00 0.76404351E+03</pdfrwt>
<pdfrwt beam="2">  1       -1 0.47473413E-01 0.76404351E+03</pdfrwt>
<totfact> 0.58100383E+00</totfact>
</mgrwt>
</event>
<event>
12    1  0.3147868E-008  0.1858339E+04  0.7818608E-02  0.8675876E-01
         -1   -1    0    0    0  501 -0.00000000000E+00  0.00000000000E+00  0.19317052735E+04  0.19317052735E+04  0.00000000000E+00 0.  1.
          1   -1    0    0  501    0  0.00000000000E+00 -0.00000000000E+00 -0.25504240904E+04  0.25504240904E+04  0.00000000000E+00 0. -1.
         23    2    1    2    0    0  0.11034528383E+04 -0.14649969733E+04  0.88198815914E+03  0.20375615425E+04  0.99647521037E+02 0.  0.
    5000000    2    1    2    0    0 -0.11034528383E+04  0.14649969733E+04 -0.15007069761E+04  0.24445678214E+04  0.59997175525E+03 0.  0.
         23    2    4    4    0    0 -0.11111402850E+04  0.14254817964E+04 -0.13229623704E+04  0.22416759004E+04  0.90831293926E+02 0.  0.
         23    2    4    4    0    0  0.76874466514E+01  0.39515176952E+02 -0.17774460562E+03  0.20289192102E+03  0.89170851434E+02 0.  0.
          5    1    3    3  502    0  0.63185218254E+03 -0.89208002215E+03  0.48454412960E+03  0.11957629573E+04  0.47000000000E+01 0. -1.
         -5    1    3    3    0  502  0.47160065581E+03 -0.57291695115E+03  0.39744402954E+03  0.84179858523E+03  0.47000000000E+01 0.  1.
         13    1    5    5    0    0 -0.91780877281E+03  0.11512728739E+04 -0.10376534120E+04  0.18012569992E+04  0.00000000000E+00 0. -1.
        -13    1    5    5    0    0 -0.19333151219E+03  0.27420892246E+03 -0.28530895840E+03  0.44041890117E+03  0.00000000000E+00 0.  1.
          1    1    6    6  503    0  0.58163056819E+01  0.56337403830E+02 -0.17711948016E+03  0.18595441036E+03  0.00000000000E+00 0. -1.
         -1    1    6    6    0  503  0.18711409694E+01 -0.16822226878E+02 -0.62512546174E+00  0.16937510664E+02  0.00000000000E+00 0.  1.
<mgrwt>
<rscale>  0 0.18583386E+04</rscale>
<asrwt>0</asrwt>
<pdfrwt beam="1">  1        1 0.39237294E+00 0.18583386E+04</pdfrwt>
<pdfrwt beam="2">  1       -1 0.29718543E+00 0.18583386E+04</pdfrwt>
<totfact> 0.38800388E-02</totfact>
</mgrwt>
</event>
<event>
12    1  0.3147868E-008  0.1590853E+04  0.7818608E-02  0.8826187E-01
         -1   -1    0    0    0  501 -0.00000000000E+00  0.00000000000E+00  0.12699588509E+04  0.12699588509E+04  0.00000000000E+00 0.  1.
          1   -1    0    0  501    0  0.00000000000E+00 -0.00000000000E+00 -0.23906933869E+04  0.23906933869E+04  0.00000000000E+00 0. -1.
         23    2    1    2    0    0 -0.15148264525E+04  0.39851212035E+03 -0.12096054562E+04  0.19810437842E+04  0.88758233135E+02 0.  0.
    5000000    2    1    2    0    0  0.15148264525E+04 -0.39851212035E+03  0.88870920248E+02  0.16796084535E+04  0.59972946026E+03 0.  0.
         23    2    4    4    0    0  0.85331993927E+03 -0.40642183486E+03 -0.16820939106E+03  0.96394794849E+03  0.86992077525E+02 0.  0.
         23    2    4    4    0    0  0.66150651323E+03  0.79097145087E+01  0.25708031131E+03  0.71566050505E+03  0.91794560873E+02 0.  0.
          5    1    3    3  502    0 -0.14230167646E+04  0.35536135814E+03 -0.11173336939E+04  0.18438316302E+04  0.47000000000E+01 0. -1.
         -5    1    3    3    0  502 -0.91809687932E+02  0.43150762203E+02 -0.92271762303E+02  0.13721215396E+03  0.47000000000E+01 0.  1.
         13    1    5    5    0    0  0.15636037933E+03 -0.10491085518E+03 -0.55078850327E+02  0.19618495231E+03  0.00000000000E+00 0. -1.
        -13    1    5    5    0    0  0.69695955994E+03 -0.30151097967E+03 -0.11313054074E+03  0.76776299618E+03  0.00000000000E+00 0.  1.
          1    1    6    6  503    0  0.25325447843E+03 -0.33255822717E+02  0.12667421273E+03  0.28511425212E+03  0.00000000000E+00 0. -1.
         -1    1    6    6    0  503  0.40825203480E+03  0.41165537226E+02  0.13040609858E+03  0.43054625294E+03  0.00000000000E+00 0.  1.
<mgrwt>
<rscale>  0 0.15908528E+04</rscale>
<asrwt>0</asrwt>
<pdfrwt beam="1">  1        1 0.36779898E+00 0.15908528E+04</pdfrwt>
<pdfrwt beam="2">  1       -1 0.19537829E+00 0.15908528E+04</pdfrwt>
<totfact> 0.24447101E-01</totfact>
</mgrwt>
</event>
<event>
12    1  0.3147868E-008  0.5901134E+03  0.7818608E-02  0.9926133E-01
         -2   -1    0    0    0  501 -0.00000000000E+00  0.00000000000E+00  0.24105669305E+03  0.24105669305E+03  0.00000000000E+00 0.  1.
          2   -1    0    0  501    0  0.00000000000E+00 -0.00000000000E+00 -0.16647392519E+04  0.16647392519E+04  0.00000000000E+00 0. -1.
         23    2    1    2    0    0  0.34387575568E+03  0.33766956114E+03 -0.65651795684E+03  0.81904239744E+03  0.86852480008E+02 0.  0.
    5000000    2    1    2    0    0 -0.34387575568E+03 -0.33766956114E+03 -0.76716460205E+03  0.10867535476E+04  0.60018370407E+03 0.  0.
         23    2    4    4    0    0 -0.45687182903E+03 -0.21144928894E+03 -0.33040091876E+03  0.60949977877E+03  0.94247245257E+02 0.  0.
         23    2    4    4    0    0  0.11299607335E+03 -0.12622027219E+03 -0.43676368329E+03  0.47725376880E+03  0.91153579639E+02 0.  0.
          5    1    3    3  502    0  0.25394066833E+03  0.28908461811E+03 -0.55085846093E+03  0.67195454715E+03  0.47000000000E+01 0. -1.
         -5    1    3    3    0  502  0.89935087351E+02  0.48584943023E+02 -0.10565949591E+03  0.14708785029E+03  0.47000000000E+01 0.  1.
         13    1    5    5    0    0 -0.19918972079E+03 -0.68875319281E+02 -0.18781341435E+03  0.28230167035E+03  0.00000000000E+00 0. -1.
        -13    1    5    5    0    0 -0.25768210825E+03 -0.14257396966E+03 -0.14258750441E+03  0.32719810841E+03  0.00000000000E+00 0.  1.
          3    1    6    6  503    0  0.79001855052E+02 -0.27868722455E+02 -0.24715708705E+03  0.26096855073E+03  0.00000000000E+00 0. -1.
         -3    1    6    6    0  503  0.33994218299E+02 -0.98351549737E+02 -0.18960659625E+03  0.21628521807E+03  0.00000000000E+00 0.  1.
<mgrwt>
<rscale>  0 0.59011342E+03</rscale>
<asrwt>0</asrwt>
<pdfrwt beam="1">  1        2 0.25611374E+00 0.59011342E+03</pdfrwt>
<pdfrwt beam="2">  1       -2 0.37085644E-01 0.59011342E+03</pdfrwt>
<totfact> 0.73221458E+01</totfact>
</mgrwt>
</event>
<event>
12    1  0.3147868E-008  0.3877630E+03  0.7818608E-02  0.1048101E+00
          2   -1    0    0  501    0  0.00000000000E+00  0.00000000000E+00  0.21590437299E+04  0.21590437299E+04  0.00000000000E+00 0.  1.
         -2   -1    0    0    0  501 -0.00000000000E+00 -0.00000000000E+00 -0.12982254652E+03  0.12982254652E+03  0.00000000000E+00 0. -1.
         23    2    1    2    0    0 -0.20798089076E+03 -0.28193226978E+03  0.77514925538E+03  0.85521724711E+03  0.88308074232E+02 0.  0.
    5000000    2    1    2    0    0  0.20798089076E+03  0.28193226978E+03  0.12540719280E+04  0.14336490293E+04  0.59992606460E+03 0.  0.
         23    2    4    4    0    0 -0.49568566448E+01  0.11150366674E+02 -0.33184471919E+02  0.98154080359E+02  0.91564803335E+02 0.  0.
         23    2    4    4    0    0  0.21293774741E+03  0.27078190311E+03  0.12872563999E+04  0.13354949489E+04  0.88613747367E+02 0.  0.
          5    1    3    3  502    0 -0.15536416599E+03 -0.24796566700E+03  0.57105058470E+03  0.64167426033E+03  0.47000000000E+01 0. -1.
         -5    1    3    3    0  502 -0.52616724775E+02 -0.33966602784E+02  0.20409867068E+03  0.21354298679E+03  0.47000000000E+01 0.  1.
         13    1    5    5    0    0 -0.27288421050E+02 -0.15494172093E+02 -0.50391435621E+02  0.59363491105E+02  0.00000000000E+00 0.  1.
        -13    1    5    5    0    0  0.22331564405E+02  0.26644538767E+02  0.17206963701E+02  0.38790589254E+02  0.00000000000E+00 0. -1.
          4    1    6    6  503    0 -0.36348438842E+01 -0.30864338088E+01  0.69147911376E+01  0.83995535712E+01  0.00000000000E+00 0. -1.
         -4    1    6    6    0  503  0.21657259129E+03  0.27386833691E+03  0.12803416088E+04  0.13270953954E+04  0.00000000000E+00 0.  1.
<mgrwt>
<rscale>  0 0.38776301E+03</rscale>
<asrwt>0</asrwt>
<pdfrwt beam="1">  1        2 0.33216055E+00 0.38776301E+03</pdfrwt>
<pdfrwt beam="2">  1       -2 0.19972701E-01 0.38776301E+03</pdfrwt>
<totfact> 0.12625890E+02</totfact>
</mgrwt>
</event>
<event>
12    1  0.3147868E-008  0.4312920E+03  0.7818608E-02  0.1033453E+00
          2   -1    0    0  501    0  0.00000000000E+00  0.00000000000E+00  0.16053167465E+03  0.16053167465E+03  0.00000000000E+00 0. -1.
         -2   -1    0    0    0  501 -0.00000000000E+00 -0.00000000000E+00 -0.16555771079E+04  0.16555771079E+04  0.00000000000E+00 0.  1.
         23    2    1    2    0    0 -0.23644493826E+03  0.20058485089E+03 -0.28802713550E+03  0.43300841354E+03  0.91630585372E+02 0.  0.
    5000000    2    1    2    0    0  0.23644493826E+03 -0.20058485089E+03 -0.12070182978E+04  0.13831003690E+04  0.59994413778E+03 0.  0.
         23    2    4    4    0    0  0.20695462565E+03  0.11316421859E+03 -0.19525683469E+03  0.31947211002E+03  0.91108946534E+02 0.  0.
         23    2    4    4    0    0  0.29490312602E+02 -0.31374906948E+03 -0.10117614631E+04  0.10636282590E+04  0.91299825146E+02 0.  0.
          5    1    3    3  502    0 -0.43433478681E+02  0.38830188520E+02 -0.12624932865E+02  0.59797404130E+02  0.47000000000E+01 0. -1.
         -5    1    3    3    0  502 -0.19301145957E+03  0.16175466237E+03 -0.27540220264E+03  0.37321100941E+03  0.47000000000E+01 0.  1.
         13    1    5    5    0    0  0.12412376831E+02  0.14204241617E+02 -0.59531303083E+02  0.62448407708E+02  0.00000000000E+00 0. -1.
        -13    1    5    5    0    0  0.19454224882E+03  0.98959976976E+02 -0.13572553160E+03  0.25702370231E+03  0.00000000000E+00 0.  1.
          1    1    6    6  503    0  0.25151145519E+02 -0.26988663174E+03 -0.94889288434E+03  0.98684805318E+03  0.00000000000E+00 0. -1.
         -1    1    6    6    0  503  0.43391670831E+01 -0.43862437746E+02 -0.62868578733E+02  0.76780205834E+02  0.00000000000E+00 0.  1.
<mgrwt>
<rscale>  0 0.43129197E+03</rscale>
<asrwt>0</asrwt>
<pdfrwt beam="1">  1        2 0.24697181E-01 0.43129197E+03</pdfrwt>
<pdfrwt beam="2">  1       -2 0.25470417E+00 0.43129197E+03</pdfrwt>
<totfact> 0.14272825E+01</totfact>
</mgrwt>
</event>
<event>
12    1  0.3147868E-008  0.8579395E+03  0.7818608E-02  0.9479742E-01
          2   -1    0    0  501    0  0.00000000000E+00  0.00000000000E+00  0.18795613659E+04  0.18795613659E+04  0.00000000000E+00 0.  1.
         -2   -1    0    0    0  501 -0.00000000000E+00 -0.00000000000E+00 -0.54428641533E+03  0.54428641533E+03  0.00000000000E+00 0. -1.
         23    2    1    2    0    0 -0.12421625092E+03 -0.75096079496E+03 -0.89188156399E+01  0.76673413692E+03  0.91814480826E+02 0.  0.
    5000000    2    1    2    0    0  0.12421625092E+03  0.75096079496E+03  0.13441937662E+04  0.16571136443E+04  0.59983077319E+03 0.  0.
         23    2    4    4    0    0 -0.20481288114E+03  0.14339868320E+03  0.46314364704E+03  0.53402529988E+03  0.90385200634E+02 0.  0.
         23    2    4    4    0    0  0.32902913207E+03  0.60756211176E+03  0.88105011917E+03  0.11230883444E+04  0.87671132628E+02 0.  0.
          5    1    3    3  502    0 -0.78440018797E+02 -0.64852231735E+03 -0.22259927821E+02  0.65364487838E+03  0.47000000000E+01 0. -1.
         -5    1    3    3    0  502 -0.45776232126E+02 -0.10243847761E+03  0.13341112181E+02  0.11308925854E+03  0.47000000000E+01 0.  1.
         13    1    5    5    0    0 -0.13933565114E+03  0.12617901781E+03  0.39758049929E+03  0.43977928740E+03  0.00000000000E+00 0.  1.
        -13    1    5    5    0    0 -0.65477230002E+02  0.17219665390E+02  0.65563147752E+02  0.94246012478E+02  0.00000000000E+00 0. -1.
          3    1    6    6  503    0  0.11585810088E+03  0.14732305588E+03  0.27506090858E+03  0.33284483737E+03  0.00000000000E+00 0. -1.
         -3    1    6    6    0  503  0.21317103119E+03  0.46023905588E+03  0.60598921059E+03  0.79024350706E+03  0.00000000000E+00 0.  1.
<mgrwt>
<rscale>  0 0.85793945E+03</rscale>
<asrwt>0</asrwt>
<pdfrwt beam="1">  1        2 0.28916328E+00 0.85793945E+03</pdfrwt>
<pdfrwt beam="2">  1       -2 0.83736373E-01 0.85793945E+03</pdfrwt>
<totfact> 0.98852210E+00</totfact>
</mgrwt>
</event>
<event>
12    1  0.3147868E-008  0.1022324E+04  0.7818608E-02  0.9284394E-01
          2   -1    0    0  501    0  0.00000000000E+00  0.00000000000E+00  0.31566338793E+04  0.31566338793E+04  0.00000000000E+00 0. -1.
         -2   -1    0    0    0  501 -0.00000000000E+00 -0.00000000000E+00 -0.38132228647E+03  0.38132228647E+03  0.00000000000E+00 0.  1.
         23    2    1    2    0    0  0.36258061033E+03 -0.94555329607E+03  0.12743961356E+04  0.16305192059E+04  0.94718717589E+02 0.  0.
    5000000    2    1    2    0    0 -0.36258061033E+03  0.94555329607E+03  0.15009154572E+04  0.19074369599E+04  0.60002734242E+03 0.  0.
         23    2    4    4    0    0 -0.26621136984E+03  0.73947688276E+03  0.14581599205E+04  0.16592134448E+04  0.95206870310E+02 0.  0.
         23    2    4    4    0    0 -0.96369240490E+02  0.20607641331E+03  0.42755536722E+02  0.24822351510E+03  0.89623428274E+02 0.  0.
          5    1    3    3  502    0  0.10500756522E+03 -0.38710676750E+03  0.53832807983E+03  0.67134004031E+03  0.47000000000E+01 0. -1.
         -5    1    3    3    0  502  0.25757304511E+03 -0.55844652857E+03  0.73606805581E+03  0.95917916555E+03  0.47000000000E+01 0.  1.
         11    1    5    5    0    0 -0.16021003659E+03  0.43020833603E+03  0.94770297118E+03  0.10530372215E+04  0.00000000000E+00 0.  1.
        -11    1    5    5    0    0 -0.10600133325E+03  0.30926854673E+03  0.51045694927E+03  0.60617622331E+03  0.00000000000E+00 0. -1.
          4    1    6    6  503    0 -0.66954021379E+02  0.49659259435E+02 -0.23632318846E+00  0.83360295556E+02  0.00000000000E+00 0. -1.
         -4    1    6    6    0  503 -0.29415219111E+02  0.15641715387E+03  0.42991859910E+02  0.16486321955E+03  0.00000000000E+00 0.  1.
<mgrwt>
<rscale>  0 0.10223235E+04</rscale>
<asrwt>0</asrwt>
<pdfrwt beam="1">  1        2 0.48563597E+00 0.10223235E+04</pdfrwt>
<pdfrwt beam="2">  1       -2 0.58664969E-01 0.10223235E+04</pdfrwt>
<totfact> 0.38464259E+00</totfact>
</mgrwt>
</event>
<event>
12    1  0.3147868E-008  0.1370680E+04  0.7818608E-02  0.8975319E-01
         -2   -1    0    0    0  501 -0.00000000000E+00  0.00000000000E+00  0.18893593712E+04  0.18893593712E+04  0.00000000000E+00 0.  1.
          2   -1    0    0  501    0  0.00000000000E+00 -0.00000000000E+00 -0.10511670309E+04  0.10511670309E+04  0.00000000000E+00 0. -1.
         23    2    1    2    0    0 -0.63948955716E+03 -0.11577103626E+04  0.64899405773E+03  0.14758985059E+04  0.88560349061E+02 0.  0.
    5000000    2    1    2    0    0  0.63948955716E+03  0.11577103626E+04  0.18919828260E+03  0.14646278962E+04  0.60008225006E+03 0.  0.
         23    2    4    4    0    0  0.68749599011E+03  0.11487878376E+04  0.14477054572E+03  0.13490639177E+04  0.81551889733E+02 0.  0.
         23    2    4    4    0    0 -0.48006432956E+02  0.89225249362E+01  0.44427736880E+02  0.11556397852E+03  0.94852413105E+02 0.  0.
          5    1    3    3  502    0 -0.34750297513E+03 -0.67781326507E+03  0.41411754901E+03  0.86700898174E+03  0.47000000000E+01 0. -1.
         -5    1    3    3    0  502 -0.29198658203E+03 -0.47989709749E+03  0.23487650872E+03  0.60888952415E+03  0.47000000000E+01 0.  1.
         13    1    5    5    0    0  0.35544358377E+03  0.55984078111E+03  0.34649774920E+02  0.66405003452E+03  0.00000000000E+00 0. -1.
        -13    1    5    5    0    0  0.33205240634E+03  0.58894705651E+03  0.11012077080E+03  0.68501388314E+03  0.00000000000E+00 0.  1.
          4    1    6    6  503    0 -0.55299115228E+02  0.25217349388E+02 -0.69494517949E+01  0.61173537869E+02  0.00000000000E+00 0.  1.
         -4    1    6    6    0  503  0.72926822716E+01 -0.16294824452E+02  0.51377188674E+02  0.54390440656E+02  0.00000000000E+00 0. -1.
<mgrwt>
<rscale>  0 0.13706802E+04</rscale>
<asrwt>0</asrwt>
<pdfrwt beam="1">  1        2 0.16171800E+00 0.13706802E+04</pdfrwt>
<pdfrwt beam="2">  1       -2 0.29067067E+00 0.13706802E+04</pdfrwt>
<totfact> 0.81215537E-01</totfact>
</mgrwt>
</event>
<event>
12    1  0.3147868E-008  0.7503153E+03  0.7818608E-02  0.9634856E-01
          2   -1    0    0  501    0  0.00000000000E+00  0.00000000000E+00  0.89199937806E+03  0.89199937806E+03  0.00000000000E+00 0.  1.
         -2   -1    0    0    0  501 -0.00000000000E+00 -0.00000000000E+00 -0.79697101640E+03  0.79697101640E+03  0.00000000000E+00 0. -1.
         23    2    1    2    0    0  0.45491661471E+03  0.52665009799E+03 -0.18960445266E+03  0.72703203911E+03  0.91193669562E+02 0.  0.
    5000000    2    1    2    0    0 -0.45491661471E+03 -0.52665009799E+03  0.28463281433E+03  0.96193835535E+03  0.60000009038E+03 0.  0.
         23    2    4    4    0    0 -0.11979787182E+03  0.23222769462E+02  0.27100662699E+03  0.31117463010E+03  0.92164154811E+02 0.  0.
         23    2    4    4    0    0 -0.33511874289E+03 -0.54987286745E+03  0.13626187342E+02  0.65076372525E+03  0.92967795121E+02 0.  0.
          5    1    3    3  502    0  0.29025060780E+03  0.27668661139E+03 -0.85145611164E+02  0.40996678080E+03  0.47000000000E+01 0. -1.
         -5    1    3    3    0  502  0.16466600690E+03  0.24996348659E+03 -0.10445884150E+03  0.31706525831E+03  0.47000000000E+01 0.  1.
         13    1    5    5    0    0 -0.70601607980E+02  0.56580706637E+02  0.19252404029E+03  0.21272392790E+03  0.00000000000E+00 0.  1.
        -13    1    5    5    0    0 -0.49196263837E+02 -0.33357937174E+02  0.78482586702E+02  0.98450702199E+02  0.00000000000E+00 0. -1.
          1    1    6    6  503    0 -0.25242716188E+03 -0.33042136416E+03 -0.73366922764E+00  0.41581039937E+03  0.00000000000E+00 0. -1.
         -1    1    6    6    0  503 -0.82691581012E+02 -0.21945150329E+03  0.14359856569E+02  0.23495332589E+03  0.00000000000E+00 0.  1.
<mgrwt>
<rscale>  0 0.75031535E+03</rscale>
<asrwt>0</asrwt>
<pdfrwt beam="1">  1        2 0.13723067E+00 0.75031535E+03</pdfrwt>
<pdfrwt beam="2">  1       -2 0.12261093E+00 0.75031535E+03</pdfrwt>
<totfact> 0.15176287E+01</totfact>
</mgrwt>
</event>
<event>
12    1  0.3147868E-008  0.6523383E+03  0.7818608E-02  0.9802401E-01
         -2   -1    0    0    0  501 -0.00000000000E+00  0.00000000000E+00  0.13706066907E+03  0.13706066907E+03  0.00000000000E+00 0.  1.
          2   -1    0    0  501    0  0.00000000000E+00 -0.00000000000E+00 -0.36149936753E+04  0.36149936753E+04  0.00000000000E+00 0. -1.
         23    2    1    2    0    0 -0.47872099106E+03 -0.20419575445E+03 -0.20620101122E+04  0.21286231944E+04  0.91001688850E+02 0.  0.
    5000000    2    1    2    0    0  0.47872099106E+03  0.20419575445E+03 -0.14159228941E+04  0.16234311501E+04  0.59985111781E+03 0.  0.
         23    2    4    4    0    0  0.46208396193E+03 -0.92290887531E+02 -0.78229203025E+03  0.91772282418E+03  0.90527154106E+02 0.  0.
         23    2    4    4    0    0  0.16637029127E+02  0.29648664198E+03 -0.63363086384E+03  0.70570832587E+03  0.91405962544E+02 0.  0.
          5    1    3    3  502    0 -0.31615786816E+03 -0.10303231654E+03 -0.11739424128E+04  0.12201370146E+04  0.47000000000E+01 0. -1.
         -5    1    3    3    0  502 -0.16256312290E+03 -0.10116343790E+03 -0.88806769936E+03  0.90848617972E+03  0.47000000000E+01 0.  1.
         13    1    5    5    0    0  0.40768863410E+03 -0.77422441434E+02 -0.73530931691E+03  0.84432461077E+03  0.00000000000E+00 0.  1.
        -13    1    5    5    0    0  0.54395327834E+02 -0.14868446097E+02 -0.46982713341E+02  0.73398213414E+02  0.00000000000E+00 0. -1.
          1    1    6    6  503    0 -0.35484507643E+02  0.13146805151E+03 -0.31349376701E+03  0.34179137029E+03  0.00000000000E+00 0. -1.
         -1    1    6    6    0  503  0.52121536769E+02  0.16501859047E+03 -0.32013709682E+03  0.36391695558E+03  0.00000000000E+00 0.  1.
<mgrwt>
<rscale>  0 0.65233833E+03</rscale>
<asrwt>0</asrwt>
<pdfrwt beam="1">  1        2 0.55615289E+00 0.65233833E+03</pdfrwt>
<pdfrwt beam="2">  1       -2 0.21086256E-01 0.65233833E+03</pdfrwt>
<totfact> 0.14456250E+01</totfact>
</mgrwt>
</event>
<event>
12    1  0.3147868E-008  0.7198599E+03  0.7818608E-02  0.9683859E-01
          2   -1    0    0  501    0  0.00000000000E+00  0.00000000000E+00  0.21982234129E+04  0.21982234129E+04  0.00000000000E+00 0.  1.
         -2   -1    0    0    0  501 -0.00000000000E+00 -0.00000000000E+00 -0.36941623105E+03  0.36941623105E+03  0.00000000000E+00 0. -1.
         23    2    1    2    0    0 -0.58338309243E+03  0.25715485259E+03  0.13097923212E+03  0.65731708952E+03  0.91900740978E+02 0.  0.
    5000000    2    1    2    0    0  0.58338309243E+03 -0.25715485259E+03  0.16978279497E+04  0.19103225544E+04  0.60020668470E+03 0.  0.
         23    2    4    4    0    0  0.64714934456E+03 -0.29460949701E+03  0.11927131070E+04  0.13913282620E+04  0.87365595013E+02 0.  0.
         23    2    4    4    0    0 -0.63766252136E+02  0.37454644421E+02  0.50511484276E+03  0.51899429244E+03  0.93515164058E+02 0.  0.
          5    1    3    3  502    0 -0.46805818724E+03  0.16699423106E+03  0.11389951611E+03  0.50986344213E+03  0.47000000000E+01 0. -1.
         -5    1    3    3    0  502 -0.11532490519E+03  0.90160621529E+02  0.17079716012E+02  0.14745364740E+03  0.47000000000E+01 0.  1.
         11    1    5    5    0    0  0.42967760564E+03 -0.23278529023E+03  0.77084428301E+03  0.91269531870E+03  0.00000000000E+00 0. -1.
        -11    1    5    5    0    0  0.21747173892E+03 -0.61824206783E+02  0.42186882395E+03  0.47863294329E+03  0.00000000000E+00 0.  1.
          3    1    6    6  503    0 -0.20879248414E+02 -0.46673226307E+01  0.17367093770E+02  0.27556176456E+02  0.00000000000E+00 0. -1.
         -3    1    6    6    0  503 -0.42887003722E+02  0.42121967052E+02  0.48774774899E+03  0.49143811599E+03  0.00000000000E+00 0.  1.
<mgrwt>
<rscale>  0 0.71985986E+03</rscale>
<asrwt>0</asrwt>
<pdfrwt beam="1">  1        2 0.33818821E+00 0.71985986E+03</pdfrwt>
<pdfrwt beam="2">  1       -2 0.56833267E-01 0.71985986E+03</pdfrwt>
<totfact> 0.15688450E+01</totfact>
</mgrwt>
</event>
<event>
12    1  0.3147868E-008  0.7914809E+03  0.7818608E-02  0.9572431E-01
         -2   -1    0    0    0  501 -0.00000000000E+00  0.00000000000E+00  0.56499970742E+03  0.56499970742E+03  0.00000000000E+00 0.  1.
          2   -1    0    0  501    0  0.00000000000E+00 -0.00000000000E+00 -0.26604714007E+04  0.26604714007E+04  0.00000000000E+00 0. -1.
         23    2    1    2    0    0 -0.50104779418E+03  0.53099663034E+03 -0.21564747284E+04  0.22785098462E+04  0.90650710234E+02 0.  0.
    5000000    2    1    2    0    0  0.50104779418E+03 -0.53099663034E+03  0.61003035097E+02  0.94696126201E+03  0.60000662327E+03 0.  0.
         23    2    4    4    0    0 -0.70205922550E+02 -0.15023782843E+03  0.15979710769E+03  0.24734171488E+03  0.90235977535E+02 0.  0.
         23    2    4    4    0    0  0.57125371673E+03 -0.38075880191E+03 -0.98794072595E+02  0.69961954713E+03  0.91646973951E+02 0.  0.
          5    1    3    3  502    0 -0.40673434371E+03  0.43675019707E+03 -0.18597691537E+04  0.19531889197E+04  0.47000000000E+01 0. -1.
         -5    1    3    3    0  502 -0.94313450465E+02  0.94246433275E+02 -0.29670557471E+03  0.32532092645E+03  0.47000000000E+01 0.  1.
         11    1    5    5    0    0 -0.65173427270E+02 -0.14391294787E+03  0.17146375425E+03  0.23314873194E+03  0.00000000000E+00 0.  1.
        -11    1    5    5    0    0 -0.50324952796E+01 -0.63248805637E+01 -0.11666646555E+02  0.14192982940E+02  0.00000000000E+00 0. -1.
          4    1    6    6  503    0  0.30711584557E+03 -0.21279885413E+03 -0.99287880398E+02  0.38660261007E+03  0.00000000000E+00 0. -1.
         -4    1    6    6    0  503  0.26413787115E+03 -0.16795994778E+03  0.49380780278E+00  0.31301693705E+03  0.00000000000E+00 0.  1.
<mgrwt>
<rscale>  0 0.79148093E+03</rscale>
<asrwt>0</asrwt>
<pdfrwt beam="1">  1        2 0.40930329E+00 0.79148093E+03</pdfrwt>
<pdfrwt beam="2">  1       -2 0.86923033E-01 0.79148093E+03</pdfrwt>
<totfact> 0.33606689E+00</totfact>
</mgrwt>
</event>
<event>
12    1  0.3147868E-008  0.3718736E+03  0.7818608E-02  0.1053979E+00
         -1   -1    0    0    0  501 -0.00000000000E+00  0.00000000000E+00  0.13933435207E+03  0.13933435207E+03  0.00000000000E+00 0.  1.
          1   -1    0    0  501    0  0.00000000000E+00 -0.00000000000E+00 -0.13034217762E+04  0.13034217762E+04  0.00000000000E+00 0. -1.
         23    2    1    2    0    0  0.60823127348E+02  0.17310898165E+03 -0.43299864568E+03  0.47932588637E+03  0.92732442188E+02 0.  0.
    5000000    2    1    2    0    0 -0.60823127348E+02 -0.17310898165E+03 -0.73108877847E+03  0.96343024192E+03  0.60003404627E+03 0.  0.
         23    2    4    4    0    0 -0.21083312311E+03 -0.26677449469E+03 -0.67197688425E+03  0.75815389488E+03  0.87322153781E+02 0.  0.
         23    2    4    4    0    0  0.15000999577E+03  0.93665513041E+02 -0.59111894219E+02  0.20527634703E+03  0.85836678926E+02 0.  0.
          5    1    3    3  502    0  0.81406159044E+02  0.14049656895E+03 -0.30501462787E+03  0.34557526218E+03  0.47000000000E+01 0. -1.
         -5    1    3    3    0  502 -0.20583031695E+02  0.32612412702E+02 -0.12798401781E+03  0.13375062419E+03  0.47000000000E+01 0.  1.
         13    1    5    5    0    0 -0.11082441559E+03 -0.89682479563E+02 -0.21512646226E+03  0.25807826913E+03  0.00000000000E+00 0.  1.
        -13    1    5    5    0    0 -0.10000870752E+03 -0.17709201513E+03 -0.45685042199E+03  0.50007562575E+03  0.00000000000E+00 0. -1.
          2    1    6    6  503    0  0.15935257491E+03  0.76055323290E+02 -0.54802030267E+02  0.18488082067E+03  0.00000000000E+00 0. -1.
         -2    1    6    6    0  503 -0.93425791439E+01  0.17610189751E+02 -0.43098639515E+01  0.20395526358E+02  0.00000000000E+00 0.  1.
<mgrwt>
<rscale>  0 0.37187364E+03</rscale>
<asrwt>0</asrwt>
<pdfrwt beam="1">  1        1 0.20052642E+00 0.37187364E+03</pdfrwt>
<pdfrwt beam="2">  1       -1 0.21436055E-01 0.37187364E+03</pdfrwt>
<totfact> 0.17309843E+02</totfact>
</mgrwt>
</event>
<event>
12    1  0.3147868E-008  0.1079329E+04  0.7818608E-02  0.9225577E-01
          2   -1    0    0  501    0  0.00000000000E+00  0.00000000000E+00  0.10408281621E+04  0.10408281621E+04  0.00000000000E+00 0. -1.
         -2   -1    0    0    0  501 -0.00000000000E+00 -0.00000000000E+00 -0.11936464751E+04  0.11936464751E+04  0.00000000000E+00 0.  1.
         23    2    1    2    0    0 -0.95733158569E+03  0.35674895640E+03 -0.21526174522E+03  0.10479572198E+04  0.90128423185E+02 0.  0.
    5000000    2    1    2    0    0  0.95733158569E+03 -0.35674895640E+03  0.62443432213E+02  0.11865174174E+04  0.60014233047E+03 0.  0.
         23    2    4    4    0    0 -0.30464821584E+02 -0.32651194744E+02  0.98254219695E+02  0.14226305237E+03  0.92685913224E+02 0.  0.
         23    2    4    4    0    0  0.98779640727E+03 -0.32409776165E+03 -0.35810787483E+02  0.10442543651E+04  0.91671506684E+02 0.  0.
          5    1    3    3  502    0 -0.29188696145E+03  0.10130723220E+03 -0.10685264138E+03  0.32695677166E+03  0.47000000000E+01 0. -1.
         -5    1    3    3    0  502 -0.66544462424E+03  0.25544172419E+03 -0.10840910384E+03  0.72100044812E+03  0.47000000000E+01 0.  1.
         11    1    5    5    0    0 -0.54584229701E+02 -0.42633112605E+02  0.43997574182E+02  0.82053683380E+02  0.00000000000E+00 0.  1.
        -11    1    5    5    0    0  0.24119408117E+02  0.99819178606E+01  0.54256645514E+02  0.60209368992E+02  0.00000000000E+00 0. -1.
          2    1    6    6  503    0  0.47811628006E+03 -0.12399630004E+03  0.16493540715E+02  0.49420875808E+03  0.00000000000E+00 0. -1.
         -2    1    6    6    0  503  0.50968012722E+03 -0.20010146162E+03 -0.52304328198E+02  0.55004560699E+03  0.00000000000E+00 0.  1.
<mgrwt>
<rscale>  0 0.10793289E+04</rscale>
<asrwt>0</asrwt>
<pdfrwt beam="1">  1        2 0.16012741E+00 0.10793289E+04</pdfrwt>
<pdfrwt beam="2">  1       -2 0.18363792E+00 0.10793289E+04</pdfrwt>
<totfact> 0.39933883E+00</totfact>
</mgrwt>
</event>
<event>
12    1  0.3147868E-008  0.7591200E+03  0.7818608E-02  0.9621150E-01
          2   -1    0    0  501    0  0.00000000000E+00  0.00000000000E+00  0.35413623827E+04  0.35413623827E+04  0.00000000000E+00 0. -1.
         -2   -1    0    0    0  501 -0.00000000000E+00 -0.00000000000E+00 -0.18525667886E+03  0.18525667886E+03  0.00000000000E+00 0.  1.
         23    2    1    2    0    0  0.68005171787E+03 -0.13822211620E+03  0.13470402003E+04  0.15178887984E+04  0.88844869320E+02 0.  0.
    5000000    2    1    2    0    0 -0.68005171787E+03  0.13822211620E+03  0.20090655035E+04  0.22087302631E+04  0.60047438362E+03 0.  0.
         23    2    4    4    0    0 -0.48112997247E+03  0.27828217877E+03  0.17600742300E+04  0.18482033814E+04  0.95223014035E+02 0.  0.
         23    2    4    4    0    0 -0.19892174540E+03 -0.14006006257E+03  0.24899127353E+03  0.36052688174E+03  0.93788572044E+02 0.  0.
          5    1    3    3  502    0  0.14764286101E+03 -0.62683831144E+02  0.35132071923E+03  0.38623310947E+03  0.47000000000E+01 0. -1.
         -5    1    3    3    0  502  0.53240885686E+03 -0.75538285054E+02  0.99571948103E+03  0.11316556889E+04  0.47000000000E+01 0.  1.
         11    1    5    5    0    0 -0.43092263579E+02  0.55010204584E+02  0.28079377570E+03  0.28935827319E+03  0.00000000000E+00 0. -1.
        -11    1    5    5    0    0 -0.43803770889E+03  0.22327197418E+03  0.14792804543E+04  0.15588451082E+04  0.00000000000E+00 0.  1.
          1    1    6    6  503    0 -0.52454250764E+02 -0.89102564185E+02  0.12324957158E+03  0.16087626382E+03  0.00000000000E+00 0. -1.
         -1    1    6    6    0  503 -0.14646749463E+03 -0.50957498385E+02  0.12574170195E+03  0.19965061792E+03  0.00000000000E+00 0.  1.
<mgrwt>
<rscale>  0 0.75912003E+03</rscale>
<asrwt>0</asrwt>
<pdfrwt beam="1">  1        2 0.54482493E+00 0.75912003E+03</pdfrwt>
<pdfrwt beam="2">  1       -2 0.28501030E-01 0.75912003E+03</pdfrwt>
<totfact> 0.92572063E+00</totfact>
</mgrwt>
</event>
<event>
12    1  0.3147868E-008  0.5957619E+03  0.7818608E-02  0.9914238E-01
          1   -1    0    0  501    0  0.00000000000E+00  0.00000000000E+00  0.41552436562E+03  0.41552436562E+03  0.00000000000E+00 0. -1.
         -1   -1    0    0    0  501 -0.00000000000E+00 -0.00000000000E+00 -0.91908819833E+03  0.91908819833E+03  0.00000000000E+00 0.  1.
         23    2    1    2    0    0  0.43898788852E+03  0.13248928543E+03 -0.10975736896E+03  0.48297110097E+03  0.10464524506E+03 0.  0.
    5000000    2    1    2    0    0 -0.43898788852E+03 -0.13248928543E+03 -0.39380646375E+03  0.85164146297E+03  0.59995489293E+03 0.  0.
         23    2    4    4    0    0 -0.34505276493E+03  0.18846616412E+03 -0.26314305184E+03  0.48143365256E+03  0.89180662016E+02 0.  0.
         23    2    4    4    0    0 -0.93935123583E+02 -0.32095544955E+03 -0.13066341191E+03  0.37020781041E+03  0.90247923195E+02 0.  0.
          5    1    3    3  502    0  0.21779536185E+03  0.62538855941E+02 -0.10768061250E+03  0.25092455530E+03  0.47000000000E+01 0. -1.
         -5    1    3    3    0  502  0.22119252667E+03  0.69950429486E+02 -0.20767564589E+01  0.23204654567E+03  0.47000000000E+01 0.  1.
         13    1    5    5    0    0 -0.94638250543E+02  0.74724101320E+02 -0.39313599428E+02  0.12682921148E+03  0.00000000000E+00 0. -1.
        -13    1    5    5    0    0 -0.25041451439E+03  0.11374206280E+03 -0.22382945242E+03  0.35460444108E+03  0.00000000000E+00 0.  1.
          3    1    6    6  503    0 -0.74633940176E+02 -0.17862280518E+03 -0.32660816726E+02  0.19632386637E+03  0.00000000000E+00 0. -1.
         -3    1    6    6    0  503 -0.19301183407E+02 -0.14233264437E+03 -0.98002595181E+02  0.17388394404E+03  0.00000000000E+00 0.  1.
<mgrwt>
<rscale>  0 0.59576194E+03</rscale>
<asrwt>0</asrwt>
<pdfrwt beam="1">  1        1 0.63926826E-01 0.59576194E+03</pdfrwt>
<pdfrwt beam="2">  1       -1 0.14139818E+00 0.59576194E+03</pdfrwt>
<totfact> 0.24276685E+01</totfact>
</mgrwt>
</event>
<event>
12    1  0.3147868E-008  0.5849336E+03  0.7818608E-02  0.9937167E-01
          1   -1    0    0  501    0  0.00000000000E+00  0.00000000000E+00  0.17318604116E+04  0.17318604116E+04  0.00000000000E+00 0. -1.
         -1   -1    0    0    0  501 -0.00000000000E+00 -0.00000000000E+00 -0.25092219853E+03  0.25092219853E+03  0.00000000000E+00 0.  1.
         23    2    1    2    0    0 -0.23582504368E+03  0.40470099821E+03  0.92450542459E+03  0.10403876820E+04  0.91103784666E+02 0.  0.
    5000000    2    1    2    0    0  0.23582504368E+03 -0.40470099821E+03  0.55643278847E+03  0.94239492811E+03  0.59924486086E+03 0.  0.
         23    2    4    4    0    0  0.34953532123E+03 -0.44347892556E+03  0.55019266628E+03  0.79331021682E+03  0.88207890139E+02 0.  0.
         23    2    4    4    0    0 -0.11371027755E+03  0.38777927345E+02  0.62401221898E+01  0.14908471129E+03  0.88054285214E+02 0.  0.
          5    1    3    3  502    0 -0.18821052819E+03  0.37456669053E+03  0.78657484413E+03  0.89131671363E+03  0.47000000000E+01 0.  1.
         -5    1    3    3    0  502 -0.47614515487E+02  0.30134307679E+02  0.13793058047E+03  0.14907096838E+03  0.47000000000E+01 0. -1.
         13    1    5    5    0    0  0.12556345799E+03 -0.20682753215E+03  0.19027278622E+03  0.30781088872E+03  0.00000000000E+00 0. -1.
        -13    1    5    5    0    0  0.22397186325E+03 -0.23665139340E+03  0.35991988006E+03  0.48549932810E+03  0.00000000000E+00 0.  1.
          4    1    6    6  503    0 -0.35579115093E+01 -0.63451659128E+01 -0.24983876263E+02  0.26021413065E+02  0.00000000000E+00 0. -1.
         -4    1    6    6    0  503 -0.11015236604E+03  0.45123093258E+02  0.31223998453E+02  0.12306329822E+03  0.00000000000E+00 0.  1.
<mgrwt>
<rscale>  0 0.58493362E+03</rscale>
<asrwt>0</asrwt>
<pdfrwt beam="1">  1        1 0.26644006E+00 0.58493362E+03</pdfrwt>
<pdfrwt beam="2">  1       -1 0.38603416E-01 0.58493362E+03</pdfrwt>
<totfact> 0.31199297E+01</totfact>
</mgrwt>
</event>
<event>
12    1  0.3147868E-008  0.7840632E+03  0.7818608E-02  0.9583376E-01
         -2   -1    0    0    0  501 -0.00000000000E+00  0.00000000000E+00  0.63572607801E+03  0.63572607801E+03  0.00000000000E+00 0.  1.
          2   -1    0    0  501    0  0.00000000000E+00 -0.00000000000E+00 -0.13575019516E+04  0.13575019516E+04  0.00000000000E+00 0. -1.
         23    2    1    2    0    0 -0.37116558075E+03 -0.68694367297E+03 -0.62320049994E+03  0.10032851330E+04  0.92448346915E+02 0.  0.
    5000000    2    1    2    0    0  0.37116558075E+03  0.68694367297E+03 -0.98575373678E+02  0.98994289662E+03  0.60051172854E+03 0.  0.
         23    2    4    4    0    0  0.11247456561E+03  0.29121080172E+03 -0.32344723521E+03  0.45846710152E+03  0.90109434935E+02 0.  0.
         23    2    4    4    0    0  0.25869101514E+03  0.39573287125E+03  0.22487186153E+03  0.53147579511E+03  0.91507485901E+02 0.  0.
          5    1    3    3  502    0 -0.10562788143E+03 -0.25375608657E+03 -0.17612475915E+03  0.32648341702E+03  0.47000000000E+01 0. -1.
         -5    1    3    3    0  502 -0.26553769932E+03 -0.43318758640E+03 -0.44707574079E+03  0.67680171600E+03  0.47000000000E+01 0.  1.
         11    1    5    5    0    0  0.49825344114E+02  0.12918437063E+03 -0.20806074644E+03  0.24992086896E+03  0.00000000000E+00 0. -1.
        -11    1    5    5    0    0  0.62649221497E+02  0.16202643108E+03 -0.11538648876E+03  0.20854623256E+03  0.00000000000E+00 0.  1.
          3    1    6    6  503    0  0.53017623098E+02  0.89955814526E+02  0.93759268785E+02  0.14033430589E+03  0.00000000000E+00 0. -1.
         -3    1    6    6    0  503  0.20567339204E+03  0.30577705673E+03  0.13111259274E+03  0.39114148922E+03  0.00000000000E+00 0.  1.
<mgrwt>
<rscale>  0 0.78406321E+03</rscale>
<asrwt>0</asrwt>
<pdfrwt beam="1">  1        2 0.20884645E+00 0.78406321E+03</pdfrwt>
<pdfrwt beam="2">  1       -2 0.97804014E-01 0.78406321E+03</pdfrwt>
<totfact> 0.13561243E+01</totfact>
</mgrwt>
</event>
<event>
12    1  0.3147868E-008  0.4460600E+03  0.7818608E-02  0.1028904E+00
         -1   -1    0    0    0  501 -0.00000000000E+00  0.00000000000E+00  0.36592991612E+03  0.36592991612E+03  0.00000000000E+00 0.  1.
          1   -1    0    0  501    0  0.00000000000E+00 -0.00000000000E+00 -0.58509628476E+03  0.58509628476E+03  0.00000000000E+00 0. -1.
         23    2    1    2    0    0 -0.10657168718E+03 -0.23091727869E+03 -0.26963864625E+02  0.27158496976E+03  0.91383979456E+02 0.  0.
    5000000    2    1    2    0    0  0.10657168718E+03  0.23091727869E+03 -0.19220250402E+03  0.67944123111E+03  0.60001522471E+03 0.  0.
         23    2    4    4    0    0  0.25883385709E+03  0.33986339688E+03 -0.84844305904E+02  0.44498510694E+03  0.91165207416E+02 0.  0.
         23    2    4    4    0    0 -0.15226216991E+03 -0.10894611819E+03 -0.10735819811E+03  0.23445612417E+03  0.91601672495E+02 0.  0.
          5    1    3    3  502    0 -0.62781373337E+02 -0.79954178173E+02 -0.48727027373E+02  0.11282989250E+03  0.47000000000E+01 0. -1.
         -5    1    3    3    0  502 -0.43790313839E+02 -0.15096310052E+03  0.21763162748E+02  0.15875507726E+03  0.47000000000E+01 0.  1.
         11    1    5    5    0    0  0.21389553971E+02  0.13960866663E+01  0.47150552199E+01  0.21947524298E+02  0.00000000000E+00 0.  1.
        -11    1    5    5    0    0  0.23744430312E+03  0.33846731021E+03 -0.89559361123E+02  0.42303758264E+03  0.00000000000E+00 0. -1.
          4    1    6    6  503    0 -0.38630232034E+02  0.29426188769E+01 -0.53663833938E+02  0.66187316805E+02  0.00000000000E+00 0. -1.
         -4    1    6    6    0  503 -0.11363193788E+03 -0.11188873706E+03 -0.53694364176E+02  0.16826880737E+03  0.00000000000E+00 0.  1.
<mgrwt>
<rscale>  0 0.44605999E+03</rscale>
<asrwt>0</asrwt>
<pdfrwt beam="1">  1        1 0.90014811E-01 0.44605999E+03</pdfrwt>
<pdfrwt beam="2">  1       -1 0.56296911E-01 0.44605999E+03</pdfrwt>
<totfact> 0.11829590E+02</totfact>
</mgrwt>
</event>
<event>
12    1  0.3147868E-008  0.9714302E+03  0.7818608E-02  0.9340447E-01
          2   -1    0    0  501    0  0.00000000000E+00  0.00000000000E+00  0.21263454589E+04  0.21263454589E+04  0.00000000000E+00 0. -1.
         -2   -1    0    0    0  501 -0.00000000000E+00 -0.00000000000E+00 -0.49321348814E+03  0.49321348814E+03  0.00000000000E+00 0.  1.
         23    2    1    2    0    0  0.58261857746E+03  0.72664184499E+03  0.65861420711E+03  0.11440624469E+04  0.87483889383E+02 0.  0.
    5000000    2    1    2    0    0 -0.58261857746E+03 -0.72664184499E+03  0.97451776368E+03  0.14754965002E+04  0.59996022588E+03 0.  0.
         23    2    4    4    0    0 -0.44205478410E+03 -0.71358879466E+03  0.99679232260E+03  0.13062218005E+04  0.89437451463E+02 0.  0.
         23    2    4    4    0    0 -0.14056379336E+03 -0.13053050325E+02 -0.22274558920E+02  0.16927469967E+03  0.90714970361E+02 0.  0.
          5    1    3    3  502    0  0.42119849243E+03  0.56621591808E+03  0.53037450950E+03  0.88279547248E+03  0.47000000000E+01 0.  1.
         -5    1    3    3    0  502  0.16142008503E+03  0.16042592691E+03  0.12823969761E+03  0.26126697441E+03  0.47000000000E+01 0. -1.
         13    1    5    5    0    0 -0.41364797379E+03 -0.62920479938E+03  0.86073677787E+03  0.11436219334E+04  0.00000000000E+00 0. -1.
        -13    1    5    5    0    0 -0.28406810308E+02 -0.84383995281E+02  0.13605554473E+03  0.16259986711E+03  0.00000000000E+00 0.  1.
          2    1    6    6  503    0 -0.84568417545E+02 -0.52000323522E+02 -0.18312150415E+02  0.10095140289E+03  0.00000000000E+00 0. -1.
         -2    1    6    6    0  503 -0.55995375815E+02  0.38947273197E+02 -0.39624085047E+01  0.68323296784E+02  0.00000000000E+00 0.  1.
<mgrwt>
<rscale>  0 0.97143015E+03</rscale>
<asrwt>0</asrwt>
<pdfrwt beam="1">  1        2 0.32713007E+00 0.97143015E+03</pdfrwt>
<pdfrwt beam="2">  1       -2 0.75878999E-01 0.97143015E+03</pdfrwt>
<totfact> 0.89053966E+00</totfact>
</mgrwt>
</event>
<event>
12    1  0.3147868E-008  0.1008366E+04  0.7818608E-02  0.9299417E-01
          2   -1    0    0  501    0  0.00000000000E+00  0.00000000000E+00  0.16154511548E+04  0.16154511548E+04  0.00000000000E+00 0. -1.
         -2   -1    0    0    0  501 -0.00000000000E+00 -0.00000000000E+00 -0.71649874638E+03  0.71649874638E+03  0.00000000000E+00 0.  1.
         23    2    1    2    0    0 -0.77702575093E+02 -0.92733835495E+03  0.78119449756E+03  0.12185207036E+04  0.92378283945E+02 0.  0.
    5000000    2    1    2    0    0  0.77702575093E+02  0.92733835495E+03  0.11775791082E+03  0.11134291975E+04  0.59988627058E+03 0.  0.
         23    2    4    4    0    0  0.23873868843E+02 -0.51589465056E+02 -0.41642492591E+02  0.11618404777E+03  0.92375328140E+02 0.  0.
         23    2    4    4    0    0  0.53828706250E+02  0.97892782001E+03  0.15940040341E+03  0.99724514977E+03  0.88838019617E+02 0.  0.
          5    1    3    3  502    0 -0.66607088464E+02 -0.54342456100E+03  0.51079361570E+03  0.74878499288E+03  0.47000000000E+01 0. -1.
         -5    1    3    3    0  502 -0.11095486629E+02 -0.38391379395E+03  0.27040088186E+03  0.46973571071E+03  0.47000000000E+01 0.  1.
         11    1    5    5    0    0 -0.31437411959E+02 -0.40537979603E+01  0.97701247844E+00  0.31712752986E+02  0.00000000000E+00 0.  1.
        -11    1    5    5    0    0  0.55311280802E+02 -0.47535667096E+02 -0.42619505069E+02  0.84471294784E+02  0.00000000000E+00 0. -1.
          1    1    6    6  503    0  0.42231570319E+02  0.66023170525E+03  0.14908727860E+03  0.67817138453E+03  0.00000000000E+00 0. -1.
         -1    1    6    6    0  503  0.11597135931E+02  0.31869611476E+03  0.10313124811E+02  0.31907376524E+03  0.00000000000E+00 0.  1.
<mgrwt>
<rscale>  0 0.10083657E+04</rscale>
<asrwt>0</asrwt>
<pdfrwt beam="1">  1        2 0.24853095E+00 0.10083657E+04</pdfrwt>
<pdfrwt beam="2">  1       -2 0.11023058E+00 0.10083657E+04</pdfrwt>
<totfact> 0.71081606E+00</totfact>
</mgrwt>
</event>
<event>
12    1  0.3147868E-008  0.5036003E+03  0.7818608E-02  0.1012843E+00
         -1   -1    0    0    0  501 -0.00000000000E+00  0.00000000000E+00  0.13982656812E+03  0.13982656812E+03  0.00000000000E+00 0.  1.
          1   -1    0    0  501    0  0.00000000000E+00 -0.00000000000E+00 -0.24831763591E+04  0.24831763591E+04  0.00000000000E+00 0. -1.
         23    2    1    2    0    0  0.36491144637E+03 -0.19360238031E+03 -0.11453586174E+04  0.12209239407E+04  0.90369581126E+02 0.  0.
    5000000    2    1    2    0    0 -0.36491144637E+03  0.19360238031E+03 -0.11979911736E+04  0.14020789865E+04  0.60000032255E+03 0.  0.
         23    2    4    4    0    0 -0.25234590290E+03  0.30466012959E+03 -0.11409456477E+04  0.12110052416E+04  0.90997114781E+02 0.  0.
         23    2    4    4    0    0 -0.11256554347E+03 -0.11105774928E+03 -0.57045525849E+02  0.19107374487E+03  0.90830384278E+02 0.  0.
          5    1    3    3  502    0  0.26743196800E+03 -0.98200769686E+02 -0.72572563856E+03  0.77965571963E+03  0.47000000000E+01 0. -1.
         -5    1    3    3    0  502  0.97479478371E+02 -0.95401610622E+02 -0.41963297880E+03  0.44126822105E+03  0.47000000000E+01 0.  1.
         13    1    5    5    0    0 -0.49722123850E+02  0.12384244445E+03 -0.33882658099E+03  0.36416025680E+03  0.00000000000E+00 0.  1.
        -13    1    5    5    0    0 -0.20262377905E+03  0.18081768514E+03 -0.80211906675E+03  0.84684498484E+03  0.00000000000E+00 0. -1.
          4    1    6    6  503    0 -0.12370008043E+03 -0.11505909896E+03 -0.59271129283E+02  0.17903455789E+03  0.00000000000E+00 0. -1.
         -4    1    6    6    0  503  0.11134536964E+02  0.40013496729E+01  0.22256034333E+01  0.12039186985E+02  0.00000000000E+00 0.  1.
<mgrwt>
<rscale>  0 0.50360033E+03</rscale>
<asrwt>0</asrwt>
<pdfrwt beam="1">  1        1 0.38202708E+00 0.50360033E+03</pdfrwt>
<pdfrwt beam="2">  1       -1 0.21511783E-01 0.50360033E+03</pdfrwt>
<totfact> 0.27447425E+01</totfact>
</mgrwt>
</event>
<event>
12    1  0.3147868E-008  0.4320550E+03  0.7818608E-02  0.1033213E+00
          3   -1    0    0  501    0  0.00000000000E+00  0.00000000000E+00  0.16491990371E+04  0.16491990371E+04  0.00000000000E+00 0. -1.
         -3   -1    0    0    0  501 -0.00000000000E+00 -0.00000000000E+00 -0.32892315524E+03  0.32892315524E+03  0.00000000000E+00 0.  1.
         23    2    1    2    0    0 -0.37735799987E+03  0.38984167595E+02  0.11950690124E+04  0.12572641000E+04  0.92759082338E+02 0.  0.
    5000000    2    1    2    0    0  0.37735799987E+03 -0.38984167595E+02  0.12520686942E+03  0.72085809231E+03  0.60003400213E+03 0.  0.
         23    2    4    4    0    0  0.30646227679E+03  0.81130537719E+02  0.32332444227E+03  0.46191467755E+03  0.91242441460E+02 0.  0.
         23    2    4    4    0    0  0.70895723079E+02 -0.12011470531E+03 -0.19811757285E+03  0.25894341476E+03  0.91363961123E+02 0.  0.
          5    1    3    3  502    0 -0.33043800017E+03  0.43035597686E+02  0.11199154270E+04  0.11684493949E+04  0.47000000000E+01 0. -1.
         -5    1    3    3    0  502 -0.46919999693E+02 -0.40514300909E+01  0.75153585407E+02  0.88814705181E+02  0.47000000000E+01 0.  1.
         11    1    5    5    0    0  0.13223451659E+03  0.30711117592E+02  0.20316696478E+03  0.24434802169E+03  0.00000000000E+00 0.  1.
        -11    1    5    5    0    0  0.17422776020E+03  0.50419420127E+02  0.12015747748E+03  0.21756665586E+03  0.00000000000E+00 0. -1.
          3    1    6    6  503    0  0.39713208070E+02 -0.12817127480E+03 -0.16612616968E+03  0.21354839927E+03  0.00000000000E+00 0.  1.
         -3    1    6    6    0  503  0.31182515009E+02  0.80565694896E+01 -0.31991403172E+02  0.45395015488E+02  0.00000000000E+00 0. -1.
<mgrwt>
<rscale>  0 0.43205502E+03</rscale>
<asrwt>0</asrwt>
<pdfrwt beam="1">  1        3 0.25372292E+00 0.43205502E+03</pdfrwt>
<pdfrwt beam="2">  1       -3 0.50603563E-01 0.43205502E+03</pdfrwt>
<totfact> 0.73712570E-01</totfact>
</mgrwt>
</event>
<event>
12    1  0.3147868E-008  0.5041087E+03  0.7818608E-02  0.1012712E+00
         -1   -1    0    0    0  501 -0.00000000000E+00  0.00000000000E+00  0.20729897275E+03  0.20729897275E+03  0.00000000000E+00 0.  1.
          1   -1    0    0  501    0  0.00000000000E+00 -0.00000000000E+00 -0.20746721142E+04  0.20746721142E+04  0.00000000000E+00 0. -1.
         23    2    1    2    0    0 -0.29983905549E+03  0.31747354158E+03 -0.12139766799E+04  0.12932576560E+04  0.89905933282E+02 0.  0.
    5000000    2    1    2    0    0  0.29983905549E+03 -0.31747354158E+03 -0.65339646159E+03  0.98871343093E+03  0.59994533391E+03 0.  0.
         23    2    4    4    0    0  0.45496791656E+02 -0.29634555987E+03 -0.37628245073E+02  0.31581081012E+03  0.91814672356E+02 0.  0.
         23    2    4    4    0    0  0.25434226383E+03 -0.21127981716E+02 -0.61576821652E+03  0.67290262080E+03  0.92146957786E+02 0.  0.
          5    1    3    3  502    0 -0.80352682954E+02  0.14542064429E+03 -0.48904657084E+03  0.51651946323E+03  0.47000000000E+01 0. -1.
         -5    1    3    3    0  502 -0.21948637254E+03  0.17205289729E+03 -0.72493010903E+03  0.77673819281E+03  0.47000000000E+01 0.  1.
         13    1    5    5    0    0  0.28011061627E+02 -0.34381139871E+02 -0.29259666053E+02  0.53130127139E+02  0.00000000000E+00 0.  1.
        -13    1    5    5    0    0  0.17485730030E+02 -0.26196442000E+03 -0.83685790200E+01  0.26268068299E+03  0.00000000000E+00 0. -1.
          1    1    6    6  503    0  0.55580675234E+02  0.45914325934E+01 -0.24672446320E+03  0.25294911238E+03  0.00000000000E+00 0. -1.
         -1    1    6    6    0  503  0.19876158860E+03 -0.25719414310E+02 -0.36904375332E+03  0.41995350842E+03  0.00000000000E+00 0.  1.
<mgrwt>
<rscale>  0 0.50410870E+03</rscale>
<asrwt>0</asrwt>
<pdfrwt beam="1">  1        1 0.31918034E+00 0.50410870E+03</pdfrwt>
<pdfrwt beam="2">  1       -1 0.31892148E-01 0.50410870E+03</pdfrwt>
<totfact> 0.26303076E+01</totfact>
</mgrwt>
</event>
<event>
12    1  0.3147868E-008  0.4867767E+03  0.7818608E-02  0.1017289E+00
         -2   -1    0    0    0  501 -0.00000000000E+00  0.00000000000E+00  0.21147601977E+03  0.21147601977E+03  0.00000000000E+00 0. -1.
          2   -1    0    0  501    0  0.00000000000E+00 -0.00000000000E+00 -0.19388502694E+04  0.19388502694E+04  0.00000000000E+00 0.  1.
         23    2    1    2    0    0  0.32753231136E+03 -0.32762615613E+03 -0.97129211026E+03  0.10796611285E+04  0.87426974185E+02 0.  0.
    5000000    2    1    2    0    0 -0.32753231136E+03  0.32762615613E+03 -0.75608213939E+03  0.10706651607E+04  0.60003947502E+03 0.  0.
         23    2    4    4    0    0 -0.26249928026E+03  0.16980584422E+03 -0.80367829198E+03  0.86715003522E+03  0.91161887378E+02 0.  0.
         23    2    4    4    0    0 -0.65033031103E+02  0.15782031192E+03  0.47596152591E+02  0.20351512544E+03  0.10008229890E+03 0.  0.
          5    1    3    3  502    0  0.52396813044E+01 -0.35506407600E+02 -0.84277504342E+02  0.91722118265E+02  0.47000000000E+01 0. -1.
         -5    1    3    3    0  502  0.32229263006E+03 -0.29211974853E+03 -0.88701460592E+03  0.98793901026E+03  0.47000000000E+01 0.  1.
         13    1    5    5    0    0 -0.44760399166E+02  0.74676866827E+02 -0.18686516418E+03  0.20615217039E+03  0.00000000000E+00 0. -1.
        -13    1    5    5    0    0 -0.21773888110E+03  0.95128977389E+02 -0.61681312780E+03  0.66099786483E+03  0.00000000000E+00 0.  1.
          3    1    6    6  503    0 -0.58258598060E+02  0.76920945627E+02 -0.19200537774E+02  0.98384738526E+02  0.00000000000E+00 0. -1.
         -3    1    6    6    0  503 -0.67744330436E+01  0.80899366289E+02  0.66796690365E+02  0.10513038691E+03  0.00000000000E+00 0.  1.
<mgrwt>
<rscale>  0 0.48677675E+03</rscale>
<asrwt>0</asrwt>
<pdfrwt beam="1">  1        2 0.29828466E+00 0.48677675E+03</pdfrwt>
<pdfrwt beam="2">  1       -2 0.32534771E-01 0.48677675E+03</pdfrwt>
<totfact> 0.67773982E+01</totfact>
</mgrwt>
</event>
<event>
12    1  0.3147868E-008  0.7582114E+03  0.7818608E-02  0.9622555E-01
          2   -1    0    0  501    0  0.00000000000E+00  0.00000000000E+00  0.51449176962E+03  0.51449176962E+03  0.00000000000E+00 0. -1.
         -2   -1    0    0    0  501 -0.00000000000E+00 -0.00000000000E+00 -0.12923936187E+04  0.12923936187E+04  0.00000000000E+00 0.  1.
         23    2    1    2    0    0  0.67279513355E+03 -0.46289221241E+02 -0.55204851337E+03  0.87637956549E+03  0.92128160523E+02 0.  0.
    5000000    2    1    2    0    0 -0.67279513355E+03  0.46289221241E+02 -0.22585333575E+03  0.93050582287E+03  0.60002947710E+03 0.  0.
         23    2    4    4    0    0 -0.68255907003E+03 -0.97005132916E+02 -0.68120975781E+02  0.69877560294E+03  0.91378312661E+02 0.  0.
         23    2    4    4    0    0  0.97639364763E+01  0.14329435416E+03 -0.15773235997E+03  0.23173021993E+03  0.90502989228E+02 0.  0.
          5    1    3    3  502    0  0.27970095136E+03 -0.49231752523E+02 -0.27566912988E+03  0.39581807288E+03  0.47000000000E+01 0. -1.
         -5    1    3    3    0  502  0.39309418219E+03  0.29425312816E+01 -0.27637938349E+03  0.48056149261E+03  0.47000000000E+01 0.  1.
         13    1    5    5    0    0 -0.23957296967E+03 -0.48593269142E+02  0.17206747461E+02  0.24505629100E+03  0.00000000000E+00 0.  1.
        -13    1    5    5    0    0 -0.44298610036E+03 -0.48411863774E+02 -0.85327723242E+02  0.45371931193E+03  0.00000000000E+00 0. -1.
          1    1    6    6  503    0 -0.13268489299E+02  0.91932949641E+02 -0.14781102456E+03  0.17457324829E+03  0.00000000000E+00 0. -1.
         -1    1    6    6    0  503  0.23032425775E+02  0.51361404516E+02 -0.99213354136E+01  0.57156971643E+02  0.00000000000E+00 0.  1.
<mgrwt>
<rscale>  0 0.75821137E+03</rscale>
<asrwt>0</asrwt>
<pdfrwt beam="1">  1        2 0.79152580E-01 0.75821137E+03</pdfrwt>
<pdfrwt beam="2">  1       -2 0.19882979E+00 0.75821137E+03</pdfrwt>
<totfact> 0.82111986E+00</totfact>
</mgrwt>
</event>
<event>
12    1  0.3147868E-008  0.2993572E+03  0.7818608E-02  0.1085562E+00
         -1   -1    0    0    0  501 -0.00000000000E+00  0.00000000000E+00  0.31415957258E+03  0.31415957258E+03  0.00000000000E+00 0.  1.
          1   -1    0    0  501    0  0.00000000000E+00 -0.00000000000E+00 -0.47077912240E+03  0.47077912240E+03  0.00000000000E+00 0. -1.
         23    2    1    2    0    0  0.52790819074E+02 -0.11133477558E+03 -0.60535858076E+02  0.16522144061E+03  0.91930579751E+02 0.  0.
    5000000    2    1    2    0    0 -0.52790819074E+02  0.11133477558E+03 -0.96083691741E+02  0.61971725436E+03  0.59969583682E+03 0.  0.
         23    2    4    4    0    0  0.14705785909E+03 -0.53993844637E+02  0.16178261632E+03  0.24327808345E+03  0.92028592112E+02 0.  0.
         23    2    4    4    0    0 -0.19984867817E+03  0.16532862021E+03 -0.25786630806E+03  0.37643917091E+03  0.89097529348E+02 0.  0.
          5    1    3    3  502    0  0.59299847216E+02 -0.21349027904E+02 -0.20910180811E+02  0.66570102403E+02  0.47000000000E+01 0. -1.
         -5    1    3    3    0  502 -0.65090281427E+01 -0.89985747674E+02 -0.39625677265E+02  0.98651338209E+02  0.47000000000E+01 0.  1.
         11    1    5    5    0    0  0.35309689397E+02  0.23201998133E+02  0.60768243403E+02  0.74012744099E+02  0.00000000000E+00 0.  1.
        -11    1    5    5    0    0  0.11174816970E+03 -0.77195842770E+02  0.10101437291E+03  0.16926533935E+03  0.00000000000E+00 0. -1.
          1    1    6    6  503    0 -0.17079280088E+03  0.10592917576E+03 -0.22784957321E+03  0.30382001106E+03  0.00000000000E+00 0. -1.
         -1    1    6    6    0  503 -0.29055877282E+02  0.59399444450E+02 -0.30016734854E+02  0.72619159847E+02  0.00000000000E+00 0.  1.
<mgrwt>
<rscale>  0 0.29935722E+03</rscale>
<asrwt>0</asrwt>
<pdfrwt beam="1">  1        1 0.72427557E-01 0.29935722E+03</pdfrwt>
<pdfrwt beam="2">  1       -1 0.48332242E-01 0.29935722E+03</pdfrwt>
<totfact> 0.21545314E+02</totfact>
</mgrwt>
</event>
<event>
12    1  0.3147868E-008  0.8008625E+03  0.7818608E-02  0.9558770E-01
          2   -1    0    0  501    0  0.00000000000E+00  0.00000000000E+00  0.47933986713E+03  0.47933986713E+03  0.00000000000E+00 0. -1.
         -2   -1    0    0    0  501 -0.00000000000E+00 -0.00000000000E+00 -0.15369797866E+04  0.15369797866E+04  0.00000000000E+00 0.  1.
         23    2    1    2    0    0 -0.68037619062E+03  0.15905282846E+03 -0.14515326198E+03  0.71985430508E+03  0.94399089347E+02 0.  0.
    5000000    2    1    2    0    0  0.68037619062E+03 -0.15905282846E+03 -0.91248665749E+03  0.12964653487E+04  0.59998411409E+03 0.  0.
         23    2    4    4    0    0  0.14245079848E+03 -0.31106139092E+03 -0.33792887832E+03  0.48966191098E+03  0.92311653383E+02 0.  0.
         23    2    4    4    0    0  0.53792539215E+03  0.15200856245E+03 -0.57455777917E+03  0.80680343768E+03  0.91349958256E+02 0.  0.
          5    1    3    3  502    0 -0.40127935200E+03  0.11402955146E+03 -0.12886304569E+03  0.43664130759E+03  0.47000000000E+01 0. -1.
         -5    1    3    3    0  502 -0.27909683862E+03  0.45023276999E+02 -0.16290216292E+02  0.28321299749E+03  0.47000000000E+01 0.  1.
         13    1    5    5    0    0  0.12916232373E+03 -0.26480590904E+03 -0.23799592401E+03  0.37874415531E+03  0.00000000000E+00 0.  1.
        -13    1    5    5    0    0  0.13288474745E+02 -0.46255481875E+02 -0.99932954311E+02  0.11091775567E+03  0.00000000000E+00 0. -1.
          4    1    6    6  503    0  0.93020711443E+02  0.29050388837E+02 -0.15468326275E+03  0.18282146926E+03  0.00000000000E+00 0. -1.
         -4    1    6    6    0  503  0.44490468070E+03  0.12295817362E+03 -0.41987451642E+03  0.62398196842E+03  0.00000000000E+00 0.  1.
<mgrwt>
<rscale>  0 0.80086246E+03</rscale>
<asrwt>0</asrwt>
<pdfrwt beam="1">  1        2 0.73744597E-01 0.80086246E+03</pdfrwt>
<pdfrwt beam="2">  1       -2 0.23645842E+00 0.80086246E+03</pdfrwt>
<totfact> 0.51386809E+00</totfact>
</mgrwt>
</event>
<event>
12    1  0.3147868E-008  0.6270753E+03  0.7818608E-02  0.9850773E-01
         -1   -1    0    0    0  501 -0.00000000000E+00  0.00000000000E+00  0.63803569340E+03  0.63803569340E+03  0.00000000000E+00 0.  1.
          1   -1    0    0  501    0  0.00000000000E+00 -0.00000000000E+00 -0.70492928453E+03  0.70492928453E+03  0.00000000000E+00 0. -1.
         23    2    1    2    0    0  0.49992899702E+03  0.11132477628E+03 -0.17023560770E+03  0.54701444158E+03  0.89008029361E+02 0.  0.
    5000000    2    1    2    0    0 -0.49992899702E+03 -0.11132477628E+03  0.10334201657E+03  0.79595053635E+03  0.60044606423E+03 0.  0.
         23    2    4    4    0    0 -0.22938191312E+03 -0.30843419425E+03  0.18970742094E+03  0.43795850917E+03  0.89838944455E+02 0.  0.
         23    2    4    4    0    0 -0.27054708390E+03  0.19710941797E+03 -0.86365404370E+02  0.35799202718E+03  0.93013231291E+02 0.  0.
          5    1    3    3  502    0  0.39606713375E+03  0.60843701594E+02 -0.10487149536E+03  0.41423574326E+03  0.47000000000E+01 0. -1.
         -5    1    3    3    0  502  0.10386186328E+03  0.50481074685E+02 -0.65364112344E+02  0.13277869832E+03  0.47000000000E+01 0.  1.
         11    1    5    5    0    0 -0.84557932517E+01 -0.65871663410E+02  0.26368612133E+02  0.71455441960E+02  0.00000000000E+00 0. -1.
        -11    1    5    5    0    0 -0.22092611987E+03 -0.24256253084E+03  0.16333880881E+03  0.36650306721E+03  0.00000000000E+00 0.  1.
          1    1    6    6  503    0 -0.18122563776E+03  0.85511125311E+02 -0.23234312989E+02  0.20172931774E+03  0.00000000000E+00 0. -1.
         -1    1    6    6    0  503 -0.89321446136E+02  0.11159829266E+03 -0.63131091381E+02  0.15626270944E+03  0.00000000000E+00 0.  1.
<mgrwt>
<rscale>  0 0.62707530E+03</rscale>
<asrwt>0</asrwt>
<pdfrwt beam="1">  1        1 0.10845066E+00 0.62707530E+03</pdfrwt>
<pdfrwt beam="2">  1       -1 0.98159337E-01 0.62707530E+03</pdfrwt>
<totfact> 0.27873427E+01</totfact>
</mgrwt>
</event>
<event>
12    1  0.3147868E-008  0.7714837E+03  0.7818608E-02  0.9602236E-01
          1   -1    0    0  501    0  0.00000000000E+00  0.00000000000E+00  0.22016324898E+04  0.22016324898E+04  0.00000000000E+00 0. -1.
         -1   -1    0    0    0  501 -0.00000000000E+00 -0.00000000000E+00 -0.30187353682E+03  0.30187353682E+03  0.00000000000E+00 0.  1.
         23    2    1    2    0    0 -0.15256452644E+03  0.64162113573E+03  0.11914268553E+04  0.13647853593E+04  0.90484853505E+02 0.  0.
    5000000    2    1    2    0    0  0.15256452644E+03 -0.64162113573E+03  0.70833209761E+03  0.11387206673E+04  0.59999731760E+03 0.  0.
         23    2    4    4    0    0  0.35565502657E+03 -0.51220685170E+03  0.55363318646E+03  0.83879855860E+03  0.90702590479E+02 0.  0.
         23    2    4    4    0    0 -0.20309050013E+03 -0.12941428403E+03  0.15469891115E+03  0.29992210871E+03  0.89597488962E+02 0.  0.
          5    1    3    3  502    0 -0.26831259990E+02  0.22390392191E+03  0.33848697413E+03  0.40675349343E+03  0.47000000000E+01 0. -1.
         -5    1    3    3    0  502 -0.12573326645E+03  0.41771721381E+03  0.85293988122E+03  0.95803186585E+03  0.47000000000E+01 0.  1.
         13    1    5    5    0    0  0.27658228137E+03 -0.42253518594E+03  0.40061656476E+03  0.64461412774E+03  0.00000000000E+00 0.  1.
        -13    1    5    5    0    0  0.79072745202E+02 -0.89671665756E+02  0.15301662170E+03  0.19418443086E+03  0.00000000000E+00 0. -1.
          1    1    6    6  503    0 -0.92829275781E+02 -0.89088154038E+01  0.48717842077E+02  0.10521439811E+03  0.00000000000E+00 0. -1.
         -1    1    6    6    0  503 -0.11026122435E+03 -0.12050546863E+03  0.10598106907E+03  0.19470771059E+03  0.00000000000E+00 0.  1.
<mgrwt>
<rscale>  0 0.77148366E+03</rscale>
<asrwt>0</asrwt>
<pdfrwt beam="1">  1        1 0.33871268E+00 0.77148366E+03</pdfrwt>
<pdfrwt beam="2">  1       -1 0.46442084E-01 0.77148366E+03</pdfrwt>
<totfact> 0.10482855E+01</totfact>
</mgrwt>
</event>
<event>
12    1  0.3147868E-008  0.1262076E+04  0.7818608E-02  0.9060192E-01
         -2   -1    0    0    0  501 -0.00000000000E+00  0.00000000000E+00  0.10108653792E+04  0.10108653792E+04  0.00000000000E+00 0.  1.
          2   -1    0    0  501    0  0.00000000000E+00 -0.00000000000E+00 -0.19215365068E+04  0.19215365068E+04  0.00000000000E+00 0. -1.
         23    2    1    2    0    0 -0.10516737015E+04  0.64357379961E+03  0.83264131721E+02  0.12388486318E+04  0.87225035587E+02 0.  0.
    5000000    2    1    2    0    0  0.10516737015E+04 -0.64357379961E+03 -0.99393525929E+03  0.16935532542E+04  0.60000876267E+03 0.  0.
         23    2    4    4    0    0  0.10253122236E+04 -0.57904190372E+03 -0.68803807310E+03  0.13668864793E+04  0.91801825874E+02 0.  0.
         23    2    4    4    0    0  0.26361477924E+02 -0.64531895895E+02 -0.30589718620E+03  0.32666677492E+03  0.90987912414E+02 0.  0.
          5    1    3    3  502    0 -0.88485937349E+03  0.54217580780E+03  0.10156824540E+03  0.10427218785E+04  0.47000000000E+01 0. -1.
         -5    1    3    3    0  502 -0.16681432799E+03  0.10139799181E+03 -0.18304113679E+02  0.19612675326E+03  0.47000000000E+01 0.  1.
         13    1    5    5    0    0  0.44001093786E+03 -0.19953100594E+03 -0.29872133975E+03  0.56802877268E+03  0.00000000000E+00 0. -1.
        -13    1    5    5    0    0  0.58530128570E+03 -0.37951089778E+03 -0.38931673335E+03  0.79885770663E+03  0.00000000000E+00 0.  1.
          4    1    6    6  503    0 -0.54921836546E+01  0.19649590929E+02 -0.98340694702E+02  0.10043486815E+03  0.00000000000E+00 0. -1.
         -4    1    6    6    0  503  0.31853661579E+02 -0.84181486824E+02 -0.20755649150E+03  0.22623190677E+03  0.00000000000E+00 0.  1.
<mgrwt>
<rscale>  0 0.12620764E+04</rscale>
<asrwt>0</asrwt>
<pdfrwt beam="1">  1        2 0.29562100E+00 0.12620764E+04</pdfrwt>
<pdfrwt beam="2">  1       -2 0.15551775E+00 0.12620764E+04</pdfrwt>
<totfact> 0.19413635E+00</totfact>
</mgrwt>
</event>
<event>
12    1  0.3147868E-008  0.8430446E+03  0.7818608E-02  0.9499720E-01
         -1   -1    0    0    0  501 -0.00000000000E+00  0.00000000000E+00  0.10267252182E+04  0.10267252182E+04  0.00000000000E+00 0.  1.
          1   -1    0    0  501    0  0.00000000000E+00 -0.00000000000E+00 -0.95260705038E+03  0.95260705038E+03  0.00000000000E+00 0. -1.
         23    2    1    2    0    0 -0.59070317435E+03 -0.45495864751E+03 -0.46220401338E+03  0.88221599722E+03  0.93567647330E+02 0.  0.
    5000000    2    1    2    0    0  0.59070317435E+03  0.45495864751E+03  0.53632218115E+03  0.10971162713E+04  0.60008751001E+03 0.  0.
         23    2    4    4    0    0  0.48731405019E+03  0.28492910283E+02  0.37077534873E+03  0.61937870869E+03  0.88706234827E+02 0.  0.
         23    2    4    4    0    0  0.10338912416E+03  0.42646573723E+03  0.16554683242E+03  0.47773756263E+03  0.90912534896E+02 0.  0.
          5    1    3    3  502    0 -0.25138667395E+03 -0.25052570277E+03 -0.23166976147E+03  0.42385298862E+03  0.47000000000E+01 0. -1.
         -5    1    3    3    0  502 -0.33931650040E+03 -0.20443294474E+03 -0.23053425191E+03  0.45836300859E+03  0.47000000000E+01 0.  1.
         11    1    5    5    0    0  0.23164781052E+03  0.40164224517E+02  0.13341566691E+03  0.27032131479E+03  0.00000000000E+00 0.  1.
        -11    1    5    5    0    0  0.25566623967E+03 -0.11671314234E+02  0.23735968182E+03  0.34905739390E+03  0.00000000000E+00 0. -1.
          1    1    6    6  503    0 -0.48709073621E+01  0.97548406282E+02  0.10163632307E+02  0.98197335648E+02  0.00000000000E+00 0. -1.
         -1    1    6    6    0  503  0.10826003152E+03  0.32891733095E+03  0.15538320011E+03  0.37954022698E+03  0.00000000000E+00 0.  1.
<mgrwt>
<rscale>  0 0.84304465E+03</rscale>
<asrwt>0</asrwt>
<pdfrwt beam="1">  1        1 0.14655493E+00 0.84304465E+03</pdfrwt>
<pdfrwt beam="2">  1       -1 0.15795773E+00 0.84304465E+03</pdfrwt>
<totfact> 0.51075204E+00</totfact>
</mgrwt>
</event>
<event>
12    1  0.3147868E-008  0.7957825E+03  0.7818608E-02  0.9566142E-01
         -1   -1    0    0    0  501 -0.00000000000E+00  0.00000000000E+00  0.47364214383E+03  0.47364214383E+03  0.00000000000E+00 0.  1.
          1   -1    0    0  501    0  0.00000000000E+00 -0.00000000000E+00 -0.19055168110E+04  0.19055168110E+04  0.00000000000E+00 0. -1.
         23    2    1    2    0    0  0.72278156928E+03  0.23770490214E+03 -0.11279212657E+04  0.13636249907E+04  0.91377875838E+02 0.  0.
    5000000    2    1    2    0    0 -0.72278156928E+03 -0.23770490214E+03 -0.30395340147E+03  0.10155339642E+04  0.60000395391E+03 0.  0.
         23    2    4    4    0    0 -0.26424223634E+02 -0.23564245178E+02 -0.26276746821E+03  0.28023701196E+03  0.90733275484E+02 0.  0.
         23    2    4    4    0    0 -0.69635734564E+03 -0.21414065696E+03 -0.41185933263E+02  0.73529695219E+03  0.90529293671E+02 0.  0.
          5    1    3    3  502    0  0.28013018930E+03  0.13894466390E+03 -0.46744502129E+03  0.56241041999E+03  0.47000000000E+01 0. -1.
         -5    1    3    3    0  502  0.44265137997E+03  0.98760238236E+02 -0.66047624444E+03  0.80121457071E+03  0.47000000000E+01 0.  1.
         11    1    5    5    0    0 -0.54287791709E+02 -0.34133537861E+02 -0.14135659801E+03  0.15522226173E+03  0.00000000000E+00 0.  1.
        -11    1    5    5    0    0  0.27863568076E+02  0.10569292683E+02 -0.12141087019E+03  0.12501475023E+03  0.00000000000E+00 0. -1.
          4    1    6    6  503    0 -0.22137191129E+03 -0.99601550936E+02  0.16479048819E+02  0.24330546872E+03  0.00000000000E+00 0.  1.
         -4    1    6    6    0  503 -0.47498543435E+03 -0.11453910602E+03 -0.57664982082E+02  0.49199148348E+03  0.00000000000E+00 0. -1.
<mgrwt>
<rscale>  0 0.79578251E+03</rscale>
<asrwt>0</asrwt>
<pdfrwt beam="1">  1        1 0.29315642E+00 0.79578251E+03</pdfrwt>
<pdfrwt beam="2">  1       -1 0.72868024E-01 0.79578251E+03</pdfrwt>
<totfact> 0.68143910E+00</totfact>
</mgrwt>
</event>
<event>
12    1  0.3147868E-008  0.5478648E+03  0.7818608E-02  0.1001989E+00
          1   -1    0    0  501    0  0.00000000000E+00  0.00000000000E+00  0.32860337095E+04  0.32860337095E+04  0.00000000000E+00 0. -1.
         -1   -1    0    0    0  501 -0.00000000000E+00 -0.00000000000E+00 -0.10163488062E+03  0.10163488062E+03  0.00000000000E+00 0.  1.
         23    2    1    2    0    0 -0.19881501910E+03 -0.36272618968E+03  0.12844082722E+04  0.13527565333E+04  0.95644802641E+02 0.  0.
    5000000    2    1    2    0    0  0.19881501910E+03  0.36272618968E+03  0.18999905567E+04  0.20349120568E+04  0.59983769712E+03 0.  0.
         23    2    4    4    0    0  0.37557504228E+03  0.29324035369E+03  0.10125110364E+04  0.11227270206E+04  0.91054085830E+02 0.  0.
         23    2    4    4    0    0 -0.17676002318E+03  0.69485835991E+02  0.88747952028E+03  0.91218503619E+03  0.91592871556E+02 0.  0.
          5    1    3    3  502    0 -0.15065034598E+03 -0.24427660832E+03  0.74505188740E+03  0.79843033074E+03  0.47000000000E+01 0. -1.
         -5    1    3    3    0  502 -0.48164673113E+02 -0.11844958136E+03  0.53935638479E+03  0.55432620258E+03  0.47000000000E+01 0.  1.
         11    1    5    5    0    0  0.18089418204E+03  0.17984265879E+03  0.45892813989E+03  0.52505344927E+03  0.00000000000E+00 0. -1.
        -11    1    5    5    0    0  0.19468086024E+03  0.11339769491E+03  0.55358289653E+03  0.59767357135E+03  0.00000000000E+00 0.  1.
          1    1    6    6  503    0 -0.12151821426E+03  0.78100985028E+02  0.49181665209E+03  0.51259151332E+03  0.00000000000E+00 0. -1.
         -1    1    6    6    0  503 -0.55241808927E+02 -0.86151490365E+01  0.39566286820E+03  0.39959352287E+03  0.00000000000E+00 0.  1.
<mgrwt>
<rscale>  0 0.54786484E+03</rscale>
<asrwt>0</asrwt>
<pdfrwt beam="1">  1        1 0.50554357E+00 0.54786484E+03</pdfrwt>
<pdfrwt beam="2">  1       -1 0.15636138E-01 0.54786484E+03</pdfrwt>
<totfact> 0.12495800E+01</totfact>
</mgrwt>
</event>
<event>
12    1  0.3147868E-008  0.4696506E+03  0.7818608E-02  0.1022019E+00
         -1   -1    0    0    0  501 -0.00000000000E+00  0.00000000000E+00  0.83663109616E+03  0.83663109616E+03  0.00000000000E+00 0.  1.
          1   -1    0    0  501    0  0.00000000000E+00 -0.00000000000E+00 -0.48238650587E+03  0.48238650587E+03  0.00000000000E+00 0. -1.
         23    2    1    2    0    0 -0.14207157901E+03  0.33305633199E+03  0.47900111659E+03  0.60728818389E+03  0.90807569879E+02 0.  0.
    5000000    2    1    2    0    0  0.14207157901E+03 -0.33305633199E+03 -0.12475652630E+03  0.71172941815E+03  0.59990309214E+03 0.  0.
         23    2    4    4    0    0  0.26350367229E+03 -0.91396849154E+02  0.13830621154E+03  0.32381154524E+03  0.89093991568E+02 0.  0.
         23    2    4    4    0    0 -0.12143209328E+03 -0.24165948284E+03 -0.26306273784E+03  0.38791787291E+03  0.90184328779E+02 0.  0.
          5    1    3    3  502    0 -0.15271611868E+03  0.28122125081E+03  0.41637179454E+03  0.52516203795E+03  0.47000000000E+01 0. -1.
         -5    1    3    3    0  502  0.10644539670E+02  0.51835081181E+02  0.62629322047E+02  0.82126145933E+02  0.47000000000E+01 0.  1.
         13    1    5    5    0    0  0.79751289619E+02 -0.82568888357E+01  0.81389564529E+02  0.11424843817E+03  0.00000000000E+00 0.  1.
        -13    1    5    5    0    0  0.18375238267E+03 -0.83139960319E+02  0.56916647013E+02  0.20956310707E+03  0.00000000000E+00 0. -1.
          3    1    6    6  503    0 -0.12230725995E+02 -0.12065143531E+03 -0.97731505598E+02  0.15574917877E+03  0.00000000000E+00 0. -1.
         -3    1    6    6    0  503 -0.10920136728E+03 -0.12100804753E+03 -0.16533123224E+03  0.23216869414E+03  0.00000000000E+00 0.  1.
<mgrwt>
<rscale>  0 0.46965063E+03</rscale>
<asrwt>0</asrwt>
<pdfrwt beam="1">  1        1 0.74213309E-01 0.46965063E+03</pdfrwt>
<pdfrwt beam="2">  1       -1 0.12871248E+00 0.46965063E+03</pdfrwt>
<totfact> 0.25718176E+01</totfact>
</mgrwt>
</event>
<event>
12    1  0.3147868E-008  0.8694973E+03  0.7818608E-02  0.9464536E-01
          1   -1    0    0  501    0  0.00000000000E+00  0.00000000000E+00  0.29721990522E+04  0.29721990522E+04  0.00000000000E+00 0. -1.
         -1   -1    0    0    0  501 -0.00000000000E+00 -0.00000000000E+00 -0.27167628462E+03  0.27167628462E+03  0.00000000000E+00 0.  1.
         23    2    1    2    0    0  0.24044907427E+03 -0.75775206313E+03  0.12503117519E+04  0.14846518630E+04  0.94380776323E+02 0.  0.
    5000000    2    1    2    0    0 -0.24044907427E+03  0.75775206313E+03  0.14502110157E+04  0.17592234738E+04  0.59979270942E+03 0.  0.
         23    2    4    4    0    0  0.10923239444E+03  0.47128631106E+03  0.99977770687E+03  0.11143383956E+04  0.90288946025E+02 0.  0.
         23    2    4    4    0    0 -0.34968146870E+03  0.28646575207E+03  0.45043330880E+03  0.64488507818E+03  0.92988395665E+02 0.  0.
          5    1    3    3  502    0  0.13360347161E+03 -0.48655847586E+03  0.71519314391E+03  0.87527844778E+03  0.47000000000E+01 0. -1.
         -5    1    3    3    0  502  0.10684560265E+03 -0.27119358727E+03  0.53511860796E+03  0.60937341521E+03  0.47000000000E+01 0.  1.
         11    1    5    5    0    0  0.51453921386E+02  0.34903021283E+03  0.78349542725E+03  0.85926403393E+03  0.00000000000E+00 0. -1.
        -11    1    5    5    0    0  0.57778473050E+02  0.12225609823E+03  0.21628227962E+03  0.25507436167E+03  0.00000000000E+00 0.  1.
          1    1    6    6  503    0 -0.27394399522E+03  0.19580579301E+03  0.37837081206E+03  0.50650734695E+03  0.00000000000E+00 0. -1.
         -1    1    6    6    0  503 -0.75737473484E+02  0.90659959057E+02  0.72062496734E+02  0.13837773123E+03  0.00000000000E+00 0.  1.
<mgrwt>
<rscale>  0 0.86949731E+03</rscale>
<asrwt>0</asrwt>
<pdfrwt beam="1">  1        1 0.45726137E+00 0.86949731E+03</pdfrwt>
<pdfrwt beam="2">  1       -1 0.41796353E-01 0.86949731E+03</pdfrwt>
<totfact> 0.36841389E+00</totfact>
</mgrwt>
</event>
<event>
12    1  0.3147868E-008  0.9902650E+03  0.7818608E-02  0.9319287E-01
         -2   -1    0    0    0  501 -0.00000000000E+00  0.00000000000E+00  0.21805171969E+04  0.21805171969E+04  0.00000000000E+00 0. -1.
          2   -1    0    0  501    0  0.00000000000E+00 -0.00000000000E+00 -0.17818765720E+04  0.17818765720E+04  0.00000000000E+00 0.  1.
         23    2    1    2    0    0  0.20145297295E+03 -0.88134615574E+03  0.19022898507E+04  0.21081277164E+04  0.90229959861E+02 0.  0.
    5000000    2    1    2    0    0 -0.20145297295E+03  0.88134615574E+03 -0.15036492258E+04  0.18542660525E+04  0.59998937715E+03 0.  0.
         23    2    4    4    0    0  0.18599221430E+03  0.41437955665E+03 -0.75928952646E+03  0.88940607681E+03  0.90659052108E+02 0.  0.
         23    2    4    4    0    0 -0.38744518725E+03  0.46696659909E+03 -0.74435969935E+03  0.96485997571E+03  0.93337200033E+02 0.  0.
          5    1    3    3  502    0  0.25645345279E+02 -0.14660810409E+03  0.39411005352E+03  0.42130326868E+03  0.47000000000E+01 0. -1.
         -5    1    3    3    0  502  0.17580762767E+03 -0.73473805165E+03  0.15081797972E+04  0.16868244477E+04  0.47000000000E+01 0.  1.
         13    1    5    5    0    0  0.10575158349E+03  0.33034519990E+03 -0.57728690514E+03  0.67347718548E+03  0.00000000000E+00 0.  1.
        -13    1    5    5    0    0  0.80240630811E+02  0.84034356748E+02 -0.18200262132E+03  0.21592889134E+03  0.00000000000E+00 0. -1.
          3    1    6    6  503    0 -0.22598130792E+03  0.20368467665E+03 -0.34429952585E+03  0.45945311244E+03  0.00000000000E+00 0. -1.
         -3    1    6    6    0  503 -0.16146387933E+03  0.26328192244E+03 -0.40006017351E+03  0.50540686327E+03  0.00000000000E+00 0.  1.
<mgrwt>
<rscale>  0 0.99026501E+03</rscale>
<asrwt>0</asrwt>
<pdfrwt beam="1">  1        2 0.27413486E+00 0.99026501E+03</pdfrwt>
<pdfrwt beam="2">  1       -2 0.33546418E+00 0.99026501E+03</pdfrwt>
<totfact> 0.17205847E-01</totfact>
</mgrwt>
</event>
<event>
12    1  0.3147868E-008  0.6292520E+03  0.7818608E-02  0.9846510E-01
          1   -1    0    0  501    0  0.00000000000E+00  0.00000000000E+00  0.31917561620E+04  0.31917561620E+04  0.00000000000E+00 0. -1.
         -1   -1    0    0    0  501 -0.00000000000E+00 -0.00000000000E+00 -0.17872832301E+03  0.17872832301E+03  0.00000000000E+00 0.  1.
         23    2    1    2    0    0  0.57018903068E+03  0.19231006641E+03  0.84099826748E+03  0.10381490848E+04  0.91524554584E+02 0.  0.
    5000000    2    1    2    0    0 -0.57018903068E+03 -0.19231006641E+03  0.21720295715E+04  0.23323354002E+04  0.59998105557E+03 0.  0.
         23    2    4    4    0    0 -0.11762750405E+03  0.57137152539E+02  0.86093914765E+02  0.18146245442E+03  0.91736450207E+02 0.  0.
         23    2    4    4    0    0 -0.45256152663E+03 -0.24944721895E+03  0.20859356568E+04  0.21508729458E+04  0.89950065328E+02 0.  0.
          5    1    3    3  502    0  0.17426714302E+03  0.37780474115E+02  0.31377888897E+03  0.36093722796E+03  0.47000000000E+01 0. -1.
         -5    1    3    3    0  502  0.39592188766E+03  0.15452959230E+03  0.52721937851E+03  0.67721185688E+03  0.47000000000E+01 0.  1.
         11    1    5    5    0    0 -0.35178847727E+02  0.16864931156E+02 -0.17772490134E+02  0.42870020246E+02  0.00000000000E+00 0. -1.
        -11    1    5    5    0    0 -0.82448656323E+02  0.40272221383E+02  0.10386640490E+03  0.13859243418E+03  0.00000000000E+00 0.  1.
          3    1    6    6  503    0 -0.16807504141E+03 -0.14264111034E+03  0.84739325333E+03  0.87559752837E+03  0.00000000000E+00 0. -1.
         -3    1    6    6    0  503 -0.28448648522E+03 -0.10680610861E+03  0.12385424034E+04  0.12752754174E+04  0.00000000000E+00 0.  1.
<mgrwt>
<rscale>  0 0.62925199E+03</rscale>
<asrwt>0</asrwt>
<pdfrwt beam="1">  1        1 0.49103937E+00 0.62925199E+03</pdfrwt>
<pdfrwt beam="2">  1       -1 0.27496667E-01 0.62925199E+03</pdfrwt>
<totfact> 0.56201087E+00</totfact>
</mgrwt>
</event>
<event>
12    1  0.3147868E-008  0.3383559E+03  0.7818608E-02  0.1067498E+00
          2   -1    0    0  501    0  0.00000000000E+00  0.00000000000E+00  0.11506275007E+04  0.11506275007E+04  0.00000000000E+00 0. -1.
         -2   -1    0    0    0  501 -0.00000000000E+00 -0.00000000000E+00 -0.19062913293E+03  0.19062913293E+03  0.00000000000E+00 0.  1.
         23    2    1    2    0    0 -0.48819991831E+02 -0.19764340474E+03  0.42957532796E+02  0.22661312937E+03  0.89787826234E+02 0.  0.
    5000000    2    1    2    0    0  0.48819991831E+02  0.19764340474E+03  0.91704083493E+03  0.11146435042E+04  0.60001661770E+03 0.  0.
         23    2    4    4    0    0 -0.49033506538E+00  0.31290599498E+03  0.20292745714E+03  0.38377104285E+03  0.90500046108E+02 0.  0.
         23    2    4    4    0    0  0.49310326896E+02 -0.11526259024E+03  0.71411337779E+03  0.73087246137E+03  0.92193629914E+02 0.  0.
          5    1    3    3  502    0 -0.35661639453E+02 -0.12585510572E+03 -0.17063222652E+02  0.13200190806E+03  0.47000000000E+01 0. -1.
         -5    1    3    3    0  502 -0.13158352378E+02 -0.71788299023E+02  0.60020755448E+02  0.94611221314E+02  0.47000000000E+01 0.  1.
         13    1    5    5    0    0 -0.26905427995E+02  0.23553802094E+03  0.11426537701E+03  0.26317035880E+03  0.00000000000E+00 0. -1.
        -13    1    5    5    0    0  0.26415092930E+02  0.77367974032E+02  0.88662080130E+02  0.12060068405E+03  0.00000000000E+00 0.  1.
          1    1    6    6  503    0  0.75613266495E+02 -0.85867329462E+02  0.47913099332E+03  0.49260234784E+03  0.00000000000E+00 0. -1.
         -1    1    6    6    0  503 -0.26302939598E+02 -0.29395260774E+02  0.23498238447E+03  0.23827011353E+03  0.00000000000E+00 0.  1.
<mgrwt>
<rscale>  0 0.33835594E+03</rscale>
<asrwt>0</asrwt>
<pdfrwt beam="1">  1        2 0.17701961E+00 0.33835594E+03</pdfrwt>
<pdfrwt beam="2">  1       -2 0.29327560E-01 0.33835594E+03</pdfrwt>
<totfact> 0.22729296E+02</totfact>
</mgrwt>
</event>
<event>
12    1  0.3147868E-008  0.3820335E+03  0.7818608E-02  0.1050185E+00
          1   -1    0    0  501    0  0.00000000000E+00  0.00000000000E+00  0.87845671861E+03  0.87845671861E+03  0.00000000000E+00 0. -1.
         -1   -1    0    0    0  501 -0.00000000000E+00 -0.00000000000E+00 -0.80856491445E+03  0.80856491445E+03  0.00000000000E+00 0.  1.
         23    2    1    2    0    0 -0.17813626075E+03 -0.21418313806E+03 -0.64771687168E+03  0.71101952886E+03  0.91677044768E+02 0.  0.
    5000000    2    1    2    0    0  0.17813626075E+03  0.21418313806E+03  0.71760867585E+03  0.97600210419E+03  0.60000912636E+03 0.  0.
         23    2    4    4    0    0 -0.11640528393E+03  0.74022138407E+02 -0.17019862615E+02  0.16717761598E+03  0.92893554465E+02 0.  0.
         23    2    4    4    0    0  0.29454154468E+03  0.14016099966E+03  0.73462853847E+03  0.80882448821E+03  0.90100698322E+02 0.  0.
          5    1    3    3  502    0 -0.12846444924E+03 -0.95509283056E+02 -0.41898399443E+03  0.44854745062E+03  0.47000000000E+01 0. -1.
         -5    1    3    3    0  502 -0.49671811503E+02 -0.11867385501E+03 -0.22873287725E+03  0.26247207824E+03  0.47000000000E+01 0.  1.
         13    1    5    5    0    0 -0.10209623446E+03  0.47673953270E+02  0.25134592147E+02  0.11544780047E+03  0.00000000000E+00 0. -1.
        -13    1    5    5    0    0 -0.14309049472E+02  0.26348185137E+02 -0.42154454762E+02  0.51729815514E+02  0.00000000000E+00 0.  1.
          4    1    6    6  503    0  0.17042715854E+03  0.11578270361E+03  0.52513341633E+03  0.56410651101E+03  0.00000000000E+00 0.  1.
         -4    1    6    6    0  503  0.12411438614E+03  0.24378296043E+02  0.20949512214E+03  0.24471797720E+03  0.00000000000E+00 0. -1.
<mgrwt>
<rscale>  0 0.38203351E+03</rscale>
<asrwt>0</asrwt>
<pdfrwt beam="1">  1        1 0.13514719E+00 0.38203351E+03</pdfrwt>
<pdfrwt beam="2">  1       -1 0.12439460E+00 0.38203351E+03</pdfrwt>
<totfact> 0.11851655E+01</totfact>
</mgrwt>
</event>
<event>
12    1  0.3147868E-008  0.4870832E+03  0.7818608E-02  0.1017206E+00
          1   -1    0    0  501    0  0.00000000000E+00  0.00000000000E+00  0.29374485938E+04  0.29374485938E+04  0.00000000000E+00 0. -1.
         -1   -1    0    0    0  501 -0.00000000000E+00 -0.00000000000E+00 -0.93221769839E+02  0.93221769839E+02  0.00000000000E+00 0.  1.
         23    2    1    2    0    0 -0.22562162843E+03  0.25881400094E+03  0.96113575819E+03  0.10246511143E+04  0.90764277173E+02 0.  0.
    5000000    2    1    2    0    0  0.22562162843E+03 -0.25881400094E+03  0.18830910658E+04  0.20060192494E+04  0.60015952924E+03 0.  0.
         23    2    4    4    0    0  0.36563848302E+03 -0.86558715141E+02  0.70746128604E+03  0.80615654808E+03  0.90570399907E+02 0.  0.
         23    2    4    4    0    0 -0.14001685459E+03 -0.17225528580E+03  0.11756297797E+04  0.11998627013E+04  0.91041308657E+02 0.  0.
          5    1    3    3  502    0 -0.16753699879E+03  0.12684872588E+03  0.53819999131E+03  0.57778937847E+03  0.47000000000E+01 0. -1.
         -5    1    3    3    0  502 -0.58084629637E+02  0.13196527506E+03  0.42293576687E+03  0.44686173580E+03  0.47000000000E+01 0.  1.
         11    1    5    5    0    0  0.30798588195E+03 -0.94862308843E+02  0.64325696388E+03  0.71946763839E+03  0.00000000000E+00 0.  1.
        -11    1    5    5    0    0  0.57652601074E+02  0.83035937023E+01  0.64204322162E+02  0.86688909690E+02  0.00000000000E+00 0. -1.
          1    1    6    6  503    0 -0.11863949328E+03 -0.76674706451E+02  0.73947402494E+03  0.75284538488E+03  0.00000000000E+00 0. -1.
         -1    1    6    6    0  503 -0.21377361308E+02 -0.95580579347E+02  0.43615575480E+03  0.44701731641E+03  0.00000000000E+00 0.  1.
<mgrwt>
<rscale>  0 0.48708317E+03</rscale>
<asrwt>0</asrwt>
<pdfrwt beam="1">  1        1 0.45191510E+00 0.48708317E+03</pdfrwt>
<pdfrwt beam="2">  1       -1 0.14341813E-01 0.48708317E+03</pdfrwt>
<totfact> 0.26004994E+01</totfact>
</mgrwt>
</event>
<event>
12    1  0.5523492E-008  0.1693653E+04  0.7818608E-02  0.8764993E-01
          1   -1    0    0  501    0  0.00000000000E+00  0.00000000000E+00  0.19574172222E+04  0.19574172222E+04  0.00000000000E+00 0. -1.
         -1   -1    0    0    0  501 -0.00000000000E+00 -0.00000000000E+00 -0.15394853896E+04  0.15394853896E+04  0.00000000000E+00 0.  1.
         23    2    1    2    0    0  0.46615606564E+03 -0.16005113906E+04 -0.28757185604E+02  0.16697996726E+04  0.92009683997E+02 0.  0.
    5000000    2    1    2    0    0 -0.46615606564E+03  0.16005113906E+04  0.44668901825E+03  0.18271029392E+04  0.59986321968E+03 0.  0.
         23    2    4    4    0    0 -0.80926604068E+02  0.97187602218E+03  0.46451897464E+03  0.10840436859E+04  0.90998447132E+02 0.  0.
         23    2    4    4    0    0 -0.38522946157E+03  0.62863536841E+03 -0.17829956385E+02  0.74305925327E+03  0.90746801897E+02 0.  0.
          5    1    3    3  502    0  0.12001441689E+03 -0.55684092999E+03 -0.25356785179E+02  0.57021078394E+03  0.47000000000E+01 0. -1.
         -5    1    3    3    0  502  0.34614164875E+03 -0.10436704606E+04 -0.34004004249E+01  0.10995888887E+04  0.47000000000E+01 0.  1.
         11    1    5    5    0    0 -0.16732719830E+02  0.17305329694E+03  0.12267303250E+03  0.21278181406E+03  0.00000000000E+00 0.  1.
        -11    1    5    5    0    0 -0.64193884238E+02  0.79882272524E+03  0.34184594214E+03  0.87126187182E+03  0.00000000000E+00 0. -1.
          1    1    6    6  503    0 -0.22474575413E+03  0.44783642507E+03 -0.90106367988E+01  0.50114799131E+03  0.00000000000E+00 0. -1.
         -1    1    6    6    0  503 -0.16048370744E+03  0.18079894334E+03 -0.88193195858E+01  0.24191126196E+03  0.00000000000E+00 0.  1.
<mgrwt>
<rscale>  0 0.16936530E+04</rscale>
<asrwt>0</asrwt>
<pdfrwt beam="1">  1        1 0.30114111E+00 0.16936530E+04</pdfrwt>
<pdfrwt beam="2">  1       -1 0.23684391E+00 0.16936530E+04</pdfrwt>
<totfact> 0.25030524E-01</totfact>
</mgrwt>
</event>
<event>
12    1  0.3147868E-008  0.6328199E+03  0.7818608E-02  0.9839561E-01
          2   -1    0    0  501    0  0.00000000000E+00  0.00000000000E+00  0.47345612143E+03  0.47345612143E+03  0.00000000000E+00 0. -1.
         -2   -1    0    0    0  501 -0.00000000000E+00 -0.00000000000E+00 -0.90924854228E+03  0.90924854228E+03  0.00000000000E+00 0.  1.
         23    2    1    2    0    0  0.27978973111E+03 -0.40758109876E+03 -0.22277209926E+02  0.50327177697E+03  0.91550869530E+02 0.  0.
    5000000    2    1    2    0    0 -0.27978973111E+03  0.40758109876E+03 -0.41351521092E+03  0.87943288674E+03  0.59833329084E+03 0.  0.
         23    2    4    4    0    0 -0.15837270824E+03 -0.12397380672E+03 -0.15411991779E+03  0.26879895555E+03  0.89713488272E+02 0.  0.
         23    2    4    4    0    0 -0.12141702286E+03  0.53155490547E+03 -0.25939529312E+03  0.61063393119E+03  0.91077817538E+02 0.  0.
          5    1    3    3  502    0  0.15713738652E+03 -0.25832137674E+03 -0.54756764912E+02  0.30731496096E+03  0.47000000000E+01 0. -1.
         -5    1    3    3    0  502  0.12265234458E+03 -0.14925972202E+03  0.32479554986E+02  0.19595681601E+03  0.47000000000E+01 0.  1.
         13    1    5    5    0    0 -0.77003894411E+02 -0.11078591826E+03 -0.74155294802E+02  0.15395495181E+03  0.00000000000E+00 0.  1.
        -13    1    5    5    0    0 -0.81368813834E+02 -0.13187888459E+02 -0.79964622992E+02  0.11484400375E+03  0.00000000000E+00 0. -1.
          3    1    6    6  503    0 -0.92591973082E+02  0.20640977832E+03 -0.11327324187E+03  0.25300019247E+03  0.00000000000E+00 0. -1.
         -3    1    6    6    0  503 -0.28825049780E+02  0.32514512715E+03 -0.14612205125E+03  0.35763373872E+03  0.00000000000E+00 0.  1.
<mgrwt>
<rscale>  0 0.63281988E+03</rscale>
<asrwt>0</asrwt>
<pdfrwt beam="1">  1        2 0.72839404E-01 0.63281988E+03</pdfrwt>
<pdfrwt beam="2">  1       -2 0.13988439E+00 0.63281988E+03</pdfrwt>
<totfact> 0.24164309E+01</totfact>
</mgrwt>
</event>
<event>
12    1  0.3147868E-008  0.1239351E+04  0.7818608E-02  0.9079093E-01
         -2   -1    0    0    0  501 -0.00000000000E+00  0.00000000000E+00  0.81739386621E+03  0.81739386621E+03  0.00000000000E+00 0.  1.
          2   -1    0    0  501    0  0.00000000000E+00 -0.00000000000E+00 -0.21119961718E+04  0.21119961718E+04  0.00000000000E+00 0. -1.
         23    2    1    2    0    0 -0.11757500434E+04 -0.22402192704E+03 -0.99133655966E+03  0.15562584357E+04  0.81352048296E+02 0.  0.
    5000000    2    1    2    0    0  0.11757500434E+04  0.22402192704E+03 -0.30326574597E+03  0.13731316024E+04  0.60078806271E+03 0.  0.
         23    2    4    4    0    0  0.93035574183E+03 -0.15773879823E+02 -0.38080468371E+03  0.10095516840E+04  0.91497398261E+02 0.  0.
         23    2    4    4    0    0  0.24539430159E+03  0.23979580687E+03  0.77538937732E+02  0.36357991836E+03  0.91965634469E+02 0.  0.
          5    1    3    3  502    0 -0.57412522017E+03 -0.11020293096E+03 -0.53664268936E+03  0.79358170371E+03  0.47000000000E+01 0. -1.
         -5    1    3    3    0  502 -0.60162482325E+03 -0.11381899608E+03 -0.45469387031E+03  0.76267673199E+03  0.47000000000E+01 0.  1.
         13    1    5    5    0    0  0.77839812997E+03  0.20702325032E+02 -0.32014455119E+03  0.84191731699E+03  0.00000000000E+00 0. -1.
        -13    1    5    5    0    0  0.15195761186E+03 -0.36476204855E+02 -0.60660132521E+02  0.16763436701E+03  0.00000000000E+00 0.  1.
          3    1    6    6  503    0  0.86809293859E+02  0.11981010275E+03 -0.55512690114E+01  0.14805786304E+03  0.00000000000E+00 0. -1.
         -3    1    6    6    0  503  0.15858500773E+03  0.11998570412E+03  0.83090206744E+02  0.21552205531E+03  0.00000000000E+00 0.  1.
<mgrwt>
<rscale>  0 0.12393512E+04</rscale>
<asrwt>0</asrwt>
<pdfrwt beam="1">  1        2 0.32492249E+00 0.12393512E+04</pdfrwt>
<pdfrwt beam="2">  1       -2 0.12575290E+00 0.12393512E+04</pdfrwt>
<totfact> 0.26567007E+00</totfact>
</mgrwt>
</event>
<event>
12    1  0.3147868E-008  0.8907188E+03  0.7818608E-02  0.9437258E-01
         -1   -1    0    0    0  501 -0.00000000000E+00  0.00000000000E+00  0.47903559131E+03  0.47903559131E+03  0.00000000000E+00 0.  1.
          1   -1    0    0  501    0  0.00000000000E+00 -0.00000000000E+00 -0.21993659129E+04  0.21993659129E+04  0.00000000000E+00 0. -1.
         23    2    1    2    0    0  0.30294385237E+02 -0.84873553692E+03 -0.27375026835E+03  0.89700333632E+03  0.91684320069E+02 0.  0.
    5000000    2    1    2    0    0 -0.30294385237E+02  0.84873553692E+03 -0.14465800532E+04  0.17813981679E+04  0.59959638148E+03 0.  0.
         23    2    4    4    0    0 -0.18554959129E+03  0.38716541697E+03 -0.10780025284E+04  0.11640261839E+04  0.92421829794E+02 0.  0.
         23    2    4    4    0    0  0.15525520605E+03  0.46157011995E+03 -0.36857752488E+03  0.61737198402E+03  0.90264168812E+02 0.  0.
          5    1    3    3  502    0  0.11675293505E+02 -0.43569188177E+03 -0.18813671314E+03  0.47474334240E+03  0.47000000000E+01 0. -1.
         -5    1    3    3    0  502  0.18619091733E+02 -0.41304365515E+03 -0.85613555215E+02  0.42225999393E+03  0.47000000000E+01 0.  1.
         13    1    5    5    0    0 -0.70831447159E+02  0.68587716864E+02 -0.29183226934E+03  0.30803805324E+03  0.00000000000E+00 0.  1.
        -13    1    5    5    0    0 -0.11471814413E+03  0.31857770010E+03 -0.78617025902E+03  0.85598813062E+03  0.00000000000E+00 0. -1.
          4    1    6    6  503    0  0.19310627296E+02  0.19196657975E+03 -0.15589712957E+03  0.24804834826E+03  0.00000000000E+00 0. -1.
         -4    1    6    6    0  503  0.13594457876E+03  0.26960354021E+03 -0.21268039531E+03  0.36932363576E+03  0.00000000000E+00 0.  1.
<mgrwt>
<rscale>  0 0.89071879E+03</rscale>
<asrwt>0</asrwt>
<pdfrwt beam="1">  1        1 0.33836399E+00 0.89071879E+03</pdfrwt>
<pdfrwt beam="2">  1       -1 0.73697783E-01 0.89071879E+03</pdfrwt>
<totfact> 0.41655452E+00</totfact>
</mgrwt>
</event>
<event>
12    1  0.3147868E-008  0.5897556E+03  0.7818608E-02  0.9926891E-01
         -1   -1    0    0    0  501 -0.00000000000E+00  0.00000000000E+00  0.56860198174E+03  0.56860198174E+03  0.00000000000E+00 0.  1.
          1   -1    0    0  501    0  0.00000000000E+00 -0.00000000000E+00 -0.81930255741E+03  0.81930255741E+03  0.00000000000E+00 0. -1.
         23    2    1    2    0    0 -0.12597204647E+03  0.53080112841E+03 -0.12465228500E+03  0.56715434500E+03  0.92233749198E+02 0.  0.
    5000000    2    1    2    0    0  0.12597204647E+03 -0.53080112841E+03 -0.12604829068E+03  0.82075019415E+03  0.60010325379E+03 0.  0.
         23    2    4    4    0    0  0.21051888465E+03 -0.42279457883E+03 -0.31119027721E+03  0.57286403258E+03  0.90886492458E+02 0.  0.
         23    2    4    4    0    0 -0.84546838180E+02 -0.10800654958E+03  0.18514198653E+03  0.24788616157E+03  0.91413408885E+02 0.  0.
          5    1    3    3  502    0 -0.45201787251E+02  0.34265737637E+03 -0.50429437539E+02  0.34931718727E+03  0.47000000000E+01 0. -1.
         -5    1    3    3    0  502 -0.80770259219E+02  0.18814375204E+03 -0.74222847457E+02  0.21783715774E+03  0.47000000000E+01 0.  1.
         13    1    5    5    0    0  0.70685913584E+02 -0.65254205489E+02 -0.48974909322E+02  0.10794976358E+03  0.00000000000E+00 0. -1.
        -13    1    5    5    0    0  0.13983297107E+03 -0.35754037334E+03 -0.26221536789E+03  0.46491426900E+03  0.00000000000E+00 0.  1.
          3    1    6    6  503    0 -0.53211238784E+02 -0.22322100091E+02  0.12754794717E+03  0.13999353882E+03  0.00000000000E+00 0. -1.
         -3    1    6    6    0  503 -0.31335599396E+02 -0.85684449489E+02  0.57594039365E+02  0.10789262275E+03  0.00000000000E+00 0.  1.
<mgrwt>
<rscale>  0 0.58975563E+03</rscale>
<asrwt>0</asrwt>
<pdfrwt beam="1">  1        1 0.12604655E+00 0.58975563E+03</pdfrwt>
<pdfrwt beam="2">  1       -1 0.87477228E-01 0.58975563E+03</pdfrwt>
<totfact> 0.28618095E+01</totfact>
</mgrwt>
</event>
<event>
12    1  0.3147868E-008  0.4849170E+03  0.7818608E-02  0.1017793E+00
          1   -1    0    0  501    0  0.00000000000E+00  0.00000000000E+00  0.22110888954E+04  0.22110888954E+04  0.00000000000E+00 0. -1.
         -1   -1    0    0    0  501 -0.00000000000E+00 -0.00000000000E+00 -0.29799704345E+03  0.29799704345E+03  0.00000000000E+00 0.  1.
         23    2    1    2    0    0 -0.33968684150E+03 -0.21146030819E+03  0.17119131932E+04  0.17603848479E+04  0.90583771694E+02 0.  0.
    5000000    2    1    2    0    0  0.33968684150E+03  0.21146030819E+03  0.20117865884E+03  0.74870109097E+03  0.59998154857E+03 0.  0.
         23    2    4    4    0    0  0.38006692922E+03  0.46724858930E+02 -0.85938801643E+02  0.40299363414E+03  0.91565869183E+02 0.  0.
         23    2    4    4    0    0 -0.40380087726E+02  0.16473544926E+03  0.28711746048E+03  0.34570745683E+03  0.91153112224E+02 0.  0.
          5    1    3    3  502    0 -0.31903536454E+03 -0.16651827497E+03  0.14694439038E+04  0.15128778457E+04  0.47000000000E+01 0. -1.
         -5    1    3    3    0  502 -0.20651476957E+02 -0.44942033225E+02  0.24246928937E+03  0.24750700220E+03  0.47000000000E+01 0.  1.
         11    1    5    5    0    0  0.18985438488E+03  0.30840560083E+01 -0.31040023166E+00  0.18987968614E+03  0.00000000000E+00 0. -1.
        -11    1    5    5    0    0  0.19021254434E+03  0.43640802922E+02 -0.85628401411E+02  0.21311394800E+03  0.00000000000E+00 0.  1.
          3    1    6    6  503    0 -0.57036484529E+01  0.11168601992E+03  0.24581958369E+03  0.27006215281E+03  0.00000000000E+00 0. -1.
         -3    1    6    6    0  503 -0.34676439273E+02  0.53049429337E+02  0.41297876786E+02  0.75645304023E+02  0.00000000000E+00 0.  1.
<mgrwt>
<rscale>  0 0.48491698E+03</rscale>
<asrwt>0</asrwt>
<pdfrwt beam="1">  1        1 0.34016751E+00 0.48491698E+03</pdfrwt>
<pdfrwt beam="2">  1       -1 0.45845700E-01 0.48491698E+03</pdfrwt>
<totfact> 0.11191348E+01</totfact>
</mgrwt>
</event>
<event>
12    1  0.3147868E-008  0.5473447E+03  0.7818608E-02  0.1002110E+00
          2   -1    0    0  501    0  0.00000000000E+00  0.00000000000E+00  0.43997293671E+03  0.43997293671E+03  0.00000000000E+00 0. -1.
         -2   -1    0    0    0  501 -0.00000000000E+00 -0.00000000000E+00 -0.79656242586E+03  0.79656242586E+03  0.00000000000E+00 0.  1.
         23    2    1    2    0    0  0.24411197969E+02 -0.42279045250E+03 -0.26037942262E+02  0.43121392016E+03  0.76940218311E+02 0.  0.
    5000000    2    1    2    0    0 -0.24411197969E+02  0.42279045250E+03 -0.33055154689E+03  0.80532144241E+03  0.59994218651E+03 0.  0.
         23    2    4    4    0    0 -0.12597811163E+03 -0.71056283048E+02 -0.22372964062E+03  0.28186782036E+03  0.92059959215E+02 0.  0.
         23    2    4    4    0    0  0.10156691366E+03  0.49384673555E+03 -0.10682190627E+03  0.52345362205E+03  0.91609708133E+02 0.  0.
          5    1    3    3  502    0 -0.20114271745E+01 -0.14964415864E+03  0.25692723283E+02  0.15191980149E+03  0.47000000000E+01 0. -1.
         -5    1    3    3    0  502  0.26422625143E+02 -0.27314629385E+03 -0.51730665545E+02  0.27929411867E+03  0.47000000000E+01 0.  1.
         11    1    5    5    0    0 -0.67792667608E+02  0.44615381243E+01 -0.13729177957E+03  0.15318219166E+03  0.00000000000E+00 0.  1.
        -11    1    5    5    0    0 -0.58185444021E+02 -0.75517821172E+02 -0.86437861049E+02  0.12868562870E+03  0.00000000000E+00 0. -1.
          2    1    6    6  503    0  0.78625153868E+02  0.24466715132E+03 -0.91347365167E+02  0.27274213257E+03  0.00000000000E+00 0. -1.
         -2    1    6    6    0  503  0.22941759792E+02  0.24917958423E+03 -0.15474541098E+02  0.25071148949E+03  0.00000000000E+00 0.  1.
<mgrwt>
<rscale>  0 0.54734475E+03</rscale>
<asrwt>0</asrwt>
<pdfrwt beam="1">  1        2 0.67688144E-01 0.54734475E+03</pdfrwt>
<pdfrwt beam="2">  1       -2 0.12254807E+00 0.54734475E+03</pdfrwt>
<totfact> 0.36995411E+01</totfact>
</mgrwt>
</event>
<event>
12    1  0.3147868E-008  0.1208356E+04  0.7818608E-02  0.9105574E-01
         -2   -1    0    0    0  501 -0.00000000000E+00  0.00000000000E+00  0.40117447025E+03  0.40117447025E+03  0.00000000000E+00 0.  1.
          2   -1    0    0  501    0  0.00000000000E+00 -0.00000000000E+00 -0.37000835418E+04  0.37000835418E+04  0.00000000000E+00 0. -1.
         23    2    1    2    0    0  0.11302569424E+04  0.14831064386E+03 -0.16803071178E+04  0.20325933361E+04  0.92340981027E+02 0.  0.
    5000000    2    1    2    0    0 -0.11302569424E+04 -0.14831064386E+03 -0.16186019537E+04  0.20686646760E+04  0.60002037807E+03 0.  0.
         23    2    4    4    0    0 -0.11347540125E+03 -0.22354570540E+03 -0.35977944744E+03  0.44594574365E+03  0.81098744661E+02 0.  0.
         23    2    4    4    0    0 -0.10167815411E+04  0.75235061542E+02 -0.12588225063E+04  0.16227189323E+04  0.95276513861E+02 0.  0.
          5    1    3    3  502    0  0.43964361472E+03  0.13007901427E+02 -0.65647448517E+03  0.79021297961E+03  0.47000000000E+01 0. -1.
         -5    1    3    3    0  502  0.69061332767E+03  0.13530274243E+03 -0.10238326326E+04  0.12423803564E+04  0.47000000000E+01 0.  1.
         11    1    5    5    0    0 -0.11318110556E+03 -0.21844247905E+03 -0.30932439443E+03  0.39523241301E+03  0.00000000000E+00 0. -1.
        -11    1    5    5    0    0 -0.29429568571E+00 -0.51032263478E+01 -0.50455053016E+02  0.50713330634E+02  0.00000000000E+00 0.  1.
          4    1    6    6  503    0 -0.86083859248E+03  0.38243643607E+02 -0.10223390588E+04  0.13370425609E+04  0.00000000000E+00 0. -1.
         -4    1    6    6    0  503 -0.15594294866E+03  0.36991417935E+02 -0.23648344751E+03  0.28567637142E+03  0.00000000000E+00 0.  1.
<mgrwt>
<rscale>  0 0.12083558E+04</rscale>
<asrwt>0</asrwt>
<pdfrwt beam="1">  1        2 0.56924361E+00 0.12083558E+04</pdfrwt>
<pdfrwt beam="2">  1       -2 0.61719151E-01 0.12083558E+04</pdfrwt>
<totfact> 0.14376891E+00</totfact>
</mgrwt>
</event>
<event>
12    1  0.3147868E-008  0.5529869E+03  0.7818608E-02  0.1000805E+00
          2   -1    0    0  501    0  0.00000000000E+00  0.00000000000E+00  0.23944084199E+04  0.23944084199E+04  0.00000000000E+00 0. -1.
         -2   -1    0    0    0  501 -0.00000000000E+00 -0.00000000000E+00 -0.13404641711E+03  0.13404641711E+03  0.00000000000E+00 0.  1.
         23    2    1    2    0    0  0.38631588680E+03  0.10165855841E+03  0.74944807521E+03  0.85399832283E+03  0.89812532908E+02 0.  0.
    5000000    2    1    2    0    0 -0.38631588680E+03 -0.10165855841E+03  0.15109139276E+04  0.16744565142E+04  0.60113999570E+03 0.  0.
         23    2    4    4    0    0 -0.50979736083E+03  0.10307672963E+02  0.12454509893E+04  0.13487727897E+04  0.89667576305E+02 0.  0.
         23    2    4    4    0    0  0.12348147403E+03 -0.11196623137E+03  0.26546293828E+03  0.32568372449E+03  0.88403650358E+02 0.  0.
          5    1    3    3  502    0  0.35017674756E+03  0.11790475173E+03  0.67860094792E+03  0.77268791988E+03  0.47000000000E+01 0. -1.
         -5    1    3    3    0  502  0.36139139239E+02 -0.16246193319E+02  0.70847127293E+02  0.81310402951E+02  0.47000000000E+01 0.  1.
         11    1    5    5    0    0 -0.31832607477E+03 -0.26534436547E+02  0.84538019856E+03  0.90371635280E+03  0.00000000000E+00 0. -1.
        -11    1    5    5    0    0 -0.19147128606E+03  0.36842109510E+02  0.40007079078E+03  0.44505643693E+03  0.00000000000E+00 0.  1.
          4    1    6    6  503    0  0.63818608976E+02 -0.10389445446E+03  0.13447865048E+03  0.18152514965E+03  0.00000000000E+00 0.  1.
         -4    1    6    6    0  503  0.59662865053E+02 -0.80717769151E+01  0.13098428780E+03  0.14415857484E+03  0.00000000000E+00 0. -1.
<mgrwt>
<rscale>  0 0.55298685E+03</rscale>
<asrwt>0</asrwt>
<pdfrwt beam="1">  1        2 0.36837050E+00 0.55298685E+03</pdfrwt>
<pdfrwt beam="2">  1       -2 0.20622527E-01 0.55298685E+03</pdfrwt>
<totfact> 0.86209931E+01</totfact>
</mgrwt>
</event>
<event>
12    1  0.3147868E-008  0.4051000E+03  0.7818608E-02  0.1042028E+00
         -1   -1    0    0    0  501 -0.00000000000E+00  0.00000000000E+00  0.87114004446E+02  0.87114004446E+02  0.00000000000E+00 0.  1.
          1   -1    0    0  501    0  0.00000000000E+00 -0.00000000000E+00 -0.29528981184E+04  0.29528981184E+04  0.00000000000E+00 0. -1.
         23    2    1    2    0    0  0.92837711421E+02 -0.23757274679E+03 -0.34574505580E+03  0.43698361152E+03  0.79720652586E+02 0.  0.
    5000000    2    1    2    0    0 -0.92837711421E+02  0.23757274679E+03 -0.25200390582E+04  0.26030285114E+04  0.60008409868E+03 0.  0.
         23    2    4    4    0    0 -0.25532790361E+03  0.26696954402E+03 -0.21920944157E+04  0.22249161425E+04  0.92243362987E+02 0.  0.
         23    2    4    4    0    0  0.16249019219E+03 -0.29396797232E+02 -0.32794464248E+03  0.37811236885E+03  0.90299727036E+02 0.  0.
          5    1    3    3  502    0 -0.12830458267E+02 -0.42314227650E+02 -0.70121808626E+02  0.83031756371E+02  0.47000000000E+01 0. -1.
         -5    1    3    3    0  502  0.10566816969E+03 -0.19525851914E+03 -0.27562324718E+03  0.35395185515E+03  0.47000000000E+01 0.  1.
         13    1    5    5    0    0 -0.15567366674E+03  0.16693112346E+03 -0.10773681189E+04  0.11012821410E+04  0.00000000000E+00 0.  1.
        -13    1    5    5    0    0 -0.99654236871E+02  0.10003842056E+03 -0.11147262968E+04  0.11236340015E+04  0.00000000000E+00 0. -1.
          1    1    6    6  503    0  0.15748353778E+03 -0.14100902612E+02 -0.23155523196E+03  0.28038852611E+03  0.00000000000E+00 0.  1.
         -1    1    6    6    0  503  0.50066544147E+01 -0.15295894620E+02 -0.96389410512E+02  0.97723842739E+02  0.00000000000E+00 0. -1.
<mgrwt>
<rscale>  0 0.40509996E+03</rscale>
<asrwt>0</asrwt>
<pdfrwt beam="1">  1        1 0.45429206E+00 0.40509996E+03</pdfrwt>
<pdfrwt beam="2">  1       -1 0.13402153E-01 0.40509996E+03</pdfrwt>
<totfact> 0.28845992E+01</totfact>
</mgrwt>
</event>
<event>
12    1  0.3147868E-008  0.9653350E+03  0.7818608E-02  0.9347404E-01
         -2   -1    0    0    0  501 -0.00000000000E+00  0.00000000000E+00  0.38520174396E+03  0.38520174396E+03  0.00000000000E+00 0. -1.
          2   -1    0    0  501    0  0.00000000000E+00 -0.00000000000E+00 -0.26222488720E+04  0.26222488720E+04  0.00000000000E+00 0.  1.
         23    2    1    2    0    0  0.62466971568E+03 -0.66295377189E+03 -0.11235726842E+04  0.14488397704E+04  0.83672852943E+02 0.  0.
    5000000    2    1    2    0    0 -0.62466971568E+03  0.66295377189E+03 -0.11134744439E+04  0.15586108456E+04  0.59976868328E+03 0.  0.
         23    2    4    4    0    0 -0.20191960838E+03  0.53199577369E+03 -0.87225468059E+03  0.10454131558E+04  0.90936280212E+02 0.  0.
         23    2    4    4    0    0 -0.42275010730E+03  0.13095799820E+03 -0.24121976332E+03  0.51319768980E+03  0.96525872598E+02 0.  0.
          5    1    3    3  502    0  0.42347754880E+03 -0.41099602495E+03 -0.67873988444E+03  0.89942253007E+03  0.47000000000E+01 0. -1.
         -5    1    3    3    0  502  0.20119216688E+03 -0.25195774694E+03 -0.44483279971E+03  0.54941724031E+03  0.47000000000E+01 0.  1.
         13    1    5    5    0    0 -0.14979064091E+03  0.47339786615E+03 -0.77588330020E+03  0.92116104526E+03  0.00000000000E+00 0.  1.
        -13    1    5    5    0    0 -0.52128967470E+02  0.58597907544E+02 -0.96371380392E+02  0.12425211055E+03  0.00000000000E+00 0. -1.
          1    1    6    6  503    0 -0.35695346438E+03  0.10222681557E+03 -0.23859355714E+03  0.44135358055E+03  0.00000000000E+00 0. -1.
         -1    1    6    6    0  503 -0.65796642919E+02  0.28731182626E+02 -0.26262061823E+01  0.71844109246E+02  0.00000000000E+00 0.  1.
<mgrwt>
<rscale>  0 0.96533501E+03</rscale>
<asrwt>0</asrwt>
<pdfrwt beam="1">  1        2 0.40342290E+00 0.96533501E+03</pdfrwt>
<pdfrwt beam="2">  1       -2 0.59261807E-01 0.96533501E+03</pdfrwt>
<totfact> 0.79984676E+00</totfact>
</mgrwt>
</event>
<event>
12    1  0.3147868E-008  0.1782553E+04  0.7818608E-02  0.8715633E-01
         -2   -1    0    0    0  501 -0.00000000000E+00  0.00000000000E+00  0.10362501489E+04  0.10362501489E+04  0.00000000000E+00 0.  1.
          2   -1    0    0  501    0  0.00000000000E+00 -0.00000000000E+00 -0.31106800787E+04  0.31106800787E+04  0.00000000000E+00 0. -1.
         23    2    1    2    0    0 -0.13819094712E+04 -0.10494697333E+04 -0.80507255693E+03  0.19147884013E+04  0.84925213726E+02 0.  0.
    5000000    2    1    2    0    0  0.13819094712E+04  0.10494697333E+04 -0.12693573728E+04  0.22321418263E+04  0.60010706140E+03 0.  0.
         23    2    4    4    0    0  0.32635657330E+03  0.58275734346E+03 -0.53231574185E+03  0.85969594155E+03  0.97991472091E+02 0.  0.
         23    2    4    4    0    0  0.10555528979E+04  0.46671238981E+03 -0.73704163098E+03  0.13724458848E+04  0.91460186479E+02 0.  0.
          5    1    3    3  502    0 -0.88875742119E+03 -0.63586231193E+03 -0.47757879600E+03  0.11926081627E+04  0.47000000000E+01 0. -1.
         -5    1    3    3    0  502 -0.49315205004E+03 -0.41360742134E+03 -0.32749376093E+03  0.72218023851E+03  0.47000000000E+01 0.  1.
         13    1    5    5    0    0  0.23350390990E+03  0.32242924802E+03 -0.33155325141E+03  0.51808518068E+03  0.00000000000E+00 0. -1.
        -13    1    5    5    0    0  0.92852663404E+02  0.26032809544E+03 -0.20076249044E+03  0.34161076087E+03  0.00000000000E+00 0.  1.
          2    1    6    6  503    0  0.48488358887E+03  0.21064916002E+03 -0.39166547107E+03  0.65794149026E+03  0.00000000000E+00 0.  1.
         -2    1    6    6    0  503  0.57066930906E+03  0.25606322979E+03 -0.34537615991E+03  0.71450439451E+03  0.00000000000E+00 0. -1.
<mgrwt>
<rscale>  0 0.17825533E+04</rscale>
<asrwt>0</asrwt>
<pdfrwt beam="1">  1        2 0.47856616E+00 0.17825533E+04</pdfrwt>
<pdfrwt beam="2">  1       -2 0.15942310E+00 0.17825533E+04</pdfrwt>
<totfact> 0.34631502E-01</totfact>
</mgrwt>
</event>
<event>
12    1  0.3147868E-008  0.1068850E+04  0.7818608E-02  0.9236096E-01
          1   -1    0    0  501    0  0.00000000000E+00  0.00000000000E+00  0.97084523369E+03  0.97084523369E+03  0.00000000000E+00 0. -1.
         -1   -1    0    0    0  501 -0.00000000000E+00 -0.00000000000E+00 -0.13048715299E+04  0.13048715299E+04  0.00000000000E+00 0.  1.
         23    2    1    2    0    0  0.85717442709E+03  0.59484495442E+03 -0.17110516062E+03  0.10611674600E+04  0.90613927446E+02 0.  0.
    5000000    2    1    2    0    0 -0.85717442709E+03 -0.59484495442E+03 -0.16292113555E+03  0.12145493036E+04  0.59999849682E+03 0.  0.
         23    2    4    4    0    0  0.25354072673E+02 -0.17949709529E+02 -0.12309676797E+03  0.15565740371E+03  0.90063266496E+02 0.  0.
         23    2    4    4    0    0 -0.88252849976E+03 -0.57689524489E+03 -0.39824367585E+02  0.10588918999E+04  0.89450538967E+02 0.  0.
          5    1    3    3  502    0  0.49338776434E+03  0.37399375263E+03 -0.64983451783E+02  0.62253333406E+03  0.47000000000E+01 0.  1.
         -5    1    3    3    0  502  0.36378666274E+03  0.22085120179E+03 -0.10612170883E+03  0.43863412590E+03  0.47000000000E+01 0. -1.
         11    1    5    5    0    0  0.28174207707E+02 -0.11169554617E+02  0.19735530803E+01  0.30371694750E+02  0.00000000000E+00 0. -1.
        -11    1    5    5    0    0 -0.28201350341E+01 -0.67801549122E+01 -0.12507032105E+03  0.12528570896E+03  0.00000000000E+00 0.  1.
          4    1    6    6  503    0 -0.72012828766E+03 -0.49109301146E+03 -0.34276002320E+01  0.87164720216E+03  0.00000000000E+00 0. -1.
         -4    1    6    6    0  503 -0.16240021209E+03 -0.85802233434E+02 -0.36396767353E+02  0.18724469772E+03  0.00000000000E+00 0.  1.
<mgrwt>
<rscale>  0 0.10688500E+04</rscale>
<asrwt>0</asrwt>
<pdfrwt beam="1">  1        1 0.14936081E+00 0.10688500E+04</pdfrwt>
<pdfrwt beam="2">  1       -1 0.20074947E+00 0.10688500E+04</pdfrwt>
<totfact> 0.23624527E+00</totfact>
</mgrwt>
</event>
<event>
12    1  0.3147868E-008  0.9893161E+03  0.7818608E-02  0.9320341E-01
          2   -1    0    0  501    0  0.00000000000E+00  0.00000000000E+00  0.20140942544E+04  0.20140942544E+04  0.00000000000E+00 0. -1.
         -2   -1    0    0    0  501 -0.00000000000E+00 -0.00000000000E+00 -0.57155547184E+03  0.57155547184E+03  0.00000000000E+00 0.  1.
         23    2    1    2    0    0  0.91348439421E+03  0.36884933575E+03  0.73487753856E+03  0.12324138229E+04  0.91078336261E+02 0.  0.
    5000000    2    1    2    0    0 -0.91348439421E+03 -0.36884933575E+03  0.70766124395E+03  0.13532359033E+04  0.59996616798E+03 0.  0.
         23    2    4    4    0    0 -0.70621668837E+03 -0.31323409571E+03  0.21376492395E+03  0.80711805904E+03  0.94268281347E+02 0.  0.
         23    2    4    4    0    0 -0.20726770584E+03 -0.55615240038E+02  0.49389632000E+03  0.54611784422E+03  0.90874463142E+02 0.  0.
          5    1    3    3  502    0  0.74124728226E+03  0.27571610018E+03  0.55215627467E+03  0.96455458270E+03  0.47000000000E+01 0. -1.
         -5    1    3    3    0  502  0.17223711195E+03  0.93133235572E+02  0.18272126389E+03  0.26785924024E+03  0.47000000000E+01 0.  1.
         11    1    5    5    0    0 -0.60455864955E+03 -0.23347345557E+03  0.19334389456E+03  0.67630087740E+03  0.00000000000E+00 0.  1.
        -11    1    5    5    0    0 -0.10165803882E+03 -0.79760640139E+02  0.20421029392E+02  0.13081718165E+03  0.00000000000E+00 0. -1.
          3    1    6    6  503    0 -0.19611410960E+03 -0.52958627615E+02  0.37342255259E+03  0.42509970949E+03  0.00000000000E+00 0. -1.
         -3    1    6    6    0  503 -0.11153596236E+02 -0.26566124225E+01  0.12047376741E+03  0.12101813473E+03  0.00000000000E+00 0.  1.
<mgrwt>
<rscale>  0 0.98931613E+03</rscale>
<asrwt>0</asrwt>
<pdfrwt beam="1">  1        2 0.30986065E+00 0.98931613E+03</pdfrwt>
<pdfrwt beam="2">  1       -2 0.87931613E-01 0.98931613E+03</pdfrwt>
<totfact> 0.73373696E+00</totfact>
</mgrwt>
</event>
<event>
12    1  0.3147868E-008  0.1273089E+04  0.7818608E-02  0.9051182E-01
          3   -1    0    0  501    0  0.00000000000E+00  0.00000000000E+00  0.95934084909E+03  0.95934084909E+03  0.00000000000E+00 0. -1.
         -3   -1    0    0    0  501 -0.00000000000E+00 -0.00000000000E+00 -0.25246890910E+04  0.25246890910E+04  0.00000000000E+00 0.  1.
         23    2    1    2    0    0 -0.11991977233E+04  0.35710131345E+03  0.16562852667E+03  0.12654903862E+04  0.91850862674E+02 0.  0.
    5000000    2    1    2    0    0  0.11991977233E+04 -0.35710131345E+03 -0.17309767685E+04  0.22185395539E+04  0.60003387498E+03 0.  0.
         23    2    4    4    0    0  0.10187584753E+04 -0.17464924729E+03 -0.16207243824E+04  0.19244412799E+04  0.91408563847E+02 0.  0.
         23    2    4    4    0    0  0.18043924800E+03 -0.18245206616E+03 -0.11025238611E+03  0.29409827392E+03  0.92147313642E+02 0.  0.
          5    1    3    3  502    0 -0.26674581085E+03  0.87241897075E+02  0.75026141696E+02  0.29054343591E+03  0.47000000000E+01 0. -1.
         -5    1    3    3    0  502 -0.93245191247E+03  0.26985941638E+03  0.90602384977E+02  0.97494695027E+03  0.47000000000E+01 0.  1.
         13    1    5    5    0    0  0.98185339237E+03 -0.18485149050E+03 -0.15686975446E+04  0.18598435805E+04  0.00000000000E+00 0. -1.
        -13    1    5    5    0    0  0.36905082951E+02  0.10202243206E+02 -0.52026837856E+02  0.64597699428E+02  0.00000000000E+00 0.  1.
          4    1    6    6  503    0  0.16464118119E+03 -0.17361483395E+03 -0.68951010019E+02  0.24900415839E+03  0.00000000000E+00 0. -1.
         -4    1    6    6    0  503  0.15798066818E+02 -0.88372322035E+01 -0.41301376093E+02  0.45094115529E+02  0.00000000000E+00 0.  1.
<mgrwt>
<rscale>  0 0.12730892E+04</rscale>
<asrwt>0</asrwt>
<pdfrwt beam="1">  1        3 0.14759090E+00 0.12730892E+04</pdfrwt>
<pdfrwt beam="2">  1       -3 0.38841370E+00 0.12730892E+04</pdfrwt>
<totfact> 0.10253211E-02</totfact>
</mgrwt>
</event>
<event>
12    1  0.3147868E-008  0.6027237E+03  0.7818608E-02  0.9899771E-01
         -3   -1    0    0    0  501 -0.00000000000E+00  0.00000000000E+00  0.81321303071E+03  0.81321303071E+03  0.00000000000E+00 0.  1.
          3   -1    0    0  501    0  0.00000000000E+00 -0.00000000000E+00 -0.69081338087E+03  0.69081338087E+03  0.00000000000E+00 0. -1.
         23    2    1    2    0    0 -0.53214434372E+03  0.14748648707E+03 -0.24279650586E+03  0.61009956614E+03  0.91331653469E+02 0.  0.
    5000000    2    1    2    0    0  0.53214434372E+03 -0.14748648707E+03  0.36519615570E+03  0.89392684544E+03  0.60067221214E+03 0.  0.
         23    2    4    4    0    0  0.35703845764E+03  0.65194141436E+02 -0.59080480669E+02  0.37992529950E+03  0.95530066929E+02 0.  0.
         23    2    4    4    0    0  0.17510588607E+03 -0.21268062851E+03  0.42427663637E+03  0.51400154594E+03  0.91059343168E+02 0.  0.
          5    1    3    3  502    0 -0.15555066923E+03  0.15426932851E+02 -0.35470368006E+02  0.16035659625E+03  0.47000000000E+01 0. -1.
         -5    1    3    3    0  502 -0.37659367449E+03  0.13205955422E+03 -0.20732613785E+03  0.44974296989E+03  0.47000000000E+01 0.  1.
         11    1    5    5    0    0  0.54176448303E+02  0.43351274542E+02 -0.27507151501E+02  0.74639560146E+02  0.00000000000E+00 0.  1.
        -11    1    5    5    0    0  0.30286200934E+03  0.21842866895E+02 -0.31573329167E+02  0.30528573935E+03  0.00000000000E+00 0. -1.
          4    1    6    6  503    0  0.68747498622E+02 -0.62609730642E+02  0.22151409797E+03  0.24023882396E+03  0.00000000000E+00 0. -1.
         -4    1    6    6    0  503  0.10635838745E+03 -0.15007089787E+03  0.20276253840E+03  0.27376272198E+03  0.00000000000E+00 0.  1.
<mgrwt>
<rscale>  0 0.60272367E+03</rscale>
<asrwt>0</asrwt>
<pdfrwt beam="1">  1        3 0.10627898E+00 0.60272367E+03</pdfrwt>
<pdfrwt beam="2">  1       -3 0.12510970E+00 0.60272367E+03</pdfrwt>
<totfact> 0.10097143E+00</totfact>
</mgrwt>
</event>
<event>
12    1  0.3147868E-008  0.5625136E+03  0.7818608E-02  0.9986383E-01
          2   -1    0    0  501    0  0.00000000000E+00  0.00000000000E+00  0.34288861277E+04  0.34288861277E+04  0.00000000000E+00 0. -1.
         -2   -1    0    0    0  501 -0.00000000000E+00 -0.00000000000E+00 -0.10589628100E+03  0.10589628100E+03  0.00000000000E+00 0.  1.
         23    2    1    2    0    0 -0.35578225307E+03  0.23046967656E+03  0.83583500095E+03  0.94155074977E+03  0.90555961557E+02 0.  0.
    5000000    2    1    2    0    0  0.35578225307E+03 -0.23046967656E+03  0.24871548458E+04  0.25932316589E+04  0.59934458094E+03 0.  0.
         23    2    4    4    0    0  0.44925020970E+03 -0.33010848592E+03  0.17939643113E+04  0.18807730778E+04  0.90565204462E+02 0.  0.
         23    2    4    4    0    0 -0.93467956630E+02  0.99638809363E+02  0.69319053443E+03  0.71245858119E+03  0.91760348926E+02 0.  0.
          5    1    3    3  502    0 -0.25441515985E+03  0.18019123192E+03  0.52351619683E+03  0.60933344892E+03  0.47000000000E+01 0. -1.
         -5    1    3    3    0  502 -0.10136709322E+03  0.50278444632E+02  0.31231880411E+03  0.33221730085E+03  0.47000000000E+01 0.  1.
         11    1    5    5    0    0  0.20000298153E+03 -0.14339202078E+03  0.94403188065E+03  0.97558118879E+03  0.00000000000E+00 0.  1.
        -11    1    5    5    0    0  0.24924722817E+03 -0.18671646514E+03  0.84993243070E+03  0.90519188897E+03  0.00000000000E+00 0. -1.
          1    1    6    6  503    0  0.39505783169E+01  0.69277055904E+01  0.18863909200E+01  0.81950377966E+01  0.00000000000E+00 0. -1.
         -1    1    6    6    0  503 -0.97418534947E+02  0.92711103773E+02  0.69130414351E+03  0.70426354339E+03  0.00000000000E+00 0.  1.
<mgrwt>
<rscale>  0 0.56251359E+03</rscale>
<asrwt>0</asrwt>
<pdfrwt beam="1">  1        2 0.52752086E+00 0.56251359E+03</pdfrwt>
<pdfrwt beam="2">  1       -2 0.16291738E-01 0.56251359E+03</pdfrwt>
<totfact> 0.30839914E+01</totfact>
</mgrwt>
</event>
<event>
12    1  0.3147868E-008  0.1694751E+04  0.7818608E-02  0.8764364E-01
         -2   -1    0    0    0  501 -0.00000000000E+00  0.00000000000E+00  0.72423489740E+03  0.72423489740E+03  0.00000000000E+00 0. -1.
          2   -1    0    0  501    0  0.00000000000E+00 -0.00000000000E+00 -0.41821783781E+04  0.41821783781E+04  0.00000000000E+00 0.  1.
         23    2    1    2    0    0 -0.96746812979E+02 -0.16751174768E+04 -0.14283898135E+04  0.22055987737E+04  0.94815527176E+02 0.  0.
    5000000    2    1    2    0    0  0.96746812979E+02  0.16751174768E+04 -0.20295536671E+04  0.27008145017E+04  0.59994364564E+03 0.  0.
         23    2    4    4    0    0  0.19875407868E+03  0.12808591254E+04 -0.11844062020E+04  0.17583102548E+04  0.93453828664E+02 0.  0.
         23    2    4    4    0    0 -0.10200726570E+03  0.39425835145E+03 -0.84514746515E+03  0.94250424688E+03  0.90525618531E+02 0.  0.
          5    1    3    3  502    0 -0.16868378195E+02 -0.10608721141E+04 -0.88840660519E+03  0.13838434054E+04  0.47000000000E+01 0. -1.
         -5    1    3    3    0  502 -0.79878434784E+02 -0.61424536277E+03 -0.53998320836E+03  0.82175536830E+03  0.47000000000E+01 0.  1.
         11    1    5    5    0    0  0.11490916040E+03  0.73248037358E+03 -0.61451195178E+03  0.96299353669E+03  0.00000000000E+00 0.  1.
        -11    1    5    5    0    0  0.83844918284E+02  0.54837875182E+03 -0.56989425019E+03  0.79531671815E+03  0.00000000000E+00 0. -1.
          3    1    6    6  503    0  0.76092622204E+01  0.73412272508E+02 -0.10446379053E+03  0.12790600517E+03  0.00000000000E+00 0. -1.
         -3    1    6    6    0  503 -0.10961652792E+03  0.32084607894E+03 -0.74068367461E+03  0.81459824171E+03  0.00000000000E+00 0.  1.
<mgrwt>
<rscale>  0 0.16947512E+04</rscale>
<asrwt>0</asrwt>
<pdfrwt beam="1">  1        2 0.64341206E+00 0.16947512E+04</pdfrwt>
<pdfrwt beam="2">  1       -2 0.11142075E+00 0.16947512E+04</pdfrwt>
<totfact> 0.14534653E-01</totfact>
</mgrwt>
</event>
<event>
12    1  0.3147868E-008  0.1121096E+04  0.7818608E-02  0.9184871E-01
         -1   -1    0    0    0  501 -0.00000000000E+00  0.00000000000E+00  0.73962758697E+03  0.73962758697E+03  0.00000000000E+00 0.  1.
          1   -1    0    0  501    0  0.00000000000E+00 -0.00000000000E+00 -0.18931003851E+04  0.18931003851E+04  0.00000000000E+00 0. -1.
         23    2    1    2    0    0 -0.65673708644E+03 -0.87888207373E+03 -0.69103909342E+03  0.12995281891E+04  0.86609384257E+02 0.  0.
    5000000    2    1    2    0    0  0.65673708644E+03  0.87888207373E+03 -0.46243370474E+03  0.13331997830E+04  0.59986617663E+03 0.  0.
         23    2    4    4    0    0  0.28107070807E+03  0.61818283652E+03 -0.52526580935E+03  0.86270584090E+03  0.84890724677E+02 0.  0.
         23    2    4    4    0    0  0.37566637837E+03  0.26069923721E+03  0.62832104611E+02  0.47049394210E+03  0.91254348203E+02 0.  0.
          5    1    3    3  502    0 -0.17884518096E+03 -0.17943372832E+03 -0.16415285408E+03  0.30191109803E+03  0.47000000000E+01 0. -1.
         -5    1    3    3    0  502 -0.47789190548E+03 -0.69944834541E+03 -0.52688623934E+03  0.99761709109E+03  0.47000000000E+01 0.  1.
         13    1    5    5    0    0  0.25918660808E+03  0.49437812839E+03 -0.44050787017E+03  0.71107989377E+03  0.00000000000E+00 0.  1.
        -13    1    5    5    0    0  0.21884099988E+02  0.12380470813E+03 -0.84757939179E+02  0.15162594713E+03  0.00000000000E+00 0. -1.
          3    1    6    6  503    0  0.10481618150E+02  0.11954007819E+02  0.21460945370E+02  0.26708328255E+02  0.00000000000E+00 0. -1.
         -3    1    6    6    0  503  0.36518476021E+03  0.24874522939E+03  0.41371159241E+02  0.44378561384E+03  0.00000000000E+00 0.  1.
<mgrwt>
<rscale>  0 0.11210960E+04</rscale>
<asrwt>0</asrwt>
<pdfrwt beam="1">  1        1 0.29124622E+00 0.11210960E+04</pdfrwt>
<pdfrwt beam="2">  1       -1 0.11378886E+00 0.11210960E+04</pdfrwt>
<totfact> 0.24642035E+00</totfact>
</mgrwt>
</event>
<event>
12    1  0.3147868E-008  0.9743187E+03  0.7818608E-02  0.9337169E-01
          2   -1    0    0  501    0  0.00000000000E+00  0.00000000000E+00  0.99576310220E+03  0.99576310220E+03  0.00000000000E+00 0. -1.
         -2   -1    0    0    0  501 -0.00000000000E+00 -0.00000000000E+00 -0.98053641004E+03  0.98053641004E+03  0.00000000000E+00 0.  1.
         23    2    1    2    0    0 -0.45115533139E+03 -0.77218511645E+03 -0.13094350789E+02  0.89903385861E+03  0.90991372085E+02 0.  0.
    5000000    2    1    2    0    0  0.45115533139E+03  0.77218511645E+03  0.28321042953E+02  0.10772656536E+04  0.59990684270E+03 0.  0.
         23    2    4    4    0    0  0.41303445558E+03  0.84778644241E+03 -0.95672199128E+01  0.94762105863E+03  0.92492300421E+02 0.  0.
         23    2    4    4    0    0  0.38120875812E+02 -0.75601325961E+02  0.37888262865E+02  0.12964459500E+03  0.90572837484E+02 0.  0.
          5    1    3    3  502    0 -0.35957844685E+03 -0.65805813413E+03 -0.36399708488E+02  0.75078904901E+03  0.47000000000E+01 0. -1.
         -5    1    3    3    0  502 -0.91576884547E+02 -0.11412698232E+03  0.23305357699E+02  0.14824480960E+03  0.47000000000E+01 0.  1.
         11    1    5    5    0    0  0.21498253130E+03  0.39446780200E+03  0.36842876957E+02  0.45075462634E+03  0.00000000000E+00 0. -1.
        -11    1    5    5    0    0  0.19805192428E+03  0.45331864041E+03 -0.46410096870E+02  0.49686643230E+03  0.00000000000E+00 0.  1.
          3    1    6    6  503    0  0.28755448003E+02  0.32908232184E+01  0.40942581110E+02  0.50139807092E+02  0.00000000000E+00 0. -1.
         -3    1    6    6    0  503  0.93654278095E+01 -0.78892149180E+02 -0.30543182449E+01  0.79504787907E+02  0.00000000000E+00 0.  1.
<mgrwt>
<rscale>  0 0.97431873E+03</rscale>
<asrwt>0</asrwt>
<pdfrwt beam="1">  1        2 0.15319432E+00 0.97431873E+03</pdfrwt>
<pdfrwt beam="2">  1       -2 0.15085175E+00 0.97431873E+03</pdfrwt>
<totfact> 0.74340719E+00</totfact>
</mgrwt>
</event>
<event>
12    1  0.3147868E-008  0.1126702E+04  0.7818608E-02  0.9179550E-01
         -2   -1    0    0    0  501 -0.00000000000E+00  0.00000000000E+00  0.64850678515E+03  0.64850678515E+03  0.00000000000E+00 0. -1.
          2   -1    0    0  501    0  0.00000000000E+00 -0.00000000000E+00 -0.22833191806E+04  0.22833191806E+04  0.00000000000E+00 0.  1.
         23    2    1    2    0    0 -0.79918833722E+03 -0.79091997548E+03 -0.53500461368E+03  0.12484382999E+04  0.90065787870E+02 0.  0.
    5000000    2    1    2    0    0  0.79918833722E+03  0.79091997548E+03 -0.10998077818E+04  0.16833876658E+04  0.59996705791E+03 0.  0.
         23    2    4    4    0    0  0.51076419170E+03  0.52182305709E+03 -0.10402746414E+04  0.12741890552E+04  0.90592805442E+02 0.  0.
         23    2    4    4    0    0  0.28842414552E+03  0.26909691839E+03 -0.59533140419E+02  0.40919861065E+03  0.91091541551E+02 0.  0.
          5    1    3    3  502    0 -0.37975554617E+03 -0.35063637446E+03 -0.29118549514E+03  0.59327162794E+03  0.47000000000E+01 0. -1.
         -5    1    3    3    0  502 -0.41943279105E+03 -0.44028360102E+03 -0.24381911854E+03  0.65516667200E+03  0.47000000000E+01 0.  1.
         13    1    5    5    0    0  0.15857219048E+03  0.14429687982E+03 -0.37642874066E+03  0.43320356175E+03  0.00000000000E+00 0.  1.
        -13    1    5    5    0    0  0.35219200121E+03  0.37752617727E+03 -0.66384590071E+03  0.84098549341E+03  0.00000000000E+00 0. -1.
          4    1    6    6  503    0  0.18492664767E+03  0.13836972707E+03 -0.72188094354E+02  0.24198175004E+03  0.00000000000E+00 0. -1.
         -4    1    6    6    0  503  0.10349749786E+03  0.13072719132E+03  0.12654953935E+02  0.16721686061E+03  0.00000000000E+00 0.  1.
<mgrwt>
<rscale>  0 0.11267018E+04</rscale>
<asrwt>0</asrwt>
<pdfrwt beam="1">  1        2 0.35127986E+00 0.11267018E+04</pdfrwt>
<pdfrwt beam="2">  1       -2 0.99770278E-01 0.11267018E+04</pdfrwt>
<totfact> 0.38067049E+00</totfact>
</mgrwt>
</event>
<event>
12    1  0.3147868E-008  0.5347099E+03  0.7818608E-02  0.1005096E+00
          2   -1    0    0  501    0  0.00000000000E+00  0.00000000000E+00  0.26864261022E+04  0.26864261022E+04  0.00000000000E+00 0. -1.
         -2   -1    0    0    0  501 -0.00000000000E+00 -0.00000000000E+00 -0.18335514672E+03  0.18335514672E+03  0.00000000000E+00 0.  1.
         23    2    1    2    0    0 -0.20003718006E+03  0.42007879371E+03  0.16946399857E+04  0.17607149573E+04  0.10877230113E+03 0.  0.
    5000000    2    1    2    0    0  0.20003718006E+03 -0.42007879371E+03  0.80843096980E+03  0.11090662916E+04  0.59998861649E+03 0.  0.
         23    2    4    4    0    0  0.24161483451E+03 -0.83158134982E+02  0.49910549841E+02  0.27339966630E+03  0.83446455144E+02 0.  0.
         23    2    4    4    0    0 -0.41577654450E+02 -0.33692065873E+03  0.75852041996E+03  0.83566662531E+03  0.87984370994E+02 0.  0.
          5    1    3    3  502    0  0.24704213196E+01  0.66547307788E+02  0.32348266977E+03  0.33029952285E+03  0.47000000000E+01 0. -1.
         -5    1    3    3    0  502 -0.20250760138E+03  0.35353148592E+03  0.13711573159E+04  0.14304154344E+04  0.47000000000E+01 0.  1.
         11    1    5    5    0    0  0.25476966313E+02 -0.61003671147E+01 -0.20622716359E+02  0.33340466726E+02  0.00000000000E+00 0. -1.
        -11    1    5    5    0    0  0.21613786820E+03 -0.77057767868E+02  0.70533266200E+02  0.24005919957E+03  0.00000000000E+00 0.  1.
          1    1    6    6  503    0 -0.12490634098E+02 -0.12923023707E+03  0.19386905914E+03  0.23332741417E+03  0.00000000000E+00 0. -1.
         -1    1    6    6    0  503 -0.29087020351E+02 -0.20769042166E+03  0.56465136082E+03  0.60233921114E+03  0.00000000000E+00 0.  1.
<mgrwt>
<rscale>  0 0.53470987E+03</rscale>
<asrwt>0</asrwt>
<pdfrwt beam="1">  1        2 0.41329629E+00 0.53470987E+03</pdfrwt>
<pdfrwt beam="2">  1       -2 0.28208486E-01 0.53470987E+03</pdfrwt>
<totfact> 0.33826470E+01</totfact>
</mgrwt>
</event>
<event>
12    1  0.3147868E-008  0.5989463E+03  0.7818608E-02  0.9907595E-01
         -2   -1    0    0    0  501 -0.00000000000E+00  0.00000000000E+00  0.57741588177E+03  0.57741588177E+03  0.00000000000E+00 0.  1.
          2   -1    0    0  501    0  0.00000000000E+00 -0.00000000000E+00 -0.87945999443E+03  0.87945999443E+03  0.00000000000E+00 0. -1.
         23    2    1    2    0    0  0.29351813300E+03  0.47440472819E+03  0.45156403680E+02  0.56710108440E+03  0.91388175367E+02 0.  0.
    5000000    2    1    2    0    0 -0.29351813300E+03 -0.47440472819E+03 -0.34720051634E+03  0.88977479180E+03  0.59994853199E+03 0.  0.
         23    2    4    4    0    0  0.58887793704E+02 -0.55347421997E+02  0.11514388608E+03  0.16735127557E+03  0.90648913766E+02 0.  0.
         23    2    4    4    0    0 -0.35240592671E+03 -0.41905730620E+03 -0.46234440242E+03  0.72242351622E+03  0.91293084569E+02 0.  0.
          5    1    3    3  502    0  0.24659769054E+03  0.32117663280E+03  0.29827165455E+02  0.40604999721E+03  0.47000000000E+01 0. -1.
         -5    1    3    3    0  502  0.46920442463E+02  0.15322809540E+03  0.15329238225E+02  0.16105108719E+03  0.47000000000E+01 0.  1.
         11    1    5    5    0    0  0.48801068254E+02 -0.29205716609E+02  0.90114651493E+01  0.57582329317E+02  0.00000000000E+00 0.  1.
        -11    1    5    5    0    0  0.10086725450E+02 -0.26141705387E+02  0.10613242093E+03  0.10976894626E+03  0.00000000000E+00 0. -1.
          2    1    6    6  503    0 -0.11952571824E+03 -0.15278578266E+03 -0.22171034515E+03  0.29459356723E+03  0.00000000000E+00 0. -1.
         -2    1    6    6    0  503 -0.23288020846E+03 -0.26627152354E+03 -0.24063405726E+03  0.42782994899E+03  0.00000000000E+00 0.  1.
<mgrwt>
<rscale>  0 0.59894631E+03</rscale>
<asrwt>0</asrwt>
<pdfrwt beam="1">  1        2 0.13530154E+00 0.59894631E+03</pdfrwt>
<pdfrwt beam="2">  1       -2 0.88833213E-01 0.59894631E+03</pdfrwt>
<totfact> 0.33979569E+01</totfact>
</mgrwt>
</event>
<event>
12    1  0.3147868E-008  0.7509463E+03  0.7818608E-02  0.9633867E-01
         -1   -1    0    0    0  501 -0.00000000000E+00  0.00000000000E+00  0.11940818512E+04  0.11940818512E+04  0.00000000000E+00 0.  1.
          1   -1    0    0  501    0  0.00000000000E+00 -0.00000000000E+00 -0.10776441003E+04  0.10776441003E+04  0.00000000000E+00 0. -1.
         23    2    1    2    0    0  0.56583055351E+03  0.29854333837E+03  0.89165964174E+03  0.11010855016E+04  0.89666186527E+02 0.  0.
    5000000    2    1    2    0    0 -0.56583055351E+03 -0.29854333837E+03 -0.77522189083E+03  0.11706404500E+04  0.60011477476E+03 0.  0.
         23    2    4    4    0    0 -0.96344715495E+02 -0.36760966333E+03 -0.37519407555E+03  0.54189576599E+03  0.91985097164E+02 0.  0.
         23    2    4    4    0    0 -0.46948583801E+03  0.69066324951E+02 -0.40002781529E+03  0.62874468397E+03  0.10055105805E+03 0.  0.
          5    1    3    3  502    0  0.43070327007E+03  0.22854421826E+03  0.73984677987E+03  0.88607737486E+03  0.47000000000E+01 0. -1.
         -5    1    3    3    0  502  0.13512728344E+03  0.69999120117E+02  0.15181286186E+03  0.21500812676E+03  0.47000000000E+01 0.  1.
         13    1    5    5    0    0 -0.70761213654E+02 -0.12582902197E+03 -0.10559560057E+03  0.17885894718E+03  0.00000000000E+00 0. -1.
        -13    1    5    5    0    0 -0.25583501841E+02 -0.24178064135E+03 -0.26959847498E+03  0.36303681881E+03  0.00000000000E+00 0.  1.
          4    1    6    6  503    0 -0.33377372278E+02  0.45667752243E+01 -0.35413763319E+00  0.33690203763E+02  0.00000000000E+00 0. -1.
         -4    1    6    6    0  503 -0.43610846574E+03  0.64499549727E+02 -0.39967367765E+03  0.59505448020E+03  0.00000000000E+00 0.  1.
<mgrwt>
<rscale>  0 0.75094627E+03</rscale>
<asrwt>0</asrwt>
<pdfrwt beam="1">  1        1 0.16579140E+00 0.75094627E+03</pdfrwt>
<pdfrwt beam="2">  1       -1 0.18370490E+00 0.75094627E+03</pdfrwt>
<totfact> 0.26880421E+00</totfact>
</mgrwt>
</event>
<event>
12    1  0.3147868E-008  0.3442175E+03  0.7818608E-02  0.1065014E+00
         -2   -1    0    0    0  501 -0.00000000000E+00  0.00000000000E+00  0.22073817259E+03  0.22073817259E+03  0.00000000000E+00 0.  1.
          2   -1    0    0  501    0  0.00000000000E+00 -0.00000000000E+00 -0.12979952864E+04  0.12979952864E+04  0.00000000000E+00 0. -1.
         23    2    1    2    0    0  0.15385841339E+03 -0.25886321112E+03 -0.65767008291E+03  0.72702720591E+03  0.73185017177E+02 0.  0.
    5000000    2    1    2    0    0 -0.15385841339E+03  0.25886321112E+03 -0.41958703085E+03  0.79170625304E+03  0.60005244871E+03 0.  0.
         23    2    4    4    0    0 -0.93251599715E+02 -0.52889547602E+00 -0.48449318823E+03  0.50213616100E+03  0.93332385381E+02 0.  0.
         23    2    4    4    0    0 -0.60606813672E+02  0.25939210660E+03  0.64906157380E+02  0.28957009204E+03  0.93169620095E+02 0.  0.
          5    1    3    3  502    0  0.11524124998E+03 -0.18400303949E+03 -0.39010604941E+03  0.44647786510E+03  0.47000000000E+01 0. -1.
         -5    1    3    3    0  502  0.38617163403E+02 -0.74860171628E+02 -0.26756403350E+03  0.28054934081E+03  0.47000000000E+01 0.  1.
         11    1    5    5    0    0 -0.31215327836E+01 -0.17628682888E+02 -0.24532710299E+03  0.24597947453E+03  0.00000000000E+00 0.  1.
        -11    1    5    5    0    0 -0.90130066932E+02  0.17099787412E+02 -0.23916608524E+03  0.25615668647E+03  0.00000000000E+00 0. -1.
          3    1    6    6  503    0 -0.39044517163E+02  0.36868766049E+02  0.34789597989E+02  0.63985126074E+02  0.00000000000E+00 0. -1.
         -3    1    6    6    0  503 -0.21562296510E+02  0.22252334055E+03  0.30116559391E+02  0.22558496596E+03  0.00000000000E+00 0.  1.
<mgrwt>
<rscale>  0 0.34421748E+03</rscale>
<asrwt>0</asrwt>
<pdfrwt beam="1">  1        2 0.19969158E+00 0.34421748E+03</pdfrwt>
<pdfrwt beam="2">  1       -2 0.33959719E-01 0.34421748E+03</pdfrwt>
<totfact> 0.14267775E+02</totfact>
</mgrwt>
</event>
<event>
12    1  0.3147868E-008  0.8844450E+03  0.7818608E-02  0.9445238E-01
         -1   -1    0    0    0  501 -0.00000000000E+00  0.00000000000E+00  0.46427798065E+03  0.46427798065E+03  0.00000000000E+00 0.  1.
          1   -1    0    0  501    0  0.00000000000E+00 -0.00000000000E+00 -0.20818315590E+04  0.20818315590E+04  0.00000000000E+00 0. -1.
         23    2    1    2    0    0  0.59393456930E+03 -0.53346430662E+03 -0.22872278005E+03  0.83550617768E+03  0.91727987970E+02 0.  0.
    5000000    2    1    2    0    0 -0.59393456930E+03  0.53346430662E+03 -0.13888307983E+04  0.17106033620E+04  0.59997536336E+03 0.  0.
         23    2    4    4    0    0 -0.30163759161E+03 -0.45280021640E+02 -0.65191415452E+03  0.72577843625E+03  0.93417111017E+02 0.  0.
         23    2    4    4    0    0 -0.29229697769E+03  0.57874432826E+03 -0.73691664376E+03  0.98482492571E+03  0.80321066872E+02 0.  0.
          5    1    3    3  502    0  0.50074287375E+03 -0.47878263487E+03 -0.22041356762E+03  0.72703539656E+03  0.47000000000E+01 0. -1.
         -5    1    3    3    0  502  0.93191695547E+02 -0.54681671752E+02 -0.83092124344E+01  0.10847078111E+03  0.47000000000E+01 0.  1.
         13    1    5    5    0    0 -0.19447244878E+02 -0.28662795610E+02 -0.50420861023E+02  0.61172006766E+02  0.00000000000E+00 0. -1.
        -13    1    5    5    0    0 -0.28219034673E+03 -0.16617226030E+02 -0.60149329349E+03  0.66460642948E+03  0.00000000000E+00 0.  1.
          3    1    6    6  503    0 -0.53367132936E+02  0.15774558259E+03 -0.15086760017E+03  0.22470592446E+03  0.00000000000E+00 0. -1.
         -3    1    6    6    0  503 -0.23892984476E+03  0.42099874567E+03 -0.58604904359E+03  0.76011900125E+03  0.00000000000E+00 0.  1.
<mgrwt>
<rscale>  0 0.88444500E+03</rscale>
<asrwt>0</asrwt>
<pdfrwt beam="1">  1        1 0.32028178E+00 0.88444500E+03</pdfrwt>
<pdfrwt beam="2">  1       -1 0.71427382E-01 0.88444500E+03</pdfrwt>
<totfact> 0.53373483E+00</totfact>
</mgrwt>
</event>
<event>
12    1  0.3147868E-008  0.6713962E+03  0.7818608E-02  0.9767439E-01
          2   -1    0    0  501    0  0.00000000000E+00  0.00000000000E+00  0.10018004495E+04  0.10018004495E+04  0.00000000000E+00 0. -1.
         -2   -1    0    0    0  501 -0.00000000000E+00 -0.00000000000E+00 -0.53672381984E+03  0.53672381984E+03  0.00000000000E+00 0.  1.
         23    2    1    2    0    0  0.55509421191E+03 -0.85753981288E+02  0.43346592216E+03  0.71555956030E+03  0.93002415299E+02 0.  0.
    5000000    2    1    2    0    0 -0.55509421191E+03  0.85753981288E+02  0.31610707521E+02  0.82296470906E+03  0.60065659584E+03 0.  0.
         23    2    4    4    0    0 -0.16489692818E+03 -0.21736708696E+03  0.12179308099E+03  0.31212345145E+03  0.90266532854E+02 0.  0.
         23    2    4    4    0    0 -0.39019728373E+03  0.30312106825E+03 -0.90182373469E+02  0.51084125761E+03  0.93218172835E+02 0.  0.
          5    1    3    3  502    0  0.34458549981E+03 -0.93579312649E+02  0.24703968153E+03  0.43421993123E+03  0.47000000000E+01 0. -1.
         -5    1    3    3    0  502  0.21050871210E+03  0.78253313616E+01  0.18642624064E+03  0.28133962906E+03  0.47000000000E+01 0.  1.
         13    1    5    5    0    0 -0.13423420598E+03 -0.18674541125E+03  0.61847796861E+02  0.23815503491E+03  0.00000000000E+00 0. -1.
        -13    1    5    5    0    0 -0.30662722203E+02 -0.30621675707E+02  0.59945284130E+02  0.73968416540E+02  0.00000000000E+00 0.  1.
          2    1    6    6  503    0 -0.35442064115E+03  0.23659860489E+03 -0.64095755720E+02  0.43093057052E+03  0.00000000000E+00 0. -1.
         -2    1    6    6    0  503 -0.35776642579E+02  0.66522463353E+02 -0.26086617749E+02  0.79910687085E+02  0.00000000000E+00 0.  1.
<mgrwt>
<rscale>  0 0.67139616E+03</rscale>
<asrwt>0</asrwt>
<pdfrwt beam="1">  1        2 0.15412315E+00 0.67139616E+03</pdfrwt>
<pdfrwt beam="2">  1       -2 0.82572896E-01 0.67139616E+03</pdfrwt>
<totfact> 0.33108362E+01</totfact>
</mgrwt>
</event>
<event>
12    1  0.4480339E-008  0.1303122E+04  0.7818608E-02  0.9027093E-01
         -2   -1    0    0    0  501 -0.00000000000E+00  0.00000000000E+00  0.18209470618E+04  0.18209470618E+04  0.00000000000E+00 0.  1.
          2   -1    0    0  501    0  0.00000000000E+00 -0.00000000000E+00 -0.15526386739E+04  0.15526386739E+04  0.00000000000E+00 0. -1.
         23    2    1    2    0    0  0.36443060962E+03  0.12181428099E+04  0.11478998149E+04  0.17152083647E+04  0.87087166766E+02 0.  0.
    5000000    2    1    2    0    0 -0.36443060962E+03 -0.12181428099E+04 -0.87959142699E+03  0.16583773710E+04  0.59987736389E+03 0.  0.
         23    2    4    4    0    0 -0.25668886184E+03 -0.25900858168E+03 -0.44320932267E+02  0.37891950317E+03  0.92957128115E+02 0.  0.
         23    2    4    4    0    0 -0.10774174778E+03 -0.95913422823E+03 -0.83527049472E+03  0.12794578678E+04  0.88254655796E+02 0.  0.
          5    1    3    3  502    0  0.12658253982E+03  0.53004995615E+03  0.45132362467E+03  0.70759536430E+03  0.47000000000E+01 0. -1.
         -5    1    3    3    0  502  0.23784806980E+03  0.68809285376E+03  0.69657619023E+03  0.10076130004E+04  0.47000000000E+01 0.  1.
         13    1    5    5    0    0 -0.93886483812E+02 -0.12977290746E+03 -0.58626947765E+02  0.17056611140E+03  0.00000000000E+00 0.  1.
        -13    1    5    5    0    0 -0.16280237803E+03 -0.12923567422E+03  0.14306015498E+02  0.20835339177E+03  0.00000000000E+00 0. -1.
          4    1    6    6  503    0 -0.41361812513E+02 -0.34988955017E+03 -0.24979339304E+03  0.43189146329E+03  0.00000000000E+00 0. -1.
         -4    1    6    6    0  503 -0.66379935265E+02 -0.60924467806E+03 -0.58547710168E+03  0.84756640456E+03  0.00000000000E+00 0.  1.
<mgrwt>
<rscale>  0 0.13031215E+04</rscale>
<asrwt>0</asrwt>
<pdfrwt beam="1">  1        2 0.23886749E+00 0.13031215E+04</pdfrwt>
<pdfrwt beam="2">  1       -2 0.28014570E+00 0.13031215E+04</pdfrwt>
<totfact> 0.47889593E-01</totfact>
</mgrwt>
</event>
<event>
12    1  0.3147868E-008  0.4007535E+03  0.7818608E-02  0.1043519E+00
         -2   -1    0    0    0  501 -0.00000000000E+00  0.00000000000E+00  0.94509409626E+03  0.94509409626E+03  0.00000000000E+00 0.  1.
          2   -1    0    0  501    0  0.00000000000E+00 -0.00000000000E+00 -0.27570356935E+03  0.27570356935E+03  0.00000000000E+00 0. -1.
         23    2    1    2    0    0  0.28894907143E+03 -0.14310705726E+03  0.16053090611E+03  0.37049446039E+03  0.86745476211E+02 0.  0.
    5000000    2    1    2    0    0 -0.28894907143E+03  0.14310705726E+03  0.50885962080E+03  0.85030320522E+03  0.60008851964E+03 0.  0.
         23    2    4    4    0    0 -0.27647867576E+03  0.24231179817E+03  0.58249567894E+03  0.69562283792E+03  0.97131101951E+02 0.  0.
         23    2    4    4    0    0 -0.12470395669E+02 -0.99204740905E+02 -0.73636058139E+02  0.15468036730E+03  0.92231532486E+02 0.  0.
          5    1    3    3  502    0  0.12496962252E+03 -0.63755505520E+02  0.11796716549E+03  0.18335897353E+03  0.47000000000E+01 0. -1.
         -5    1    3    3    0  502  0.16397944891E+03 -0.79351551742E+02  0.42563740612E+02  0.18713548686E+03  0.47000000000E+01 0.  1.
         13    1    5    5    0    0 -0.13276631026E+03  0.15752775750E+03  0.25283864447E+03  0.32614301719E+03  0.00000000000E+00 0.  1.
        -13    1    5    5    0    0 -0.14371236550E+03  0.84784040666E+02  0.32965703448E+03  0.36947982073E+03  0.00000000000E+00 0. -1.
          3    1    6    6  503    0  0.81458943556E+01 -0.49123963389E+01  0.18779540139E+02  0.21051326810E+02  0.00000000000E+00 0. -1.
         -3    1    6    6    0  503 -0.20616290025E+02 -0.94292344566E+02 -0.92415598278E+02  0.13362904049E+03  0.00000000000E+00 0.  1.
<mgrwt>
<rscale>  0 0.40075355E+03</rscale>
<asrwt>0</asrwt>
<pdfrwt beam="1">  1        2 0.42415934E-01 0.40075355E+03</pdfrwt>
<pdfrwt beam="2">  1       -2 0.14539909E+00 0.40075355E+03</pdfrwt>
<totfact> 0.40852547E+01</totfact>
</mgrwt>
</event>
<event>
12    1  0.3147868E-008  0.6196543E+03  0.7818608E-02  0.9865448E-01
          1   -1    0    0  501    0  0.00000000000E+00  0.00000000000E+00  0.10325742408E+04  0.10325742408E+04  0.00000000000E+00 0. -1.
         -1   -1    0    0    0  501 -0.00000000000E+00 -0.00000000000E+00 -0.41556436959E+03  0.41556436959E+03  0.00000000000E+00 0.  1.
         23    2    1    2    0    0 -0.51265878110E+03  0.85493299698E+01  0.23763938834E+03  0.57249505063E+03  0.91575036061E+02 0.  0.
    5000000    2    1    2    0    0  0.51265878110E+03 -0.85493299698E+01  0.37937048283E+03  0.87564355972E+03  0.59994796737E+03 0.  0.
         23    2    4    4    0    0 -0.61310123986E+02 -0.85652196294E+02 -0.51727948935E+02  0.14811001876E+03  0.90363526502E+02 0.  0.
         23    2    4    4    0    0  0.57396890508E+03  0.77102866325E+02  0.43109843176E+03  0.72753354096E+03  0.89855658440E+02 0.  0.
          5    1    3    3  502    0 -0.38313205783E+03  0.39724169526E+02  0.15240637388E+03  0.41426800043E+03  0.47000000000E+01 0. -1.
         -5    1    3    3    0  502 -0.12952672327E+03 -0.31174839556E+02  0.85233014461E+02  0.15822705020E+03  0.47000000000E+01 0.  1.
         11    1    5    5    0    0 -0.70543319211E+02 -0.21315988569E+02 -0.30209409544E+02  0.79645085718E+02  0.00000000000E+00 0.  1.
        -11    1    5    5    0    0  0.92331952250E+01 -0.64336207725E+02 -0.21518539392E+02  0.68464933039E+02  0.00000000000E+00 0. -1.
          1    1    6    6  503    0  0.50090180495E+03  0.47106218208E+02  0.34136496873E+03  0.60798984849E+03  0.00000000000E+00 0. -1.
         -1    1    6    6    0  503  0.73067100135E+02  0.29996648116E+02  0.89733463037E+02  0.11954369247E+03  0.00000000000E+00 0.  1.
<mgrwt>
<rscale>  0 0.61965430E+03</rscale>
<asrwt>0</asrwt>
<pdfrwt beam="1">  1        1 0.15885757E+00 0.61965430E+03</pdfrwt>
<pdfrwt beam="2">  1       -1 0.63932980E-01 0.61965430E+03</pdfrwt>
<totfact> 0.36904777E+01</totfact>
</mgrwt>
</event>
<event>
12    1  0.3147868E-008  0.4454902E+03  0.7818608E-02  0.1029076E+00
          1   -1    0    0  501    0  0.00000000000E+00  0.00000000000E+00  0.67530934737E+03  0.67530934737E+03  0.00000000000E+00 0. -1.
         -1   -1    0    0    0  501 -0.00000000000E+00 -0.00000000000E+00 -0.50261401645E+03  0.50261401645E+03  0.00000000000E+00 0.  1.
         23    2    1    2    0    0  0.52145044769E+02  0.28387530236E+03 -0.24541163216E+03  0.39221779667E+03  0.10150683644E+03 0.  0.
    5000000    2    1    2    0    0 -0.52145044769E+02 -0.28387530236E+03  0.41810696308E+03  0.78570556714E+03  0.59934590403E+03 0.  0.
         23    2    4    4    0    0 -0.22698061066E+03 -0.31967765460E+03  0.42732475661E+03  0.58706525448E+03  0.91242341840E+02 0.  0.
         23    2    4    4    0    0  0.17483556589E+03  0.35802352243E+02 -0.92177935265E+01  0.19864031266E+03  0.86739394550E+02 0.  0.
          5    1    3    3  502    0 -0.98172319464E+01  0.19331823129E+03 -0.13196404078E+03  0.23431797766E+03  0.47000000000E+01 0. -1.
         -5    1    3    3    0  502  0.61962276716E+02  0.90557071064E+02 -0.11344759138E+03  0.15789981902E+03  0.47000000000E+01 0.  1.
         13    1    5    5    0    0 -0.10765147860E+03 -0.19974488502E+03  0.29560281587E+03  0.37264981509E+03  0.00000000000E+00 0.  1.
        -13    1    5    5    0    0 -0.11932913207E+03 -0.11993276958E+03  0.13172194074E+03  0.21441543940E+03  0.00000000000E+00 0. -1.
          3    1    6    6  503    0  0.18859555963E+01  0.17410779152E+02 -0.17181191859E+02  0.24533353071E+02  0.00000000000E+00 0. -1.
         -3    1    6    6    0  503  0.17294961030E+03  0.18391573090E+02  0.79633983324E+01  0.17410695959E+03  0.00000000000E+00 0.  1.
<mgrwt>
<rscale>  0 0.44549015E+03</rscale>
<asrwt>0</asrwt>
<pdfrwt beam="1">  1        1 0.10389375E+00 0.44549015E+03</pdfrwt>
<pdfrwt beam="2">  1       -1 0.77325233E-01 0.44549015E+03</pdfrwt>
<totfact> 0.51065201E+01</totfact>
</mgrwt>
</event>
<event>
12    1  0.3147868E-008  0.4976171E+03  0.7818608E-02  0.1014403E+00
          2   -1    0    0  501    0  0.00000000000E+00  0.00000000000E+00  0.21403255658E+04  0.21403255658E+04  0.00000000000E+00 0. -1.
         -2   -1    0    0    0  501 -0.00000000000E+00 -0.00000000000E+00 -0.18683079417E+03  0.18683079417E+03  0.00000000000E+00 0.  1.
         23    2    1    2    0    0  0.70584973554E+01  0.47352663103E+03  0.57019789537E+03  0.74675567563E+03  0.90780540482E+02 0.  0.
    5000000    2    1    2    0    0 -0.70584973554E+01 -0.47352663103E+03  0.13832968763E+04  0.15804006843E+04  0.59989897692E+03 0.  0.
         23    2    4    4    0    0  0.70813421011E+02 -0.16841406923E+03  0.53404681979E+02  0.21074535454E+03  0.90463833069E+02 0.  0.
         23    2    4    4    0    0 -0.77871918366E+02 -0.30511256180E+03  0.13298921943E+04  0.13696553298E+04  0.90469679947E+02 0.  0.
          5    1    3    3  502    0 -0.12062107565E+02  0.17188934653E+03  0.27286127808E+03  0.32274883263E+03  0.47000000000E+01 0. -1.
         -5    1    3    3    0  502  0.19120604920E+02  0.30163728450E+03  0.29733661729E+03  0.42400684300E+03  0.47000000000E+01 0.  1.
         11    1    5    5    0    0 -0.10138778481E+02 -0.40509099237E+01 -0.11981933424E+02  0.16210226059E+02  0.00000000000E+00 0. -1.
        -11    1    5    5    0    0  0.80952199492E+02 -0.16436315931E+03  0.65386615403E+02  0.19453512849E+03  0.00000000000E+00 0.  1.
          4    1    6    6  503    0 -0.68539487867E+02 -0.10066352342E+03  0.55371486069E+03  0.56694881012E+03  0.00000000000E+00 0. -1.
         -4    1    6    6    0  503 -0.93324304997E+01 -0.20444903838E+03  0.77617733358E+03  0.80270651967E+03  0.00000000000E+00 0.  1.
<mgrwt>
<rscale>  0 0.49761715E+03</rscale>
<asrwt>0</asrwt>
<pdfrwt beam="1">  1        2 0.32928084E+00 0.49761715E+03</pdfrwt>
<pdfrwt beam="2">  1       -2 0.28743201E-01 0.49761715E+03</pdfrwt>
<totfact> 0.66239449E+01</totfact>
</mgrwt>
</event>
<event>
12    1  0.3147868E-008  0.4758576E+03  0.7818608E-02  0.1020280E+00
         -2   -1    0    0    0  501 -0.00000000000E+00  0.00000000000E+00  0.44742659283E+03  0.44742659283E+03  0.00000000000E+00 0.  1.
          2   -1    0    0  501    0  0.00000000000E+00 -0.00000000000E+00 -0.68426853515E+03  0.68426853515E+03  0.00000000000E+00 0. -1.
         23    2    1    2    0    0  0.29142396704E+03  0.21865366708E+03  0.41920592854E+02  0.37812906383E+03  0.92124362227E+02 0.  0.
    5000000    2    1    2    0    0 -0.29142396704E+03 -0.21865366708E+03 -0.27876253517E+03  0.75356606415E+03  0.59784271120E+03 0.  0.
         23    2    4    4    0    0 -0.23355967326E+03 -0.35874839648E+03 -0.35236202930E+03  0.56203419911E+03  0.92048402102E+02 0.  0.
         23    2    4    4    0    0 -0.57864293776E+02  0.14009472939E+03  0.73599494123E+02  0.19153186504E+03  0.91064592974E+02 0.  0.
          5    1    3    3  502    0  0.18084687695E+03  0.96060807389E+02 -0.97830894319E+01  0.20506357663E+03  0.47000000000E+01 0. -1.
         -5    1    3    3    0  502  0.11057709009E+03  0.12259285970E+03  0.51703682286E+02  0.17306548721E+03  0.47000000000E+01 0.  1.
         13    1    5    5    0    0 -0.67558863439E+02 -0.13917447799E+03 -0.17961963017E+03  0.23705895236E+03  0.00000000000E+00 0. -1.
        -13    1    5    5    0    0 -0.16600080982E+03 -0.21957391849E+03 -0.17274239912E+03  0.32497524675E+03  0.00000000000E+00 0.  1.
          2    1    6    6  503    0 -0.13217711462E+02  0.24478284157E+02  0.60890739833E+02  0.66944577742E+02  0.00000000000E+00 0. -1.
         -2    1    6    6    0  503 -0.44646582313E+02  0.11561644524E+03  0.12708754290E+02  0.12458728730E+03  0.00000000000E+00 0.  1.
<mgrwt>
<rscale>  0 0.47585756E+03</rscale>
<asrwt>0</asrwt>
<pdfrwt beam="1">  1        2 0.10527208E+00 0.47585756E+03</pdfrwt>
<pdfrwt beam="2">  1       -2 0.68834861E-01 0.47585756E+03</pdfrwt>
<totfact> 0.84124180E+01</totfact>
</mgrwt>
</event>
<event>
12    1  0.4360005E-008  0.1567423E+04  0.7818608E-02  0.8840815E-01
         -1   -1    0    0    0  501 -0.00000000000E+00  0.00000000000E+00  0.14524817576E+04  0.14524817576E+04  0.00000000000E+00 0.  1.
          1   -1    0    0  501    0  0.00000000000E+00 -0.00000000000E+00 -0.18210260412E+04  0.18210260412E+04  0.00000000000E+00 0. -1.
         23    2    1    2    0    0  0.11233451072E+03  0.15530848374E+04  0.20663800504E+02  0.15599523629E+04  0.91284322251E+02 0.  0.
    5000000    2    1    2    0    0 -0.11233451072E+03 -0.15530848374E+04 -0.38920808409E+03  0.17135554358E+04  0.60008144823E+03 0.  0.
         23    2    4    4    0    0 -0.16218621326E+03 -0.10691567811E+04 -0.26141126483E+01  0.10852205255E+04  0.91083286769E+02 0.  0.
         23    2    4    4    0    0  0.49851702542E+02 -0.48392805631E+03 -0.38659397144E+03  0.62833491031E+03  0.93157419605E+02 0.  0.
          5    1    3    3  502    0  0.39874189544E+02  0.11104017761E+04  0.71652885423E+01  0.11111505239E+04  0.47000000000E+01 0. -1.
         -5    1    3    3    0  502  0.72460321172E+02  0.44268306127E+03  0.13498511962E+02  0.44880183901E+03  0.47000000000E+01 0.  1.
         11    1    5    5    0    0 -0.39287557910E+02 -0.50066375686E+03 -0.28581220596E+02  0.50301550255E+03  0.00000000000E+00 0.  1.
        -11    1    5    5    0    0 -0.12289865535E+03 -0.56849302424E+03  0.25967107948E+02  0.58220502299E+03  0.00000000000E+00 0. -1.
          3    1    6    6  503    0  0.26578265051E+02 -0.44600768045E+03 -0.32566371579E+03  0.55288887760E+03  0.00000000000E+00 0. -1.
         -3    1    6    6    0  503  0.23273437492E+02 -0.37920375866E+02 -0.60930255642E+02  0.75446032707E+02  0.00000000000E+00 0.  1.
<mgrwt>
<rscale>  0 0.15674232E+04</rscale>
<asrwt>0</asrwt>
<pdfrwt beam="1">  1        1 0.28015785E+00 0.15674232E+04</pdfrwt>
<pdfrwt beam="2">  1       -1 0.22345873E+00 0.15674232E+04</pdfrwt>
<totfact> 0.38575697E-01</totfact>
</mgrwt>
</event>
<event>
12    1  0.3147868E-008  0.1732845E+03  0.7818608E-02  0.1174465E+00
          2   -1    0    0  501    0  0.00000000000E+00  0.00000000000E+00  0.24308982270E+04  0.24308982270E+04  0.00000000000E+00 0. -1.
         -2   -1    0    0    0  501 -0.00000000000E+00 -0.00000000000E+00 -0.52969386654E+02  0.52969386654E+02  0.00000000000E+00 0.  1.
         23    2    1    2    0    0  0.11500612682E+02 -0.25425385212E+01  0.13184734971E+03  0.15901016545E+03  0.88100967620E+02 0.  0.
    5000000    2    1    2    0    0 -0.11500612682E+02  0.25425385212E+01  0.22460814906E+04  0.23248574482E+04  0.59995113410E+03 0.  0.
         23    2    4    4    0    0 -0.14161169995E+03 -0.95110521813E+01  0.21075639018E+04  0.21145003269E+04  0.95612231024E+02 0.  0.
         23    2    4    4    0    0  0.13011108727E+03  0.12053590703E+02  0.13851758881E+03  0.21035712126E+03  0.89380154257E+02 0.  0.
          5    1    3    3  502    0  0.24905231594E+02 -0.25073351325E+02  0.12703659219E+03  0.13194441732E+03  0.47000000000E+01 0. -1.
         -5    1    3    3    0  502 -0.13404618912E+02  0.22530812803E+02  0.48107575253E+01  0.27065748128E+02  0.47000000000E+01 0.  1.
         11    1    5    5    0    0 -0.35898884389E+02  0.20083427736E+02  0.22437315155E+03  0.22811265881E+03  0.00000000000E+00 0. -1.
        -11    1    5    5    0    0 -0.10571281556E+03 -0.29594479918E+02  0.18831907502E+04  0.18863876681E+04  0.00000000000E+00 0.  1.
          3    1    6    6  503    0  0.50295540816E+02  0.17790255032E+02  0.35709645158E+01  0.53468555130E+02  0.00000000000E+00 0. -1.
         -3    1    6    6    0  503  0.79815546451E+02 -0.57366643291E+01  0.13494662430E+03  0.15688856613E+03  0.00000000000E+00 0.  1.
<mgrwt>
<rscale>  0 0.17328449E+03</rscale>
<asrwt>0</asrwt>
<pdfrwt beam="1">  1        2 0.37398426E+00 0.17328449E+03</pdfrwt>
<pdfrwt beam="2">  1       -2 0.81491383E-02 0.17328449E+03</pdfrwt>
<totfact> 0.41318202E+02</totfact>
</mgrwt>
</event>
<event>
12    1  0.3147868E-008  0.9196261E+03  0.7818608E-02  0.9401375E-01
         -1   -1    0    0    0  501 -0.00000000000E+00  0.00000000000E+00  0.15530139226E+04  0.15530139226E+04  0.00000000000E+00 0.  1.
          1   -1    0    0  501    0  0.00000000000E+00 -0.00000000000E+00 -0.80754983575E+03  0.80754983575E+03  0.00000000000E+00 0. -1.
         23    2    1    2    0    0 -0.74106298185E+03 -0.46730003986E+03  0.93210445840E+03  0.12824304619E+04  0.90914783740E+02 0.  0.
    5000000    2    1    2    0    0  0.74106298185E+03  0.46730003986E+03 -0.18664037151E+03  0.10781332965E+04  0.59999425533E+03 0.  0.
         23    2    4    4    0    0  0.34760590628E+03  0.43558374030E+03  0.11086520700E+03  0.57556760156E+03  0.91781855236E+02 0.  0.
         23    2    4    4    0    0  0.39345707557E+03  0.31716299562E+02 -0.29750557850E+03  0.50256569494E+03  0.90820231873E+02 0.  0.
          5    1    3    3  502    0 -0.15005967223E+03 -0.13955297660E+03  0.21953058100E+03  0.30034763942E+03  0.47000000000E+01 0. -1.
         -5    1    3    3    0  502 -0.59100330962E+03 -0.32774706327E+03  0.71257387740E+03  0.98208282248E+03  0.47000000000E+01 0.  1.
         11    1    5    5    0    0  0.20863614158E+03  0.32316126882E+03  0.56863314065E+02  0.38883888917E+03  0.00000000000E+00 0. -1.
        -11    1    5    5    0    0  0.13896976469E+03  0.11242247148E+03  0.54001892931E+02  0.18672871239E+03  0.00000000000E+00 0.  1.
          1    1    6    6  503    0  0.27634486082E+03  0.29565794742E+02 -0.25725950743E+03  0.37871238755E+03  0.00000000000E+00 0. -1.
         -1    1    6    6    0  503  0.11711221476E+03  0.21505048204E+01 -0.40246071071E+02  0.12385330740E+03  0.00000000000E+00 0.  1.
<mgrwt>
<rscale>  0 0.91962610E+03</rscale>
<asrwt>0</asrwt>
<pdfrwt beam="1">  1        1 0.12423844E+00 0.91962610E+03</pdfrwt>
<pdfrwt beam="2">  1       -1 0.23892522E+00 0.91962610E+03</pdfrwt>
<totfact> 0.18269285E+00</totfact>
</mgrwt>
</event>
<event>
12    1  0.3147868E-008  0.6734915E+03  0.7818608E-02  0.9763671E-01
          2   -1    0    0  501    0  0.00000000000E+00  0.00000000000E+00  0.80986402357E+03  0.80986402357E+03  0.00000000000E+00 0. -1.
         -2   -1    0    0    0  501 -0.00000000000E+00 -0.00000000000E+00 -0.66874059902E+03  0.66874059902E+03  0.00000000000E+00 0.  1.
         23    2    1    2    0    0  0.19468023685E+03  0.51640215122E+03  0.31886813494E+03  0.64402208822E+03  0.92282101360E+02 0.  0.
    5000000    2    1    2    0    0 -0.19468023685E+03 -0.51640215122E+03 -0.17774471039E+03  0.83458253437E+03  0.60030263051E+03 0.  0.
         23    2    4    4    0    0  0.11279407902E+03 -0.45326215564E+03 -0.17780412382E+03  0.50797441946E+03  0.90854930437E+02 0.  0.
         23    2    4    4    0    0 -0.30747431588E+03 -0.63139995581E+02  0.59413426904E-01  0.32660811491E+03  0.90253771267E+02 0.  0.
          5    1    3    3  502    0  0.14951328494E+03  0.27900631276E+03  0.20217073906E+03  0.37562460338E+03  0.47000000000E+01 0. -1.
         -5    1    3    3    0  502  0.45166951915E+02  0.23739583847E+03  0.11669739588E+03  0.26839748484E+03  0.47000000000E+01 0.  1.
         13    1    5    5    0    0  0.32798219090E+02 -0.44795255641E+02 -0.40572376111E+00  0.55520291022E+02  0.00000000000E+00 0. -1.
        -13    1    5    5    0    0  0.79995859934E+02 -0.40846690000E+03 -0.17739840005E+03  0.45245412844E+03  0.00000000000E+00 0.  1.
          3    1    6    6  503    0 -0.20731015969E+03 -0.21272445407E+02 -0.37473219498E+02  0.21174102442E+03  0.00000000000E+00 0.  1.
         -3    1    6    6    0  503 -0.10016415619E+03 -0.41867550173E+02  0.37532632925E+02  0.11486709049E+03  0.00000000000E+00 0. -1.
<mgrwt>
<rscale>  0 0.67349154E+03</rscale>
<asrwt>0</asrwt>
<pdfrwt beam="1">  1        2 0.12459447E+00 0.67349154E+03</pdfrwt>
<pdfrwt beam="2">  1       -2 0.10288317E+00 0.67349154E+03</pdfrwt>
<totfact> 0.26729453E+01</totfact>
</mgrwt>
</event>
<event>
12    1  0.3147868E-008  0.5742732E+03  0.7818608E-02  0.9960267E-01
         -2   -1    0    0    0  501 -0.00000000000E+00  0.00000000000E+00  0.29531666453E+03  0.29531666453E+03  0.00000000000E+00 0.  1.
          2   -1    0    0  501    0  0.00000000000E+00 -0.00000000000E+00 -0.11478610080E+04  0.11478610080E+04  0.00000000000E+00 0. -1.
         23    2    1    2    0    0  0.23275897164E+03 -0.34955690747E+03 -0.27518638951E+03  0.51059990100E+03  0.92832857805E+02 0.  0.
    5000000    2    1    2    0    0 -0.23275897164E+03  0.34955690747E+03 -0.57735795394E+03  0.93257777151E+03  0.59999360204E+03 0.  0.
         23    2    4    4    0    0 -0.35656258998E+03  0.20859204081E+02 -0.29294557019E+03  0.47128894005E+03  0.93403270580E+02 0.  0.
         23    2    4    4    0    0  0.12380361833E+03  0.32869770339E+03 -0.28441238375E+03  0.46128883146E+03  0.92344279035E+02 0.  0.
          5    1    3    3  502    0  0.16299590480E+03 -0.19992846427E+03 -0.21142791186E+03  0.33356095054E+03  0.47000000000E+01 0. -1.
         -5    1    3    3    0  502  0.69763066844E+02 -0.14962844320E+03 -0.63758477647E+02  0.17703895046E+03  0.47000000000E+01 0.  1.
         13    1    5    5    0    0 -0.36817313618E+02 -0.27281770021E+02 -0.37533837302E+02  0.59233423842E+02  0.00000000000E+00 0. -1.
        -13    1    5    5    0    0 -0.31974527636E+03  0.48140974102E+02 -0.25541173288E+03  0.41205551620E+03  0.00000000000E+00 0.  1.
          2    1    6    6  503    0  0.11458287704E+02  0.32255063104E+01  0.35568913975E+01  0.12423675965E+02  0.00000000000E+00 0. -1.
         -2    1    6    6    0  503  0.11234533063E+03  0.32547219708E+03 -0.28796927515E+03  0.44886515549E+03  0.00000000000E+00 0.  1.
<mgrwt>
<rscale>  0 0.57427321E+03</rscale>
<asrwt>0</asrwt>
<pdfrwt beam="1">  1        2 0.17659400E+00 0.57427321E+03</pdfrwt>
<pdfrwt beam="2">  1       -2 0.45433333E-01 0.57427321E+03</pdfrwt>
<totfact> 0.96469848E+01</totfact>
</mgrwt>
</event>
<event>
12    1  0.3147868E-008  0.3809149E+03  0.7818608E-02  0.1050596E+00
         -2   -1    0    0    0  501 -0.00000000000E+00  0.00000000000E+00  0.64893775690E+02  0.64893775690E+02  0.00000000000E+00 0.  1.
          2   -1    0    0  501    0  0.00000000000E+00 -0.00000000000E+00 -0.28291997504E+04  0.28291997504E+04  0.00000000000E+00 0. -1.
         23    2    1    2    0    0  0.14642612453E+03  0.51774075312E+02 -0.11661217638E+04  0.11799479166E+04  0.91191847219E+02 0.  0.
    5000000    2    1    2    0    0 -0.14642612453E+03 -0.51774075312E+02 -0.15981842110E+04  0.17141456096E+04  0.59998436131E+03 0.  0.
         23    2    4    4    0    0 -0.18429828889E+03 -0.28810079026E+03 -0.77465234038E+03  0.85186191046E+03  0.92814553855E+02 0.  0.
         23    2    4    4    0    0  0.37872164362E+02  0.23632671494E+03 -0.82353187058E+03  0.86228369910E+03  0.89687339408E+02 0.  0.
          5    1    3    3  502    0  0.11036110895E+03 -0.69829572793E+01 -0.75157308121E+03  0.75967922339E+03  0.47000000000E+01 0. -1.
         -5    1    3    3    0  502  0.36065015581E+02  0.58757032592E+02 -0.41454868259E+03  0.42026869317E+03  0.47000000000E+01 0.  1.
         11    1    5    5    0    0 -0.17502694806E+02 -0.40849671488E+02 -0.19475932210E+03  0.19976544629E+03  0.00000000000E+00 0. -1.
        -11    1    5    5    0    0 -0.16679559408E+03 -0.24725111877E+03 -0.57989301827E+03  0.65209646417E+03  0.00000000000E+00 0.  1.
          4    1    6    6  503    0  0.77076470985E+01  0.54130918220E+02 -0.34585856649E+03  0.35015384068E+03  0.00000000000E+00 0. -1.
         -4    1    6    6    0  503  0.30164517264E+02  0.18219579672E+03 -0.47767330409E+03  0.51212985842E+03  0.00000000000E+00 0.  1.
<mgrwt>
<rscale>  0 0.38091493E+03</rscale>
<asrwt>0</asrwt>
<pdfrwt beam="1">  1        2 0.43526148E+00 0.38091493E+03</pdfrwt>
<pdfrwt beam="2">  1       -2 0.99836584E-02 0.38091493E+03</pdfrwt>
<totfact> 0.16979253E+02</totfact>
</mgrwt>
</event>
<event>
12    1  0.3147868E-008  0.5568536E+03  0.7818608E-02  0.9999199E-01
          2   -1    0    0  501    0  0.00000000000E+00  0.00000000000E+00  0.10380502228E+04  0.10380502228E+04  0.00000000000E+00 0. -1.
         -2   -1    0    0    0  501 -0.00000000000E+00 -0.00000000000E+00 -0.32409063740E+03  0.32409063740E+03  0.00000000000E+00 0.  1.
         23    2    1    2    0    0  0.40643197607E+03  0.47624716385E+02  0.16161071170E+03  0.44969305873E+03  0.93009462674E+02 0.  0.
    5000000    2    1    2    0    0 -0.40643197607E+03 -0.47624716385E+02  0.55234887373E+03  0.91244780152E+03  0.60001387267E+03 0.  0.
         23    2    4    4    0    0 -0.48941047574E+03  0.12292007765E+03  0.40890222316E+03  0.65629418516E+03  0.94281865199E+02 0.  0.
         23    2    4    4    0    0  0.82978499670E+02 -0.17054479404E+03  0.14344665057E+03  0.25615361636E+03  0.95219616857E+02 0.  0.
          5    1    3    3  502    0  0.15791539397E+03 -0.24806958445E+02  0.75512819031E+02  0.17685285601E+03  0.47000000000E+01 0. -1.
         -5    1    3    3    0  502  0.24851658210E+03  0.72431674830E+02  0.86097892673E+02  0.27284020272E+03  0.47000000000E+01 0.  1.
         13    1    5    5    0    0 -0.28813451367E+03  0.79257654965E+02  0.18217242449E+03  0.34998580840E+03  0.00000000000E+00 0. -1.
        -13    1    5    5    0    0 -0.20127596208E+03  0.43662422688E+02  0.22672979868E+03  0.30630837676E+03  0.00000000000E+00 0.  1.
          4    1    6    6  503    0  0.70582000471E+02 -0.13321167369E+03  0.56988713804E+02  0.16116724946E+03  0.00000000000E+00 0. -1.
         -4    1    6    6    0  503  0.12396499200E+02 -0.37333120346E+02  0.86457936762E+02  0.94986366897E+02  0.00000000000E+00 0.  1.
<mgrwt>
<rscale>  0 0.55685358E+03</rscale>
<asrwt>0</asrwt>
<pdfrwt beam="1">  1        2 0.15970003E+00 0.55685358E+03</pdfrwt>
<pdfrwt beam="2">  1       -2 0.49860099E-01 0.55685358E+03</pdfrwt>
<totfact> 0.93513451E+01</totfact>
</mgrwt>
</event>
<event>
12    1  0.3147868E-008  0.1000981E+04  0.7818608E-02  0.9307470E-01
         -2   -1    0    0    0  501 -0.00000000000E+00  0.00000000000E+00  0.55167636461E+03  0.55167636461E+03  0.00000000000E+00 0.  1.
          2   -1    0    0  501    0  0.00000000000E+00 -0.00000000000E+00 -0.22566555972E+04  0.22566555972E+04  0.00000000000E+00 0. -1.
         23    2    1    2    0    0  0.19966799485E+03 -0.89884129835E+03 -0.20234557049E+03  0.94667784333E+03  0.86442011585E+02 0.  0.
    5000000    2    1    2    0    0 -0.19966799485E+03  0.89884129835E+03 -0.15026336621E+04  0.18616541184E+04  0.60005428636E+03 0.  0.
         23    2    4    4    0    0 -0.30558755351E+03  0.18881849388E+03 -0.42654567526E+03  0.56496410823E+03  0.90592792304E+02 0.  0.
         23    2    4    4    0    0  0.10591955866E+03  0.71002280447E+03 -0.10760879868E+04  0.12966900102E+04  0.89934929125E+02 0.  0.
          5    1    3    3  502    0  0.12131155916E+03 -0.42655996380E+03 -0.13235815871E+03  0.46282898492E+03  0.47000000000E+01 0. -1.
         -5    1    3    3    0  502  0.78356435685E+02 -0.47228133454E+03 -0.69987411780E+02  0.48384885841E+03  0.47000000000E+01 0.  1.
         11    1    5    5    0    0 -0.20707564590E+03  0.14599758121E+03 -0.35406198783E+03  0.43537972859E+03  0.00000000000E+00 0.  1.
        -11    1    5    5    0    0 -0.98511907613E+02  0.42820912666E+02 -0.72483687430E+02  0.12958437964E+03  0.00000000000E+00 0. -1.
          3    1    6    6  503    0  0.10274610909E+03  0.59189738688E+03 -0.84042671863E+03  0.10330616385E+04  0.00000000000E+00 0. -1.
         -3    1    6    6    0  503  0.31734495662E+01  0.11812541759E+03 -0.23566126816E+03  0.26362837171E+03  0.00000000000E+00 0.  1.
<mgrwt>
<rscale>  0 0.10009809E+04</rscale>
<asrwt>0</asrwt>
<pdfrwt beam="1">  1        2 0.34717779E+00 0.10009809E+04</pdfrwt>
<pdfrwt beam="2">  1       -2 0.84873286E-01 0.10009809E+04</pdfrwt>
<totfact> 0.58315212E+00</totfact>
</mgrwt>
</event>
<event>
12    1  0.3147868E-008  0.6191700E+03  0.7818608E-02  0.9866414E-01
         -1   -1    0    0    0  501 -0.00000000000E+00  0.00000000000E+00  0.49781173734E+03  0.49781173734E+03  0.00000000000E+00 0.  1.
          1   -1    0    0  501    0  0.00000000000E+00 -0.00000000000E+00 -0.93021707925E+03  0.93021707925E+03  0.00000000000E+00 0. -1.
         23    2    1    2    0    0 -0.51390064213E+03 -0.17601975967E+03 -0.19810090578E+03  0.58542324409E+03  0.91649222957E+02 0.  0.
    5000000    2    1    2    0    0  0.51390064213E+03  0.17601975967E+03 -0.23430443613E+03  0.84260557250E+03  0.60000729682E+03 0.  0.
         23    2    4    4    0    0 -0.38974348713E+02 -0.17248901897E+02  0.11556593336E+03  0.15459661767E+03  0.93424326418E+02 0.  0.
         23    2    4    4    0    0  0.55287499085E+03  0.19326866157E+03 -0.34987036949E+03  0.68800895483E+03  0.89014130521E+02 0.  0.
          5    1    3    3  502    0 -0.59487304393E+02 -0.24562381901E+01  0.11740802548E+01  0.59734754996E+02  0.47000000000E+01 0. -1.
         -5    1    3    3    0  502 -0.45441333774E+03 -0.17356352148E+03 -0.19927498603E+03  0.52568848909E+03  0.47000000000E+01 0.  1.
         13    1    5    5    0    0 -0.86789822154E+01  0.38192647738E+02  0.38189096480E+02  0.54702926462E+02  0.00000000000E+00 0. -1.
        -13    1    5    5    0    0 -0.30295366498E+02 -0.55441549635E+02  0.77376836883E+02  0.99893691208E+02  0.00000000000E+00 0.  1.
          4    1    6    6  503    0  0.16671875605E+03  0.92796016893E+02 -0.83634996128E+02  0.20832920330E+03  0.00000000000E+00 0. -1.
         -4    1    6    6    0  503  0.38615623479E+03  0.10047264468E+03 -0.26623537336E+03  0.47967975153E+03  0.00000000000E+00 0.  1.
<mgrwt>
<rscale>  0 0.61917004E+03</rscale>
<asrwt>0</asrwt>
<pdfrwt beam="1">  1        1 0.14311032E+00 0.61917004E+03</pdfrwt>
<pdfrwt beam="2">  1       -1 0.76586422E-01 0.61917004E+03</pdfrwt>
<totfact> 0.30672868E+01</totfact>
</mgrwt>
</event>
<event>
12    1  0.3147868E-008  0.5135226E+03  0.7818608E-02  0.1010308E+00
          1   -1    0    0  501    0  0.00000000000E+00  0.00000000000E+00  0.16698583369E+04  0.16698583369E+04  0.00000000000E+00 0. -1.
         -1   -1    0    0    0  501 -0.00000000000E+00 -0.00000000000E+00 -0.23920693347E+03  0.23920693347E+03  0.00000000000E+00 0.  1.
         23    2    1    2    0    0 -0.33745613533E+03 -0.16291181786E+03  0.10217170820E+04  0.10920412266E+04  0.90726739477E+02 0.  0.
    5000000    2    1    2    0    0  0.33745613533E+03  0.16291181786E+03  0.40893432148E+03  0.81702404382E+03  0.59990341325E+03 0.  0.
         23    2    4    4    0    0  0.86984773849E+02 -0.18932190810E+03  0.18799524680E+02  0.22773313697E+03  0.89999020975E+02 0.  0.
         23    2    4    4    0    0  0.25047136148E+03  0.35223372596E+03  0.39013479680E+03  0.58929090685E+03  0.90852146919E+02 0.  0.
          5    1    3    3  502    0 -0.13986161455E+03 -0.96372694224E+02  0.35694055885E+03  0.39531964278E+03  0.47000000000E+01 0. -1.
         -5    1    3    3    0  502 -0.19759452078E+03 -0.66539123640E+02  0.66477652316E+03  0.69672158382E+03  0.47000000000E+01 0.  1.
         11    1    5    5    0    0  0.99884074141E+01 -0.86718984232E+02 -0.27236224225E+02  0.91442672856E+02  0.00000000000E+00 0. -1.
        -11    1    5    5    0    0  0.76996366435E+02 -0.10260292387E+03  0.46035748906E+02  0.13629046411E+03  0.00000000000E+00 0.  1.
          2    1    6    6  503    0  0.10100224742E+01  0.70234919871E+01  0.32123701471E+02  0.32898051330E+02  0.00000000000E+00 0.  1.
         -2    1    6    6    0  503  0.24946133901E+03  0.34521023398E+03  0.35801109533E+03  0.55639285552E+03  0.00000000000E+00 0. -1.
<mgrwt>
<rscale>  0 0.51352261E+03</rscale>
<asrwt>0</asrwt>
<pdfrwt beam="1">  1        1 0.25690127E+00 0.51352261E+03</pdfrwt>
<pdfrwt beam="2">  1       -1 0.36801068E-01 0.51352261E+03</pdfrwt>
<totfact> 0.37841194E+01</totfact>
</mgrwt>
</event>
<event>
12    1  0.3147868E-008  0.1748341E+04  0.7818608E-02  0.8734264E-01
         -2   -1    0    0    0  501 -0.00000000000E+00  0.00000000000E+00  0.73336339550E+03  0.73336339550E+03  0.00000000000E+00 0.  1.
          2   -1    0    0  501    0  0.00000000000E+00 -0.00000000000E+00 -0.42714719816E+04  0.42714719816E+04  0.00000000000E+00 0. -1.
         23    2    1    2    0    0  0.11428821915E+04 -0.12623657933E+04 -0.13997518237E+04  0.22062169087E+04  0.91327874802E+02 0.  0.
    5000000    2    1    2    0    0 -0.11428821915E+04  0.12623657933E+04 -0.21383567624E+04  0.27986184684E+04  0.59995715532E+03 0.  0.
         23    2    4    4    0    0 -0.62763393266E+03  0.10548209806E+04 -0.16082474650E+04  0.20252097829E+04  0.91886349906E+02 0.  0.
         23    2    4    4    0    0 -0.51524825885E+03  0.20754481270E+03 -0.53010929741E+03  0.77340868550E+03  0.92679609810E+02 0.  0.
          5    1    3    3  502    0  0.70393408678E+03 -0.76005521278E+03 -0.90637941487E+03  0.13765002211E+04  0.47000000000E+01 0. -1.
         -5    1    3    3    0  502  0.43894810473E+03 -0.50231058053E+03 -0.49337240879E+03  0.82971668762E+03  0.47000000000E+01 0.  1.
         11    1    5    5    0    0 -0.18948533466E+03  0.40174279139E+03 -0.59954311018E+03  0.74615943568E+03  0.00000000000E+00 0.  1.
        -11    1    5    5    0    0 -0.43814859800E+03  0.65307818923E+03 -0.10087043548E+04  0.12790503472E+04  0.00000000000E+00 0. -1.
          3    1    6    6  503    0 -0.37593580485E+03  0.19396127610E+03 -0.39026858191E+03  0.57555040789E+03  0.00000000000E+00 0. -1.
         -3    1    6    6    0  503 -0.13931245400E+03  0.13583536595E+02 -0.13984071550E+03  0.19785827760E+03  0.00000000000E+00 0.  1.
<mgrwt>
<rscale>  0 0.17483413E+04</rscale>
<asrwt>0</asrwt>
<pdfrwt beam="1">  1        2 0.65714954E+00 0.17483413E+04</pdfrwt>
<pdfrwt beam="2">  1       -2 0.11282514E+00 0.17483413E+04</pdfrwt>
<totfact> 0.11707416E-01</totfact>
</mgrwt>
</event>
<event>
12    1  0.3147868E-008  0.5204167E+03  0.7818608E-02  0.1008583E+00
          1   -1    0    0  501    0  0.00000000000E+00  0.00000000000E+00  0.73894514821E+03  0.73894514821E+03  0.00000000000E+00 0. -1.
         -1   -1    0    0    0  501 -0.00000000000E+00 -0.00000000000E+00 -0.67318400302E+03  0.67318400302E+03  0.00000000000E+00 0.  1.
         23    2    1    2    0    0  0.43186832304E+03 -0.16361447609E+02  0.40441025165E+03  0.59881150145E+03  0.90827403441E+02 0.  0.
    5000000    2    1    2    0    0 -0.43186832304E+03  0.16361447609E+02 -0.33864910647E+03  0.81331764977E+03  0.60002036358E+03 0.  0.
         23    2    4    4    0    0 -0.50104705306E+03  0.47394914373E+02 -0.66238061796E+02  0.51589357236E+03  0.92001466731E+02 0.  0.
         23    2    4    4    0    0  0.69178730027E+02 -0.31033466764E+02 -0.27241104467E+03  0.29742407741E+03  0.92220018534E+02 0.  0.
          5    1    3    3  502    0  0.23125348883E+03 -0.49266625328E+02  0.24409355948E+03  0.33986634468E+03  0.47000000000E+01 0. -1.
         -5    1    3    3    0  502  0.20061483421E+03  0.32905177720E+02  0.16031669218E+03  0.25894515677E+03  0.47000000000E+01 0.  1.
         11    1    5    5    0    0 -0.24014615648E+03  0.17070458625E+02  0.14270464885E+02  0.24117467363E+03  0.00000000000E+00 0. -1.
        -11    1    5    5    0    0 -0.26090089658E+03  0.30324455748E+02 -0.80508526681E+02  0.27471889873E+03  0.00000000000E+00 0.  1.
          4    1    6    6  503    0 -0.48038051877E+01 -0.22620565324E+02 -0.16568435245E+03  0.16729037978E+03  0.00000000000E+00 0. -1.
         -4    1    6    6    0  503  0.73982535214E+02 -0.84129014400E+01 -0.10672669222E+03  0.13013369764E+03  0.00000000000E+00 0.  1.
<mgrwt>
<rscale>  0 0.52041673E+03</rscale>
<asrwt>0</asrwt>
<pdfrwt beam="1">  1        1 0.11368387E+00 0.52041673E+03</pdfrwt>
<pdfrwt beam="2">  1       -1 0.10356677E+00 0.52041673E+03</pdfrwt>
<totfact> 0.23319982E+01</totfact>
</mgrwt>
</event>
<event>
12    1  0.3147868E-008  0.1040664E+04  0.7818608E-02  0.9265037E-01
          2   -1    0    0  501    0  0.00000000000E+00  0.00000000000E+00  0.19573236437E+04  0.19573236437E+04  0.00000000000E+00 0. -1.
         -2   -1    0    0    0  501 -0.00000000000E+00 -0.00000000000E+00 -0.74475869647E+03  0.74475869647E+03  0.00000000000E+00 0.  1.
         23    2    1    2    0    0  0.24107103674E+03  0.98462110065E+03  0.11304170441E+04  0.15212938809E+04  0.94331447619E+02 0.  0.
    5000000    2    1    2    0    0 -0.24107103674E+03 -0.98462110065E+03  0.82147903180E+02  0.11807884593E+04  0.59993262198E+03 0.  0.
         23    2    4    4    0    0  0.49655661146E+02 -0.35315971611E+03 -0.20656499257E+03  0.42258999744E+03  0.93411669552E+02 0.  0.
         23    2    4    4    0    0 -0.29072669789E+03 -0.63146138454E+03  0.28871289575E+03  0.75819846182E+03  0.90798008291E+02 0.  0.
          5    1    3    3  502    0  0.33946044768E+01  0.15403677238E+03  0.17237443103E+03  0.23124421086E+03  0.47000000000E+01 0. -1.
         -5    1    3    3    0  502  0.23767643226E+03  0.83058432827E+03  0.95804261304E+03  0.12900496701E+04  0.47000000000E+01 0.  1.
         13    1    5    5    0    0  0.49179287320E+02 -0.73636608057E+02 -0.60099548271E+02  0.10701826036E+03  0.00000000000E+00 0.  1.
        -13    1    5    5    0    0  0.47637382623E+00 -0.27952310806E+03 -0.14646544430E+03  0.31557173708E+03  0.00000000000E+00 0. -1.
          3    1    6    6  503    0 -0.68258695503E+02 -0.14982022652E+03  0.11152398235E+03  0.19885408828E+03  0.00000000000E+00 0. -1.
         -3    1    6    6    0  503 -0.22246800238E+03 -0.48164115802E+03  0.17718891340E+03  0.55934437354E+03  0.00000000000E+00 0.  1.
<mgrwt>
<rscale>  0 0.10406638E+04</rscale>
<asrwt>0</asrwt>
<pdfrwt beam="1">  1        2 0.30112671E+00 0.10406638E+04</pdfrwt>
<pdfrwt beam="2">  1       -2 0.11457826E+00 0.10406638E+04</pdfrwt>
<totfact> 0.41729107E+00</totfact>
</mgrwt>
</event>
<event>
12    1  0.3147868E-008  0.8902425E+03  0.7818608E-02  0.9437862E-01
          2   -1    0    0  501    0  0.00000000000E+00  0.00000000000E+00  0.15596289061E+04  0.15596289061E+04  0.00000000000E+00 0. -1.
         -2   -1    0    0    0  501 -0.00000000000E+00 -0.00000000000E+00 -0.51930494532E+03  0.51930494532E+03  0.00000000000E+00 0.  1.
         23    2    1    2    0    0  0.44902383780E+03 -0.65711915923E+03  0.51261729199E+03  0.95111847488E+03  0.91770740880E+02 0.  0.
    5000000    2    1    2    0    0 -0.44902383780E+03  0.65711915923E+03  0.52770666879E+03  0.11278153765E+04  0.60005432997E+03 0.  0.
         23    2    4    4    0    0 -0.21851264275E+03  0.70459787263E+03  0.41629671908E+03  0.85188363476E+03  0.90536355686E+02 0.  0.
         23    2    4    4    0    0 -0.23051119505E+03 -0.47478713402E+02  0.11140994971E+03  0.27593174177E+03  0.91304490313E+02 0.  0.
          5    1    3    3  502    0  0.35163142362E+03 -0.56118909997E+03  0.39799461273E+03  0.77265753459E+03  0.47000000000E+01 0. -1.
         -5    1    3    3    0  502  0.97392414176E+02 -0.95930059263E+02  0.11462267926E+03  0.17846094029E+03  0.47000000000E+01 0.  1.
         11    1    5    5    0    0 -0.28481912210E+02  0.23164466413E+03  0.13863505079E+03  0.27145929170E+03  0.00000000000E+00 0.  1.
        -11    1    5    5    0    0 -0.19003073054E+03  0.47295320850E+03  0.27766166829E+03  0.58042434306E+03  0.00000000000E+00 0. -1.
          3    1    6    6  503    0 -0.15497196625E+03 -0.49766395196E+02  0.11653632188E+03  0.20018421199E+03  0.00000000000E+00 0. -1.
         -3    1    6    6    0  503 -0.75539228799E+02  0.22876817942E+01 -0.51263721678E+01  0.75747529776E+02  0.00000000000E+00 0.  1.
<mgrwt>
<rscale>  0 0.89024253E+03</rscale>
<asrwt>0</asrwt>
<pdfrwt beam="1">  1        2 0.23994291E+00 0.89024253E+03</pdfrwt>
<pdfrwt beam="2">  1       -2 0.79893069E-01 0.89024253E+03</pdfrwt>
<totfact> 0.16429749E+01</totfact>
</mgrwt>
</event>
<event>
12    1  0.3404064E-008  0.1173636E+04  0.7818608E-02  0.9136251E-01
          1   -1    0    0  501    0  0.00000000000E+00  0.00000000000E+00  0.17193343392E+04  0.17193343392E+04  0.00000000000E+00 0. -1.
         -1   -1    0    0    0  501 -0.00000000000E+00 -0.00000000000E+00 -0.10293964694E+04  0.10293964694E+04  0.00000000000E+00 0.  1.
         23    2    1    2    0    0 -0.20712693085E+03 -0.11261589468E+04 -0.21787115871E+03  0.11691024521E+04  0.90538184168E+02 0.  0.
    5000000    2    1    2    0    0  0.20712693085E+03  0.11261589468E+04  0.90780902851E+03  0.15796283565E+04  0.59997747742E+03 0.  0.
         23    2    4    4    0    0  0.29173227890E+03  0.91344144470E+03  0.45685180881E+03  0.10660762973E+04  0.91225549581E+02 0.  0.
         23    2    4    4    0    0 -0.84605348052E+02  0.21271750211E+03  0.45095721970E+03  0.51355205924E+03  0.89255268343E+02 0.  0.
          5    1    3    3  502    0 -0.16413272935E+03 -0.67481051855E+03 -0.15181758303E+03  0.71090045528E+03  0.47000000000E+01 0. -1.
         -5    1    3    3    0  502 -0.42994201501E+02 -0.45134842826E+03 -0.66053575684E+02  0.45820199685E+03  0.47000000000E+01 0.  1.
         11    1    5    5    0    0  0.93029573926E+02  0.18766655898E+03  0.12253809316E+03  0.24267019442E+03  0.00000000000E+00 0. -1.
        -11    1    5    5    0    0  0.19870270498E+03  0.72577488572E+03  0.33431371565E+03  0.82340610283E+03  0.00000000000E+00 0.  1.
          1    1    6    6  503    0  0.10233843960E+02  0.27137525085E+02  0.11161401623E+03  0.11532070693E+03  0.00000000000E+00 0. -1.
         -1    1    6    6    0  503 -0.94839192012E+02  0.18557997703E+03  0.33934320348E+03  0.39823135231E+03  0.00000000000E+00 0.  1.
<mgrwt>
<rscale>  0 0.11736359E+04</rscale>
<asrwt>0</asrwt>
<pdfrwt beam="1">  1        1 0.26451298E+00 0.11736359E+04</pdfrwt>
<pdfrwt beam="2">  1       -1 0.15836869E+00 0.11736359E+04</pdfrwt>
<totfact> 0.13685690E+00</totfact>
</mgrwt>
</event>
<event>
12    1  0.3147868E-008  0.5487244E+03  0.7818608E-02  0.1001790E+00
         -1   -1    0    0    0  501 -0.00000000000E+00  0.00000000000E+00  0.57783713534E+03  0.57783713534E+03  0.00000000000E+00 0.  1.
          1   -1    0    0  501    0  0.00000000000E+00 -0.00000000000E+00 -0.55197867899E+03  0.55197867899E+03  0.00000000000E+00 0. -1.
         23    2    1    2    0    0  0.37285983304E+03 -0.13345853402E+03  0.56337003658E+02  0.41035922983E+03  0.91570760226E+02 0.  0.
    5000000    2    1    2    0    0 -0.37285983304E+03  0.13345853402E+03 -0.30478547312E+02  0.71945658450E+03  0.59987765397E+03 0.  0.
         23    2    4    4    0    0 -0.45935676840E+03 -0.63853516151E+02 -0.80505174207E+02  0.47938378048E+03  0.90784435411E+02 0.  0.
         23    2    4    4    0    0  0.86496935351E+02  0.19731205017E+03  0.50026626895E+02  0.24007280403E+03  0.93373030729E+02 0.  0.
          5    1    3    3  502    0  0.17674008349E+03 -0.74313624846E+02 -0.17455951569E+02  0.19257822358E+03  0.47000000000E+01 0. -1.
         -5    1    3    3    0  502  0.19611974955E+03 -0.59144909170E+02  0.73792955227E+02  0.21778100626E+03  0.47000000000E+01 0.  1.
         11    1    5    5    0    0 -0.98505464406E+02 -0.34702111894E+02 -0.50804280991E+02  0.11614059607E+03  0.00000000000E+00 0. -1.
        -11    1    5    5    0    0 -0.36085130399E+03 -0.29151404257E+02 -0.29700893216E+02  0.36324318441E+03  0.00000000000E+00 0.  1.
          4    1    6    6  503    0  0.29544918093E+02  0.64511538025E+00  0.11620891556E+02  0.31754739481E+02  0.00000000000E+00 0. -1.
         -4    1    6    6    0  503  0.56952017259E+02  0.19666693479E+03  0.38405735339E+02  0.20831806454E+03  0.00000000000E+00 0.  1.
<mgrwt>
<rscale>  0 0.54872436E+03</rscale>
<asrwt>0</asrwt>
<pdfrwt beam="1">  1        1 0.84919797E-01 0.54872436E+03</pdfrwt>
<pdfrwt beam="2">  1       -1 0.88898020E-01 0.54872436E+03</pdfrwt>
<totfact> 0.49941093E+01</totfact>
</mgrwt>
</event>
<event>
12    1  0.3147868E-008  0.4635459E+03  0.7818608E-02  0.1023758E+00
          2   -1    0    0  501    0  0.00000000000E+00  0.00000000000E+00  0.43897072640E+03  0.43897072640E+03  0.00000000000E+00 0. -1.
         -2   -1    0    0    0  501 -0.00000000000E+00 -0.00000000000E+00 -0.87833111181E+03  0.87833111181E+03  0.00000000000E+00 0.  1.
         23    2    1    2    0    0 -0.27953831844E+03  0.10048421883E+03  0.21762080478E+03  0.37878493811E+03  0.88771982925E+02 0.  0.
    5000000    2    1    2    0    0  0.27953831844E+03 -0.10048421883E+03 -0.65698119019E+03  0.93851690010E+03  0.60079192554E+03 0.  0.
         23    2    4    4    0    0 -0.15174821379E+03 -0.49472573237E+01 -0.35368515817E+03  0.39541980819E+03  0.90618087917E+02 0.  0.
         23    2    4    4    0    0  0.43128653223E+03 -0.95536961509E+02 -0.30329603202E+03  0.54309709191E+03  0.88490588785E+02 0.  0.
          5    1    3    3  502    0 -0.68007913456E+02  0.43991061658E+02  0.19435399922E+02  0.83427301099E+02  0.47000000000E+01 0. -1.
         -5    1    3    3    0  502 -0.21153040499E+03  0.56493157175E+02  0.19818540486E+03  0.29535763701E+03  0.47000000000E+01 0.  1.
         11    1    5    5    0    0 -0.97709433629E+02 -0.46919609106E+02 -0.21710065411E+03  0.24265464585E+03  0.00000000000E+00 0.  1.
        -11    1    5    5    0    0 -0.54038780159E+02  0.41972351783E+02 -0.13658450405E+03  0.15276516233E+03  0.00000000000E+00 0. -1.
          2    1    6    6  503    0  0.21101802332E+03 -0.91083890957E+02 -0.16581130585E+03  0.28340478208E+03  0.00000000000E+00 0. -1.
         -2    1    6    6    0  503  0.22026850891E+03 -0.44530705527E+01 -0.13748472617E+03  0.25969230983E+03  0.00000000000E+00 0.  1.
<mgrwt>
<rscale>  0 0.46354589E+03</rscale>
<asrwt>0</asrwt>
<pdfrwt beam="1">  1        2 0.67533958E-01 0.46354589E+03</pdfrwt>
<pdfrwt beam="2">  1       -2 0.13512786E+00 0.46354589E+03</pdfrwt>
<totfact> 0.29296522E+01</totfact>
</mgrwt>
</event>
<event>
12    1  0.3147868E-008  0.1675328E+04  0.7818608E-02  0.8775562E-01
         -2   -1    0    0    0  501 -0.00000000000E+00  0.00000000000E+00  0.20840249103E+04  0.20840249103E+04  0.00000000000E+00 0.  1.
          2   -1    0    0  501    0  0.00000000000E+00 -0.00000000000E+00 -0.14745478764E+04  0.14745478764E+04  0.00000000000E+00 0. -1.
         23    2    1    2    0    0 -0.98506680864E+03 -0.12909409526E+04  0.80806289201E+03  0.18160105572E+04  0.89685816888E+02 0.  0.
    5000000    2    1    2    0    0  0.98506680864E+03  0.12909409526E+04 -0.19858585804E+03  0.17425622295E+04  0.60016799337E+03 0.  0.
         23    2    4    4    0    0  0.28389365441E+03  0.83672587781E+03 -0.62232465604E+02  0.89120179806E+03  0.98295287129E+02 0.  0.
         23    2    4    4    0    0  0.70117315423E+03  0.45421507478E+03 -0.13635339244E+03  0.85136043149E+03  0.90924200878E+02 0.  0.
          5    1    3    3  502    0 -0.39895798559E+03 -0.58491680658E+03  0.32610639101E+03  0.77952717281E+03  0.47000000000E+01 0. -1.
         -5    1    3    3    0  502 -0.58610882305E+03 -0.70602414601E+03  0.48195650100E+03  0.10364833844E+04  0.47000000000E+01 0.  1.
         11    1    5    5    0    0  0.15248621441E+03  0.33320350363E+03 -0.56607432672E+02  0.37078433334E+03  0.00000000000E+00 0.  1.
        -11    1    5    5    0    0  0.13140744001E+03  0.50352237418E+03 -0.56250329324E+01  0.52041746472E+03  0.00000000000E+00 0. -1.
          3    1    6    6  503    0  0.58770393371E+03  0.40909210839E+03 -0.13796880587E+03  0.72923772409E+03  0.00000000000E+00 0. -1.
         -3    1    6    6    0  503  0.11346922052E+03  0.45122966390E+02  0.16154134354E+01  0.12212270740E+03  0.00000000000E+00 0.  1.
<mgrwt>
<rscale>  0 0.16753279E+04</rscale>
<asrwt>0</asrwt>
<pdfrwt beam="1">  1        2 0.22685352E+00 0.16753279E+04</pdfrwt>
<pdfrwt beam="2">  1       -2 0.32061922E+00 0.16753279E+04</pdfrwt>
<totfact> 0.28797773E-01</totfact>
</mgrwt>
</event>
<event>
12    1  0.3147868E-008  0.1468266E+04  0.7818608E-02  0.8905834E-01
          1   -1    0    0  501    0  0.00000000000E+00  0.00000000000E+00  0.20608523646E+04  0.20608523646E+04  0.00000000000E+00 0. -1.
         -1   -1    0    0    0  501 -0.00000000000E+00 -0.00000000000E+00 -0.11344699897E+04  0.11344699897E+04  0.00000000000E+00 0.  1.
         23    2    1    2    0    0 -0.12701591136E+03  0.14564819636E+04  0.29970013547E+03  0.14952599496E+04  0.92246375171E+02 0.  0.
    5000000    2    1    2    0    0  0.12701591136E+03 -0.14564819636E+04  0.62668223935E+03  0.17000624047E+04  0.60000733237E+03 0.  0.
         23    2    4    4    0    0  0.11707418529E+03 -0.39769588285E+03  0.45739789644E+03  0.62393026082E+03  0.90596658881E+02 0.  0.
         23    2    4    4    0    0  0.99417260655E+01 -0.10587860807E+04  0.16928434291E+03  0.10761321439E+04  0.90974720408E+02 0.  0.
          5    1    3    3  502    0 -0.92168742499E+02  0.12296985120E+04  0.22207233744E+03  0.12529931048E+04  0.47000000000E+01 0. -1.
         -5    1    3    3    0  502 -0.34847168862E+02  0.22678345155E+03  0.77627798025E+02  0.24226684483E+03  0.47000000000E+01 0.  1.
         11    1    5    5    0    0  0.63900144992E+02 -0.24824423243E+03  0.21668841748E+03  0.33565204861E+03  0.00000000000E+00 0. -1.
        -11    1    5    5    0    0  0.53174040302E+02 -0.14945165042E+03  0.24070947896E+03  0.28827821221E+03  0.00000000000E+00 0.  1.
          4    1    6    6  503    0  0.43837168657E+00 -0.10523256092E+01 -0.40860396327E+01  0.42420842523E+01  0.00000000000E+00 0.  1.
         -4    1    6    6    0  503  0.95033543789E+01 -0.10577337551E+04  0.17337038254E+03  0.10718900596E+04  0.00000000000E+00 0. -1.
<mgrwt>
<rscale>  0 0.14682662E+04</rscale>
<asrwt>0</asrwt>
<pdfrwt beam="1">  1        1 0.31705421E+00 0.14682662E+04</pdfrwt>
<pdfrwt beam="2">  1       -1 0.17453384E+00 0.14682662E+04</pdfrwt>
<totfact> 0.58714552E-01</totfact>
</mgrwt>
</event>
<event>
12    1  0.3147868E-008  0.6666362E+03  0.7818608E-02  0.9776054E-01
         -2   -1    0    0    0  501 -0.00000000000E+00  0.00000000000E+00  0.97460366782E+03  0.97460366782E+03  0.00000000000E+00 0.  1.
          2   -1    0    0  501    0  0.00000000000E+00 -0.00000000000E+00 -0.84310427502E+03  0.84310427502E+03  0.00000000000E+00 0. -1.
         23    2    1    2    0    0 -0.39439885467E+03  0.43450196517E+03 -0.49208562989E+03  0.77187351456E+03  0.96426350259E+02 0.  0.
    5000000    2    1    2    0    0  0.39439885467E+03 -0.43450196517E+03  0.62358502270E+03  0.10458344283E+04  0.60047394328E+03 0.  0.
         23    2    4    4    0    0 -0.74995501899E+02 -0.13821836561E+03 -0.28715167439E+02  0.18443350721E+03  0.91991933581E+02 0.  0.
         23    2    4    4    0    0  0.46939435656E+03 -0.29628359957E+03  0.65230019014E+03  0.86140092108E+03  0.91656835188E+02 0.  0.
          5    1    3    3  502    0 -0.96671607213E+02  0.55989754772E+02 -0.73658454726E+02  0.13389514641E+03  0.47000000000E+01 0. -1.
         -5    1    3    3    0  502 -0.29772724745E+03  0.37851221040E+03 -0.41842717517E+03  0.63797836814E+03  0.47000000000E+01 0.  1.
         11    1    5    5    0    0 -0.63146769276E+02 -0.32201811017E+02 -0.31851168151E+02  0.77710797290E+02  0.00000000000E+00 0. -1.
        -11    1    5    5    0    0 -0.11848732623E+02 -0.10601655459E+03  0.31360007123E+01  0.10672270992E+03  0.00000000000E+00 0.  1.
          2    1    6    6  503    0  0.29217557396E+03 -0.13184893803E+03  0.38562439065E+03  0.50145476281E+03  0.00000000000E+00 0. -1.
         -2    1    6    6    0  503  0.17721878260E+03 -0.16443466153E+03  0.26667579948E+03  0.35994615827E+03  0.00000000000E+00 0.  1.
<mgrwt>
<rscale>  0 0.66663623E+03</rscale>
<asrwt>0</asrwt>
<pdfrwt beam="1">  1        2 0.12970835E+00 0.66663623E+03</pdfrwt>
<pdfrwt beam="2">  1       -2 0.14993903E+00 0.66663623E+03</pdfrwt>
<totfact> 0.98864462E+00</totfact>
</mgrwt>
</event>
<event>
12    1  0.3337197E-008  0.9483592E+03  0.7818608E-02  0.9367070E-01
         -2   -1    0    0    0  501 -0.00000000000E+00  0.00000000000E+00  0.48798890933E+03  0.48798890933E+03  0.00000000000E+00 0. -1.
          2   -1    0    0  501    0  0.00000000000E+00 -0.00000000000E+00 -0.22755440057E+04  0.22755440057E+04  0.00000000000E+00 0.  1.
         23    2    1    2    0    0  0.89012994608E+03  0.29812825809E+03 -0.11224392139E+04  0.14662363324E+04  0.93634471834E+02 0.  0.
    5000000    2    1    2    0    0 -0.89012994608E+03 -0.29812825809E+03 -0.66511588241E+03  0.12972965826E+04  0.59948937187E+03 0.  0.
         23    2    4    4    0    0 -0.56420693299E+03 -0.13125673930E+03 -0.66983398032E+02  0.59027194053E+03  0.91522638314E+02 0.  0.
         23    2    4    4    0    0 -0.32592301309E+03 -0.16687151879E+03 -0.59813248437E+03  0.70702464206E+03  0.89718790489E+02 0.  0.
          5    1    3    3  502    0  0.40972137541E+03  0.97340201231E+02 -0.54364510396E+03  0.68769092571E+03  0.47000000000E+01 0. -1.
         -5    1    3    3    0  502  0.48040857067E+03  0.20078805686E+03 -0.57879410998E+03  0.77854540671E+03  0.47000000000E+01 0.  1.
         11    1    5    5    0    0 -0.26735258464E+03 -0.97621429922E+02 -0.62923705372E+02  0.29149055009E+03  0.00000000000E+00 0. -1.
        -11    1    5    5    0    0 -0.29685434835E+03 -0.33635309378E+02 -0.40596926601E+01  0.29878139044E+03  0.00000000000E+00 0.  1.
          1    1    6    6  503    0 -0.20934307957E+03 -0.72626816541E+02 -0.29604523448E+03  0.36978637117E+03  0.00000000000E+00 0. -1.
         -1    1    6    6    0  503 -0.11657993352E+03 -0.94244702251E+02 -0.30208724989E+03  0.33723827089E+03  0.00000000000E+00 0.  1.
<mgrwt>
<rscale>  0 0.94835919E+03</rscale>
<asrwt>0</asrwt>
<pdfrwt beam="1">  1        2 0.35008368E+00 0.94835919E+03</pdfrwt>
<pdfrwt beam="2">  1       -2 0.75075219E-01 0.94835919E+03</pdfrwt>
<totfact> 0.75561559E+00</totfact>
</mgrwt>
</event>
<event>
12    1  0.3147868E-008  0.1084614E+04  0.7818608E-02  0.9220319E-01
         -1   -1    0    0    0  501 -0.00000000000E+00  0.00000000000E+00  0.25054039686E+04  0.25054039686E+04  0.00000000000E+00 0.  1.
          1   -1    0    0  501    0  0.00000000000E+00 -0.00000000000E+00 -0.93428643339E+03  0.93428643339E+03  0.00000000000E+00 0. -1.
         23    2    1    2    0    0 -0.10673643746E+04  0.10297027575E+03  0.18857463667E+04  0.21712955184E+04  0.92818548460E+02 0.  0.
    5000000    2    1    2    0    0  0.10673643746E+04 -0.10297027575E+03 -0.31462883145E+03  0.12683948836E+04  0.59997057692E+03 0.  0.
         23    2    4    4    0    0  0.12306788455E+03 -0.78157791389E+02  0.13366792427E+03  0.21875350517E+03  0.93443231331E+02 0.  0.
         23    2    4    4    0    0  0.94429649009E+03 -0.24812484364E+02 -0.44829675573E+03  0.10496413784E+04  0.92008268642E+02 0.  0.
          5    1    3    3  502    0 -0.86249481119E+03  0.11694159910E+03  0.15519419290E+04  0.17793590076E+04  0.47000000000E+01 0. -1.
         -5    1    3    3    0  502 -0.20486956345E+03 -0.13971323343E+02  0.33380443771E+03  0.39193651085E+03  0.47000000000E+01 0.  1.
         13    1    5    5    0    0  0.45347303184E+02 -0.42221013908E+02  0.23738446471E+01  0.62005056728E+02  0.00000000000E+00 0.  1.
        -13    1    5    5    0    0  0.77720581366E+02 -0.35936777482E+02  0.13129407963E+03  0.15674844844E+03  0.00000000000E+00 0. -1.
          4    1    6    6  503    0  0.55255422957E+03  0.91619388639E+01 -0.21889181906E+03  0.59440200723E+03  0.00000000000E+00 0. -1.
         -4    1    6    6    0  503  0.39174226051E+03 -0.33974423228E+02 -0.22940493667E+03  0.45523937118E+03  0.00000000000E+00 0.  1.
<mgrwt>
<rscale>  0 0.10846138E+04</rscale>
<asrwt>0</asrwt>
<pdfrwt beam="1">  1        1 0.14373638E+00 0.10846138E+04</pdfrwt>
<pdfrwt beam="2">  1       -1 0.38544676E+00 0.10846138E+04</pdfrwt>
<totfact> 0.15484699E-01</totfact>
</mgrwt>
</event>
<event>
12    1  0.3147868E-008  0.8486519E+03  0.7818608E-02  0.9492148E-01
         -1   -1    0    0    0  501 -0.00000000000E+00  0.00000000000E+00  0.45565553539E+03  0.45565553539E+03  0.00000000000E+00 0.  1.
          1   -1    0    0  501    0  0.00000000000E+00 -0.00000000000E+00 -0.28666284428E+04  0.28666284428E+04  0.00000000000E+00 0. -1.
         23    2    1    2    0    0 -0.94007576801E+02 -0.74246443289E+03 -0.29411207932E+02  0.75477985948E+03  0.93470629180E+02 0.  0.
    5000000    2    1    2    0    0  0.94007576801E+02  0.74246443289E+03 -0.23815616995E+04  0.25675041187E+04  0.60012533074E+03 0.  0.
         23    2    4    4    0    0 -0.15067543085E+03  0.11509436462E+02 -0.32472709159E+03  0.36910801613E+03  0.89204769909E+02 0.  0.
         23    2    4    4    0    0  0.24468300765E+03  0.73095499643E+03 -0.20568346079E+04  0.21983961026E+04  0.90619195541E+02 0.  0.
          5    1    3    3  502    0 -0.46863105352E+02 -0.63168487953E+03 -0.17129532819E+02  0.63366982614E+03  0.47000000000E+01 0. -1.
         -5    1    3    3    0  502 -0.47144471449E+02 -0.11077955336E+03 -0.12281675113E+02  0.12111003334E+03  0.47000000000E+01 0.  1.
         11    1    5    5    0    0  0.95701021552E+01 -0.53103376164E+01 -0.73820753455E+01  0.13201574803E+02  0.00000000000E+00 0. -1.
        -11    1    5    5    0    0 -0.16024553300E+03  0.16819774078E+02 -0.31734501624E+03  0.35590644133E+03  0.00000000000E+00 0.  1.
          2    1    6    6  503    0  0.13996715693E+03  0.37493779416E+03 -0.94452693228E+03  0.10258168844E+04  0.00000000000E+00 0. -1.
         -2    1    6    6    0  503  0.10471585072E+03  0.35601720227E+03 -0.11123076756E+04  0.11725792182E+04  0.00000000000E+00 0.  1.
<mgrwt>
<rscale>  0 0.84865189E+03</rscale>
<asrwt>0</asrwt>
<pdfrwt beam="1">  1        1 0.44101976E+00 0.84865189E+03</pdfrwt>
<pdfrwt beam="2">  1       -1 0.70100851E-01 0.84865189E+03</pdfrwt>
<totfact> 0.16161110E+00</totfact>
</mgrwt>
</event>
<event>
12    1  0.3147868E-008  0.5517953E+03  0.7818608E-02  0.1001079E+00
         -2   -1    0    0    0  501 -0.00000000000E+00  0.00000000000E+00  0.13481382884E+03  0.13481382884E+03  0.00000000000E+00 0. -1.
          2   -1    0    0  501    0  0.00000000000E+00 -0.00000000000E+00 -0.29012609664E+04  0.29012609664E+04  0.00000000000E+00 0.  1.
         23    2    1    2    0    0 -0.26814999766E+03  0.32577448359E+03 -0.53858686748E+03  0.69053698419E+03  0.93445584773E+02 0.  0.
    5000000    2    1    2    0    0  0.26814999766E+03 -0.32577448359E+03 -0.22278602701E+04  0.23455378111E+04  0.60012732370E+03 0.  0.
         23    2    4    4    0    0 -0.10175089848E+03  0.80648401211E+02 -0.29795716497E+03  0.33685341761E+03  0.88511823154E+02 0.  0.
         23    2    4    4    0    0  0.36990089614E+03 -0.40642288480E+03 -0.19299031051E+04  0.20086843935E+04  0.90998698189E+02 0.  0.
          5    1    3    3  502    0 -0.11779731010E+03  0.12076711168E+03 -0.28629559523E+03  0.33233741796E+03  0.47000000000E+01 0. -1.
         -5    1    3    3    0  502 -0.15035268756E+03  0.20500737191E+03 -0.25229127225E+03  0.35819956623E+03  0.47000000000E+01 0.  1.
         13    1    5    5    0    0 -0.72260100209E+02  0.61561660572E+02 -0.28331503340E+03  0.29879552923E+03  0.00000000000E+00 0. -1.
        -13    1    5    5    0    0 -0.29490798276E+02  0.19086740639E+02 -0.14642131565E+02  0.38057888380E+02  0.00000000000E+00 0.  1.
          2    1    6    6  503    0  0.15424274335E+03 -0.19321364572E+03 -0.10217571185E+04  0.10512420968E+04  0.00000000000E+00 0. -1.
         -2    1    6    6    0  503  0.21565815280E+03 -0.21320923908E+03 -0.90814598660E+03  0.95744229668E+03  0.00000000000E+00 0.  1.
<mgrwt>
<rscale>  0 0.55179528E+03</rscale>
<asrwt>0</asrwt>
<pdfrwt beam="1">  1        2 0.44634779E+00 0.55179528E+03</pdfrwt>
<pdfrwt beam="2">  1       -2 0.20740591E-01 0.55179528E+03</pdfrwt>
<totfact> 0.43721894E+01</totfact>
</mgrwt>
</event>
<event>
12    1  0.3147868E-008  0.6651490E+03  0.7818608E-02  0.9778761E-01
          2   -1    0    0  501    0  0.00000000000E+00  0.00000000000E+00  0.29077647407E+04  0.29077647407E+04  0.00000000000E+00 0. -1.
         -2   -1    0    0    0  501 -0.00000000000E+00 -0.00000000000E+00 -0.22485416265E+03  0.22485416265E+03  0.00000000000E+00 0.  1.
         23    2    1    2    0    0  0.56318267209E+03  0.15387655387E+03  0.18879598192E+04  0.19782334060E+04  0.90346078187E+02 0.  0.
    5000000    2    1    2    0    0 -0.56318267209E+03 -0.15387655387E+03  0.79495075879E+03  0.11543854973E+04  0.59983868781E+03 0.  0.
         23    2    4    4    0    0 -0.62013614203E+03 -0.16831910719E+03  0.81625102453E+03  0.10428035173E+04  0.90957594869E+02 0.  0.
         23    2    4    4    0    0  0.56953469939E+02  0.14442553324E+02 -0.21300265737E+02  0.11158198000E+03  0.92436745154E+02 0.  0.
          5    1    3    3  502    0  0.38265945374E+03  0.13285461195E+03  0.11936752447E+04  0.12605400768E+04  0.47000000000E+01 0. -1.
         -5    1    3    3    0  502  0.18052321836E+03  0.21021941916E+02  0.69428457456E+03  0.71769332927E+03  0.47000000000E+01 0.  1.
         13    1    5    5    0    0 -0.21935935794E+03 -0.82042591008E+02  0.35948110972E+03  0.42904100375E+03  0.00000000000E+00 0.  1.
        -13    1    5    5    0    0 -0.40077678410E+03 -0.86276516184E+02  0.45676991481E+03  0.61376251351E+03  0.00000000000E+00 0. -1.
          4    1    6    6  503    0 -0.10653051406E+02  0.28292995829E+02 -0.29310400948E+02  0.42107965054E+02  0.00000000000E+00 0. -1.
         -4    1    6    6    0  503  0.67606521345E+02 -0.13850442505E+02  0.80101352114E+01  0.69474014942E+02  0.00000000000E+00 0.  1.
<mgrwt>
<rscale>  0 0.66514899E+03</rscale>
<asrwt>0</asrwt>
<pdfrwt beam="1">  1        2 0.44734840E+00 0.66514899E+03</pdfrwt>
<pdfrwt beam="2">  1       -2 0.34592950E-01 0.66514899E+03</pdfrwt>
<totfact> 0.16714617E+01</totfact>
</mgrwt>
</event>
<event>
12    1  0.3147868E-008  0.1759284E+04  0.7818608E-02  0.8728257E-01
         -2   -1    0    0    0  501 -0.00000000000E+00  0.00000000000E+00  0.38721928493E+04  0.38721928493E+04  0.00000000000E+00 0.  1.
          2   -1    0    0  501    0  0.00000000000E+00 -0.00000000000E+00 -0.11653711264E+04  0.11653711264E+04  0.00000000000E+00 0. -1.
         23    2    1    2    0    0  0.13149325561E+04 -0.11228405751E+04  0.26998183622E+04  0.32072953268E+04  0.88913105960E+02 0.  0.
    5000000    2    1    2    0    0 -0.13149325561E+04  0.11228405751E+04  0.70033607050E+01  0.18302686489E+04  0.60001307970E+03 0.  0.
         23    2    4    4    0    0 -0.19564981192E+03  0.39212356025E+03  0.17332239726E+03  0.48006914895E+03  0.91575100161E+02 0.  0.
         23    2    4    4    0    0 -0.11192827442E+04  0.73071701484E+03 -0.16631903655E+03  0.13501994999E+04  0.92927124598E+02 0.  0.
          5    1    3    3  502    0  0.48672824597E+03 -0.46922413012E+03  0.10284152448E+04  0.12307459833E+04  0.47000000000E+01 0. -1.
         -5    1    3    3    0  502  0.82820431010E+03 -0.65361644498E+03  0.16714031174E+04  0.19765493435E+04  0.47000000000E+01 0.  1.
         11    1    5    5    0    0 -0.38587442847E+02  0.17718884238E+03  0.64310355773E+02  0.19240763620E+03  0.00000000000E+00 0. -1.
        -11    1    5    5    0    0 -0.15706236907E+03  0.21493471787E+03  0.10901204149E+03  0.28766151274E+03  0.00000000000E+00 0.  1.
          4    1    6    6  503    0 -0.22982038050E+03  0.19600231886E+03 -0.32624556428E+02  0.30380697486E+03  0.00000000000E+00 0. -1.
         -4    1    6    6    0  503 -0.88946236365E+03  0.53471469599E+03 -0.13369448013E+03  0.10463925250E+04  0.00000000000E+00 0.  1.
<mgrwt>
<rscale>  0 0.17592839E+04</rscale>
<asrwt>0</asrwt>
<pdfrwt beam="1">  1        2 0.17928787E+00 0.17592839E+04</pdfrwt>
<pdfrwt beam="2">  1       -2 0.59572197E+00 0.17592839E+04</pdfrwt>
<totfact> 0.93505601E-03</totfact>
</mgrwt>
</event>
<event>
12    1  0.3147868E-008  0.1764345E+04  0.7818608E-02  0.8725494E-01
         -1   -1    0    0    0  501 -0.00000000000E+00  0.00000000000E+00  0.14230389512E+04  0.14230389512E+04  0.00000000000E+00 0.  1.
          1   -1    0    0  501    0  0.00000000000E+00 -0.00000000000E+00 -0.33602147402E+04  0.33602147402E+04  0.00000000000E+00 0. -1.
         23    2    1    2    0    0  0.69648109185E+03 -0.15947942222E+04  0.42001787539E+03  0.17925017716E+04  0.90515539742E+02 0.  0.
    5000000    2    1    2    0    0 -0.69648109185E+03  0.15947942222E+04 -0.23571936644E+04  0.29907519198E+04  0.59981709864E+03 0.  0.
         23    2    4    4    0    0 -0.42569036394E+03  0.52078612902E+03 -0.57034365878E+03  0.88659033002E+03  0.91214286369E+02 0.  0.
         23    2    4    4    0    0 -0.27079072791E+03  0.10740080932E+04 -0.17868500056E+04  0.21041615898E+04  0.88555354329E+02 0.  0.
          5    1    3    3  502    0  0.59446023337E+03 -0.14273466566E+04  0.38259172304E+03  0.15928276629E+04  0.47000000000E+01 0. -1.
         -5    1    3    3    0  502  0.10202085848E+03 -0.16744756566E+03  0.37426152350E+02  0.19967410871E+03  0.47000000000E+01 0.  1.
         13    1    5    5    0    0 -0.26298810199E+03  0.38800109082E+03 -0.39868278522E+03  0.61534994231E+03  0.00000000000E+00 0. -1.
        -13    1    5    5    0    0 -0.16270226195E+03  0.13278503820E+03 -0.17166087356E+03  0.27124038771E+03  0.00000000000E+00 0.  1.
          4    1    6    6  503    0 -0.17607646754E+03  0.69873069885E+03 -0.12407275455E+04  0.14347934883E+04  0.00000000000E+00 0.  1.
         -4    1    6    6    0  503 -0.94714260366E+02  0.37527739436E+03 -0.54612246010E+03  0.66936810146E+03  0.00000000000E+00 0. -1.
<mgrwt>
<rscale>  0 0.17643451E+04</rscale>
<asrwt>0</asrwt>
<pdfrwt beam="1">  1        1 0.51695611E+00 0.17643451E+04</pdfrwt>
<pdfrwt beam="2">  1       -1 0.21892907E+00 0.17643451E+04</pdfrwt>
<totfact> 0.32927885E-02</totfact>
</mgrwt>
</event>
<event>
12    1  0.3147868E-008  0.1090468E+04  0.7818608E-02  0.9214533E-01
         -2   -1    0    0    0  501 -0.00000000000E+00  0.00000000000E+00  0.18691313455E+04  0.18691313455E+04  0.00000000000E+00 0. -1.
          2   -1    0    0  501    0  0.00000000000E+00 -0.00000000000E+00 -0.13375505112E+04  0.13375505112E+04  0.00000000000E+00 0.  1.
         23    2    1    2    0    0  0.59250755420E+03 -0.84907756216E+03 -0.87571480555E+03  0.13593562508E+04  0.94736938767E+02 0.  0.
    5000000    2    1    2    0    0 -0.59250755420E+03  0.84907756216E+03  0.14072956399E+04  0.18473256059E+04  0.60011079619E+03 0.  0.
         23    2    4    4    0    0 -0.26777562818E+03  0.74458077474E+03  0.11924190814E+04  0.14339121559E+04  0.90202483367E+02 0.  0.
         23    2    4    4    0    0 -0.32473192602E+03  0.10449678742E+03  0.21487655844E+03  0.41341344993E+03  0.91478646993E+02 0.  0.
          5    1    3    3  502    0  0.38122871556E+03 -0.46501343957E+03 -0.50819074959E+03  0.78730728469E+03  0.47000000000E+01 0. -1.
         -5    1    3    3    0  502  0.21127883864E+03 -0.38406412259E+03 -0.36752405596E+03  0.57204896611E+03  0.47000000000E+01 0.  1.
         11    1    5    5    0    0 -0.15771165212E+03  0.54587421108E+03  0.88428580039E+03  0.10511008497E+04  0.00000000000E+00 0.  1.
        -11    1    5    5    0    0 -0.11006397607E+03  0.19870656366E+03  0.30813328104E+03  0.38281130620E+03  0.00000000000E+00 0. -1.
          1    1    6    6  503    0 -0.20629189796E+03  0.94857005470E+02  0.17946874212E+03  0.28941877626E+03  0.00000000000E+00 0. -1.
         -1    1    6    6    0  503 -0.11844002806E+03  0.96397819550E+01  0.35407816321E+02  0.12399467367E+03  0.00000000000E+00 0.  1.
<mgrwt>
<rscale>  0 0.10904677E+04</rscale>
<asrwt>0</asrwt>
<pdfrwt beam="1">  1        2 0.20577700E+00 0.10904677E+04</pdfrwt>
<pdfrwt beam="2">  1       -2 0.28755867E+00 0.10904677E+04</pdfrwt>
<totfact> 0.58890715E-01</totfact>
</mgrwt>
</event>
<event>
12    1  0.3147868E-008  0.2373569E+04  0.7818608E-02  0.8449466E-01
          1   -1    0    0  501    0  0.00000000000E+00  0.00000000000E+00  0.29366334394E+04  0.29366334394E+04  0.00000000000E+00 0. -1.
         -1   -1    0    0    0  501 -0.00000000000E+00 -0.00000000000E+00 -0.31898566452E+04  0.31898566452E+04  0.00000000000E+00 0.  1.
         23    2    1    2    0    0 -0.60515364439E+03 -0.22658669109E+04 -0.20463714308E+04  0.31138879166E+04  0.91094089333E+02 0.  0.
    5000000    2    1    2    0    0  0.60515364439E+03  0.22658669109E+04  0.17931482250E+04  0.30126021680E+04  0.60002289513E+03 0.  0.
         23    2    4    4    0    0 -0.83024157876E+02  0.15088337216E+03  0.13493519761E+03  0.23684885847E+03  0.90725252373E+02 0.  0.
         23    2    4    4    0    0  0.68817780227E+03  0.21149835387E+04  0.16582130274E+04  0.27757533096E+04  0.91607502885E+02 0.  0.
          5    1    3    3  502    0 -0.25709221278E+03 -0.11378300234E+04 -0.10209779013E+04  0.15502166084E+04  0.47000000000E+01 0. -1.
         -5    1    3    3    0  502 -0.34806143162E+03 -0.11280368875E+04 -0.10253935295E+04  0.15636713082E+04  0.47000000000E+01 0.  1.
         11    1    5    5    0    0 -0.52466381097E+02  0.61825577474E+02  0.11953902753E+02  0.81963522170E+02  0.00000000000E+00 0. -1.
        -11    1    5    5    0    0 -0.30557776779E+02  0.89057794688E+02  0.12298129485E+03  0.15488533630E+03  0.00000000000E+00 0.  1.
          2    1    6    6  503    0  0.44116211756E+03  0.12661401044E+04  0.95523575294E+03  0.16462715820E+04  0.00000000000E+00 0. -1.
         -2    1    6    6    0  503  0.24701568471E+03  0.84884343431E+03  0.70297727449E+03  0.11294817276E+04  0.00000000000E+00 0.  1.
<mgrwt>
<rscale>  0 0.23735694E+04</rscale>
<asrwt>0</asrwt>
<pdfrwt beam="1">  1        1 0.45178976E+00 0.23735694E+04</pdfrwt>
<pdfrwt beam="2">  1       -1 0.49074718E+00 0.23735694E+04</pdfrwt>
<totfact> 0.95239865E-04</totfact>
</mgrwt>
</event>
<event>
12    1  0.3147868E-008  0.3972171E+03  0.7818608E-02  0.1044748E+00
         -2   -1    0    0    0  501 -0.00000000000E+00  0.00000000000E+00  0.24604910829E+03  0.24604910829E+03  0.00000000000E+00 0.  1.
          2   -1    0    0  501    0  0.00000000000E+00 -0.00000000000E+00 -0.14394691257E+04  0.14394691257E+04  0.00000000000E+00 0. -1.
         23    2    1    2    0    0  0.51832743723E+02 -0.37729099961E+03 -0.14172135732E+03  0.41622372013E+03  0.90122751685E+02 0.  0.
    5000000    2    1    2    0    0 -0.51832743723E+02  0.37729099961E+03 -0.10516986601E+04  0.12692945138E+04  0.60000279961E+03 0.  0.
         23    2    4    4    0    0  0.24743030305E+02  0.73626616403E+02  0.42585095338E+02  0.12698399215E+03  0.90985425894E+02 0.  0.
         23    2    4    4    0    0 -0.76575774029E+02  0.30366438320E+03 -0.10942837554E+04  0.11423105217E+04  0.96646178443E+02 0.  0.
          5    1    3    3  502    0  0.20333999558E+01 -0.15905545899E+03 -0.10148206524E+03  0.18874181655E+03  0.47000000000E+01 0. -1.
         -5    1    3    3    0  502  0.49799343768E+02 -0.21823554062E+03 -0.40239292077E+02  0.22748190358E+03  0.47000000000E+01 0.  1.
         11    1    5    5    0    0  0.11589370038E+02  0.28930970999E+01  0.52962911930E+02  0.54293218258E+02  0.00000000000E+00 0. -1.
        -11    1    5    5    0    0  0.13153660267E+02  0.70733519303E+02 -0.10377816592E+02  0.72690773889E+02  0.00000000000E+00 0.  1.
          3    1    6    6  503    0 -0.74340348080E+02  0.10402180169E+03 -0.40631687899E+03  0.42595824764E+03  0.00000000000E+00 0. -1.
         -3    1    6    6    0  503 -0.22354259481E+01  0.19964258151E+03 -0.68796687641E+03  0.71635227403E+03  0.00000000000E+00 0.  1.
<mgrwt>
<rscale>  0 0.39721714E+03</rscale>
<asrwt>0</asrwt>
<pdfrwt beam="1">  1        2 0.22145679E+00 0.39721714E+03</pdfrwt>
<pdfrwt beam="2">  1       -2 0.37853709E-01 0.39721714E+03</pdfrwt>
<totfact> 0.96150423E+01</totfact>
</mgrwt>
</event>
<event>
12    1  0.3147868E-008  0.8267859E+03  0.7818608E-02  0.9522035E-01
          2   -1    0    0  501    0  0.00000000000E+00  0.00000000000E+00  0.96879231906E+03  0.96879231906E+03  0.00000000000E+00 0.  1.
         -2   -1    0    0    0  501 -0.00000000000E+00 -0.00000000000E+00 -0.76169531974E+03  0.76169531974E+03  0.00000000000E+00 0. -1.
         23    2    1    2    0    0 -0.71375555521E+03  0.15163302490E+03 -0.90242360020E+02  0.74003631082E+03  0.84086211434E+02 0.  0.
    5000000    2    1    2    0    0  0.71375555521E+03 -0.15163302490E+03  0.29733935934E+03  0.99045132799E+03  0.60011963113E+03 0.  0.
         23    2    4    4    0    0  0.20866140143E+03  0.20906495091E+03  0.16015366950E+03  0.34809191399E+03  0.90945305467E+02 0.  0.
         23    2    4    4    0    0  0.50509415378E+03 -0.36069797580E+03  0.13718568984E+03  0.64235941400E+03  0.92642157367E+02 0.  0.
          5    1    3    3  502    0 -0.44657093749E+03  0.56982562389E+02 -0.38496021865E+02  0.45185910230E+03  0.47000000000E+01 0. -1.
         -5    1    3    3    0  502 -0.26718461772E+03  0.94650462510E+02 -0.51746338156E+02  0.28817720852E+03  0.47000000000E+01 0.  1.
         11    1    5    5    0    0  0.19418982165E+03  0.20707884638E+03  0.12531456023E+03  0.31031447672E+03  0.00000000000E+00 0. -1.
        -11    1    5    5    0    0  0.14471579776E+02  0.19861045219E+01  0.34839109266E+02  0.37777437272E+02  0.00000000000E+00 0.  1.
          1    1    6    6  503    0  0.32068664248E+03 -0.21133748992E+03  0.40792440195E+02  0.38622206111E+03  0.00000000000E+00 0. -1.
         -1    1    6    6    0  503  0.18440751130E+03 -0.14936048588E+03  0.96393249643E+02  0.25613735289E+03  0.00000000000E+00 0.  1.
<mgrwt>
<rscale>  0 0.82678592E+03</rscale>
<asrwt>0</asrwt>
<pdfrwt beam="1">  1        2 0.14904497E+00 0.82678592E+03</pdfrwt>
<pdfrwt beam="2">  1       -2 0.11718390E+00 0.82678592E+03</pdfrwt>
<totfact> 0.14984759E+01</totfact>
</mgrwt>
</event>
<event>
12    1  0.3147868E-008  0.1667190E+04  0.7818608E-02  0.8780302E-01
         -1   -1    0    0    0  501 -0.00000000000E+00  0.00000000000E+00  0.11036259394E+04  0.11036259394E+04  0.00000000000E+00 0. -1.
          1   -1    0    0  501    0  0.00000000000E+00 -0.00000000000E+00 -0.26043470201E+04  0.26043470201E+04  0.00000000000E+00 0.  1.
         23    2    1    2    0    0  0.14440108484E+04 -0.74480076759E+03 -0.98051968824E+03  0.18995767682E+04  0.84128030751E+02 0.  0.
    5000000    2    1    2    0    0 -0.14440108484E+04  0.74480076759E+03 -0.52020139245E+03  0.18083961913E+04  0.59982646006E+03 0.  0.
         23    2    4    4    0    0 -0.19894060762E+03  0.34033971019E+03 -0.22656702896E+02  0.40492865219E+03  0.89696173206E+02 0.  0.
         23    2    4    4    0    0 -0.12450702408E+04  0.40446105740E+03 -0.49754468955E+03  0.14034675391E+04  0.91551972693E+02 0.  0.
          5    1    3    3  502    0  0.12628369965E+03 -0.46459953826E+02 -0.63606499411E+02  0.14890929076E+03  0.47000000000E+01 0. -1.
         -5    1    3    3    0  502  0.13177271487E+04 -0.69834081376E+03 -0.91691318883E+03  0.17506674774E+04  0.47000000000E+01 0.  1.
         11    1    5    5    0    0 -0.87123494692E+02  0.11163659759E+03 -0.46969655769E+02  0.14919578350E+03  0.00000000000E+00 0. -1.
        -11    1    5    5    0    0 -0.11181711292E+03  0.22870311260E+03  0.24312952873E+02  0.25573286870E+03  0.00000000000E+00 0.  1.
          4    1    6    6  503    0 -0.35119314990E+03  0.15716125045E+03 -0.15397291265E+03  0.41442001039E+03  0.00000000000E+00 0. -1.
         -4    1    6    6    0  503 -0.89387709086E+03  0.24729980695E+03 -0.34357177690E+03  0.98904752867E+03  0.00000000000E+00 0.  1.
<mgrwt>
<rscale>  0 0.16671895E+04</rscale>
<asrwt>0</asrwt>
<pdfrwt beam="1">  1        1 0.40066877E+00 0.16671895E+04</pdfrwt>
<pdfrwt beam="2">  1       -1 0.16978861E+00 0.16671895E+04</pdfrwt>
<totfact> 0.26330010E-01</totfact>
</mgrwt>
</event>
<event>
12    1  0.3147868E-008  0.5114032E+03  0.7818608E-02  0.1010845E+00
         -2   -1    0    0    0  501 -0.00000000000E+00  0.00000000000E+00  0.22321034497E+03  0.22321034497E+03  0.00000000000E+00 0.  1.
          2   -1    0    0  501    0  0.00000000000E+00 -0.00000000000E+00 -0.15049026749E+04  0.15049026749E+04  0.00000000000E+00 0. -1.
         23    2    1    2    0    0 -0.31120051714E+03  0.27421399739E+03 -0.54937607730E+03  0.69457135332E+03  0.92607841478E+02 0.  0.
    5000000    2    1    2    0    0  0.31120051714E+03 -0.27421399739E+03 -0.73231625266E+03  0.10335416666E+04  0.59990182900E+03 0.  0.
         23    2    4    4    0    0  0.16680644774E+03  0.95413529005E+02 -0.20884733759E+02  0.21379670396E+03  0.91349471779E+02 0.  0.
         23    2    4    4    0    0  0.14439406939E+03 -0.36962752639E+03 -0.71143151890E+03  0.81974496263E+03  0.91503235587E+02 0.  0.
          5    1    3    3  502    0 -0.14111853471E+03  0.18116886049E+03 -0.32549261387E+03  0.39837686747E+03  0.47000000000E+01 0. -1.
         -5    1    3    3    0  502 -0.17008198243E+03  0.93045136895E+02 -0.22388346343E+03  0.29619448584E+03  0.47000000000E+01 0.  1.
         11    1    5    5    0    0  0.83009837111E+02  0.81610645642E+02 -0.46103423433E+02  0.12520565559E+03  0.00000000000E+00 0. -1.
        -11    1    5    5    0    0  0.83796610634E+02  0.13802883363E+02  0.25218689674E+02  0.88591048372E+02  0.00000000000E+00 0.  1.
          3    1    6    6  503    0  0.12749028621E+03 -0.29561146588E+03 -0.63538092525E+03  0.71228423541E+03  0.00000000000E+00 0. -1.
         -3    1    6    6    0  503  0.16903783188E+02 -0.74016060514E+02 -0.76050593646E+02  0.10746072722E+03  0.00000000000E+00 0.  1.
<mgrwt>
<rscale>  0 0.51140318E+03</rscale>
<asrwt>0</asrwt>
<pdfrwt beam="1">  1        2 0.23152349E+00 0.51140318E+03</pdfrwt>
<pdfrwt beam="2">  1       -2 0.34340053E-01 0.51140318E+03</pdfrwt>
<totfact> 0.10469914E+02</totfact>
</mgrwt>
</event>
<event>
12    1  0.3147868E-008  0.5799056E+03  0.7818608E-02  0.9947995E-01
          1   -1    0    0  501    0  0.00000000000E+00  0.00000000000E+00  0.13977528990E+04  0.13977528990E+04  0.00000000000E+00 0. -1.
         -1   -1    0    0    0  501 -0.00000000000E+00 -0.00000000000E+00 -0.65378257774E+03  0.65378257774E+03  0.00000000000E+00 0.  1.
         23    2    1    2    0    0 -0.10510641205E+03  0.42400769965E+03  0.11299970998E+04  0.12148900418E+04  0.90744040920E+02 0.  0.
    5000000    2    1    2    0    0  0.10510641205E+03 -0.42400769965E+03 -0.38602677854E+03  0.83664543491E+03  0.60010750936E+03 0.  0.
         23    2    4    4    0    0 -0.56964761112E+02  0.12030910249E+03 -0.14812652405E+03  0.21436178270E+03  0.79311049707E+02 0.  0.
         23    2    4    4    0    0  0.16207117316E+03 -0.54431680214E+03 -0.23790025450E+03  0.62228365221E+03  0.89958693094E+02 0.  0.
          5    1    3    3  502    0 -0.96434207681E+01  0.46643905851E+02  0.63137328988E+02  0.79227910668E+02  0.47000000000E+01 0. -1.
         -5    1    3    3    0  502 -0.95462991281E+02  0.37736379379E+03  0.10668597708E+04  0.11356621312E+04  0.47000000000E+01 0.  1.
         13    1    5    5    0    0 -0.39709407711E+01  0.96326756437E+02 -0.85089255708E+02  0.12858768920E+03  0.00000000000E+00 0.  1.
        -13    1    5    5    0    0 -0.52993820341E+02  0.23982346053E+02 -0.63037268338E+02  0.85774093502E+02  0.00000000000E+00 0. -1.
          3    1    6    6  503    0  0.41828772150E+02 -0.16204389654E+03 -0.27268878816E+02  0.16956256172E+03  0.00000000000E+00 0. -1.
         -3    1    6    6    0  503  0.12024240101E+03 -0.38227290559E+03 -0.21063137568E+03  0.45272109049E+03  0.00000000000E+00 0.  1.
<mgrwt>
<rscale>  0 0.57990558E+03</rscale>
<asrwt>0</asrwt>
<pdfrwt beam="1">  1        1 0.21503891E+00 0.57990558E+03</pdfrwt>
<pdfrwt beam="2">  1       -1 0.10058194E+00 0.57990558E+03</pdfrwt>
<totfact> 0.77601846E+00</totfact>
</mgrwt>
</event>
