<event>
12    2  0.3623523E-008  0.1577210E+04  0.7818608E-02  0.8834672E-01
         -2   -1    0    0    0  501 -0.00000000000E+00  0.00000000000E+00  0.32458287793E+03  0.32458287793E+03  0.00000000000E+00 0. -1.
          2   -1    0    0  501    0  0.00000000000E+00 -0.00000000000E+00 -0.19159908565E+04  0.19159908565E+04  0.00000000000E+00 0.  1.
         23    2    1    2    0    0 -0.26310890655E+03  0.16080771024E+03  0.74752784051E+02  0.33016027418E+03  0.91282043922E+02 0.  0.
        254    2    1    2    0    0  0.26310890655E+03 -0.16080771024E+03 -0.16661607626E+04  0.19104134602E+04  0.88232787886E+03 0.  0.
         23    2    4    4    0    0 -0.22848648606E+03 -0.14522203242E+03 -0.11786553979E+04  0.12129845455E+04  0.93848001830E+02 0.  0.
         23    2    4    4    0    0  0.49159539261E+03 -0.15585677822E+02 -0.48750536466E+03  0.69742891475E+03  0.82684141020E+02 0.  0.
          4    1    3    3  502    0 -0.65968830707E+02  0.44184904323E+01 -0.46817577043E+01  0.66282188691E+02  0.00000000000E+00 0.  1.
         -4    1    3    3    0  502 -0.19714007584E+03  0.15638921981E+03  0.79434541755E+02  0.26387808549E+03  0.00000000000E+00 0. -1.
         11    1    5    5    0    0 -0.77060572429E+02 -0.55850385634E+01 -0.40953183575E+03  0.41675634245E+03  0.00000000000E+00 0. -1.
        -11    1    5    5    0    0 -0.15142591363E+03 -0.13963699386E+03 -0.76912356219E+03  0.79622820302E+03  0.00000000000E+00 0.  1.
          3    1    6    6  503    0  0.70023393713E+02 -0.23635009364E+02 -0.46656047562E+02  0.87399520072E+02  0.00000000000E+00 0. -1.
         -3    1    6    6    0  503  0.42157199890E+03  0.80493315419E+01 -0.44084931710E+03  0.61002939468E+03  0.00000000000E+00 0.  1.
<mgrwt>
<rscale>  0 0.15772100E+04</rscale>
<asrwt>0</asrwt>
<pdfrwt beam="1">  1        2 0.29476783E+00 0.15772100E+04</pdfrwt>
<pdfrwt beam="2">  1       -2 0.49935827E-01 0.15772100E+04</pdfrwt>
<totfact> 0.27118207E+01</totfact>
</mgrwt>
</event>
<event>
12    2  0.3623523E-008  0.2326014E+04  0.7818608E-02  0.8467734E-01
          2   -1    0    0  501    0  0.00000000000E+00  0.00000000000E+00  0.14731113534E+04  0.14731113534E+04  0.00000000000E+00 0.  1.
         -2   -1    0    0    0  501 -0.00000000000E+00 -0.00000000000E+00 -0.91818296829E+03  0.91818296829E+03  0.00000000000E+00 0. -1.
         23    2    1    2    0    0  0.35050434595E+03 -0.75806089782E+03  0.78028400407E+03  0.11468159010E+04  0.93989161805E+02 0.  0.
        254    2    1    2    0    0 -0.35050434595E+03  0.75806089782E+03 -0.22535561900E+03  0.12444784206E+04  0.89466852131E+03 0.  0.
         23    2    4    4    0    0 -0.40618849695E+03 -0.36167720707E+02 -0.26304819443E+02  0.41875186710E+03  0.91454817233E+02 0.  0.
         23    2    4    4    0    0  0.55684150998E+02  0.79422861853E+03 -0.19905079956E+03  0.82572655352E+03  0.91122429838E+02 0.  0.
          1    1    3    3  502    0  0.29709531255E+03 -0.65402842611E+03  0.71190897454E+03  0.10113521617E+04  0.00000000000E+00 0. -1.
         -1    1    3    3    0  502  0.53409033402E+02 -0.10403247171E+03  0.68375029532E+02  0.13546373936E+03  0.00000000000E+00 0.  1.
         11    1    5    5    0    0 -0.38904623962E+03 -0.32422603584E+02 -0.40553505154E+01  0.39041599308E+03  0.00000000000E+00 0. -1.
        -11    1    5    5    0    0 -0.17142257329E+02 -0.37451171226E+01 -0.22249468928E+02  0.28335874014E+02  0.00000000000E+00 0.  1.
          3    1    6    6  503    0  0.13828184116E+02  0.49908522763E+03 -0.16427811058E+03  0.52560877155E+03  0.00000000000E+00 0. -1.
         -3    1    6    6    0  503  0.41855966882E+02  0.29514339090E+03 -0.34772688972E+02  0.30011778197E+03  0.00000000000E+00 0.  1.
<mgrwt>
<rscale>  0 0.23260144E+04</rscale>
<asrwt>0</asrwt>
<pdfrwt beam="1">  1        2 0.22663252E+00 0.23260144E+04</pdfrwt>
<pdfrwt beam="2">  1       -2 0.14125892E+00 0.23260144E+04</pdfrwt>
<totfact> 0.41740253E+00</totfact>
</mgrwt>
</event>
<event>
12    2  0.3623523E-008  0.1274388E+04  0.7818608E-02  0.9050126E-01
          2   -1    0    0  501    0  0.00000000000E+00  0.00000000000E+00  0.52982518520E+03  0.52982518520E+03  0.00000000000E+00 0. -1.
         -2   -1    0    0    0  501 -0.00000000000E+00 -0.00000000000E+00 -0.76632066238E+03  0.76632066238E+03  0.00000000000E+00 0.  1.
         23    2    1    2    0    0 -0.29782958073E+03 -0.10036041544E+03 -0.90591275062E+02  0.33953967464E+03  0.91135829366E+02 0.  0.
        254    2    1    2    0    0  0.29782958073E+03  0.10036041544E+03 -0.14590420211E+03  0.95660617294E+03  0.89164604062E+03 0.  0.
         23    2    4    4    0    0 -0.25062806540E+03 -0.13321522996E+03 -0.18777836447E+03  0.35218174505E+03  0.90612045154E+02 0.  0.
         23    2    4    4    0    0  0.54845764613E+03  0.23357564540E+03  0.41874162354E+02  0.60442442788E+03  0.90620482366E+02 0.  0.
          3    1    3    3  502    0 -0.15941542648E+03 -0.11002885084E+02 -0.22915484194E+02  0.16142943070E+03  0.00000000000E+00 0. -1.
         -3    1    3    3    0  502 -0.13841415425E+03 -0.89357530358E+02 -0.67675790868E+02  0.17811024395E+03  0.00000000000E+00 0.  1.
         11    1    5    5    0    0 -0.19856632975E+03 -0.91236092250E+02 -0.96146814398E+02  0.23874007154E+03  0.00000000000E+00 0.  1.
        -11    1    5    5    0    0 -0.52061735653E+02 -0.41979137707E+02 -0.91631550070E+02  0.11344167352E+03  0.00000000000E+00 0. -1.
          2    1    6    6  503    0  0.56068377611E+02  0.23124572256E+02 -0.23348138567E+02  0.64988801993E+02  0.00000000000E+00 0. -1.
         -2    1    6    6    0  503  0.49238926852E+03  0.21045107314E+03  0.65222300921E+02  0.53943562589E+03  0.00000000000E+00 0.  1.
<mgrwt>
<rscale>  0 0.12743877E+04</rscale>
<asrwt>0</asrwt>
<pdfrwt beam="1">  1        2 0.81511567E-01 0.12743877E+04</pdfrwt>
<pdfrwt beam="2">  1       -2 0.11789549E+00 0.12743877E+04</pdfrwt>
<totfact> 0.31337531E+01</totfact>
</mgrwt>
</event>
<event>
12    2  0.3623523E-008  0.1976493E+04  0.7818608E-02  0.8617691E-01
          2   -1    0    0  501    0  0.00000000000E+00  0.00000000000E+00  0.14103093349E+04  0.14103093349E+04  0.00000000000E+00 0. -1.
         -2   -1    0    0    0  501 -0.00000000000E+00 -0.00000000000E+00 -0.69249411314E+03  0.69249411314E+03  0.00000000000E+00 0.  1.
         23    2    1    2    0    0  0.74785017315E+02 -0.28636707657E+03 -0.48053688701E+03  0.57138664851E+03  0.89264219928E+02 0.  0.
        254    2    1    2    0    0 -0.74785017315E+02  0.28636707657E+03  0.11983521087E+04  0.15314167995E+04  0.90641642520E+03 0.  0.
         23    2    4    4    0    0  0.10424733437E+03 -0.80224562834E+02  0.10867287059E+04  0.10984883252E+04  0.91617864517E+02 0.  0.
         23    2    4    4    0    0 -0.17903235169E+03  0.36659163941E+03  0.11162340280E+03  0.43292847428E+03  0.92332371124E+02 0.  0.
          1    1    3    3  502    0 -0.98289446355E+01 -0.12381823895E+03 -0.22380954340E+03  0.25596538080E+03  0.00000000000E+00 0. -1.
         -1    1    3    3    0  502  0.84613961950E+02 -0.16254883762E+03 -0.25672734361E+03  0.31542126771E+03  0.00000000000E+00 0.  1.
         11    1    5    5    0    0  0.67727939019E+01  0.11805316546E+02  0.26233733904E+02  0.29554103447E+02  0.00000000000E+00 0.  1.
        -11    1    5    5    0    0  0.97474540468E+02 -0.92029879380E+02  0.10604949720E+04  0.10689342218E+04  0.00000000000E+00 0. -1.
          3    1    6    6  503    0 -0.14722836935E+03  0.20129733939E+03  0.77713940051E+02  0.26122072671E+03  0.00000000000E+00 0. -1.
         -3    1    6    6    0  503 -0.31803982338E+02  0.16529430002E+03  0.33909462748E+02  0.17170774757E+03  0.00000000000E+00 0.  1.
<mgrwt>
<rscale>  0 0.19764928E+04</rscale>
<asrwt>0</asrwt>
<pdfrwt beam="1">  1        2 0.21697067E+00 0.19764928E+04</pdfrwt>
<pdfrwt beam="2">  1       -2 0.10653756E+00 0.19764928E+04</pdfrwt>
<totfact> 0.94333491E+00</totfact>
</mgrwt>
</event>
<event>
12    2  0.3623523E-008  0.1291642E+04  0.7818608E-02  0.9036219E-01
         -2   -1    0    0    0  501 -0.00000000000E+00  0.00000000000E+00  0.17110434091E+03  0.17110434091E+03  0.00000000000E+00 0.  1.
          2   -1    0    0  501    0  0.00000000000E+00 -0.00000000000E+00 -0.24376051939E+04  0.24376051939E+04  0.00000000000E+00 0. -1.
         23    2    1    2    0    0 -0.23776211221E+03 -0.22394044556E+03 -0.50962754530E+03  0.61240141701E+03  0.92925321996E+02 0.  0.
        254    2    1    2    0    0  0.23776211221E+03  0.22394044556E+03 -0.17568733077E+04  0.19963081178E+04  0.88992254536E+03 0.  0.
         23    2    4    4    0    0  0.45321132828E+02 -0.32696928188E+03 -0.48001722906E+03  0.58949795030E+03  0.90157511286E+02 0.  0.
         23    2    4    4    0    0  0.19244097938E+03  0.55090972744E+03 -0.12768560786E+04  0.14068101675E+04  0.90655079857E+02 0.  0.
          1    1    3    3  502    0 -0.10270449062E+03 -0.13465438689E+03 -0.32764021840E+03  0.36881991407E+03  0.00000000000E+00 0. -1.
         -1    1    3    3    0  502 -0.13505762159E+03 -0.89286058673E+02 -0.18198732690E+03  0.24358150294E+03  0.00000000000E+00 0.  1.
         11    1    5    5    0    0 -0.44404046587E+01 -0.15605021848E+02 -0.72193780550E+02  0.73994431213E+02  0.00000000000E+00 0.  1.
        -11    1    5    5    0    0  0.49761537487E+02 -0.31136426003E+03 -0.40782344851E+03  0.51550351909E+03  0.00000000000E+00 0. -1.
          3    1    6    6  503    0  0.92902269838E+02  0.28826932677E+03 -0.76840721395E+03  0.82594169464E+03  0.00000000000E+00 0. -1.
         -3    1    6    6    0  503  0.99538709543E+02  0.26264040067E+03 -0.50844886466E+03  0.58086847284E+03  0.00000000000E+00 0.  1.
<mgrwt>
<rscale>  0 0.12916421E+04</rscale>
<asrwt>0</asrwt>
<pdfrwt beam="1">  1        2 0.37501616E+00 0.12916421E+04</pdfrwt>
<pdfrwt beam="2">  1       -2 0.26323746E-01 0.12916421E+04</pdfrwt>
<totfact> 0.48647957E+01</totfact>
</mgrwt>
</event>
<event>
12    2  0.3623523E-008  0.3156936E+04  0.7818608E-02  0.8200284E-01
          2   -1    0    0  501    0  0.00000000000E+00  0.00000000000E+00  0.10448112136E+04  0.10448112136E+04  0.00000000000E+00 0.  1.
         -2   -1    0    0    0  501 -0.00000000000E+00 -0.00000000000E+00 -0.23847004421E+04  0.23847004421E+04  0.00000000000E+00 0. -1.
         23    2    1    2    0    0  0.11914922593E+04 -0.81951082771E+03 -0.72662599986E+03  0.16207657641E+04  0.87432932848E+02 0.  0.
        254    2    1    2    0    0 -0.11914922593E+04  0.81951082771E+03 -0.61326322862E+03  0.18087458916E+04  0.89678208731E+03 0.  0.
         23    2    4    4    0    0 -0.73048493295E+02 -0.51475530191E+01  0.17275434609E+03  0.20967366290E+03  0.93575643987E+02 0.  0.
         23    2    4    4    0    0 -0.11184437660E+04  0.82465838072E+03 -0.78601757470E+03  0.15990722287E+04  0.90721895172E+02 0.  0.
          3    1    3    3  502    0  0.10821840074E+03 -0.96014879067E+02 -0.51628288428E+02  0.15360846144E+03  0.00000000000E+00 0. -1.
         -3    1    3    3    0  502  0.10832738585E+04 -0.72349594864E+03 -0.67499771144E+03  0.14671573026E+04  0.00000000000E+00 0.  1.
         11    1    5    5    0    0 -0.28006176213E+02  0.48786916102E+01 -0.24130869027E+01  0.28530168705E+02  0.00000000000E+00 0.  1.
        -11    1    5    5    0    0 -0.45042317082E+02 -0.10026244629E+02  0.17516743299E+03  0.18114349420E+03  0.00000000000E+00 0. -1.
          3    1    6    6  503    0 -0.73556391479E+03  0.54020249775E+03 -0.46626021102E+03  0.10248275932E+04  0.00000000000E+00 0. -1.
         -3    1    6    6    0  503 -0.38287985117E+03  0.28445588297E+03 -0.31975736368E+03  0.57424463551E+03  0.00000000000E+00 0.  1.
<mgrwt>
<rscale>  0 0.31569363E+04</rscale>
<asrwt>0</asrwt>
<pdfrwt beam="1">  1        2 0.16074019E+00 0.31569363E+04</pdfrwt>
<pdfrwt beam="2">  1       -2 0.36687699E+00 0.31569363E+04</pdfrwt>
<totfact> 0.24216469E-01</totfact>
</mgrwt>
</event>
<event>
12    2  0.3623523E-008  0.1860572E+04  0.7818608E-02  0.8674735E-01
         -1   -1    0    0    0  501 -0.00000000000E+00  0.00000000000E+00  0.67099906304E+03  0.67099906304E+03  0.00000000000E+00 0.  1.
          1   -1    0    0  501    0  0.00000000000E+00 -0.00000000000E+00 -0.12897670345E+04  0.12897670345E+04  0.00000000000E+00 0. -1.
         23    2    1    2    0    0  0.27397666232E+02 -0.32362405591E+03  0.42354921297E+03  0.54128449099E+03  0.90065546696E+02 0.  0.
        254    2    1    2    0    0 -0.27397666232E+02  0.32362405591E+03 -0.10423171844E+04  0.14194816065E+04  0.90720436324E+03 0.  0.
         23    2    4    4    0    0 -0.36202187389E+03  0.29351715719E+03 -0.21502526183E+03  0.52154191650E+03  0.92509181715E+02 0.  0.
         23    2    4    4    0    0  0.33462420766E+03  0.30106898719E+02 -0.82729192259E+03  0.89793969004E+03  0.94889283141E+02 0.  0.
          4    1    3    3  502    0  0.60545142761E+02 -0.21060238650E+03  0.26844019166E+03  0.34652448111E+03  0.00000000000E+00 0. -1.
         -4    1    3    3    0  502 -0.33147476529E+02 -0.11302166941E+03  0.15510902131E+03  0.19476000988E+03  0.00000000000E+00 0.  1.
         11    1    5    5    0    0 -0.27483371631E+03  0.22075018677E+03 -0.11669888649E+03  0.37132579588E+03  0.00000000000E+00 0. -1.
        -11    1    5    5    0    0 -0.87188157584E+02  0.72766970421E+02 -0.98326375337E+02  0.15021612062E+03  0.00000000000E+00 0.  1.
          1    1    6    6  503    0  0.22922067692E+03  0.54259903146E+02 -0.48884766600E+03  0.54264011681E+03  0.00000000000E+00 0. -1.
         -1    1    6    6    0  503  0.10540353074E+03 -0.24153004427E+02 -0.33844425659E+03  0.35529957322E+03  0.00000000000E+00 0.  1.
<mgrwt>
<rscale>  0 0.18605725E+04</rscale>
<asrwt>0</asrwt>
<pdfrwt beam="1">  1        1 0.19842570E+00 0.18605725E+04</pdfrwt>
<pdfrwt beam="2">  1       -1 0.10323063E+00 0.18605725E+04</pdfrwt>
<totfact> 0.76494831E+00</totfact>
</mgrwt>
</event>
<event>
12    2  0.3623523E-008  0.1402191E+04  0.7818608E-02  0.8952234E-01
         -1   -1    0    0    0  501 -0.00000000000E+00  0.00000000000E+00  0.34961297145E+03  0.34961297145E+03  0.00000000000E+00 0.  1.
          1   -1    0    0  501    0  0.00000000000E+00 -0.00000000000E+00 -0.14059401065E+04  0.14059401065E+04  0.00000000000E+00 0. -1.
         23    2    1    2    0    0  0.19274196424E+02  0.40134090972E+03 -0.20915191640E+03  0.45987977804E+03  0.79365393303E+02 0.  0.
        254    2    1    2    0    0 -0.19274196424E+02 -0.40134090972E+03 -0.84717521867E+03  0.12956732999E+04  0.89421330150E+03 0.  0.
         23    2    4    4    0    0  0.21816000510E+03 -0.51947992042E+03 -0.22510237718E+03  0.61332502387E+03  0.89684609340E+02 0.  0.
         23    2    4    4    0    0 -0.23743420153E+03  0.11813901070E+03 -0.62207284149E+03  0.68234827606E+03  0.91064393803E+02 0.  0.
          4    1    3    3  502    0  0.28250725559E+02  0.17709474957E+03 -0.13157450750E+03  0.22242415526E+03  0.00000000000E+00 0. -1.
         -4    1    3    3    0  502 -0.89765291358E+01  0.22424616015E+03 -0.77577408898E+02  0.23745562278E+03  0.00000000000E+00 0.  1.
         11    1    5    5    0    0  0.12145181584E+03 -0.32414901454E+03 -0.92895879324E+02  0.35840308535E+03  0.00000000000E+00 0. -1.
        -11    1    5    5    0    0  0.96708189268E+02 -0.19533090588E+03 -0.13220649785E+03  0.25492193852E+03  0.00000000000E+00 0.  1.
          3    1    6    6  503    0 -0.17668751454E+03  0.12457738778E+03 -0.52347762708E+03  0.56636280721E+03  0.00000000000E+00 0. -1.
         -3    1    6    6    0  503 -0.60746686990E+02 -0.64383770780E+01 -0.98595214417E+02  0.11598546886E+03  0.00000000000E+00 0.  1.
<mgrwt>
<rscale>  0 0.14021910E+04</rscale>
<asrwt>0</asrwt>
<pdfrwt beam="1">  1        1 0.21629848E+00 0.14021910E+04</pdfrwt>
<pdfrwt beam="2">  1       -1 0.53786611E-01 0.14021910E+04</pdfrwt>
<totfact> 0.25878236E+01</totfact>
</mgrwt>
</event>
<event>
12    2  0.3623523E-008  0.2035790E+04  0.7818608E-02  0.8590068E-01
         -1   -1    0    0    0  501 -0.00000000000E+00  0.00000000000E+00  0.86697496049E+03  0.86697496049E+03  0.00000000000E+00 0.  1.
          1   -1    0    0  501    0  0.00000000000E+00 -0.00000000000E+00 -0.11950861007E+04  0.11950861007E+04  0.00000000000E+00 0. -1.
         23    2    1    2    0    0  0.79573023923E+03  0.11996159425E+03  0.11700638617E+02  0.80985430619E+03  0.90275658945E+02 0.  0.
        254    2    1    2    0    0 -0.79573023923E+03 -0.11996159425E+03 -0.33981177884E+03  0.12522067550E+04  0.89720249360E+03 0.  0.
         23    2    4    4    0    0 -0.83542722035E+03  0.16804037197E+03 -0.95715766852E+02  0.86237215356E+03  0.91367478286E+02 0.  0.
         23    2    4    4    0    0  0.39696981122E+02 -0.28800196623E+03 -0.24409601199E+03  0.38983460145E+03  0.88697071874E+02 0.  0.
          3    1    3    3  502    0  0.78295383309E+03  0.10525368692E+03  0.80784433777E+01  0.79003816655E+03  0.00000000000E+00 0. -1.
         -3    1    3    3    0  502  0.12776406141E+02  0.14707907336E+02  0.36221952397E+01  0.19816139645E+02  0.00000000000E+00 0.  1.
         11    1    5    5    0    0 -0.55003557624E+03  0.84632285514E+02 -0.26765379214E+02  0.55715181451E+03  0.00000000000E+00 0.  1.
        -11    1    5    5    0    0 -0.28539164411E+03  0.83408086461E+02 -0.68950387637E+02  0.30522033905E+03  0.00000000000E+00 0. -1.
          2    1    6    6  503    0  0.88290408367E+01 -0.17851454259E+02 -0.55386305948E+02  0.58858043357E+02  0.00000000000E+00 0. -1.
         -2    1    6    6    0  503  0.30867940285E+02 -0.27015051197E+03 -0.18870970604E+03  0.33097655810E+03  0.00000000000E+00 0.  1.
<mgrwt>
<rscale>  0 0.20357895E+04</rscale>
<asrwt>0</asrwt>
<pdfrwt beam="1">  1        1 0.18385940E+00 0.20357895E+04</pdfrwt>
<pdfrwt beam="2">  1       -1 0.13338076E+00 0.20357895E+04</pdfrwt>
<totfact> 0.47344945E+00</totfact>
</mgrwt>
</event>
<event>
12    2  0.3623523E-008  0.2297766E+04  0.7818608E-02  0.8478802E-01
          2   -1    0    0  501    0  0.00000000000E+00  0.00000000000E+00  0.11392387513E+04  0.11392387513E+04  0.00000000000E+00 0. -1.
         -2   -1    0    0    0  501 -0.00000000000E+00 -0.00000000000E+00 -0.11586089525E+04  0.11586089525E+04  0.00000000000E+00 0.  1.
         23    2    1    2    0    0 -0.91241287354E+03  0.28220662216E+03  0.17762947590E+03  0.97567635102E+03  0.90853078321E+02 0.  0.
        254    2    1    2    0    0  0.91241287354E+03 -0.28220662216E+03 -0.19699967707E+03  0.13221713528E+04  0.89285518649E+03 0.  0.
         23    2    4    4    0    0  0.89954656993E+03 -0.24307868400E+03 -0.45780949693E+03  0.10426186646E+04  0.95879436238E+02 0.  0.
         23    2    4    4    0    0  0.12866303608E+02 -0.39127938154E+02  0.26080981986E+03  0.27955268817E+03  0.91822687893E+02 0.  0.
          1    1    3    3  502    0 -0.27190982816E+03  0.55473948987E+02  0.83076588213E+02  0.28967919010E+03  0.00000000000E+00 0. -1.
         -1    1    3    3    0  502 -0.64050304538E+03  0.22673267317E+03  0.94552887682E+02  0.68599716092E+03  0.00000000000E+00 0.  1.
         11    1    5    5    0    0  0.39282197553E+03 -0.13393107042E+03 -0.24758024032E+03  0.48326246645E+03  0.00000000000E+00 0. -1.
        -11    1    5    5    0    0  0.50672459441E+03 -0.10914761359E+03 -0.21022925661E+03  0.55935619820E+03  0.00000000000E+00 0.  1.
          1    1    6    6  503    0  0.52077696689E+02 -0.18844083534E+02  0.16536128545E+03  0.17438904984E+03  0.00000000000E+00 0. -1.
         -1    1    6    6    0  503 -0.39211393082E+02 -0.20283854620E+02  0.95448534414E+02  0.10516363833E+03  0.00000000000E+00 0.  1.
<mgrwt>
<rscale>  0 0.22977661E+04</rscale>
<asrwt>0</asrwt>
<pdfrwt beam="1">  1        2 0.17526750E+00 0.22977661E+04</pdfrwt>
<pdfrwt beam="2">  1       -2 0.17824753E+00 0.22977661E+04</pdfrwt>
<totfact> 0.34849350E+00</totfact>
</mgrwt>
</event>
<event>
12    2  0.3623523E-008  0.2013863E+04  0.7818608E-02  0.8600166E-01
         -1   -1    0    0    0  501 -0.00000000000E+00  0.00000000000E+00  0.29968005408E+03  0.29968005408E+03  0.00000000000E+00 0.  1.
          1   -1    0    0  501    0  0.00000000000E+00 -0.00000000000E+00 -0.33833124851E+04  0.33833124851E+04  0.00000000000E+00 0. -1.
         23    2    1    2    0    0 -0.68617621347E+03 -0.18380031912E+03 -0.19149872352E+04  0.20445416895E+04  0.91401618137E+02 0.  0.
        254    2    1    2    0    0  0.68617621347E+03  0.18380031912E+03 -0.11686451958E+04  0.16384508497E+04  0.90231327148E+03 0.  0.
         23    2    4    4    0    0  0.52695494597E+03  0.38188948745E+03 -0.28827023359E+03  0.71755540608E+03  0.90911701753E+02 0.  0.
         23    2    4    4    0    0  0.15922126750E+03 -0.19808916833E+03 -0.88037496222E+03  0.92089544360E+03  0.91638492453E+02 0.  0.
          1    1    3    3  502    0 -0.68136370623E+03 -0.18049483291E+03 -0.18572096952E+04  0.19864699185E+04  0.00000000000E+00 0. -1.
         -1    1    3    3    0  502 -0.48125072416E+01 -0.33054862081E+01 -0.57777539937E+02  0.58071770992E+02  0.00000000000E+00 0.  1.
         11    1    5    5    0    0  0.39780686381E+03  0.32538683121E+03 -0.20149616278E+03  0.55202137135E+03  0.00000000000E+00 0. -1.
        -11    1    5    5    0    0  0.12914808217E+03  0.56502656246E+02 -0.86774070808E+02  0.16553403473E+03  0.00000000000E+00 0.  1.
          3    1    6    6  503    0  0.14549666414E+03 -0.20753320250E+03 -0.83015083932E+03  0.86798025636E+03  0.00000000000E+00 0. -1.
         -3    1    6    6    0  503  0.13724603356E+02  0.94440341683E+01 -0.50224122908E+02  0.52915187239E+02  0.00000000000E+00 0.  1.
<mgrwt>
<rscale>  0 0.20138632E+04</rscale>
<asrwt>0</asrwt>
<pdfrwt beam="1">  1        1 0.52050961E+00 0.20138632E+04</pdfrwt>
<pdfrwt beam="2">  1       -1 0.46104624E-01 0.20138632E+04</pdfrwt>
<totfact> 0.13413272E+00</totfact>
</mgrwt>
</event>
<event>
12    2  0.3623523E-008  0.1891066E+04  0.7818608E-02  0.8659316E-01
         -2   -1    0    0    0  501 -0.00000000000E+00  0.00000000000E+00  0.65325012244E+03  0.65325012244E+03  0.00000000000E+00 0.  1.
          2   -1    0    0  501    0  0.00000000000E+00 -0.00000000000E+00 -0.13685918996E+04  0.13685918996E+04  0.00000000000E+00 0. -1.
         23    2    1    2    0    0  0.62109901293E+03 -0.19012574373E+03 -0.62829159394E+03  0.90825932476E+03  0.90955438026E+02 0.  0.
        254    2    1    2    0    0 -0.62109901293E+03  0.19012574373E+03 -0.87050183197E+02  0.11135826973E+04  0.90032044681E+03 0.  0.
         23    2    4    4    0    0  0.13377248596E+03  0.30086098628E+03 -0.75981069871E+01  0.34127720186E+03  0.89442642007E+02 0.  0.
         23    2    4    4    0    0 -0.75487149890E+03 -0.11073524255E+03 -0.79452076210E+02  0.77230549540E+03  0.89721079055E+02 0.  0.
          1    1    3    3  502    0  0.11069674378E+02 -0.17063250686E+02 -0.31434279892E+02  0.37440702012E+02  0.00000000000E+00 0. -1.
         -1    1    3    3    0  502  0.61002933855E+03 -0.17306249305E+03 -0.59685731405E+03  0.87081862275E+03  0.00000000000E+00 0.  1.
         11    1    5    5    0    0  0.18034423389E+02 -0.54890717794E+00  0.27118921955E+01  0.18245440124E+02  0.00000000000E+00 0. -1.
        -11    1    5    5    0    0  0.11573806258E+03  0.30140989346E+03 -0.10309999183E+02  0.32303176173E+03  0.00000000000E+00 0.  1.
          3    1    6    6  503    0 -0.16932336759E+02  0.93116563207E+01  0.48627564198E+01  0.19926298491E+02  0.00000000000E+00 0. -1.
         -3    1    6    6    0  503 -0.73793916214E+03 -0.12004689887E+03 -0.84314832630E+02  0.75237919691E+03  0.00000000000E+00 0.  1.
<mgrwt>
<rscale>  0 0.18910662E+04</rscale>
<asrwt>0</asrwt>
<pdfrwt beam="1">  1        2 0.21055260E+00 0.18910662E+04</pdfrwt>
<pdfrwt beam="2">  1       -2 0.10050002E+00 0.18910662E+04</pdfrwt>
<totfact> 0.11541978E+01</totfact>
</mgrwt>
</event>
<event>
12    2  0.3623523E-008  0.2040940E+04  0.7818608E-02  0.8587716E-01
          1   -1    0    0  501    0  0.00000000000E+00  0.00000000000E+00  0.97833747001E+03  0.97833747001E+03  0.00000000000E+00 0. -1.
         -1   -1    0    0    0  501 -0.00000000000E+00 -0.00000000000E+00 -0.10644166999E+04  0.10644166999E+04  0.00000000000E+00 0.  1.
         23    2    1    2    0    0  0.26160606884E+03  0.22088302089E+03  0.70600431839E+03  0.79138163453E+03  0.10303276042E+03 0.  0.
        254    2    1    2    0    0 -0.26160606884E+03 -0.22088302089E+03 -0.79208354830E+03  0.12513725354E+04  0.90626145823E+03 0.  0.
         23    2    4    4    0    0 -0.49955350034E+03  0.11194196930E+03 -0.28346093539E+03  0.59201138646E+03  0.89680965734E+02 0.  0.
         23    2    4    4    0    0  0.23794743150E+03 -0.33282499019E+03 -0.50862261291E+03  0.65936114893E+03  0.93105897272E+02 0.  0.
          4    1    3    3  502    0  0.25829800104E+03  0.18348978366E+03  0.59345621225E+03  0.67273816147E+03  0.00000000000E+00 0. -1.
         -4    1    3    3    0  502  0.33080677984E+01  0.37393237231E+02  0.11254810614E+03  0.11864347306E+03  0.00000000000E+00 0.  1.
         11    1    5    5    0    0 -0.16924254031E+03  0.43241904127E+02 -0.14616442103E+03  0.22776509324E+03  0.00000000000E+00 0.  1.
        -11    1    5    5    0    0 -0.33031096003E+03  0.68700065171E+02 -0.13729651436E+03  0.36424629322E+03  0.00000000000E+00 0. -1.
          2    1    6    6  503    0  0.85275346303E+02 -0.12112530296E+03 -0.11716567159E+03  0.18886772701E+03  0.00000000000E+00 0.  1.
         -2    1    6    6    0  503  0.15267208520E+03 -0.21169968723E+03 -0.39145694132E+03  0.47049342193E+03  0.00000000000E+00 0. -1.
<mgrwt>
<rscale>  0 0.20409397E+04</rscale>
<asrwt>0</asrwt>
<pdfrwt beam="1">  1        1 0.15051346E+00 0.20409397E+04</pdfrwt>
<pdfrwt beam="2">  1       -1 0.16375642E+00 0.20409397E+04</pdfrwt>
<totfact> 0.39828511E+00</totfact>
</mgrwt>
</event>
<event>
12    2  0.3623523E-008  0.1644589E+04  0.7818608E-02  0.8793614E-01
          1   -1    0    0  501    0  0.00000000000E+00  0.00000000000E+00  0.59838317478E+03  0.59838317478E+03  0.00000000000E+00 0. -1.
         -1   -1    0    0    0  501 -0.00000000000E+00 -0.00000000000E+00 -0.11299924520E+04  0.11299924520E+04  0.00000000000E+00 0.  1.
         23    2    1    2    0    0  0.48087480324E+03  0.27061591884E+03 -0.33446054926E+03  0.65226489251E+03  0.95457210671E+02 0.  0.
        254    2    1    2    0    0 -0.48087480324E+03 -0.27061591884E+03 -0.19714872801E+03  0.10761107343E+04  0.90259245490E+03 0.  0.
         23    2    4    4    0    0  0.23348408538E+03  0.26001126114E+02 -0.15946814959E+03  0.29649098406E+03  0.85357695670E+02 0.  0.
         23    2    4    4    0    0 -0.71435888863E+03 -0.29661704495E+03 -0.37680578415E+02  0.77961975026E+03  0.89982419896E+02 0.  0.
          2    1    3    3  502    0  0.23729221363E+02  0.22786138780E+02  0.19097183087E+01  0.32953468573E+02  0.00000000000E+00 0. -1.
         -2    1    3    3    0  502  0.45714558188E+03  0.24782978006E+03 -0.33637026756E+03  0.61931142394E+03  0.00000000000E+00 0.  1.
         11    1    5    5    0    0  0.23818753095E+03  0.20099601052E+02 -0.14342511994E+03  0.27876165248E+03  0.00000000000E+00 0.  1.
        -11    1    5    5    0    0 -0.47034455626E+01  0.59015250620E+01 -0.16043029649E+02  0.17729331587E+02  0.00000000000E+00 0. -1.
          3    1    6    6  503    0 -0.31337497694E+03 -0.13109513863E+03  0.28126036210E+02  0.34085317288E+03  0.00000000000E+00 0. -1.
         -3    1    6    6    0  503 -0.40098391168E+03 -0.16552190632E+03 -0.65806614625E+02  0.43876657738E+03  0.00000000000E+00 0.  1.
<mgrwt>
<rscale>  0 0.16445893E+04</rscale>
<asrwt>0</asrwt>
<pdfrwt beam="1">  1        1 0.92058949E-01 0.16445893E+04</pdfrwt>
<pdfrwt beam="2">  1       -1 0.17384499E+00 0.16445893E+04</pdfrwt>
<totfact> 0.75796451E+00</totfact>
</mgrwt>
</event>
<event>
12    2  0.3623523E-008  0.1937906E+04  0.7818608E-02  0.8636215E-01
          2   -1    0    0  501    0  0.00000000000E+00  0.00000000000E+00  0.23281429434E+04  0.23281429434E+04  0.00000000000E+00 0. -1.
         -2   -1    0    0    0  501 -0.00000000000E+00 -0.00000000000E+00 -0.40326987407E+03  0.40326987407E+03  0.00000000000E+00 0.  1.
         23    2    1    2    0    0 -0.23553655668E+03 -0.69771564556E+03  0.34838174886E+03  0.81854774081E+03  0.79787025551E+02 0.  0.
        254    2    1    2    0    0  0.23553655668E+03  0.69771564556E+03  0.15764913205E+04  0.19128650767E+04  0.79463408335E+03 0.  0.
         23    2    4    4    0    0  0.26524099307E+03  0.65017454503E+01  0.13564423647E+03  0.31234792877E+03  0.93631258783E+02 0.  0.
         23    2    4    4    0    0 -0.29704436389E+02  0.69121390011E+03  0.14408470840E+04  0.16005171479E+04  0.83401510749E+02 0.  0.
          1    1    3    3  502    0  0.12021737360E+01 -0.55550775939E+02  0.16834127709E+02  0.58057917503E+02  0.00000000000E+00 0. -1.
         -1    1    3    3    0  502 -0.23673873042E+03 -0.64216486963E+03  0.33154762115E+03  0.76048982331E+03  0.00000000000E+00 0.  1.
         11    1    5    5    0    0  0.86243632992E+02 -0.22489283746E+02  0.87128428904E+02  0.12463986216E+03  0.00000000000E+00 0.  1.
        -11    1    5    5    0    0  0.17899736008E+03  0.28991029196E+02  0.48515807571E+02  0.18770806662E+03  0.00000000000E+00 0. -1.
          3    1    6    6  503    0 -0.28735858674E+02  0.66799973072E+03  0.14189606454E+04  0.15685976868E+04  0.00000000000E+00 0. -1.
         -3    1    6    6    0  503 -0.96857771493E+00  0.23214169392E+02  0.21886438647E+02  0.31919461149E+02  0.00000000000E+00 0.  1.
<mgrwt>
<rscale>  0 0.19379060E+04</rscale>
<asrwt>0</asrwt>
<pdfrwt beam="1">  1        2 0.35817583E+00 0.19379060E+04</pdfrwt>
<pdfrwt beam="2">  1       -2 0.62041520E-01 0.19379060E+04</pdfrwt>
<totfact> 0.98449449E+00</totfact>
</mgrwt>
</event>
<event>
12    2  0.3623523E-008  0.1253797E+04  0.7818608E-02  0.9067029E-01
          1   -1    0    0  501    0  0.00000000000E+00  0.00000000000E+00  0.18141508435E+04  0.18141508435E+04  0.00000000000E+00 0. -1.
         -1   -1    0    0    0  501 -0.00000000000E+00 -0.00000000000E+00 -0.21663113353E+03  0.21663113353E+03  0.00000000000E+00 0.  1.
         23    2    1    2    0    0 -0.27418008701E+03 -0.48179086324E+02  0.22758496027E+03  0.37135680048E+03  0.92817103217E+02 0.  0.
        254    2    1    2    0    0  0.27418008701E+03  0.48179086324E+02  0.13699347497E+04  0.16594251765E+04  0.89413352114E+03 0.  0.
         23    2    4    4    0    0  0.51804961942E+03  0.26852004426E+03  0.94534067511E+03  0.11145881565E+04  0.90329088793E+02 0.  0.
         23    2    4    4    0    0 -0.24386953241E+03 -0.22034095793E+03  0.42459407456E+03  0.54483701999E+03  0.92437890633E+02 0.  0.
          2    1    3    3  502    0 -0.18854780635E+03  0.17500247167E+01  0.18267411781E+03  0.26253222885E+03  0.00000000000E+00 0. -1.
         -2    1    3    3    0  502 -0.85632280659E+02 -0.49929111041E+02  0.44910842458E+02  0.10882457163E+03  0.00000000000E+00 0.  1.
         11    1    5    5    0    0  0.27165232941E+03  0.92982952249E+02  0.48933866808E+03  0.56735628097E+03  0.00000000000E+00 0. -1.
        -11    1    5    5    0    0  0.24639729001E+03  0.17553709201E+03  0.45600200703E+03  0.54723187555E+03  0.00000000000E+00 0.  1.
          1    1    6    6  503    0 -0.13306834429E+03 -0.10186687979E+03  0.14505371096E+03  0.22164075553E+03  0.00000000000E+00 0. -1.
         -1    1    6    6    0  503 -0.11080118813E+03 -0.11847407814E+03  0.27954036360E+03  0.32319626446E+03  0.00000000000E+00 0.  1.
<mgrwt>
<rscale>  0 0.12537967E+04</rscale>
<asrwt>0</asrwt>
<pdfrwt beam="1">  1        1 0.27910012E+00 0.12537967E+04</pdfrwt>
<pdfrwt beam="2">  1       -1 0.33327868E-01 0.12537967E+04</pdfrwt>
<totfact> 0.33295946E+01</totfact>
</mgrwt>
</event>
<event>
12    2  0.3623523E-008  0.2261532E+04  0.7818608E-02  0.8493245E-01
         -2   -1    0    0    0  501 -0.00000000000E+00  0.00000000000E+00  0.71475946764E+03  0.71475946764E+03  0.00000000000E+00 0.  1.
          2   -1    0    0  501    0  0.00000000000E+00 -0.00000000000E+00 -0.17888975300E+04  0.17888975300E+04  0.00000000000E+00 0. -1.
         23    2    1    2    0    0  0.79876830129E+03  0.53796286649E+03 -0.42618962309E+03  0.10569112828E+04  0.89381317669E+02 0.  0.
        254    2    1    2    0    0 -0.79876830129E+03 -0.53796286649E+03 -0.64794843927E+03  0.14467457149E+04  0.86359778755E+03 0.  0.
         23    2    4    4    0    0  0.65849020216E+02  0.11830238441E+03  0.26915748616E+02  0.16532722195E+03  0.90978487423E+02 0.  0.
         23    2    4    4    0    0 -0.86461732150E+03 -0.65626525090E+03 -0.67486418789E+03  0.12814184929E+04  0.91348178570E+02 0.  0.
          2    1    3    3  502    0  0.28790935359E+03  0.23807985408E+03 -0.19062441309E+03  0.41941802497E+03  0.00000000000E+00 0. -1.
         -2    1    3    3    0  502  0.51085894770E+03  0.29988301241E+03 -0.23556521000E+03  0.63749325780E+03  0.00000000000E+00 0.  1.
         11    1    5    5    0    0  0.76926940963E+02  0.12216364780E+03  0.99615151833E+01  0.14470985756E+03  0.00000000000E+00 0. -1.
        -11    1    5    5    0    0 -0.11077920747E+02 -0.38612633941E+01  0.16954233433E+02  0.20617364390E+02  0.00000000000E+00 0.  1.
          3    1    6    6  503    0 -0.69114568608E+03 -0.56811415610E+03 -0.55911579599E+03  0.10550102024E+04  0.00000000000E+00 0. -1.
         -3    1    6    6    0  503 -0.17347163542E+03 -0.88151094799E+02 -0.11574839190E+03  0.22640829056E+03  0.00000000000E+00 0.  1.
<mgrwt>
<rscale>  0 0.22615317E+04</rscale>
<asrwt>0</asrwt>
<pdfrwt beam="1">  1        2 0.27521500E+00 0.22615317E+04</pdfrwt>
<pdfrwt beam="2">  1       -2 0.10996300E+00 0.22615317E+04</pdfrwt>
<totfact> 0.52342030E+00</totfact>
</mgrwt>
</event>
<event>
12    2  0.3623523E-008  0.1813365E+04  0.7818608E-02  0.8699224E-01
         -2   -1    0    0    0  501 -0.00000000000E+00  0.00000000000E+00  0.29379469996E+03  0.29379469996E+03  0.00000000000E+00 0.  1.
          2   -1    0    0  501    0  0.00000000000E+00 -0.00000000000E+00 -0.27981221031E+04  0.27981221031E+04  0.00000000000E+00 0. -1.
         23    2    1    2    0    0 -0.23822208699E+02 -0.14209333651E+03 -0.20448751803E+04  0.20520230114E+04  0.92335922691E+02 0.  0.
        254    2    1    2    0    0  0.23822208699E+02  0.14209333651E+03 -0.45945222286E+03  0.10398937916E+04  0.92169666315E+03 0.  0.
         23    2    4    4    0    0  0.44481804602E+03 -0.53372584532E+02 -0.24288909656E+03  0.51956552520E+03  0.10120027126E+03 0.  0.
         23    2    4    4    0    0 -0.42099583733E+03  0.19546592105E+03 -0.21656312630E+03  0.52032826642E+03  0.91637851517E+02 0.  0.
          4    1    3    3  502    0 -0.27160372923E+02 -0.84188996540E+02 -0.17003657841E+04  0.17026653437E+04  0.00000000000E+00 0. -1.
         -4    1    3    3    0  502  0.33381642239E+01 -0.57904339972E+02 -0.34450939617E+03  0.34935766770E+03  0.00000000000E+00 0.  1.
         11    1    5    5    0    0  0.96589892731E+02 -0.48039374557E+02 -0.32433867880E+02  0.11264699140E+03  0.00000000000E+00 0. -1.
        -11    1    5    5    0    0  0.34822815329E+03 -0.53332099750E+01 -0.21045522868E+03  0.40691853380E+03  0.00000000000E+00 0.  1.
          3    1    6    6  503    0 -0.12107271494E+03  0.10373557932E+03 -0.69541278198E+02  0.17394154792E+03  0.00000000000E+00 0. -1.
         -3    1    6    6    0  503 -0.29992312238E+03  0.91730341721E+02 -0.14702184810E+03  0.34638671850E+03  0.00000000000E+00 0.  1.
<mgrwt>
<rscale>  0 0.18133653E+04</rscale>
<asrwt>0</asrwt>
<pdfrwt beam="1">  1        2 0.43048033E+00 0.18133653E+04</pdfrwt>
<pdfrwt beam="2">  1       -2 0.45199184E-01 0.18133653E+04</pdfrwt>
<totfact> 0.10174772E+01</totfact>
</mgrwt>
</event>
<event>
12    2  0.3623523E-008  0.2091125E+04  0.7818608E-02  0.8565163E-01
         -2   -1    0    0    0  501 -0.00000000000E+00  0.00000000000E+00  0.47132384593E+03  0.47132384593E+03  0.00000000000E+00 0. -1.
          2   -1    0    0  501    0  0.00000000000E+00 -0.00000000000E+00 -0.23194258209E+04  0.23194258209E+04  0.00000000000E+00 0.  1.
         23    2    1    2    0    0  0.83877086518E+03 -0.74602697453E+02 -0.96013830985E+03  0.12804328892E+04  0.92415816226E+02 0.  0.
        254    2    1    2    0    0 -0.83877086518E+03  0.74602697453E+02 -0.88796366510E+03  0.15103167776E+04  0.88514132843E+03 0.  0.
         23    2    4    4    0    0 -0.53810005209E+03 -0.34665702827E+03 -0.27402209243E+03  0.70225948476E+03  0.91419448062E+02 0.  0.
         23    2    4    4    0    0 -0.30067081309E+03  0.42125972573E+03 -0.61394157267E+03  0.80805729280E+03  0.90386057744E+02 0.  0.
          1    1    3    3  502    0  0.25892265691E+03 -0.66008546669E+02 -0.29858111038E+03  0.40068535033E+03  0.00000000000E+00 0. -1.
         -1    1    3    3    0  502  0.57984820827E+03 -0.85941507834E+01 -0.66155719947E+03  0.87974753892E+03  0.00000000000E+00 0.  1.
         11    1    5    5    0    0 -0.52185228455E+03 -0.34485534845E+03 -0.25091286909E+03  0.67395273285E+03  0.00000000000E+00 0.  1.
        -11    1    5    5    0    0 -0.16247767540E+02 -0.18016798294E+01 -0.23109223342E+02  0.28306751910E+02  0.00000000000E+00 0. -1.
          4    1    6    6  503    0 -0.70572587981E+01  0.57325451130E+02 -0.69816054232E+02  0.90610670881E+02  0.00000000000E+00 0. -1.
         -4    1    6    6    0  503 -0.29361355430E+03  0.36393427460E+03 -0.54412551843E+03  0.71744662192E+03  0.00000000000E+00 0.  1.
<mgrwt>
<rscale>  0 0.20911248E+04</rscale>
<asrwt>0</asrwt>
<pdfrwt beam="1">  1        2 0.35683474E+00 0.20911248E+04</pdfrwt>
<pdfrwt beam="2">  1       -2 0.72511361E-01 0.20911248E+04</pdfrwt>
<totfact> 0.70132690E+00</totfact>
</mgrwt>
</event>
<event>
12    2  0.3623523E-008  0.3024913E+04  0.7818608E-02  0.8236652E-01
         -2   -1    0    0    0  501 -0.00000000000E+00  0.00000000000E+00  0.83107007957E+03  0.83107007957E+03  0.00000000000E+00 0.  1.
          2   -1    0    0  501    0  0.00000000000E+00 -0.00000000000E+00 -0.27525058285E+04  0.27525058285E+04  0.00000000000E+00 0. -1.
         23    2    1    2    0    0 -0.58485039053E+03  0.33564285553E+03  0.54371904874E+03  0.87097298259E+03  0.90870383906E+02 0.  0.
        254    2    1    2    0    0  0.58485039053E+03 -0.33564285553E+03 -0.24651547977E+04  0.27126029255E+04  0.90913164559E+03 0.  0.
         23    2    4    4    0    0  0.36950269522E+03  0.12572324144E+03 -0.19185721221E+04  0.19599536177E+04  0.90336153763E+02 0.  0.
         23    2    4    4    0    0  0.21534769530E+03 -0.46136609697E+03 -0.54658267561E+03  0.75264930779E+03  0.92168616867E+02 0.  0.
          1    1    3    3  502    0 -0.21429619930E+03  0.17439217275E+03  0.21892690820E+03  0.35251167652E+03  0.00000000000E+00 0. -1.
         -1    1    3    3    0  502 -0.37055419123E+03  0.16125068278E+03  0.32479214055E+03  0.51846130608E+03  0.00000000000E+00 0.  1.
         11    1    5    5    0    0  0.32995513678E+03  0.84848167231E+02 -0.17189882353E+04  0.17524240802E+04  0.00000000000E+00 0. -1.
        -11    1    5    5    0    0  0.39547558445E+02  0.40875074205E+02 -0.19958388681E+03  0.20752953752E+03  0.00000000000E+00 0.  1.
          3    1    6    6  503    0  0.19431190332E+03 -0.40111151526E+03 -0.42769223599E+03  0.61771207870E+03  0.00000000000E+00 0. -1.
         -3    1    6    6    0  503  0.21035791984E+02 -0.60254581710E+02 -0.11889043962E+03  0.13493722909E+03  0.00000000000E+00 0.  1.
<mgrwt>
<rscale>  0 0.30249134E+04</rscale>
<asrwt>0</asrwt>
<pdfrwt beam="1">  1        2 0.42346242E+00 0.30249134E+04</pdfrwt>
<pdfrwt beam="2">  1       -2 0.12785694E+00 0.30249134E+04</pdfrwt>
<totfact> 0.95540174E-01</totfact>
</mgrwt>
</event>
<event>
12    2  0.3623523E-008  0.1774352E+04  0.7818608E-02  0.8720059E-01
         -2   -1    0    0    0  501 -0.00000000000E+00  0.00000000000E+00  0.56047628668E+03  0.56047628668E+03  0.00000000000E+00 0.  1.
          2   -1    0    0  501    0  0.00000000000E+00 -0.00000000000E+00 -0.14043073768E+04  0.14043073768E+04  0.00000000000E+00 0. -1.
         23    2    1    2    0    0  0.32934169925E+03 -0.20369208372E+03  0.26999837362E+03  0.48034315208E+03  0.88735574364E+02 0.  0.
        254    2    1    2    0    0 -0.32934169925E+03  0.20369208372E+03 -0.11138294637E+04  0.14844405114E+04  0.90166021192E+03 0.  0.
         23    2    4    4    0    0  0.18167877151E+03  0.38148382539E+03 -0.46515805574E+03  0.63501229941E+03  0.91277152279E+02 0.  0.
         23    2    4    4    0    0 -0.51102047076E+03 -0.17779174167E+03 -0.64867140795E+03  0.84942821195E+03  0.89453154363E+02 0.  0.
          1    1    3    3  502    0  0.56598885123E+02 -0.59403548600E+01  0.18189897039E+02  0.59746079096E+02  0.00000000000E+00 0. -1.
         -1    1    3    3    0  502  0.27274281413E+03 -0.19775172886E+03  0.25180847658E+03  0.42059707298E+03  0.00000000000E+00 0.  1.
         11    1    5    5    0    0 -0.43319132838E+00  0.41438121264E+01 -0.32370641525E+02  0.32637666375E+02  0.00000000000E+00 0.  1.
        -11    1    5    5    0    0  0.18211196284E+03  0.37734001327E+03 -0.43278741422E+03  0.60237463304E+03  0.00000000000E+00 0. -1.
          3    1    6    6  503    0 -0.45107419009E+03 -0.16374648679E+03 -0.61221757199E+03  0.77787607776E+03  0.00000000000E+00 0. -1.
         -3    1    6    6    0  503 -0.59946280673E+02 -0.14045254879E+02 -0.36453835962E+02  0.71552134192E+02  0.00000000000E+00 0.  1.
<mgrwt>
<rscale>  0 0.17743517E+04</rscale>
<asrwt>0</asrwt>
<pdfrwt beam="1">  1        2 0.21604729E+00 0.17743517E+04</pdfrwt>
<pdfrwt beam="2">  1       -2 0.86227122E-01 0.17743517E+04</pdfrwt>
<totfact> 0.15873679E+01</totfact>
</mgrwt>
</event>
<event>
12    2  0.3623523E-008  0.1677904E+04  0.7818608E-02  0.8774068E-01
         -1   -1    0    0    0  501 -0.00000000000E+00  0.00000000000E+00  0.15342395846E+04  0.15342395846E+04  0.00000000000E+00 0.  1.
          1   -1    0    0  501    0  0.00000000000E+00 -0.00000000000E+00 -0.45875536270E+03  0.45875536270E+03  0.00000000000E+00 0. -1.
         23    2    1    2    0    0 -0.46452159488E+01  0.23366049243E+03  0.10529353347E+04  0.10824650427E+04  0.91863735903E+02 0.  0.
        254    2    1    2    0    0  0.46452159488E+01 -0.23366049243E+03  0.22548887268E+02  0.91052990461E+03  0.87973714888E+03 0.  0.
         23    2    4    4    0    0 -0.24928654307E+03 -0.33944903539E+03 -0.26315621172E+03  0.50455840241E+03  0.89210770032E+02 0.  0.
         23    2    4    4    0    0  0.25393175902E+03  0.10578854295E+03  0.28570509899E+03  0.40597150221E+03  0.86677003615E+02 0.  0.
          3    1    3    3  502    0 -0.12031518290E+02 -0.43966014882E+01  0.46504539032E+02  0.48236497464E+02  0.00000000000E+00 0. -1.
         -3    1    3    3    0  502  0.73863023409E+01  0.23805709392E+03  0.10064307956E+04  0.10342285453E+04  0.00000000000E+00 0.  1.
         11    1    5    5    0    0 -0.27188031029E+02 -0.34945922920E+01 -0.11951411126E+02  0.29903803009E+02  0.00000000000E+00 0. -1.
        -11    1    5    5    0    0 -0.22209851204E+03 -0.33595444309E+03 -0.25120480060E+03  0.47465459940E+03  0.00000000000E+00 0.  1.
          4    1    6    6  503    0  0.78199641267E+02  0.47501974578E+02  0.15266208179E+03  0.17798127064E+03  0.00000000000E+00 0.  1.
         -4    1    6    6    0  503  0.17573211775E+03  0.58286568376E+02  0.13304301720E+03  0.22799023157E+03  0.00000000000E+00 0. -1.
<mgrwt>
<rscale>  0 0.16779042E+04</rscale>
<asrwt>0</asrwt>
<pdfrwt beam="1">  1        1 0.70577749E-01 0.16779042E+04</pdfrwt>
<pdfrwt beam="2">  1       -1 0.23603686E+00 0.16779042E+04</pdfrwt>
<totfact> 0.40944346E+00</totfact>
</mgrwt>
</event>
<event>
12    2  0.3623523E-008  0.1106940E+04  0.7818608E-02  0.9198454E-01
         -1   -1    0    0    0  501 -0.00000000000E+00  0.00000000000E+00  0.12594357753E+04  0.12594357753E+04  0.00000000000E+00 0.  1.
          1   -1    0    0  501    0  0.00000000000E+00 -0.00000000000E+00 -0.24322739548E+03  0.24322739548E+03  0.00000000000E+00 0. -1.
         23    2    1    2    0    0 -0.17835728405E+03 -0.15988398937E+02  0.20091137724E+03  0.28472053514E+03  0.92916370733E+02 0.  0.
        254    2    1    2    0    0  0.17835728405E+03  0.15988398937E+02  0.81529700254E+03  0.12179426356E+04  0.88690930290E+03 0.  0.
         23    2    4    4    0    0  0.18666666991E+03  0.33391455721E+03  0.79387077746E+03  0.88614542414E+03  0.93163964294E+02 0.  0.
         23    2    4    4    0    0 -0.83093858569E+01 -0.31792615828E+03  0.21426225076E+02  0.33179721145E+03  0.92109817053E+02 0.  0.
          4    1    3    3  502    0 -0.18347457204E+03 -0.29680572318E+02  0.19360868566E+03  0.26838065899E+03  0.00000000000E+00 0.  1.
         -4    1    3    3    0  502  0.51172879851E+01  0.13692173381E+02  0.73026915807E+01  0.16339876148E+02  0.00000000000E+00 0. -1.
         11    1    5    5    0    0  0.12068117828E+03  0.18113819262E+03  0.35064094044E+03  0.41270335682E+03  0.00000000000E+00 0. -1.
        -11    1    5    5    0    0  0.65985491633E+02  0.15277636459E+03  0.44322983702E+03  0.47344206732E+03  0.00000000000E+00 0.  1.
          1    1    6    6  503    0  0.34976333752E+02 -0.10804619456E+03  0.29544078574E+02  0.11734639602E+03  0.00000000000E+00 0. -1.
         -1    1    6    6    0  503 -0.43285719609E+02 -0.20987996372E+03 -0.81178534985E+01  0.21445081543E+03  0.00000000000E+00 0.  1.
<mgrwt>
<rscale>  0 0.11069404E+04</rscale>
<asrwt>0</asrwt>
<pdfrwt beam="1">  1        1 0.37419600E-01 0.11069404E+04</pdfrwt>
<pdfrwt beam="2">  1       -1 0.19375934E+00 0.11069404E+04</pdfrwt>
<totfact> 0.19103611E+01</totfact>
</mgrwt>
</event>
<event>
12    2  0.3623523E-008  0.1323855E+04  0.7818608E-02  0.9010859E-01
         -1   -1    0    0    0  501 -0.00000000000E+00  0.00000000000E+00  0.32233932128E+03  0.32233932128E+03  0.00000000000E+00 0.  1.
          1   -1    0    0  501    0  0.00000000000E+00 -0.00000000000E+00 -0.13592752569E+04  0.13592752569E+04  0.00000000000E+00 0. -1.
         23    2    1    2    0    0  0.16099449831E+03  0.56232562890E+02  0.10454920897E+03  0.21934454588E+03  0.90000906070E+02 0.  0.
        254    2    1    2    0    0 -0.16099449831E+03 -0.56232562890E+02 -0.11414851446E+04  0.14622700323E+04  0.89786634996E+03 0.  0.
         23    2    4    4    0    0 -0.96087914206E+02 -0.41256388912E+03 -0.94715734440E+03  0.10414240537E+04  0.89527508571E+02 0.  0.
         23    2    4    4    0    0 -0.64906584108E+02  0.35633132623E+03 -0.19432780018E+03  0.42084597855E+03  0.90350235332E+02 0.  0.
          2    1    3    3  502    0  0.77148864126E+02 -0.17052977913E+02  0.60813715027E+02  0.99704860599E+02  0.00000000000E+00 0. -1.
         -2    1    3    3    0  502  0.83845634188E+02  0.73285540803E+02  0.43735493945E+02  0.11963968528E+03  0.00000000000E+00 0.  1.
         11    1    5    5    0    0 -0.22634061163E+02 -0.18423795773E+02 -0.39052749378E+02  0.48752991799E+02  0.00000000000E+00 0. -1.
        -11    1    5    5    0    0 -0.73453853044E+02 -0.39414009334E+03 -0.90810459502E+03  0.99267106194E+03  0.00000000000E+00 0.  1.
          4    1    6    6  503    0  0.17934339227E+02  0.10844189709E+03 -0.38007540165E+02  0.11630072518E+03  0.00000000000E+00 0. -1.
         -4    1    6    6    0  503 -0.82840923335E+02  0.24788942914E+03 -0.15632026002E+03  0.30454525337E+03  0.00000000000E+00 0.  1.
<mgrwt>
<rscale>  0 0.13238548E+04</rscale>
<asrwt>0</asrwt>
<pdfrwt beam="1">  1        1 0.20911927E+00 0.13238548E+04</pdfrwt>
<pdfrwt beam="2">  1       -1 0.49590664E-01 0.13238548E+04</pdfrwt>
<totfact> 0.32817775E+01</totfact>
</mgrwt>
</event>
<event>
12    2  0.3623523E-008  0.1581234E+04  0.7818608E-02  0.8832161E-01
          1   -1    0    0  501    0  0.00000000000E+00  0.00000000000E+00  0.21490660148E+04  0.21490660148E+04  0.00000000000E+00 0.  1.
         -1   -1    0    0    0  501 -0.00000000000E+00 -0.00000000000E+00 -0.29085884026E+03  0.29085884026E+03  0.00000000000E+00 0. -1.
         23    2    1    2    0    0 -0.16293195829E+03  0.27204452692E+03  0.14073770846E+04  0.14455830181E+04  0.91896443616E+02 0.  0.
        254    2    1    2    0    0  0.16293195829E+03 -0.27204452692E+03  0.45083008996E+03  0.99434183696E+03  0.82759462967E+03 0.  0.
         23    2    4    4    0    0  0.34722592669E+03 -0.47353928779E+03  0.34526538120E+03  0.68803256983E+03  0.96826300369E+02 0.  0.
         23    2    4    4    0    0 -0.18429396840E+03  0.20149476086E+03  0.10556470875E+03  0.30630926713E+03  0.90094694356E+02 0.  0.
          1    1    3    3  502    0  0.40262843347E+01  0.74051327880E+01  0.13621893068E+03  0.13647946378E+03  0.00000000000E+00 0. -1.
         -1    1    3    3    0  502 -0.16695824262E+03  0.26463939414E+03  0.12711581539E+04  0.13091035543E+04  0.00000000000E+00 0.  1.
         11    1    5    5    0    0  0.25286794064E+03 -0.30661300358E+03  0.27722484430E+03  0.48456923516E+03  0.00000000000E+00 0.  1.
        -11    1    5    5    0    0  0.94357986048E+02 -0.16692628421E+03  0.68040536897E+02  0.20346333467E+03  0.00000000000E+00 0. -1.
          2    1    6    6  503    0  0.56616591451E+01  0.51344564219E+01  0.17771848803E+02  0.19345687812E+02  0.00000000000E+00 0. -1.
         -2    1    6    6    0  503 -0.18995562755E+03  0.19636030444E+03  0.87792859952E+02  0.28696357932E+03  0.00000000000E+00 0.  1.
<mgrwt>
<rscale>  0 0.15812335E+04</rscale>
<asrwt>0</asrwt>
<pdfrwt beam="1">  1        1 0.33062553E+00 0.15812335E+04</pdfrwt>
<pdfrwt beam="2">  1       -1 0.44747515E-01 0.15812335E+04</pdfrwt>
<totfact> 0.11233285E+01</totfact>
</mgrwt>
</event>
<event>
12    2  0.3623523E-008  0.1337866E+04  0.7818608E-02  0.9000065E-01
          2   -1    0    0  501    0  0.00000000000E+00  0.00000000000E+00  0.14253751353E+04  0.14253751353E+04  0.00000000000E+00 0. -1.
         -2   -1    0    0    0  501 -0.00000000000E+00 -0.00000000000E+00 -0.31393220566E+03  0.31393220566E+03  0.00000000000E+00 0.  1.
         23    2    1    2    0    0  0.86804139753E+02  0.32129798638E+03  0.45614953863E+03  0.57184642694E+03  0.90380195159E+02 0.  0.
        254    2    1    2    0    0 -0.86804139753E+02 -0.32129798638E+03  0.65529339099E+03  0.11674609140E+04  0.90707673476E+03 0.  0.
         23    2    4    4    0    0 -0.16701435937E+03 -0.56978148001E+03  0.65724018190E+03  0.89042479264E+03  0.91361498749E+02 0.  0.
         23    2    4    4    0    0  0.80210219617E+02  0.24848349363E+03 -0.19467909115E+01  0.27703612137E+03  0.92560772537E+02 0.  0.
          3    1    3    3  502    0  0.20419662683E+02  0.49122115875E+02  0.13816893586E+03  0.14805606954E+03  0.00000000000E+00 0. -1.
         -3    1    3    3    0  502  0.66384477071E+02  0.27217587050E+03  0.31798060277E+03  0.42379035740E+03  0.00000000000E+00 0.  1.
         11    1    5    5    0    0 -0.15446919749E+03 -0.56253078035E+03  0.62425838428E+03  0.85440045772E+03  0.00000000000E+00 0.  1.
        -11    1    5    5    0    0 -0.12545161883E+02 -0.72506996571E+01  0.32981797617E+02  0.36024334917E+02  0.00000000000E+00 0. -1.
          2    1    6    6  503    0  0.71278412591E+02  0.97423178594E+02  0.25147155224E+02  0.12330558481E+03  0.00000000000E+00 0. -1.
         -2    1    6    6    0  503  0.89318070258E+01  0.15106031503E+03 -0.27093946135E+02  0.15373053656E+03  0.00000000000E+00 0.  1.
<mgrwt>
<rscale>  0 0.13378657E+04</rscale>
<asrwt>0</asrwt>
<pdfrwt beam="1">  1        2 0.21928848E+00 0.13378657E+04</pdfrwt>
<pdfrwt beam="2">  1       -2 0.48297263E-01 0.13378657E+04</pdfrwt>
<totfact> 0.55543757E+01</totfact>
</mgrwt>
</event>
<event>
12    2  0.3623523E-008  0.2010319E+04  0.7818608E-02  0.8601811E-01
         -2   -1    0    0    0  501 -0.00000000000E+00  0.00000000000E+00  0.45765824179E+03  0.45765824179E+03  0.00000000000E+00 0.  1.
          2   -1    0    0  501    0  0.00000000000E+00 -0.00000000000E+00 -0.22076431089E+04  0.22076431089E+04  0.00000000000E+00 0. -1.
         23    2    1    2    0    0 -0.41484642617E+03  0.62906696285E+03 -0.33506546958E+03  0.82964439637E+03  0.90654037194E+02 0.  0.
        254    2    1    2    0    0  0.41484642617E+03 -0.62906696285E+03 -0.14149193975E+04  0.18356569543E+04  0.89432474602E+03 0.  0.
         23    2    4    4    0    0 -0.19140295762E+03 -0.56102816573E+02 -0.37573400597E+02  0.22290003426E+03  0.92141449036E+02 0.  0.
         23    2    4    4    0    0  0.60624938379E+03 -0.57296414628E+03 -0.13773459969E+04  0.16127569200E+04  0.89870237776E+02 0.  0.
          4    1    3    3  502    0 -0.39806187181E+03  0.59777331306E+03 -0.29582903523E+03  0.77672453655E+03  0.00000000000E+00 0. -1.
         -4    1    3    3    0  502 -0.16784554365E+02  0.31293649795E+02 -0.39236434354E+02  0.52919859821E+02  0.00000000000E+00 0.  1.
         11    1    5    5    0    0 -0.16493164025E+02  0.13471864036E+02 -0.26967329260E+02  0.34362078336E+02  0.00000000000E+00 0. -1.
        -11    1    5    5    0    0 -0.17490979359E+03 -0.69574680609E+02 -0.10606071337E+02  0.18853795593E+03  0.00000000000E+00 0.  1.
          3    1    6    6  503    0  0.10783894760E+03 -0.61373161737E+02 -0.18174550830E+03  0.22006211257E+03  0.00000000000E+00 0. -1.
         -3    1    6    6    0  503  0.49841043619E+03 -0.51159098454E+03 -0.11956004886E+04  0.13926948075E+04  0.00000000000E+00 0.  1.
<mgrwt>
<rscale>  0 0.20103194E+04</rscale>
<asrwt>0</asrwt>
<pdfrwt beam="1">  1        2 0.33963741E+00 0.20103194E+04</pdfrwt>
<pdfrwt beam="2">  1       -2 0.70408959E-01 0.20103194E+04</pdfrwt>
<totfact> 0.87113294E+00</totfact>
</mgrwt>
</event>
<event>
12    2  0.3623523E-008  0.1514145E+04  0.7818608E-02  0.8875101E-01
         -2   -1    0    0    0  501 -0.00000000000E+00  0.00000000000E+00  0.25105035789E+03  0.25105035789E+03  0.00000000000E+00 0.  1.
          2   -1    0    0  501    0  0.00000000000E+00 -0.00000000000E+00 -0.22830423063E+04  0.22830423063E+04  0.00000000000E+00 0. -1.
         23    2    1    2    0    0  0.39401066747E+03  0.15387314204E+03 -0.26790167503E+03  0.50903452516E+03  0.91779575068E+02 0.  0.
        254    2    1    2    0    0 -0.39401066747E+03 -0.15387314204E+03 -0.17640902734E+04  0.20250581391E+04  0.89995812344E+03 0.  0.
         23    2    4    4    0    0 -0.63497772485E+03 -0.13717657562E+03 -0.15794782448E+04  0.17099363923E+04  0.84361221573E+02 0.  0.
         23    2    4    4    0    0  0.24096705738E+03 -0.16696566418E+02 -0.18461202858E+03  0.31512174682E+03  0.82922953068E+02 0.  0.
          1    1    3    3  502    0  0.31278894638E+03  0.14926634567E+03 -0.24528678467E+03  0.42459742540E+03  0.00000000000E+00 0. -1.
         -1    1    3    3    0  502  0.81221721087E+02  0.46067963741E+01 -0.22614890367E+02  0.84437099758E+02  0.00000000000E+00 0.  1.
         11    1    5    5    0    0 -0.29452680202E+03 -0.91201952312E+02 -0.66300622807E+03  0.73119155607E+03  0.00000000000E+00 0. -1.
        -11    1    5    5    0    0 -0.34045092283E+03 -0.45974623310E+02 -0.91647201676E+03  0.97874483618E+03  0.00000000000E+00 0.  1.
          4    1    6    6  503    0  0.22896009750E+03 -0.41227946378E+01 -0.14288649286E+03  0.26991901290E+03  0.00000000000E+00 0. -1.
         -4    1    6    6    0  503  0.12006959882E+02 -0.12573771781E+02 -0.41725535716E+02  0.45202733913E+02  0.00000000000E+00 0.  1.
<mgrwt>
<rscale>  0 0.15141448E+04</rscale>
<asrwt>0</asrwt>
<pdfrwt beam="1">  1        2 0.35123729E+00 0.15141448E+04</pdfrwt>
<pdfrwt beam="2">  1       -2 0.38623130E-01 0.15141448E+04</pdfrwt>
<totfact> 0.28373476E+01</totfact>
</mgrwt>
</event>
<event>
12    2  0.3623523E-008  0.1685103E+04  0.7818608E-02  0.8769907E-01
         -2   -1    0    0    0  501 -0.00000000000E+00  0.00000000000E+00  0.17198221871E+04  0.17198221871E+04  0.00000000000E+00 0.  1.
          2   -1    0    0  501    0  0.00000000000E+00 -0.00000000000E+00 -0.41277111230E+03  0.41277111230E+03  0.00000000000E+00 0. -1.
         23    2    1    2    0    0  0.12960006602E+03 -0.54498855452E+03  0.21042886153E+03  0.60524165014E+03  0.90710791136E+02 0.  0.
        254    2    1    2    0    0 -0.12960006602E+03  0.54498855452E+03  0.10966222132E+04  0.15273516492E+04  0.90355635140E+03 0.  0.
         23    2    4    4    0    0  0.19993169187E+03  0.64301921622E+03  0.87779568755E+03  0.11097050722E+04  0.86450473017E+02 0.  0.
         23    2    4    4    0    0 -0.32953175789E+03 -0.98030661693E+02  0.21882652570E+03  0.41764657706E+03  0.91336875839E+02 0.  0.
          2    1    3    3  502    0  0.96296178744E+02 -0.45056702991E+03  0.20687632343E+03  0.50505585402E+03  0.00000000000E+00 0. -1.
         -2    1    3    3    0  502  0.33303887278E+02 -0.94421524610E+02  0.35525381004E+01  0.10018579612E+03  0.00000000000E+00 0.  1.
         11    1    5    5    0    0  0.18981510351E+03  0.61386288133E+03  0.86173033798E+03  0.10749123620E+04  0.00000000000E+00 0. -1.
        -11    1    5    5    0    0  0.10116588362E+02  0.29156334883E+02  0.16065349571E+02  0.34792710167E+02  0.00000000000E+00 0.  1.
          1    1    6    6  503    0 -0.29550324680E+03 -0.10966333707E+03  0.21487073759E+03  0.38146775780E+03  0.00000000000E+00 0. -1.
         -1    1    6    6    0  503 -0.34028511093E+02  0.11632675376E+02  0.39557881077E+01  0.36178819262E+02  0.00000000000E+00 0.  1.
<mgrwt>
<rscale>  0 0.16851029E+04</rscale>
<asrwt>0</asrwt>
<pdfrwt beam="1">  1        2 0.63503249E-01 0.16851029E+04</pdfrwt>
<pdfrwt beam="2">  1       -2 0.26458802E+00 0.16851029E+04</pdfrwt>
<totfact> 0.38261848E+00</totfact>
</mgrwt>
</event>
<event>
12    2  0.3623523E-008  0.2049153E+04  0.7818608E-02  0.8583979E-01
         -1   -1    0    0    0  501 -0.00000000000E+00  0.00000000000E+00  0.15400058144E+04  0.15400058144E+04  0.00000000000E+00 0.  1.
          1   -1    0    0  501    0  0.00000000000E+00 -0.00000000000E+00 -0.68165760168E+03  0.68165760168E+03  0.00000000000E+00 0. -1.
         23    2    1    2    0    0  0.81959185839E+03  0.49277314308E+02  0.43417382659E+03  0.93313280602E+03  0.89837931486E+02 0.  0.
        254    2    1    2    0    0 -0.81959185839E+03 -0.49277314308E+02  0.42417438612E+03  0.12885306100E+04  0.89790208551E+03 0.  0.
         23    2    4    4    0    0 -0.60362704895E+03 -0.28207635816E+03 -0.88970190108E+02  0.67826272518E+03  0.90509356291E+02 0.  0.
         23    2    4    4    0    0 -0.21596480943E+03  0.23279904385E+03  0.51314457623E+03  0.61026788487E+03  0.90957910395E+02 0.  0.
          3    1    3    3  502    0  0.23136040634E+03  0.27445625785E+02  0.80928730226E+02  0.24663811419E+03  0.00000000000E+00 0. -1.
         -3    1    3    3    0  502  0.58823145205E+03  0.21831688523E+02  0.35324509636E+03  0.68649469182E+03  0.00000000000E+00 0.  1.
         11    1    5    5    0    0 -0.58562725686E+03 -0.25276608045E+03 -0.81154296451E+02  0.64298988735E+03  0.00000000000E+00 0. -1.
        -11    1    5    5    0    0 -0.17999792096E+02 -0.29310277706E+02 -0.78158936576E+01  0.35272837828E+02  0.00000000000E+00 0.  1.
          4    1    6    6  503    0 -0.12719355235E+03  0.18635388301E+03  0.30620634881E+03  0.38035285924E+03  0.00000000000E+00 0. -1.
         -4    1    6    6    0  503 -0.88771257077E+02  0.46445160838E+02  0.20693822741E+03  0.22991502563E+03  0.00000000000E+00 0.  1.
<mgrwt>
<rscale>  0 0.20491527E+04</rscale>
<asrwt>0</asrwt>
<pdfrwt beam="1">  1        1 0.10487040E+00 0.20491527E+04</pdfrwt>
<pdfrwt beam="2">  1       -1 0.23692397E+00 0.20491527E+04</pdfrwt>
<totfact> 0.22253531E+00</totfact>
</mgrwt>
</event>
<event>
12    2  0.3623523E-008  0.2503979E+04  0.7818608E-02  0.8401569E-01
         -2   -1    0    0    0  501 -0.00000000000E+00  0.00000000000E+00  0.76480196532E+03  0.76480196532E+03  0.00000000000E+00 0.  1.
          2   -1    0    0  501    0  0.00000000000E+00 -0.00000000000E+00 -0.20495208519E+04  0.20495208519E+04  0.00000000000E+00 0. -1.
         23    2    1    2    0    0 -0.84766331301E+03  0.99591521494E+02  0.21880854938E+03  0.88582015348E+03  0.91370671784E+02 0.  0.
        254    2    1    2    0    0  0.84766331301E+03 -0.99591521494E+02 -0.15035274359E+04  0.19285026637E+04  0.85444497187E+03 0.  0.
         23    2    4    4    0    0 -0.99652349881E+02  0.12092652107E+03 -0.48291992949E+03  0.51594659023E+03  0.91844495365E+02 0.  0.
         23    2    4    4    0    0  0.94731566289E+03 -0.22051804257E+03 -0.10206075064E+04  0.14125560735E+04  0.87405985335E+02 0.  0.
          4    1    3    3  502    0 -0.18603213229E+03  0.52338039032E+02  0.25630975554E+02  0.19494658623E+03  0.00000000000E+00 0. -1.
         -4    1    3    3    0  502 -0.66163118071E+03  0.47253482463E+02  0.19317757383E+03  0.69087356725E+03  0.00000000000E+00 0.  1.
         11    1    5    5    0    0 -0.68877530550E+02  0.14339255048E+02 -0.17236215079E+03  0.18616777239E+03  0.00000000000E+00 0.  1.
        -11    1    5    5    0    0 -0.30774819332E+02  0.10658726603E+03 -0.31055777870E+03  0.32977881784E+03  0.00000000000E+00 0. -1.
          3    1    6    6  503    0  0.84760557626E+03 -0.21063609838E+03 -0.94677104136E+03  0.12880909066E+04  0.00000000000E+00 0. -1.
         -3    1    6    6    0  503  0.99710086626E+02 -0.98819441913E+01 -0.73836465062E+02  0.12446516689E+03  0.00000000000E+00 0.  1.
<mgrwt>
<rscale>  0 0.25039789E+04</rscale>
<asrwt>0</asrwt>
<pdfrwt beam="1">  1        2 0.31531090E+00 0.25039789E+04</pdfrwt>
<pdfrwt beam="2">  1       -2 0.11766184E+00 0.25039789E+04</pdfrwt>
<totfact> 0.31165043E+00</totfact>
</mgrwt>
</event>
<event>
12    2  0.3623523E-008  0.1307748E+04  0.7818608E-02  0.9023443E-01
          2   -1    0    0  501    0  0.00000000000E+00  0.00000000000E+00  0.10286900763E+04  0.10286900763E+04  0.00000000000E+00 0.  1.
         -2   -1    0    0    0  501 -0.00000000000E+00 -0.00000000000E+00 -0.41562695098E+03  0.41562695098E+03  0.00000000000E+00 0. -1.
         23    2    1    2    0    0  0.31044286529E+03 -0.11915104774E+03  0.20798391166E+03  0.40283142081E+03  0.91891791207E+02 0.  0.
        254    2    1    2    0    0 -0.31044286529E+03  0.11915104774E+03  0.40507921370E+03  0.10414856065E+04  0.90001741894E+03 0.  0.
         23    2    4    4    0    0 -0.92693446890E+02 -0.38229796401E+03  0.14230121347E+03  0.42802262067E+03  0.90608609221E+02 0.  0.
         23    2    4    4    0    0 -0.21774941840E+03  0.50144901174E+03  0.26277800022E+03  0.61346298584E+03  0.91753130752E+02 0.  0.
          2    1    3    3  502    0  0.23890680801E+03 -0.94897393940E+02  0.11126254743E+03  0.28010950136E+03  0.00000000000E+00 0.  1.
         -2    1    3    3    0  502  0.71536057277E+02 -0.24253653797E+02  0.96721364234E+02  0.12272191945E+03  0.00000000000E+00 0. -1.
         11    1    5    5    0    0 -0.21763956974E+02 -0.30248213909E+02  0.39876599350E+02  0.54578085745E+02  0.00000000000E+00 0. -1.
        -11    1    5    5    0    0 -0.70929489916E+02 -0.35204975010E+03  0.10242461413E+03  0.37344453492E+03  0.00000000000E+00 0.  1.
          1    1    6    6  503    0 -0.16381636900E+02  0.15271646377E+02 -0.51083846558E+01  0.22971216867E+02  0.00000000000E+00 0. -1.
         -1    1    6    6    0  503 -0.20136778150E+03  0.48617736537E+03  0.26788638488E+03  0.59049176897E+03  0.00000000000E+00 0.  1.
<mgrwt>
<rscale>  0 0.13077482E+04</rscale>
<asrwt>0</asrwt>
<pdfrwt beam="1">  1        2 0.15826001E+00 0.13077482E+04</pdfrwt>
<pdfrwt beam="2">  1       -2 0.63942608E-01 0.13077482E+04</pdfrwt>
<totfact> 0.53503829E+01</totfact>
</mgrwt>
</event>
<event>
12    2  0.3623523E-008  0.1556823E+04  0.7818608E-02  0.8847521E-01
         -2   -1    0    0    0  501 -0.00000000000E+00  0.00000000000E+00  0.34154204623E+03  0.34154204623E+03  0.00000000000E+00 0.  1.
          2   -1    0    0  501    0  0.00000000000E+00 -0.00000000000E+00 -0.17740856168E+04  0.17740856168E+04  0.00000000000E+00 0. -1.
         23    2    1    2    0    0 -0.21174035714E+03 -0.48497107929E+03 -0.67749323635E+03  0.86475981167E+03  0.93709764674E+02 0.  0.
        254    2    1    2    0    0  0.21174035714E+03  0.48497107929E+03 -0.75505033422E+03  0.12508678514E+04  0.84530376064E+03 0.  0.
         23    2    4    4    0    0  0.10529202203E+03  0.44438546643E+03 -0.91999206230E+03  0.10313164337E+04  0.93077060204E+02 0.  0.
         23    2    4    4    0    0  0.10644833510E+03  0.40585612861E+02  0.16494172808E+03  0.21955141760E+03  0.89546698940E+02 0.  0.
          3    1    3    3  502    0 -0.22114506644E+02 -0.60122489095E+02 -0.39903592540E+02  0.75472258458E+02  0.00000000000E+00 0. -1.
         -3    1    3    3    0  502 -0.18962585049E+03 -0.42484859020E+03 -0.63758964381E+03  0.78928755321E+03  0.00000000000E+00 0.  1.
         11    1    5    5    0    0  0.95915806021E+02  0.40717142025E+03 -0.88705964429E+03  0.98074625660E+03  0.00000000000E+00 0. -1.
        -11    1    5    5    0    0  0.93762160134E+01  0.37214046187E+02 -0.32932418010E+02  0.50570177144E+02  0.00000000000E+00 0.  1.
          3    1    6    6  503    0  0.73426957439E+02  0.59652995510E+02  0.71361912853E+02  0.11850114159E+03  0.00000000000E+00 0. -1.
         -3    1    6    6    0  503  0.33021377665E+02 -0.19067382649E+02  0.93579815230E+02  0.10105027601E+03  0.00000000000E+00 0.  1.
<mgrwt>
<rscale>  0 0.15568235E+04</rscale>
<asrwt>0</asrwt>
<pdfrwt beam="1">  1        2 0.27293625E+00 0.15568235E+04</pdfrwt>
<pdfrwt beam="2">  1       -2 0.52544929E-01 0.15568235E+04</pdfrwt>
<totfact> 0.29324760E+01</totfact>
</mgrwt>
</event>
<event>
12    2  0.3623523E-008  0.1088164E+04  0.7818608E-02  0.9216806E-01
         -1   -1    0    0    0  501 -0.00000000000E+00  0.00000000000E+00  0.36889414937E+03  0.36889414937E+03  0.00000000000E+00 0.  1.
          1   -1    0    0  501    0  0.00000000000E+00 -0.00000000000E+00 -0.80246637206E+03  0.80246637206E+03  0.00000000000E+00 0. -1.
         23    2    1    2    0    0 -0.51190798986E+02 -0.40753605980E+02 -0.21076027541E+03  0.24602814948E+03  0.10875937819E+03 0.  0.
        254    2    1    2    0    0  0.51190798986E+02  0.40753605980E+02 -0.22281194729E+03  0.92533237196E+03  0.89571953224E+03 0.  0.
         23    2    4    4    0    0 -0.28680486187E+03  0.16690252168E+03 -0.38849577762E+03  0.51881126930E+03  0.90125930757E+02 0.  0.
         23    2    4    4    0    0  0.33799566085E+03 -0.12614891570E+03  0.16568383033E+03  0.40652110266E+03  0.87485196368E+02 0.  0.
          4    1    3    3  502    0 -0.65604096927E+02 -0.63971023618E+02 -0.19240045001E+03  0.21310589518E+03  0.00000000000E+00 0.  1.
         -4    1    3    3    0  502  0.14413297942E+02  0.23217417638E+02 -0.18359825395E+02  0.32922254295E+02  0.00000000000E+00 0. -1.
         11    1    5    5    0    0 -0.29057940402E+03  0.15191282766E+03 -0.37635170769E+03  0.49915378906E+03  0.00000000000E+00 0.  1.
        -11    1    5    5    0    0  0.37745421549E+01  0.14989694014E+02 -0.12144069930E+02  0.19657480245E+02  0.00000000000E+00 0. -1.
          1    1    6    6  503    0  0.36223651653E+02 -0.63233900902E+01 -0.89511920541E+01  0.37845238016E+02  0.00000000000E+00 0. -1.
         -1    1    6    6    0  503  0.30177200920E+03 -0.11982552561E+03  0.17463502239E+03  0.36867586464E+03  0.00000000000E+00 0.  1.
<mgrwt>
<rscale>  0 0.10881639E+04</rscale>
<asrwt>0</asrwt>
<pdfrwt beam="1">  1        1 0.12345636E+00 0.10881639E+04</pdfrwt>
<pdfrwt beam="2">  1       -1 0.56752946E-01 0.10881639E+04</pdfrwt>
<totfact> 0.68948992E+01</totfact>
</mgrwt>
</event>
<event>
12    2  0.3623523E-008  0.2925595E+04  0.7818608E-02  0.8265303E-01
          1   -1    0    0  501    0  0.00000000000E+00  0.00000000000E+00  0.13605849846E+04  0.13605849846E+04  0.00000000000E+00 0.  1.
         -1   -1    0    0    0  501 -0.00000000000E+00 -0.00000000000E+00 -0.15726881617E+04  0.15726881617E+04  0.00000000000E+00 0. -1.
         23    2    1    2    0    0  0.11800915118E+04  0.53647235889E+03  0.17944865011E+03  0.13118878944E+04  0.91812098776E+02 0.  0.
        254    2    1    2    0    0 -0.11800915118E+04 -0.53647235889E+03 -0.39155182726E+03  0.16213852518E+04  0.89171673380E+03 0.  0.
         23    2    4    4    0    0 -0.57538091251E+03 -0.14166536033E+03  0.25207491408E+03  0.65014535102E+03  0.89526232801E+02 0.  0.
         23    2    4    4    0    0 -0.60471059930E+03 -0.39480699856E+03 -0.64362674134E+03  0.97123990081E+03  0.86626137726E+02 0.  0.
          4    1    3    3  502    0  0.12363970137E+03  0.82633790806E+02  0.39583298823E+01  0.14876420104E+03  0.00000000000E+00 0. -1.
         -4    1    3    3    0  502  0.10564518104E+04  0.45383856808E+03  0.17549032022E+03  0.11631236934E+04  0.00000000000E+00 0.  1.
         11    1    5    5    0    0 -0.93427532761E+02 -0.21063747594E+02  0.78663831287E+02  0.12393701502E+03  0.00000000000E+00 0.  1.
        -11    1    5    5    0    0 -0.48195337975E+03 -0.12060161273E+03  0.17341108279E+03  0.52620833600E+03  0.00000000000E+00 0. -1.
          1    1    6    6  503    0 -0.41926604011E+03 -0.26364103191E+03 -0.49219834860E+03  0.69824767845E+03  0.00000000000E+00 0. -1.
         -1    1    6    6    0  503 -0.18544455919E+03 -0.13116596665E+03 -0.15142839274E+03  0.27299222236E+03  0.00000000000E+00 0.  1.
<mgrwt>
<rscale>  0 0.29255946E+04</rscale>
<asrwt>0</asrwt>
<pdfrwt beam="1">  1        1 0.20932077E+00 0.29255946E+04</pdfrwt>
<pdfrwt beam="2">  1       -1 0.24195202E+00 0.29255946E+04</pdfrwt>
<totfact> 0.55220463E-01</totfact>
</mgrwt>
</event>
<event>
12    2  0.3623523E-008  0.1806255E+04  0.7818608E-02  0.8702980E-01
         -2   -1    0    0    0  501 -0.00000000000E+00  0.00000000000E+00  0.43366915020E+03  0.43366915020E+03  0.00000000000E+00 0.  1.
          2   -1    0    0  501    0  0.00000000000E+00 -0.00000000000E+00 -0.18807867718E+04  0.18807867718E+04  0.00000000000E+00 0. -1.
         23    2    1    2    0    0  0.13025227340E+02 -0.35344855401E+03  0.18693853483E+03  0.41014381881E+03  0.90423445104E+02 0.  0.
        254    2    1    2    0    0 -0.13025227340E+02  0.35344855401E+03 -0.16340561564E+04  0.19043121032E+04  0.91168499337E+03 0.  0.
         23    2    4    4    0    0  0.19159734593E+03  0.59679748283E+03 -0.91106181581E+03  0.11095212271E+04  0.90149557125E+02 0.  0.
         23    2    4    4    0    0 -0.20462257327E+03 -0.24334892882E+03 -0.72299434062E+03  0.79479087611E+03  0.88784128820E+02 0.  0.
          1    1    3    3  502    0  0.17547955134E+02 -0.12935468870E+03  0.23243332539E+02  0.13259267975E+03  0.00000000000E+00 0. -1.
         -1    1    3    3    0  502 -0.45227277938E+01 -0.22409386532E+03  0.16369520229E+03  0.27755113906E+03  0.00000000000E+00 0.  1.
         11    1    5    5    0    0  0.10950590383E+03  0.20784499857E+03 -0.36565151281E+03  0.43461720540E+03  0.00000000000E+00 0. -1.
        -11    1    5    5    0    0  0.82091442097E+02  0.38895248426E+03 -0.54541030300E+03  0.67490402169E+03  0.00000000000E+00 0.  1.
          1    1    6    6  503    0 -0.10770813587E+03 -0.13244118354E+03 -0.27980879909E+03  0.32777228938E+03  0.00000000000E+00 0. -1.
         -1    1    6    6    0  503 -0.96914437393E+02 -0.11090774528E+03 -0.44318554153E+03  0.46701858674E+03  0.00000000000E+00 0.  1.
<mgrwt>
<rscale>  0 0.18062549E+04</rscale>
<asrwt>0</asrwt>
<pdfrwt beam="1">  1        2 0.28935180E+00 0.18062549E+04</pdfrwt>
<pdfrwt beam="2">  1       -2 0.66718333E-01 0.18062549E+04</pdfrwt>
<totfact> 0.15152337E+01</totfact>
</mgrwt>
</event>
<event>
12    2  0.3623523E-008  0.1702864E+04  0.7818608E-02  0.8759733E-01
          2   -1    0    0  501    0  0.00000000000E+00  0.00000000000E+00  0.62407597732E+03  0.62407597732E+03  0.00000000000E+00 0. -1.
         -2   -1    0    0    0  501 -0.00000000000E+00 -0.00000000000E+00 -0.11616158188E+04  0.11616158188E+04  0.00000000000E+00 0.  1.
         23    2    1    2    0    0  0.28097296735E+03  0.52969693825E+03 -0.34220438542E+03  0.69683564821E+03  0.94611967688E+02 0.  0.
        254    2    1    2    0    0 -0.28097296735E+03 -0.52969693825E+03 -0.19533545604E+03  0.10888561479E+04  0.88765258725E+03 0.  0.
         23    2    4    4    0    0 -0.16836492143E+03 -0.55630655444E+03 -0.48626108557E+03  0.76333481814E+03  0.91686814562E+02 0.  0.
         23    2    4    4    0    0 -0.11260804592E+03  0.26609616187E+02  0.29092562953E+03  0.32552132975E+03  0.89094166625E+02 0.  0.
          1    1    3    3  502    0  0.10965231703E+03  0.21268912688E+03 -0.84280094892E+02  0.25369948702E+03  0.00000000000E+00 0. -1.
         -1    1    3    3    0  502  0.17132065032E+03  0.31700781138E+03 -0.25792429053E+03  0.44313616118E+03  0.00000000000E+00 0.  1.
         11    1    5    5    0    0  0.83147444197E+01 -0.50249121226E+02 -0.58447404355E+02  0.77525532791E+02  0.00000000000E+00 0.  1.
        -11    1    5    5    0    0 -0.17667966585E+03 -0.50605743322E+03 -0.42781368122E+03  0.68580928535E+03  0.00000000000E+00 0. -1.
          4    1    6    6  503    0 -0.34195699555E+02  0.20635569913E+02  0.20576488534E+03  0.20960524958E+03  0.00000000000E+00 0. -1.
         -4    1    6    6    0  503 -0.78412346363E+02  0.59740462746E+01  0.85160744197E+02  0.11591608018E+03  0.00000000000E+00 0.  1.
<mgrwt>
<rscale>  0 0.17028641E+04</rscale>
<asrwt>0</asrwt>
<pdfrwt beam="1">  1        2 0.96011689E-01 0.17028641E+04</pdfrwt>
<pdfrwt beam="2">  1       -2 0.17871013E+00 0.17028641E+04</pdfrwt>
<totfact> 0.83174069E+00</totfact>
</mgrwt>
</event>
<event>
12    2  0.3623523E-008  0.2047712E+04  0.7818608E-02  0.8584633E-01
          2   -1    0    0  501    0  0.00000000000E+00  0.00000000000E+00  0.72143108158E+03  0.72143108158E+03  0.00000000000E+00 0. -1.
         -2   -1    0    0    0  501 -0.00000000000E+00 -0.00000000000E+00 -0.14530571742E+04  0.14530571742E+04  0.00000000000E+00 0.  1.
         23    2    1    2    0    0 -0.12694955356E+03  0.26701577146E+03 -0.11038767509E+04  0.11464802325E+04  0.91975165620E+02 0.  0.
        254    2    1    2    0    0  0.12694955356E+03 -0.26701577146E+03  0.37225065824E+03  0.10280080233E+04  0.91149126820E+03 0.  0.
         23    2    4    4    0    0  0.33480713372E+03  0.60436377183E+02 -0.13945233557E+03  0.37940856727E+03  0.93571013406E+02 0.  0.
         23    2    4    4    0    0 -0.20785758016E+03 -0.32745214864E+03  0.51170299381E+03  0.64859945600E+03  0.91714868838E+02 0.  0.
          3    1    3    3  502    0  0.27640547414E+01  0.53993804634E+02 -0.12236987574E+03  0.13378100548E+03  0.00000000000E+00 0. -1.
         -3    1    3    3    0  502 -0.12971360830E+03  0.21302196682E+03 -0.98150687515E+03  0.10126992271E+04  0.00000000000E+00 0.  1.
         11    1    5    5    0    0  0.26647779229E+02 -0.17073615157E+02 -0.29217393712E+02  0.43072828647E+02  0.00000000000E+00 0. -1.
        -11    1    5    5    0    0  0.30815935449E+03  0.77509992340E+02 -0.11023494186E+03  0.33633573863E+03  0.00000000000E+00 0.  1.
          2    1    6    6  503    0 -0.92925620931E+02 -0.17800665229E+03  0.19423832404E+03  0.27937441868E+03  0.00000000000E+00 0. -1.
         -2    1    6    6    0  503 -0.11493195923E+03 -0.14944549635E+03  0.31746466978E+03  0.36922503732E+03  0.00000000000E+00 0.  1.
<mgrwt>
<rscale>  0 0.20477115E+04</rscale>
<asrwt>0</asrwt>
<pdfrwt beam="1">  1        2 0.11098940E+00 0.20477115E+04</pdfrwt>
<pdfrwt beam="2">  1       -2 0.22354725E+00 0.20477115E+04</pdfrwt>
<totfact> 0.34232670E+00</totfact>
</mgrwt>
</event>
<event>
12    2  0.3623523E-008  0.2637747E+04  0.7818608E-02  0.8355491E-01
          2   -1    0    0  501    0  0.00000000000E+00  0.00000000000E+00  0.89161632959E+03  0.89161632959E+03  0.00000000000E+00 0. -1.
         -2   -1    0    0    0  501 -0.00000000000E+00 -0.00000000000E+00 -0.19508691732E+04  0.19508691732E+04  0.00000000000E+00 0.  1.
         23    2    1    2    0    0 -0.77367104788E+03  0.71410789286E+03 -0.97880993427E+03  0.14403049574E+04  0.88839799684E+02 0.  0.
        254    2    1    2    0    0  0.77367104788E+03 -0.71410789286E+03 -0.80442909326E+02  0.14021805453E+04  0.92256286890E+03 0.  0.
         23    2    4    4    0    0  0.75938265874E+03 -0.25943038542E+03  0.23508160874E+03  0.84109406470E+03  0.90607481149E+02 0.  0.
         23    2    4    4    0    0  0.14288389145E+02 -0.45467750744E+03 -0.31552451807E+03  0.56108648063E+03  0.91249785820E+02 0.  0.
          2    1    3    3  502    0 -0.27454473564E+03  0.20157100535E+03 -0.29339217100E+03  0.44953826096E+03  0.00000000000E+00 0. -1.
         -2    1    3    3    0  502 -0.49912631225E+03  0.51253688751E+03 -0.68541776327E+03  0.99076669648E+03  0.00000000000E+00 0.  1.
         11    1    5    5    0    0  0.53594800051E+03 -0.21432316370E+03  0.13889828244E+03  0.59368965851E+03  0.00000000000E+00 0. -1.
        -11    1    5    5    0    0  0.22343465823E+03 -0.45107221719E+02  0.96183326302E+02  0.24740440620E+03  0.00000000000E+00 0.  1.
          1    1    6    6  503    0 -0.23098977991E+02 -0.34164656218E+03 -0.25871629288E+03  0.42917369029E+03  0.00000000000E+00 0. -1.
         -1    1    6    6    0  503  0.37387367136E+02 -0.11303094526E+03 -0.56808225182E+02  0.13191279034E+03  0.00000000000E+00 0.  1.
<mgrwt>
<rscale>  0 0.26377466E+04</rscale>
<asrwt>0</asrwt>
<pdfrwt beam="1">  1        2 0.13717174E+00 0.26377466E+04</pdfrwt>
<pdfrwt beam="2">  1       -2 0.30013371E+00 0.26377466E+04</pdfrwt>
<totfact> 0.83113472E-01</totfact>
</mgrwt>
</event>
<event>
12    2  0.3623523E-008  0.1246010E+04  0.7818608E-02  0.9073510E-01
         -1   -1    0    0    0  501 -0.00000000000E+00  0.00000000000E+00  0.98671861470E+03  0.98671861470E+03  0.00000000000E+00 0.  1.
          1   -1    0    0  501    0  0.00000000000E+00 -0.00000000000E+00 -0.39335983396E+03  0.39335983396E+03  0.00000000000E+00 0. -1.
         23    2    1    2    0    0 -0.21106864863E+03 -0.15194871624E+03  0.27325766406E+03  0.38740206690E+03  0.88160215926E+02 0.  0.
        254    2    1    2    0    0  0.21106864863E+03  0.15194871624E+03  0.32010111668E+03  0.99267638175E+03  0.90294146388E+03 0.  0.
         23    2    4    4    0    0 -0.12743557687E+03  0.31759484149E+03  0.45972851459E+03  0.58050256067E+03  0.92339624285E+02 0.  0.
         23    2    4    4    0    0  0.33850422550E+03 -0.16564612525E+03 -0.13962739791E+03  0.41217382109E+03  0.91475128013E+02 0.  0.
          1    1    3    3  502    0 -0.11757280631E+02 -0.41421842552E+01  0.56705009944E+02  0.58059017310E+02  0.00000000000E+00 0. -1.
         -1    1    3    3    0  502 -0.19931136800E+03 -0.14780653199E+03  0.21655265411E+03  0.32934304959E+03  0.00000000000E+00 0.  1.
         11    1    5    5    0    0 -0.13217621294E+03  0.29458647043E+03  0.45257487779E+03  0.55594582455E+03  0.00000000000E+00 0.  1.
        -11    1    5    5    0    0  0.47406360607E+01  0.23008371062E+02  0.71536368028E+01  0.24556736116E+02  0.00000000000E+00 0. -1.
          1    1    6    6  503    0  0.90019026320E+01 -0.28947968397E+02 -0.42234941626E+01  0.30608120299E+02  0.00000000000E+00 0. -1.
         -1    1    6    6    0  503  0.32950232287E+03 -0.13669815686E+03 -0.13540390375E+03  0.38156570079E+03  0.00000000000E+00 0.  1.
<mgrwt>
<rscale>  0 0.12460104E+04</rscale>
<asrwt>0</asrwt>
<pdfrwt beam="1">  1        1 0.60516897E-01 0.12460104E+04</pdfrwt>
<pdfrwt beam="2">  1       -1 0.15180286E+00 0.12460104E+04</pdfrwt>
<totfact> 0.20444357E+01</totfact>
</mgrwt>
</event>
<event>
12    2  0.3623523E-008  0.1991520E+04  0.7818608E-02  0.8610595E-01
         -2   -1    0    0    0  501 -0.00000000000E+00  0.00000000000E+00  0.86830600610E+03  0.86830600610E+03  0.00000000000E+00 0.  1.
          2   -1    0    0  501    0  0.00000000000E+00 -0.00000000000E+00 -0.11419227255E+04  0.11419227255E+04  0.00000000000E+00 0. -1.
         23    2    1    2    0    0  0.43032381323E+03 -0.52356610221E+03 -0.51690408159E+03  0.85706055677E+03  0.89793768038E+02 0.  0.
        254    2    1    2    0    0 -0.43032381323E+03  0.52356610221E+03  0.24328736223E+03  0.11531681748E+04  0.90072640192E+03 0.  0.
         23    2    4    4    0    0 -0.62591145156E+03  0.26126684454E+03  0.38480251144E+03  0.78523680352E+03  0.92186525870E+02 0.  0.
         23    2    4    4    0    0  0.19558763832E+03  0.26229925768E+03 -0.14151514920E+03  0.36793137128E+03  0.91057847953E+02 0.  0.
          2    1    3    3  502    0  0.18163552363E+03 -0.17190529303E+03 -0.22810820438E+03  0.33849113153E+03  0.00000000000E+00 0. -1.
         -2    1    3    3    0  502  0.24868828960E+03 -0.35166080918E+03 -0.28879587721E+03  0.51856942524E+03  0.00000000000E+00 0.  1.
         11    1    5    5    0    0 -0.49268656032E+03  0.18375412743E+03  0.25838225694E+03  0.58588993572E+03  0.00000000000E+00 0. -1.
        -11    1    5    5    0    0 -0.13322489123E+03  0.77512717103E+02  0.12642025449E+03  0.19934686780E+03  0.00000000000E+00 0.  1.
          1    1    6    6  503    0  0.17226369583E+03  0.23326239550E+03 -0.88574369324E+02  0.30320215196E+03  0.00000000000E+00 0. -1.
         -1    1    6    6    0  503  0.23323942492E+02  0.29036862178E+02 -0.52940779881E+02  0.64729219313E+02  0.00000000000E+00 0.  1.
<mgrwt>
<rscale>  0 0.19915204E+04</rscale>
<asrwt>0</asrwt>
<pdfrwt beam="1">  1        2 0.17568042E+00 0.19915204E+04</pdfrwt>
<pdfrwt beam="2">  1       -2 0.13358554E+00 0.19915204E+04</pdfrwt>
<totfact> 0.77373353E+00</totfact>
</mgrwt>
</event>
<event>
12    2  0.4185372E-008  0.2654983E+04  0.7818608E-02  0.8349761E-01
         -2   -1    0    0    0  501 -0.00000000000E+00  0.00000000000E+00  0.10188015193E+04  0.10188015193E+04  0.00000000000E+00 0.  1.
          2   -1    0    0  501    0  0.00000000000E+00 -0.00000000000E+00 -0.17297118250E+04  0.17297118250E+04  0.00000000000E+00 0. -1.
         23    2    1    2    0    0  0.37799561907E+03 -0.77881321069E+03 -0.11269064990E+04  0.14240521677E+04  0.92604609138E+02 0.  0.
        254    2    1    2    0    0 -0.37799561907E+03  0.77881321069E+03  0.41599619331E+03  0.13244611767E+04  0.91198348146E+03 0.  0.
         23    2    4    4    0    0 -0.35757299850E+03  0.46661713150E+03 -0.19978743359E+03  0.62721947444E+03  0.88877746530E+02 0.  0.
         23    2    4    4    0    0 -0.20422620564E+02  0.31219607919E+03  0.61578362690E+03  0.69724170222E+03  0.95252511057E+02 0.  0.
          3    1    3    3  502    0  0.38295509229E+03 -0.77424584694E+03 -0.11159835936E+04  0.14112160060E+04  0.00000000000E+00 0. -1.
         -3    1    3    3    0  502 -0.49594732260E+01 -0.45673637469E+01 -0.10922905363E+02  0.12836161726E+02  0.00000000000E+00 0.  1.
         11    1    5    5    0    0 -0.12182856143E+03  0.14831503538E+03 -0.22474457912E+02  0.19324763739E+03  0.00000000000E+00 0.  1.
        -11    1    5    5    0    0 -0.23574443707E+03  0.31830209612E+03 -0.17731297568E+03  0.43397183705E+03  0.00000000000E+00 0. -1.
          4    1    6    6  503    0 -0.44416399060E+02  0.27074219620E+03  0.47511574149E+03  0.54864298147E+03  0.00000000000E+00 0. -1.
         -4    1    6    6    0  503  0.23993778495E+02  0.41453882991E+02  0.14066788541E+03  0.14859872075E+03  0.00000000000E+00 0.  1.
<mgrwt>
<rscale>  0 0.26549825E+04</rscale>
<asrwt>0</asrwt>
<pdfrwt beam="1">  1        2 0.26610951E+00 0.26549825E+04</pdfrwt>
<pdfrwt beam="2">  1       -2 0.15673870E+00 0.26549825E+04</pdfrwt>
<totfact> 0.22147691E+00</totfact>
</mgrwt>
</event>
<event>
12    2  0.3623523E-008  0.1113403E+04  0.7818608E-02  0.9192226E-01
         -2   -1    0    0    0  501 -0.00000000000E+00  0.00000000000E+00  0.26973354587E+03  0.26973354587E+03  0.00000000000E+00 0.  1.
          2   -1    0    0  501    0  0.00000000000E+00 -0.00000000000E+00 -0.11489724689E+04  0.11489724689E+04  0.00000000000E+00 0. -1.
         23    2    1    2    0    0 -0.26051706128E+02  0.64628754530E+02 -0.36143193382E+03  0.37939293316E+03  0.91925990039E+02 0.  0.
        254    2    1    2    0    0  0.26051706128E+02 -0.64628754530E+02 -0.51780698919E+03  0.10393130816E+04  0.89843866579E+03 0.  0.
         23    2    4    4    0    0  0.10708970049E+02 -0.65241432645E+02 -0.76620720775E+03  0.77452528846E+03  0.91895651078E+02 0.  0.
         23    2    4    4    0    0  0.15342736079E+02  0.61267811543E+00  0.24840021856E+03  0.26478779312E+03  0.90410905759E+02 0.  0.
          2    1    3    3  502    0  0.13100748915E+02 -0.11621198843E+02 -0.15337401139E+03  0.15437055825E+03  0.00000000000E+00 0.  1.
         -2    1    3    3    0  502 -0.39152455043E+02  0.76249953373E+02 -0.20805792243E+03  0.22502237491E+03  0.00000000000E+00 0. -1.
         11    1    5    5    0    0 -0.14536522114E+01 -0.83665844604E+02 -0.46191127950E+03  0.46942956531E+03  0.00000000000E+00 0.  1.
        -11    1    5    5    0    0  0.12162622261E+02  0.18424411959E+02 -0.30429592825E+03  0.30509572315E+03  0.00000000000E+00 0. -1.
          2    1    6    6  503    0 -0.85021323288E+01  0.42479532261E+02  0.12641506690E+03  0.13363220441E+03  0.00000000000E+00 0.  1.
         -2    1    6    6    0  503  0.23844868408E+02 -0.41866854145E+02  0.12198515165E+03  0.13115558871E+03  0.00000000000E+00 0. -1.
<mgrwt>
<rscale>  0 0.11134027E+04</rscale>
<asrwt>0</asrwt>
<pdfrwt beam="1">  1        2 0.17676500E+00 0.11134027E+04</pdfrwt>
<pdfrwt beam="2">  1       -2 0.41497468E-01 0.11134027E+04</pdfrwt>
<totfact> 0.11089678E+02</totfact>
</mgrwt>
</event>
<event>
12    2  0.3623523E-008  0.3990235E+04  0.7818608E-02  0.8006519E-01
          1   -1    0    0  501    0  0.00000000000E+00  0.00000000000E+00  0.29284136809E+04  0.29284136809E+04  0.00000000000E+00 0. -1.
         -1   -1    0    0    0  501 -0.00000000000E+00 -0.00000000000E+00 -0.13592659293E+04  0.13592659293E+04  0.00000000000E+00 0.  1.
         23    2    1    2    0    0  0.59318257572E+03  0.16136446180E+04 -0.10593809524E+03  0.17248742230E+04  0.90849788691E+02 0.  0.
        254    2    1    2    0    0 -0.59318257572E+03 -0.16136446180E+04  0.16750858469E+04  0.25628053871E+04  0.89796677927E+03 0.  0.
         23    2    4    4    0    0 -0.57229030100E+03 -0.10418830781E+04  0.58407931509E+03  0.13275361397E+04  0.90371559488E+02 0.  0.
         23    2    4    4    0    0 -0.20892274716E+02 -0.57176153986E+03  0.10910065318E+04  0.12352692474E+04  0.90813631751E+02 0.  0.
          4    1    3    3  502    0  0.23501763055E+03  0.70520061944E+03 -0.84720529759E+02  0.74814354805E+03  0.00000000000E+00 0. -1.
         -4    1    3    3    0  502  0.35816494517E+03  0.90844399851E+03 -0.21217565481E+02  0.97673067499E+03  0.00000000000E+00 0.  1.
         11    1    5    5    0    0 -0.54356927616E+03 -0.93894067511E+03  0.52254886680E+03  0.12042152912E+04  0.00000000000E+00 0.  1.
        -11    1    5    5    0    0 -0.28721024841E+02 -0.10294240299E+03  0.61530448288E+02  0.12332084847E+03  0.00000000000E+00 0. -1.
          2    1    6    6  503    0 -0.48856862028E+01 -0.10144052582E+03  0.12770128312E+03  0.16316147805E+03  0.00000000000E+00 0. -1.
         -2    1    6    6    0  503 -0.16006588513E+02 -0.47032101404E+03  0.96330524864E+03  0.10721077694E+04  0.00000000000E+00 0.  1.
<mgrwt>
<rscale>  0 0.39902346E+04</rscale>
<asrwt>0</asrwt>
<pdfrwt beam="1">  1        1 0.45052518E+00 0.39902346E+04</pdfrwt>
<pdfrwt beam="2">  1       -1 0.20911784E+00 0.39902346E+04</pdfrwt>
<totfact> 0.68769880E-02</totfact>
</mgrwt>
</event>
<event>
12    2  0.3623523E-008  0.1936460E+04  0.7818608E-02  0.8636918E-01
          2   -1    0    0  501    0  0.00000000000E+00  0.00000000000E+00  0.14964368585E+04  0.14964368585E+04  0.00000000000E+00 0. -1.
         -2   -1    0    0    0  501 -0.00000000000E+00 -0.00000000000E+00 -0.62646775410E+03  0.62646775410E+03  0.00000000000E+00 0.  1.
         23    2    1    2    0    0 -0.51676283180E+03 -0.53598810377E+03  0.27272259446E+03  0.79823536264E+03  0.92059811716E+02 0.  0.
        254    2    1    2    0    0  0.51676283180E+03  0.53598810377E+03  0.59724650999E+03  0.13246692500E+04  0.91854131997E+03 0.  0.
         23    2    4    4    0    0 -0.82463618252E+00 -0.28082344916E+02  0.54346873576E+03  0.55175730944E+03  0.91041549014E+02 0.  0.
         23    2    4    4    0    0  0.51758746798E+03  0.56407044869E+03  0.53777774224E+02  0.77291194056E+03  0.91807193491E+02 0.  0.
          3    1    3    3  502    0 -0.17560961430E+03 -0.17058659538E+03  0.13559444637E+03  0.27986492643E+03  0.00000000000E+00 0. -1.
         -3    1    3    3    0  502 -0.34115321750E+03 -0.36540150839E+03  0.13712814809E+03  0.51837043622E+03  0.00000000000E+00 0.  1.
         11    1    5    5    0    0  0.43293386020E+02 -0.81626956194E+00  0.26072516623E+03  0.26429641669E+03  0.00000000000E+00 0. -1.
        -11    1    5    5    0    0 -0.44118022203E+02 -0.27266075354E+02  0.28274356953E+03  0.28746089274E+03  0.00000000000E+00 0.  1.
          4    1    6    6  503    0  0.32428108093E+03  0.35251943581E+03 -0.11003671313E+02  0.47911298548E+03  0.00000000000E+00 0. -1.
         -4    1    6    6    0  503  0.19330638704E+03  0.21155101288E+03  0.64781445538E+02  0.29379895508E+03  0.00000000000E+00 0.  1.
<mgrwt>
<rscale>  0 0.19364601E+04</rscale>
<asrwt>0</asrwt>
<pdfrwt beam="1">  1        2 0.23022105E+00 0.19364601E+04</pdfrwt>
<pdfrwt beam="2">  1       -2 0.96379655E-01 0.19364601E+04</pdfrwt>
<totfact> 0.10731515E+01</totfact>
</mgrwt>
</event>
<event>
12    2  0.3623523E-008  0.1652871E+04  0.7818608E-02  0.8788710E-01
         -1   -1    0    0    0  501 -0.00000000000E+00  0.00000000000E+00  0.42909266089E+03  0.42909266089E+03  0.00000000000E+00 0.  1.
          1   -1    0    0  501    0  0.00000000000E+00 -0.00000000000E+00 -0.15917206129E+04  0.15917206129E+04  0.00000000000E+00 0. -1.
         23    2    1    2    0    0  0.28113585445E+03  0.42904806623E+03 -0.83404776905E+02  0.52778724111E+03  0.92105392241E+02 0.  0.
        254    2    1    2    0    0 -0.28113585445E+03 -0.42904806623E+03 -0.10792231751E+04  0.14930260327E+04  0.89514493844E+03 0.  0.
         23    2    4    4    0    0  0.17019142713E+02  0.25971034081E+03 -0.30771771016E+03  0.41291657419E+03  0.89837607686E+02 0.  0.
         23    2    4    4    0    0 -0.29815499716E+03 -0.68875840704E+03 -0.77150546498E+03  0.10801094585E+04  0.90173246006E+02 0.  0.
          1    1    3    3  502    0  0.32439950502E+02  0.20512569115E+02 -0.25351021185E+02  0.45997719024E+02  0.00000000000E+00 0. -1.
         -1    1    3    3    0  502  0.24869590395E+03  0.40853549711E+03 -0.58053755719E+02  0.48178952209E+03  0.00000000000E+00 0.  1.
         11    1    5    5    0    0  0.53757431772E+02  0.16484293535E+03 -0.20176930319E+03  0.26603365673E+03  0.00000000000E+00 0.  1.
        -11    1    5    5    0    0 -0.36738289059E+02  0.94867405461E+02 -0.10594840697E+03  0.14688291746E+03  0.00000000000E+00 0. -1.
          2    1    6    6  503    0  0.61946367180E+01 -0.23205728312E+02 -0.27015973844E+02  0.36148889240E+02  0.00000000000E+00 0. -1.
         -2    1    6    6    0  503 -0.30434963388E+03 -0.66555267872E+03 -0.74448949113E+03  0.10439605693E+04  0.00000000000E+00 0.  1.
<mgrwt>
<rscale>  0 0.16528710E+04</rscale>
<asrwt>0</asrwt>
<pdfrwt beam="1">  1        1 0.24488009E+00 0.16528710E+04</pdfrwt>
<pdfrwt beam="2">  1       -1 0.66014257E-01 0.16528710E+04</pdfrwt>
<totfact> 0.12561164E+01</totfact>
</mgrwt>
</event>
<event>
12    2  0.3623523E-008  0.1982843E+04  0.7818608E-02  0.8614684E-01
         -3   -1    0    0    0  501 -0.00000000000E+00  0.00000000000E+00  0.55922089362E+03  0.55922089362E+03  0.00000000000E+00 0.  1.
          3   -1    0    0  501    0  0.00000000000E+00 -0.00000000000E+00 -0.17576533964E+04  0.17576533964E+04  0.00000000000E+00 0. -1.
         23    2    1    2    0    0 -0.15029242014E+03 -0.63958967898E+03  0.13951680697E+02  0.66334012373E+03  0.90347669299E+02 0.  0.
        254    2    1    2    0    0  0.15029242014E+03  0.63958967898E+03 -0.12123841835E+04  0.16535341663E+04  0.91248948583E+03 0.  0.
         23    2    4    4    0    0  0.20127446236E+03  0.23643632378E+03  0.46728579617E+02  0.32759017746E+03  0.93371407919E+02 0.  0.
         23    2    4    4    0    0 -0.50982042219E+02  0.40315335519E+03 -0.12591127631E+04  0.13259439888E+04  0.87353963299E+02 0.  0.
          1    1    3    3  502    0 -0.17720863295E+02 -0.19614191313E+02 -0.11525647898E+02  0.28837233852E+02  0.00000000000E+00 0. -1.
         -1    1    3    3    0  502 -0.13257155684E+03 -0.61997548766E+03  0.25477328595E+02  0.63450288988E+03  0.00000000000E+00 0.  1.
         11    1    5    5    0    0  0.36745878207E+02  0.41210174516E+01 -0.76714254873E+01  0.37763648117E+02  0.00000000000E+00 0. -1.
        -11    1    5    5    0    0  0.16452858415E+03  0.23231530633E+03  0.54400005105E+02  0.28982652935E+03  0.00000000000E+00 0.  1.
          1    1    6    6  503    0 -0.72620697398E+02  0.23127697658E+03 -0.73163171474E+03  0.77074494587E+03  0.00000000000E+00 0. -1.
         -1    1    6    6    0  503  0.21638655178E+02  0.17187637862E+03 -0.52748104834E+03  0.55519904294E+03  0.00000000000E+00 0.  1.
<mgrwt>
<rscale>  0 0.19828429E+04</rscale>
<asrwt>0</asrwt>
<pdfrwt beam="1">  1        3 0.27040821E+00 0.19828429E+04</pdfrwt>
<pdfrwt beam="2">  1       -3 0.86033985E-01 0.19828429E+04</pdfrwt>
<totfact> 0.16990415E-01</totfact>
</mgrwt>
</event>
<event>
12    2  0.3623523E-008  0.1690230E+04  0.7818608E-02  0.8766956E-01
         -2   -1    0    0    0  501 -0.00000000000E+00  0.00000000000E+00  0.52184485830E+03  0.52184485830E+03  0.00000000000E+00 0.  1.
          2   -1    0    0  501    0  0.00000000000E+00 -0.00000000000E+00 -0.13686437163E+04  0.13686437163E+04  0.00000000000E+00 0. -1.
         23    2    1    2    0    0 -0.21327769493E+03 -0.51290756467E+03 -0.56415741309E+03  0.79693673856E+03  0.90956217283E+02 0.  0.
        254    2    1    2    0    0  0.21327769493E+03  0.51290756467E+03 -0.28264144493E+03  0.10935518361E+04  0.89855878312E+03 0.  0.
         23    2    4    4    0    0  0.40024446759E+03 -0.27908694352E+02  0.68667395224E+02  0.41613781796E+03  0.86492446566E+02 0.  0.
         23    2    4    4    0    0 -0.18696677266E+03  0.54081625902E+03 -0.35130884016E+03  0.67741401811E+03  0.89627287473E+02 0.  0.
          4    1    3    3  502    0 -0.21024555031E+03 -0.42236284542E+03 -0.48513904754E+03  0.67672258723E+03  0.00000000000E+00 0.  1.
         -4    1    3    3    0  502 -0.30321446229E+01 -0.90544719250E+02 -0.79018365554E+02  0.12021415133E+03  0.00000000000E+00 0. -1.
         11    1    5    5    0    0  0.16684384012E+01  0.67453174151E+01  0.94039760495E+01  0.11692636968E+02  0.00000000000E+00 0.  1.
        -11    1    5    5    0    0  0.39857602919E+03 -0.34654011767E+02  0.59263419175E+02  0.40444518099E+03  0.00000000000E+00 0. -1.
          2    1    6    6  503    0 -0.16860013143E+03  0.40742415070E+03 -0.23588143842E+03  0.50006049222E+03  0.00000000000E+00 0. -1.
         -2    1    6    6    0  503 -0.18366641222E+02  0.13339210832E+03 -0.11542740173E+03  0.17735352588E+03  0.00000000000E+00 0.  1.
<mgrwt>
<rscale>  0 0.16902304E+04</rscale>
<asrwt>0</asrwt>
<pdfrwt beam="1">  1        2 0.21056057E+00 0.16902304E+04</pdfrwt>
<pdfrwt beam="2">  1       -2 0.80283826E-01 0.16902304E+04</pdfrwt>
<totfact> 0.19698106E+01</totfact>
</mgrwt>
</event>
<event>
12    2  0.3623523E-008  0.2203456E+04  0.7818608E-02  0.8516991E-01
         -2   -1    0    0    0  501 -0.00000000000E+00  0.00000000000E+00  0.93000709148E+03  0.93000709148E+03  0.00000000000E+00 0.  1.
          2   -1    0    0  501    0  0.00000000000E+00 -0.00000000000E+00 -0.13051565781E+04  0.13051565781E+04  0.00000000000E+00 0. -1.
         23    2    1    2    0    0 -0.72935918815E+03 -0.29667382532E+03  0.31017940383E+03  0.85166891376E+03  0.95647750318E+02 0.  0.
        254    2    1    2    0    0  0.72935918815E+03  0.29667382532E+03 -0.68532889041E+03  0.13834947558E+04  0.90796578529E+03 0.  0.
         23    2    4    4    0    0  0.57575505345E+03  0.16287924146E+03 -0.89309423829E+03  0.10788536805E+04  0.91018770544E+02 0.  0.
         23    2    4    4    0    0  0.15360413470E+03  0.13379458385E+03  0.20776534788E+03  0.30464107527E+03  0.90247017115E+02 0.  0.
          1    1    3    3  502    0 -0.40903410142E+02 -0.21188919228E+02 -0.41881742442E+01  0.46255811125E+02  0.00000000000E+00 0. -1.
         -1    1    3    3    0  502 -0.68845577801E+03 -0.27548490609E+03  0.31436757808E+03  0.80541310264E+03  0.00000000000E+00 0.  1.
         11    1    5    5    0    0  0.20301967763E+03  0.10068473293E+03 -0.30942432296E+03  0.38353333179E+03  0.00000000000E+00 0. -1.
        -11    1    5    5    0    0  0.37273537582E+03  0.62194508535E+02 -0.58366991532E+03  0.69532034871E+03  0.00000000000E+00 0.  1.
          3    1    6    6  503    0  0.94224511108E+02  0.59692954184E+02  0.16808105713E+03  0.20172443838E+03  0.00000000000E+00 0. -1.
         -3    1    6    6    0  503  0.59379623596E+02  0.74101629668E+02  0.39684290751E+02  0.10291663690E+03  0.00000000000E+00 0.  1.
<mgrwt>
<rscale>  0 0.22034563E+04</rscale>
<asrwt>0</asrwt>
<pdfrwt beam="1">  1        2 0.20079332E+00 0.22034563E+04</pdfrwt>
<pdfrwt beam="2">  1       -2 0.14307802E+00 0.22034563E+04</pdfrwt>
<totfact> 0.50915869E+00</totfact>
</mgrwt>
</event>
<event>
12    2  0.3623523E-008  0.1169329E+04  0.7818608E-02  0.9140135E-01
          2   -1    0    0  501    0  0.00000000000E+00  0.00000000000E+00  0.24057475770E+04  0.24057475770E+04  0.00000000000E+00 0. -1.
         -2   -1    0    0    0  501 -0.00000000000E+00 -0.00000000000E+00 -0.14208993385E+03  0.14208993385E+03  0.00000000000E+00 0.  1.
         23    2    1    2    0    0 -0.21849015062E+03  0.11941536175E+03  0.63790208571E+03  0.69050017912E+03  0.88732473589E+02 0.  0.
        254    2    1    2    0    0  0.21849015062E+03 -0.11941536175E+03  0.16257555574E+04  0.18573373317E+04  0.86291532421E+03 0.  0.
         23    2    4    4    0    0 -0.16142822996E+03 -0.37023024590E+03  0.57890947313E+03  0.71206674597E+03  0.93666238494E+02 0.  0.
         23    2    4    4    0    0  0.37991838058E+03  0.25081488414E+03  0.10468460843E+04  0.11452705857E+04  0.92260004166E+02 0.  0.
          3    1    3    3  502    0 -0.71805079548E+02  0.46928690623E+02  0.33966616998E+03  0.35033038475E+03  0.00000000000E+00 0. -1.
         -3    1    3    3    0  502 -0.14668507108E+03  0.72486671130E+02  0.29823591573E+03  0.34016979436E+03  0.00000000000E+00 0.  1.
         11    1    5    5    0    0 -0.12953389946E+03 -0.27251695931E+03  0.49345793228E+03  0.57839887201E+03  0.00000000000E+00 0. -1.
        -11    1    5    5    0    0 -0.31894330500E+02 -0.97713286592E+02  0.85451540855E+02  0.13366787396E+03  0.00000000000E+00 0.  1.
          3    1    6    6  503    0  0.19620324885E+03  0.75230056454E+02  0.49209828433E+03  0.53508503781E+03  0.00000000000E+00 0. -1.
         -3    1    6    6    0  503  0.18371513173E+03  0.17558482769E+03  0.55474779994E+03  0.61018554791E+03  0.00000000000E+00 0.  1.
<mgrwt>
<rscale>  0 0.11693289E+04</rscale>
<asrwt>0</asrwt>
<pdfrwt beam="1">  1        2 0.37011498E+00 0.11693289E+04</pdfrwt>
<pdfrwt beam="2">  1       -2 0.21859992E-01 0.11693289E+04</pdfrwt>
<totfact> 0.71647581E+01</totfact>
</mgrwt>
</event>
<event>
12    2  0.3623523E-008  0.1330854E+04  0.7818608E-02  0.9005450E-01
         -2   -1    0    0    0  501 -0.00000000000E+00  0.00000000000E+00  0.10379270130E+04  0.10379270130E+04  0.00000000000E+00 0. -1.
          2   -1    0    0  501    0  0.00000000000E+00 -0.00000000000E+00 -0.42661266239E+03  0.42661266239E+03  0.00000000000E+00 0.  1.
         23    2    1    2    0    0 -0.35000868216E+03 -0.14760459335E+03  0.23269070390E+03  0.45414125004E+03  0.88352236775E+02 0.  0.
        254    2    1    2    0    0  0.35000868216E+03  0.14760459335E+03  0.37862364669E+03  0.10103984253E+04  0.85630363686E+03 0.  0.
         23    2    4    4    0    0  0.61666283229E+03  0.14894119615E+03  0.34253775571E+03  0.72669313981E+03  0.91072919788E+02 0.  0.
         23    2    4    4    0    0 -0.26665415012E+03 -0.13366028096E+01  0.36085890973E+02  0.28370528551E+03  0.89890351069E+02 0.  0.
          4    1    3    3  502    0 -0.27814565128E+03 -0.76938742529E+02  0.16104919177E+03  0.33048663452E+03  0.00000000000E+00 0.  1.
         -4    1    3    3    0  502 -0.71863030883E+02 -0.70665850816E+02  0.71641512133E+02  0.12365461552E+03  0.00000000000E+00 0. -1.
         11    1    5    5    0    0  0.13867195684E+03  0.22707124698E+02  0.36232246335E+02  0.14511478491E+03  0.00000000000E+00 0. -1.
        -11    1    5    5    0    0  0.47799087545E+03  0.12623407146E+03  0.30630550938E+03  0.58157835490E+03  0.00000000000E+00 0.  1.
          2    1    6    6  503    0 -0.75560214845E+01 -0.19949518198E+02 -0.72148497355E+00  0.21344724819E+02  0.00000000000E+00 0. -1.
         -2    1    6    6    0  503 -0.25909812864E+03  0.18612915389E+02  0.36807375947E+02  0.26236056069E+03  0.00000000000E+00 0.  1.
<mgrwt>
<rscale>  0 0.13308536E+04</rscale>
<asrwt>0</asrwt>
<pdfrwt beam="1">  1        2 0.65632718E-01 0.13308536E+04</pdfrwt>
<pdfrwt beam="2">  1       -2 0.15968108E+00 0.13308536E+04</pdfrwt>
<totfact> 0.18290262E+01</totfact>
</mgrwt>
</event>
<event>
12    2  0.3623523E-008  0.1838572E+04  0.7818608E-02  0.8686052E-01
          1   -1    0    0  501    0  0.00000000000E+00  0.00000000000E+00  0.17060732449E+04  0.17060732449E+04  0.00000000000E+00 0. -1.
         -1   -1    0    0    0  501 -0.00000000000E+00 -0.00000000000E+00 -0.49533998211E+03  0.49533998211E+03  0.00000000000E+00 0.  1.
         23    2    1    2    0    0  0.44445069066E+03  0.53169370486E+03  0.58751294371E+03  0.91345153757E+03  0.94803165820E+02 0.  0.
        254    2    1    2    0    0 -0.44445069066E+03 -0.53169370486E+03  0.62322031911E+03  0.12879616895E+04  0.88893595673E+03 0.  0.
         23    2    4    4    0    0 -0.78207849183E+02 -0.37231221644E+03  0.76067478711E+03  0.85519306407E+03  0.89421423099E+02 0.  0.
         23    2    4    4    0    0 -0.36624284148E+03 -0.15938148842E+03 -0.13745446800E+03  0.43276862539E+03  0.94120532121E+02 0.  0.
          3    1    3    3  502    0  0.35569904296E+03  0.42939111278E+03  0.42017265889E+03  0.69817161226E+03  0.00000000000E+00 0. -1.
         -3    1    3    3    0  502  0.88751647706E+02  0.10230259208E+03  0.16734028482E+03  0.21527992531E+03  0.00000000000E+00 0.  1.
         11    1    5    5    0    0 -0.27491756452E+02 -0.27823468814E+03  0.60355659805E+03  0.66516983201E+03  0.00000000000E+00 0.  1.
        -11    1    5    5    0    0 -0.50716092731E+02 -0.94077528293E+02  0.15711818906E+03  0.19002323207E+03  0.00000000000E+00 0. -1.
          3    1    6    6  503    0 -0.10085004719E+03 -0.22213096578E+02  0.15244756616E+01  0.10327864108E+03  0.00000000000E+00 0. -1.
         -3    1    6    6    0  503 -0.26539279429E+03 -0.13716839184E+03 -0.13897894366E+03  0.32948998431E+03  0.00000000000E+00 0.  1.
<mgrwt>
<rscale>  0 0.18385715E+04</rscale>
<asrwt>0</asrwt>
<pdfrwt beam="1">  1        1 0.26247281E+00 0.18385715E+04</pdfrwt>
<pdfrwt beam="2">  1       -1 0.76206152E-01 0.18385715E+04</pdfrwt>
<totfact> 0.76758965E+00</totfact>
</mgrwt>
</event>
<event>
12    2  0.3623523E-008  0.1302770E+04  0.7818608E-02  0.9027372E-01
          2   -1    0    0  501    0  0.00000000000E+00  0.00000000000E+00  0.13876851550E+04  0.13876851550E+04  0.00000000000E+00 0. -1.
         -2   -1    0    0    0  501 -0.00000000000E+00 -0.00000000000E+00 -0.30576254784E+03  0.30576254784E+03  0.00000000000E+00 0.  1.
         23    2    1    2    0    0  0.43688756065E+02 -0.15078296283E+03  0.66743952733E+03  0.69177321736E+03  0.91817494625E+02 0.  0.
        254    2    1    2    0    0 -0.43688756065E+02  0.15078296283E+03  0.41448307982E+03  0.10016744855E+04  0.89828244006E+03 0.  0.
         23    2    4    4    0    0 -0.20251227612E+03  0.31138484392E+03 -0.13105731991E+03  0.40399407315E+03  0.89796698374E+02 0.  0.
         23    2    4    4    0    0  0.15882352006E+03 -0.16060188109E+03  0.54554039973E+03  0.59768041233E+03  0.92680487765E+02 0.  0.
          1    1    3    3  502    0  0.15762925077E+02 -0.83437671828E+02  0.52435040289E+03  0.53118138136E+03  0.00000000000E+00 0. -1.
         -1    1    3    3    0  502  0.27925830988E+02 -0.67345291002E+02  0.14308912444E+03  0.16059183600E+03  0.00000000000E+00 0.  1.
         11    1    5    5    0    0 -0.19789100199E+03  0.26336330462E+03 -0.92302669040E+02  0.34211235231E+03  0.00000000000E+00 0. -1.
        -11    1    5    5    0    0 -0.46212741360E+01  0.48021539296E+02 -0.38754650868E+02  0.61881720846E+02  0.00000000000E+00 0.  1.
          3    1    6    6  503    0  0.18191731837E+02 -0.77807141105E+02  0.15412710196E+03  0.17360891069E+03  0.00000000000E+00 0. -1.
         -3    1    6    6    0  503  0.14063178822E+03 -0.82794739981E+02  0.39141329777E+03  0.42407150163E+03  0.00000000000E+00 0.  1.
<mgrwt>
<rscale>  0 0.13027696E+04</rscale>
<asrwt>0</asrwt>
<pdfrwt beam="1">  1        2 0.21349002E+00 0.13027696E+04</pdfrwt>
<pdfrwt beam="2">  1       -2 0.47040393E-01 0.13027696E+04</pdfrwt>
<totfact> 0.61720933E+01</totfact>
</mgrwt>
</event>
<event>
12    2  0.3623523E-008  0.2702349E+04  0.7818608E-02  0.8334243E-01
         -1   -1    0    0    0  501 -0.00000000000E+00  0.00000000000E+00  0.78232641624E+03  0.78232641624E+03  0.00000000000E+00 0.  1.
          1   -1    0    0  501    0  0.00000000000E+00 -0.00000000000E+00 -0.23336462535E+04  0.23336462535E+04  0.00000000000E+00 0. -1.
         23    2    1    2    0    0  0.43380233635E+02 -0.45656121663E+03 -0.19698185117E+04  0.20242353396E+04  0.83748144363E+02 0.  0.
        254    2    1    2    0    0 -0.43380233635E+02  0.45656121663E+03  0.41849867447E+03  0.10917373302E+04  0.89800850125E+03 0.  0.
         23    2    4    4    0    0 -0.56976012771E+02 -0.51682257536E+02  0.54698847554E+03  0.55972752747E+03  0.90449935608E+02 0.  0.
         23    2    4    4    0    0  0.13595779136E+02  0.50824347416E+03 -0.12848980108E+03  0.53200980269E+03  0.89602047587E+02 0.  0.
          4    1    3    3  502    0  0.11357028873E+02 -0.35260146183E+03 -0.16166051885E+04  0.16546507512E+04  0.00000000000E+00 0. -1.
         -4    1    3    3    0  502  0.32023204762E+02 -0.10395975480E+03 -0.35321332325E+03  0.36958458840E+03  0.00000000000E+00 0.  1.
         11    1    5    5    0    0 -0.30962924270E+02  0.16754346324E+02  0.85449216801E+02  0.92417419635E+02  0.00000000000E+00 0.  1.
        -11    1    5    5    0    0 -0.26013088500E+02 -0.68436603860E+02  0.46153925874E+03  0.46731010783E+03  0.00000000000E+00 0. -1.
          3    1    6    6  503    0 -0.52259009782E+01  0.27925017597E+03 -0.11437691121E+03  0.30181127984E+03  0.00000000000E+00 0. -1.
         -3    1    6    6    0  503  0.18821680114E+02  0.22899329820E+03 -0.14112889868E+02  0.23019852285E+03  0.00000000000E+00 0.  1.
<mgrwt>
<rscale>  0 0.27023494E+04</rscale>
<asrwt>0</asrwt>
<pdfrwt beam="1">  1        1 0.35902250E+00 0.27023494E+04</pdfrwt>
<pdfrwt beam="2">  1       -1 0.12035791E+00 0.27023494E+04</pdfrwt>
<totfact> 0.94651099E-01</totfact>
</mgrwt>
</event>
<event>
12    2  0.3623523E-008  0.1446178E+04  0.7818608E-02  0.8921055E-01
         -2   -1    0    0    0  501 -0.00000000000E+00  0.00000000000E+00  0.51742280454E+03  0.51742280454E+03  0.00000000000E+00 0.  1.
          2   -1    0    0  501    0  0.00000000000E+00 -0.00000000000E+00 -0.10105037258E+04  0.10105037258E+04  0.00000000000E+00 0. -1.
         23    2    1    2    0    0 -0.24533542528E+03  0.17551085457E+03 -0.48310434541E+03  0.57680576502E+03  0.91222535826E+02 0.  0.
        254    2    1    2    0    0  0.24533542528E+03 -0.17551085457E+03 -0.99765758532E+01  0.95112076532E+03  0.90196321831E+03 0.  0.
         23    2    4    4    0    0  0.35068090618E+03  0.27472373827E+03  0.10444866905E+03  0.46654604580E+03  0.91134285889E+02 0.  0.
         23    2    4    4    0    0 -0.10534548090E+03 -0.45023459283E+03 -0.11442524490E+03  0.48457471951E+03  0.88941909095E+02 0.  0.
          4    1    3    3  502    0 -0.21233210599E+03  0.12676042444E+03 -0.43665200837E+03  0.50181481131E+03  0.00000000000E+00 0. -1.
         -4    1    3    3    0  502 -0.33003319291E+02  0.48750430130E+02 -0.46452337034E+02  0.74990953708E+02  0.00000000000E+00 0.  1.
         11    1    5    5    0    0  0.35003548744E+03  0.25377641063E+03  0.91549992256E+02  0.44193745049E+03  0.00000000000E+00 0. -1.
        -11    1    5    5    0    0  0.64541873612E+00  0.20947327636E+02  0.12898676794E+02  0.24608595317E+02  0.00000000000E+00 0.  1.
          3    1    6    6  503    0 -0.10086110457E+03 -0.25451725172E+03 -0.48726398927E+02  0.27807598924E+03  0.00000000000E+00 0. -1.
         -3    1    6    6    0  503 -0.44843763245E+01 -0.19571734111E+03 -0.65698845977E+02  0.20649873028E+03  0.00000000000E+00 0.  1.
<mgrwt>
<rscale>  0 0.14461780E+04</rscale>
<asrwt>0</asrwt>
<pdfrwt beam="1">  1        2 0.15546211E+00 0.14461780E+04</pdfrwt>
<pdfrwt beam="2">  1       -2 0.79603509E-01 0.14461780E+04</pdfrwt>
<totfact> 0.33636842E+01</totfact>
</mgrwt>
</event>
<event>
12    2  0.3623523E-008  0.2450744E+04  0.7818608E-02  0.8420746E-01
          1   -1    0    0  501    0  0.00000000000E+00  0.00000000000E+00  0.93647876712E+03  0.93647876712E+03  0.00000000000E+00 0. -1.
         -1   -1    0    0    0  501 -0.00000000000E+00 -0.00000000000E+00 -0.16033854821E+04  0.16033854821E+04  0.00000000000E+00 0.  1.
         23    2    1    2    0    0  0.58466532884E+03 -0.70919842906E+02  0.61691064063E+03  0.85773492821E+03  0.90924681357E+02 0.  0.
        254    2    1    2    0    0 -0.58466532884E+03  0.70919842906E+02 -0.12838173556E+04  0.16821293210E+04  0.91351457525E+03 0.  0.
         23    2    4    4    0    0  0.59721761098E+02  0.18933938786E+03 -0.88009289026E+03  0.90725597413E+03  0.95570992275E+02 0.  0.
         23    2    4    4    0    0 -0.64438708994E+03 -0.11841954496E+03 -0.40372446538E+03  0.77487334691E+03  0.90428698408E+02 0.  0.
          4    1    3    3  502    0  0.52661063227E+03 -0.53674562338E+02  0.58620756001E+03  0.78983480557E+03  0.00000000000E+00 0. -1.
         -4    1    3    3    0  502  0.58054696571E+02 -0.17245280568E+02  0.30703080614E+02  0.67900122644E+02  0.00000000000E+00 0.  1.
         11    1    5    5    0    0  0.19289032930E+02 -0.64680749329E+01 -0.87469095539E+02  0.89803927860E+02  0.00000000000E+00 0.  1.
        -11    1    5    5    0    0  0.40432728168E+02  0.19580746280E+03 -0.79262379472E+03  0.81745204627E+03  0.00000000000E+00 0. -1.
          3    1    6    6  503    0 -0.55702592866E+03 -0.72855627268E+02 -0.32715106147E+03  0.65008741308E+03  0.00000000000E+00 0. -1.
         -3    1    6    6    0  503 -0.87361161278E+02 -0.45563917689E+02 -0.76573403909E+02  0.12478593383E+03  0.00000000000E+00 0.  1.
<mgrwt>
<rscale>  0 0.24507439E+04</rscale>
<asrwt>0</asrwt>
<pdfrwt beam="1">  1        1 0.14407366E+00 0.24507439E+04</pdfrwt>
<pdfrwt beam="2">  1       -1 0.24667469E+00 0.24507439E+04</pdfrwt>
<totfact> 0.11113703E+00</totfact>
</mgrwt>
</event>
<event>
12    2  0.3623523E-008  0.1600597E+04  0.7818608E-02  0.8820181E-01
         -1   -1    0    0    0  501 -0.00000000000E+00  0.00000000000E+00  0.42626848031E+03  0.42626848031E+03  0.00000000000E+00 0.  1.
          1   -1    0    0  501    0  0.00000000000E+00 -0.00000000000E+00 -0.15025220980E+04  0.15025220980E+04  0.00000000000E+00 0. -1.
         23    2    1    2    0    0  0.52847645761E+03  0.61393128864E+02 -0.28138688563E+03  0.60993082079E+03  0.98896634058E+02 0.  0.
        254    2    1    2    0    0 -0.52847645761E+03 -0.61393128864E+02 -0.79486673209E+03  0.13188597576E+04  0.90803163810E+03 0.  0.
         23    2    4    4    0    0  0.10884970735E+03 -0.12474561843E+03  0.99194935989E+02  0.21523597749E+03  0.95274144294E+02 0.  0.
         23    2    4    4    0    0 -0.63732616496E+03  0.63352489569E+02 -0.89406166808E+03  0.11036237801E+04  0.91874931971E+02 0.  0.
          4    1    3    3  502    0  0.39789025572E+03  0.99794571146E+01 -0.18016458720E+03  0.43689303455E+03  0.00000000000E+00 0.  1.
         -4    1    3    3    0  502  0.13058620189E+03  0.51413671749E+02 -0.10122229843E+03  0.17303778624E+03  0.00000000000E+00 0. -1.
         11    1    5    5    0    0  0.91008585413E+02 -0.11563152752E+03  0.11733925776E+03  0.18820657318E+03  0.00000000000E+00 0.  1.
        -11    1    5    5    0    0  0.17841121937E+02 -0.91140909104E+01 -0.18144321766E+02  0.27029404312E+02  0.00000000000E+00 0. -1.
          3    1    6    6  503    0 -0.24395634546E+03 -0.20480743535E+02 -0.34041004769E+03  0.41930079885E+03  0.00000000000E+00 0. -1.
         -3    1    6    6    0  503 -0.39336981950E+03  0.83833233104E+02 -0.55365162039E+03  0.68432298122E+03  0.00000000000E+00 0.  1.
<mgrwt>
<rscale>  0 0.16005972E+04</rscale>
<asrwt>0</asrwt>
<pdfrwt beam="1">  1        1 0.23115725E+00 0.16005972E+04</pdfrwt>
<pdfrwt beam="2">  1       -1 0.65579766E-01 0.16005972E+04</pdfrwt>
<totfact> 0.14733714E+01</totfact>
</mgrwt>
</event>
<event>
12    2  0.3623523E-008  0.1267012E+04  0.7818608E-02  0.9056142E-01
          2   -1    0    0  501    0  0.00000000000E+00  0.00000000000E+00  0.40887361994E+04  0.40887361994E+04  0.00000000000E+00 0. -1.
         -2   -1    0    0    0  501 -0.00000000000E+00 -0.00000000000E+00 -0.98154922238E+02  0.98154922238E+02  0.00000000000E+00 0.  1.
         23    2    1    2    0    0 -0.35923884068E+02 -0.96429676139E+01  0.20237038364E+04  0.20260070948E+04  0.89129223965E+02 0.  0.
        254    2    1    2    0    0  0.35923884068E+02  0.96429676139E+01  0.19668774408E+04  0.21608840268E+04  0.89410815793E+03 0.  0.
         23    2    4    4    0    0 -0.11340083789E+03 -0.40152654376E+03  0.72821734722E+03  0.84413941398E+03  0.90484971499E+02 0.  0.
         23    2    4    4    0    0  0.14932472196E+03  0.41116951137E+03  0.12386600936E+04  0.13167446128E+04  0.90439529016E+02 0.  0.
          3    1    3    3  502    0 -0.28946982826E+02 -0.45530920103E+02  0.15302046043E+04  0.15311554864E+04  0.00000000000E+00 0. -1.
         -3    1    3    3    0  502 -0.69769012424E+01  0.35887952489E+02  0.49349923209E+03  0.49485160842E+03  0.00000000000E+00 0.  1.
         11    1    5    5    0    0 -0.10717106069E+03 -0.34942059674E+03  0.56692779265E+03  0.67452762119E+03  0.00000000000E+00 0. -1.
        -11    1    5    5    0    0 -0.62297772031E+01 -0.52105947017E+02  0.16128955457E+03  0.16961179279E+03  0.00000000000E+00 0.  1.
          1    1    6    6  503    0  0.11050934575E+03  0.31563256478E+03  0.10468980350E+04  0.10990139795E+04  0.00000000000E+00 0. -1.
         -1    1    6    6    0  503  0.38815376207E+02  0.95536946594E+02  0.19176205857E+03  0.21773063336E+03  0.00000000000E+00 0.  1.
<mgrwt>
<rscale>  0 0.12670116E+04</rscale>
<asrwt>0</asrwt>
<pdfrwt beam="1">  1        2 0.62903621E+00 0.12670116E+04</pdfrwt>
<pdfrwt beam="2">  1       -2 0.15100760E-01 0.12670116E+04</pdfrwt>
<totfact> 0.10247519E+01</totfact>
</mgrwt>
</event>
<event>
12    2  0.3623523E-008  0.2279800E+04  0.7818608E-02  0.8485929E-01
          2   -1    0    0  501    0  0.00000000000E+00  0.00000000000E+00  0.14583625403E+04  0.14583625403E+04  0.00000000000E+00 0. -1.
         -2   -1    0    0    0  501 -0.00000000000E+00 -0.00000000000E+00 -0.89097977700E+03  0.89097977700E+03  0.00000000000E+00 0.  1.
         23    2    1    2    0    0  0.33461161833E+03  0.45583582488E+03  0.10367934078E+04  0.11833536263E+04  0.75059976550E+02 0.  0.
        254    2    1    2    0    0 -0.33461161833E+03 -0.45583582488E+03 -0.46941064453E+03  0.11659886910E+04  0.90522485598E+03 0.  0.
         23    2    4    4    0    0 -0.23584435997E+03 -0.27659328399E+03  0.22444301802E+03  0.43695004323E+03  0.91783795191E+02 0.  0.
         23    2    4    4    0    0 -0.98767258360E+02 -0.17924254088E+03 -0.69385366255E+03  0.72903864773E+03  0.90452114704E+02 0.  0.
          3    1    3    3  502    0  0.21802276250E+03  0.31200831611E+03  0.62382800189E+03  0.73078347698E+03  0.00000000000E+00 0. -1.
         -3    1    3    3    0  502  0.11658885583E+03  0.14382750877E+03  0.41296540594E+03  0.45257014936E+03  0.00000000000E+00 0.  1.
         11    1    5    5    0    0 -0.12814992524E+03 -0.92178215582E+02  0.12509221317E+03  0.20141322837E+03  0.00000000000E+00 0. -1.
        -11    1    5    5    0    0 -0.10769443473E+03 -0.18441506841E+03  0.99350804855E+02  0.23553681486E+03  0.00000000000E+00 0.  1.
          1    1    6    6  503    0 -0.94210362177E+02 -0.13971117072E+03 -0.64159363315E+03  0.66335299326E+03  0.00000000000E+00 0. -1.
         -1    1    6    6    0  503 -0.45568961822E+01 -0.39531370162E+02 -0.52260029401E+02  0.65685654467E+02  0.00000000000E+00 0.  1.
<mgrwt>
<rscale>  0 0.22797996E+04</rscale>
<asrwt>0</asrwt>
<pdfrwt beam="1">  1        2 0.22436347E+00 0.22797996E+04</pdfrwt>
<pdfrwt beam="2">  1       -2 0.13707381E+00 0.22797996E+04</pdfrwt>
<totfact> 0.46182761E+00</totfact>
</mgrwt>
</event>
<event>
12    2  0.3623523E-008  0.1485025E+04  0.7818608E-02  0.8894473E-01
          1   -1    0    0  501    0  0.00000000000E+00  0.00000000000E+00  0.17814456156E+04  0.17814456156E+04  0.00000000000E+00 0. -1.
         -1   -1    0    0    0  501 -0.00000000000E+00 -0.00000000000E+00 -0.30948157433E+03  0.30948157433E+03  0.00000000000E+00 0.  1.
         23    2    1    2    0    0 -0.80677034720E+02  0.28039042465E+03 -0.34821451330E+02  0.30767751705E+03  0.91243338711E+02 0.  0.
        254    2    1    2    0    0  0.80677034720E+02 -0.28039042465E+03  0.15067854926E+04  0.17832496729E+04  0.90799190577E+03 0.  0.
         23    2    4    4    0    0 -0.63445735651E+02 -0.57875312440E+03  0.77503785933E+03  0.97358027849E+03  0.90522565636E+02 0.  0.
         23    2    4    4    0    0  0.14412277037E+03  0.29836269976E+03  0.73174763327E+03  0.80966939439E+03  0.10157881606E+03 0.  0.
          2    1    3    3  502    0 -0.67059164598E+01 -0.27451025448E+01 -0.12169452994E+02  0.14163350229E+02  0.00000000000E+00 0. -1.
         -2    1    3    3    0  502 -0.73971118260E+02  0.28313552719E+03 -0.22651998337E+02  0.29351416682E+03  0.00000000000E+00 0.  1.
         11    1    5    5    0    0  0.79279457331E+01 -0.15741462772E+03  0.15945534159E+03  0.22420576109E+03  0.00000000000E+00 0.  1.
        -11    1    5    5    0    0 -0.71373681384E+02 -0.42133849668E+03  0.61558251774E+03  0.74937451740E+03  0.00000000000E+00 0. -1.
          3    1    6    6  503    0  0.14291515636E+03  0.30272356964E+03  0.73222336408E+03  0.80511946718E+03  0.00000000000E+00 0. -1.
         -3    1    6    6    0  503  0.12076140066E+01 -0.43608698881E+01 -0.47573081000E+00  0.45499272053E+01  0.00000000000E+00 0.  1.
<mgrwt>
<rscale>  0 0.14850247E+04</rscale>
<asrwt>0</asrwt>
<pdfrwt beam="1">  1        1 0.27406855E+00 0.14850247E+04</pdfrwt>
<pdfrwt beam="2">  1       -1 0.47612551E-01 0.14850247E+04</pdfrwt>
<totfact> 0.17895037E+01</totfact>
</mgrwt>
</event>
<event>
12    2  0.3623523E-008  0.1584051E+04  0.7818608E-02  0.8830406E-01
         -1   -1    0    0    0  501 -0.00000000000E+00  0.00000000000E+00  0.70173375512E+03  0.70173375512E+03  0.00000000000E+00 0.  1.
          1   -1    0    0  501    0  0.00000000000E+00 -0.00000000000E+00 -0.89393489493E+03  0.89393489493E+03  0.00000000000E+00 0. -1.
         23    2    1    2    0    0 -0.24150318144E+03  0.21372876783E+03  0.24123062780E+03  0.41335050083E+03  0.93073346908E+02 0.  0.
        254    2    1    2    0    0  0.24150318144E+03 -0.21372876783E+03 -0.43343176761E+03  0.11823181492E+04  0.10516697847E+04 0.  0.
         23    2    4    4    0    0  0.22201415393E+03 -0.61289930103E+02 -0.76599629050E+03  0.80506934503E+03  0.91321372988E+02 0.  0.
         23    2    4    4    0    0  0.19489027511E+02 -0.15243883773E+03  0.33256452289E+03  0.37724880419E+03  0.90000427439E+02 0.  0.
          3    1    3    3  502    0 -0.17651569197E+03  0.13003944688E+03  0.11187719923E+03  0.24613929992E+03  0.00000000000E+00 0. -1.
         -3    1    3    3    0  502 -0.64987489476E+02  0.83689320949E+02  0.12935342857E+03  0.16721120092E+03  0.00000000000E+00 0.  1.
         11    1    5    5    0    0  0.10154605333E+03  0.10027169669E+02 -0.24064686592E+03  0.26138679988E+03  0.00000000000E+00 0. -1.
        -11    1    5    5    0    0  0.12046810060E+03 -0.71317099772E+02 -0.52534942458E+03  0.54368254514E+03  0.00000000000E+00 0.  1.
          3    1    6    6  503    0 -0.26615402854E+02 -0.10759489933E+03  0.17605561044E+03  0.20803994808E+03  0.00000000000E+00 0. -1.
         -3    1    6    6    0  503  0.46104430365E+02 -0.44843938403E+02  0.15650891245E+03  0.16920885611E+03  0.00000000000E+00 0.  1.
<mgrwt>
<rscale>  0 0.15840509E+04</rscale>
<asrwt>0</asrwt>
<pdfrwt beam="1">  1        1 0.13752844E+00 0.15840509E+04</pdfrwt>
<pdfrwt beam="2">  1       -1 0.10795904E+00 0.15840509E+04</pdfrwt>
<totfact> 0.14111105E+01</totfact>
</mgrwt>
</event>
<event>
12    2  0.3623523E-008  0.2447912E+04  0.7818608E-02  0.8421781E-01
          2   -1    0    0  501    0  0.00000000000E+00  0.00000000000E+00  0.10221108224E+04  0.10221108224E+04  0.00000000000E+00 0. -1.
         -2   -1    0    0    0  501 -0.00000000000E+00 -0.00000000000E+00 -0.14656609295E+04  0.14656609295E+04  0.00000000000E+00 0.  1.
         23    2    1    2    0    0 -0.36158725091E+03  0.57915891299E+02 -0.12006215728E+04  0.12583651375E+04  0.88831682278E+02 0.  0.
        254    2    1    2    0    0  0.36158725091E+03 -0.57915891299E+02  0.75707146576E+03  0.12294066143E+04  0.89676297233E+03 0.  0.
         23    2    4    4    0    0  0.34616105488E+03 -0.26801591728E+03  0.99412416794E+01  0.44789607558E+03  0.94085378255E+02 0.  0.
         23    2    4    4    0    0  0.15426196028E+02  0.21010002598E+03  0.74713022408E+03  0.78151053873E+03  0.90416602212E+02 0.  0.
          1    1    3    3  502    0 -0.11377119938E+02 -0.13192239553E+02 -0.89894791275E+02  0.91567175018E+02  0.00000000000E+00 0. -1.
         -1    1    3    3    0  502 -0.35021013097E+03  0.71108130853E+02 -0.11107267815E+04  0.11667979625E+04  0.00000000000E+00 0.  1.
         11    1    5    5    0    0  0.15717832535E+03 -0.17238043440E+03 -0.19326476471E+02  0.23408022731E+03  0.00000000000E+00 0. -1.
        -11    1    5    5    0    0  0.18898272953E+03 -0.95635482885E+02  0.29267718150E+02  0.21381584828E+03  0.00000000000E+00 0.  1.
          1    1    6    6  503    0  0.24915717168E+01  0.21338682343E+03  0.72411643480E+03  0.75490711712E+03  0.00000000000E+00 0. -1.
         -1    1    6    6    0  503  0.12934624311E+02 -0.32867974431E+01  0.23013789287E+02  0.26603421600E+02  0.00000000000E+00 0.  1.
<mgrwt>
<rscale>  0 0.24479117E+04</rscale>
<asrwt>0</asrwt>
<pdfrwt beam="1">  1        2 0.15724782E+00 0.24479117E+04</pdfrwt>
<pdfrwt beam="2">  1       -2 0.22548630E+00 0.24479117E+04</pdfrwt>
<totfact> 0.19925448E+00</totfact>
</mgrwt>
</event>
<event>
12    2  0.3623523E-008  0.1329364E+04  0.7818608E-02  0.9006598E-01
         -2   -1    0    0    0  501 -0.00000000000E+00  0.00000000000E+00  0.76126738760E+03  0.76126738760E+03  0.00000000000E+00 0.  1.
          2   -1    0    0  501    0  0.00000000000E+00 -0.00000000000E+00 -0.58035074499E+03  0.58035074499E+03  0.00000000000E+00 0. -1.
         23    2    1    2    0    0  0.11639514950E+03  0.57916508512E+01  0.38035035783E+03  0.40819118229E+03  0.91500123255E+02 0.  0.
        254    2    1    2    0    0 -0.11639514950E+03 -0.57916508512E+01 -0.19943371522E+03  0.93342695029E+03  0.90439520715E+03 0.  0.
         23    2    4    4    0    0 -0.16540473438E+03 -0.40282076535E+02  0.33530031443E+03  0.38775742360E+03  0.94594644930E+02 0.  0.
         23    2    4    4    0    0  0.49009584883E+02  0.34490425684E+02 -0.53473402965E+03  0.54566952670E+03  0.90681977405E+02 0.  0.
          2    1    3    3  502    0 -0.18125027919E+01  0.94272501913E+01 -0.28766332785E+00  0.96042158831E+01  0.00000000000E+00 0.  1.
         -2    1    3    3    0  502  0.11820765229E+03 -0.36355993401E+01  0.38063802115E+03  0.39858696641E+03  0.00000000000E+00 0. -1.
         11    1    5    5    0    0 -0.16587559255E+03 -0.21989786379E+02  0.32769145895E+03  0.36794015163E+03  0.00000000000E+00 0.  1.
        -11    1    5    5    0    0  0.47085816659E+00 -0.18292290156E+02  0.76088554772E+01  0.19817271967E+02  0.00000000000E+00 0. -1.
          4    1    6    6  503    0  0.13490149219E+02  0.37645285401E+01 -0.43712664230E+03  0.43735095428E+03  0.00000000000E+00 0.  1.
         -4    1    6    6    0  503  0.35519435664E+02  0.30725897144E+02 -0.97607387345E+02  0.10831857241E+03  0.00000000000E+00 0. -1.
<mgrwt>
<rscale>  0 0.13293639E+04</rscale>
<asrwt>0</asrwt>
<pdfrwt beam="1">  1        2 0.89284730E-01 0.13293639E+04</pdfrwt>
<pdfrwt beam="2">  1       -2 0.11711806E+00 0.13293639E+04</pdfrwt>
<totfact> 0.28473816E+01</totfact>
</mgrwt>
</event>
<event>
12    2  0.3623523E-008  0.1737177E+04  0.7818608E-02  0.8740441E-01
          1   -1    0    0  501    0  0.00000000000E+00  0.00000000000E+00  0.16306691285E+04  0.16306691285E+04  0.00000000000E+00 0.  1.
         -1   -1    0    0    0  501 -0.00000000000E+00 -0.00000000000E+00 -0.46266029180E+03  0.46266029180E+03  0.00000000000E+00 0. -1.
         23    2    1    2    0    0 -0.19603235682E+03 -0.29134814985E+03 -0.20912347579E+03  0.41575836232E+03  0.76223082931E+02 0.  0.
        254    2    1    2    0    0  0.19603235682E+03  0.29134814985E+03  0.13771323125E+04  0.16775710580E+04  0.89131297482E+03 0.  0.
         23    2    4    4    0    0  0.24628658678E+02  0.55634316930E+03  0.55073826627E+03  0.78835291263E+03  0.89796347653E+02 0.  0.
         23    2    4    4    0    0  0.17140369814E+03 -0.26499501946E+03  0.82639404620E+03  0.88921814533E+03  0.90444470868E+02 0.  0.
          3    1    3    3  502    0 -0.30148663315E+02 -0.96694191699E+02 -0.81113030932E+02  0.12976144418E+03  0.00000000000E+00 0.  1.
         -3    1    3    3    0  502 -0.16588369351E+03 -0.19465395815E+03 -0.12801044486E+03  0.28599691814E+03  0.00000000000E+00 0. -1.
         11    1    5    5    0    0  0.56003088123E+02  0.31625256936E+03  0.33437291496E+03  0.46363485608E+03  0.00000000000E+00 0. -1.
        -11    1    5    5    0    0 -0.31374429445E+02  0.24009059994E+03  0.21636535131E+03  0.32471805655E+03  0.00000000000E+00 0.  1.
          1    1    6    6  503    0  0.32316468792E+02 -0.12516366897E+03  0.37371382823E+03  0.39543940572E+03  0.00000000000E+00 0. -1.
         -1    1    6    6    0  503  0.13908722935E+03 -0.13983135049E+03  0.45268021797E+03  0.49377873961E+03  0.00000000000E+00 0.  1.
<mgrwt>
<rscale>  0 0.17371769E+04</rscale>
<asrwt>0</asrwt>
<pdfrwt beam="1">  1        1 0.25087217E+00 0.17371769E+04</pdfrwt>
<pdfrwt beam="2">  1       -1 0.71178507E-01 0.17371769E+04</pdfrwt>
<totfact> 0.10052346E+01</totfact>
</mgrwt>
</event>
<event>
12    2  0.3623523E-008  0.1226242E+04  0.7818608E-02  0.9090192E-01
          1   -1    0    0  501    0  0.00000000000E+00  0.00000000000E+00  0.89714221971E+03  0.89714221971E+03  0.00000000000E+00 0. -1.
         -1   -1    0    0    0  501 -0.00000000000E+00 -0.00000000000E+00 -0.41901663736E+03  0.41901663736E+03  0.00000000000E+00 0.  1.
         23    2    1    2    0    0 -0.17573575761E+03  0.14950579301E+03  0.23992162273E+03  0.34553999605E+03  0.92738692972E+02 0.  0.
        254    2    1    2    0    0  0.17573575761E+03 -0.14950579301E+03  0.23820395962E+03  0.97061886101E+03  0.91220875261E+03 0.  0.
         23    2    4    4    0    0  0.16519445973E+03  0.31015548635E+03 -0.11830296621E+03  0.38203324596E+03  0.92022681800E+02 0.  0.
         23    2    4    4    0    0  0.10541297876E+02 -0.45966127936E+03  0.35650692583E+03  0.58858561506E+03  0.89085506034E+02 0.  0.
          3    1    3    3  502    0 -0.67639922675E+02  0.60153221919E+01  0.80863809899E+02  0.10559497617E+03  0.00000000000E+00 0. -1.
         -3    1    3    3    0  502 -0.10809583493E+03  0.14349047082E+03  0.15905781283E+03  0.23994501989E+03  0.00000000000E+00 0.  1.
         11    1    5    5    0    0 -0.11316532108E+02  0.22813194114E+02 -0.30114759050E+01  0.25643219606E+02  0.00000000000E+00 0. -1.
        -11    1    5    5    0    0  0.17651099184E+03  0.28734229223E+03 -0.11529149030E+03  0.35639002635E+03  0.00000000000E+00 0.  1.
          4    1    6    6  503    0  0.11118757835E+02 -0.71011849708E+02  0.99106580966E+02  0.12242721905E+03  0.00000000000E+00 0. -1.
         -4    1    6    6    0  503 -0.57745995921E+00 -0.38864942965E+03  0.25740034486E+03  0.46615839600E+03  0.00000000000E+00 0.  1.
<mgrwt>
<rscale>  0 0.12262423E+04</rscale>
<asrwt>0</asrwt>
<pdfrwt beam="1">  1        1 0.13802188E+00 0.12262423E+04</pdfrwt>
<pdfrwt beam="2">  1       -1 0.64464098E-01 0.12262423E+04</pdfrwt>
<totfact> 0.44107315E+01</totfact>
</mgrwt>
</event>
<event>
12    2  0.3623523E-008  0.1934091E+04  0.7818608E-02  0.8638071E-01
          1   -1    0    0  501    0  0.00000000000E+00  0.00000000000E+00  0.14774583704E+04  0.14774583704E+04  0.00000000000E+00 0. -1.
         -1   -1    0    0    0  501 -0.00000000000E+00 -0.00000000000E+00 -0.63296324024E+03  0.63296324024E+03  0.00000000000E+00 0.  1.
         23    2    1    2    0    0 -0.86692014843E+02  0.62108870829E+03  0.78106266028E+03  0.10058092466E+04  0.91250600932E+02 0.  0.
        254    2    1    2    0    0  0.86692014843E+02 -0.62108870829E+03  0.63432469927E+02  0.11046123641E+04  0.90712629095E+03 0.  0.
         23    2    4    4    0    0  0.68626549699E+02  0.22472223313E+03  0.88316344542E+01  0.25182520478E+03  0.90156811200E+02 0.  0.
         23    2    4    4    0    0  0.18065465143E+02 -0.84581094142E+03  0.54600835472E+02  0.85278715935E+03  0.92423905203E+02 0.  0.
          2    1    3    3  502    0 -0.43589486180E+02  0.34569370587E+03  0.50463298415E+03  0.61323619452E+03  0.00000000000E+00 0. -1.
         -2    1    3    3    0  502 -0.43102528663E+02  0.27539500242E+03  0.27642967613E+03  0.39257305204E+03  0.00000000000E+00 0.  1.
         11    1    5    5    0    0 -0.19533989900E+02  0.52100022481E+02  0.15886849330E+02  0.57865197533E+02  0.00000000000E+00 0.  1.
        -11    1    5    5    0    0  0.88160539599E+02  0.17262221065E+03 -0.70552148754E+01  0.19396000724E+03  0.00000000000E+00 0. -1.
          1    1    6    6  503    0  0.10109834700E+02 -0.80155995400E+03  0.71385334119E+02  0.80479589620E+03  0.00000000000E+00 0. -1.
         -1    1    6    6    0  503  0.79556304432E+01 -0.44250987422E+02 -0.16784498647E+02  0.47991263147E+02  0.00000000000E+00 0.  1.
<mgrwt>
<rscale>  0 0.19340908E+04</rscale>
<asrwt>0</asrwt>
<pdfrwt beam="1">  1        1 0.22730129E+00 0.19340908E+04</pdfrwt>
<pdfrwt beam="2">  1       -1 0.97378961E-01 0.19340908E+04</pdfrwt>
<totfact> 0.64062860E+00</totfact>
</mgrwt>
</event>
<event>
12    2  0.3623523E-008  0.3557419E+04  0.7818608E-02  0.8100316E-01
         -2   -1    0    0    0  501 -0.00000000000E+00  0.00000000000E+00  0.12602060551E+04  0.12602060551E+04  0.00000000000E+00 0.  1.
          2   -1    0    0  501    0  0.00000000000E+00 -0.00000000000E+00 -0.25105477310E+04  0.25105477310E+04  0.00000000000E+00 0. -1.
         23    2    1    2    0    0  0.24650980627E+03 -0.14086338435E+04 -0.14379306748E+04  0.20300459303E+04  0.91790327027E+02 0.  0.
        254    2    1    2    0    0 -0.24650980627E+03  0.14086338435E+04  0.18758899883E+03  0.17407078558E+04  0.97460649348E+03 0.  0.
         23    2    4    4    0    0 -0.19994222072E+03  0.71785935848E+03  0.57172051239E+03  0.94365484426E+03  0.91220450733E+02 0.  0.
         23    2    4    4    0    0 -0.46567585558E+02  0.69077448504E+03 -0.38413151356E+03  0.79705301156E+03  0.91643626715E+02 0.  0.
          3    1    3    3  502    0  0.15922975571E+03 -0.11100734327E+04 -0.11473437439E+04  0.16043736497E+04  0.00000000000E+00 0. -1.
         -3    1    3    3    0  502  0.87280050559E+02 -0.29856041080E+03 -0.29058693083E+03  0.42567228063E+03  0.00000000000E+00 0.  1.
         11    1    5    5    0    0 -0.23970414987E+02  0.16813767777E+03  0.17086041483E+03  0.24091106416E+03  0.00000000000E+00 0.  1.
        -11    1    5    5    0    0 -0.17597180573E+03  0.54972168070E+03  0.40086009756E+03  0.70274378010E+03  0.00000000000E+00 0. -1.
          4    1    6    6  503    0 -0.20303357508E+02  0.64598555715E+03 -0.35990399460E+03  0.73975702207E+03  0.00000000000E+00 0. -1.
         -4    1    6    6    0  503 -0.26264228050E+02  0.44788927898E+02 -0.24227518960E+02  0.57295989495E+02  0.00000000000E+00 0.  1.
<mgrwt>
<rscale>  0 0.35574190E+04</rscale>
<asrwt>0</asrwt>
<pdfrwt beam="1">  1        2 0.38623811E+00 0.35574190E+04</pdfrwt>
<pdfrwt beam="2">  1       -2 0.19387786E+00 0.35574190E+04</pdfrwt>
<totfact> 0.40984005E-01</totfact>
</mgrwt>
</event>
<event>
12    2  0.3623523E-008  0.1440802E+04  0.7818608E-02  0.8924802E-01
          2   -1    0    0  501    0  0.00000000000E+00  0.00000000000E+00  0.63530910612E+03  0.63530910612E+03  0.00000000000E+00 0.  1.
         -2   -1    0    0    0  501 -0.00000000000E+00 -0.00000000000E+00 -0.81688970796E+03  0.81688970796E+03  0.00000000000E+00 0. -1.
         23    2    1    2    0    0  0.62544945096E+02 -0.31982549002E+03  0.23158647939E+03  0.41035602937E+03  0.92517885718E+02 0.  0.
        254    2    1    2    0    0 -0.62544945096E+02  0.31982549002E+03 -0.41316708123E+03  0.10418427847E+04  0.89918248250E+03 0.  0.
         23    2    4    4    0    0 -0.14815741813E+03  0.36199273292E+02 -0.63620440821E+03  0.66039566070E+03  0.90029837837E+02 0.  0.
         23    2    4    4    0    0  0.85612473037E+02  0.28362621673E+03  0.22303732699E+03  0.38144712402E+03  0.89347259840E+02 0.  0.
          3    1    3    3  502    0  0.53128707150E+02 -0.23276318684E+03  0.21487650790E+03  0.32120596869E+03  0.00000000000E+00 0.  1.
         -3    1    3    3    0  502  0.94162379458E+01 -0.87062303181E+02  0.16709971485E+02  0.89150060680E+02  0.00000000000E+00 0. -1.
         11    1    5    5    0    0 -0.13609911917E+03  0.26351023762E+02 -0.39372089268E+03  0.41741285081E+03  0.00000000000E+00 0. -1.
        -11    1    5    5    0    0 -0.12058298964E+02  0.98482495299E+01 -0.24248351553E+03  0.24298280988E+03  0.00000000000E+00 0.  1.
          2    1    6    6  503    0  0.33731544503E+02  0.70911011283E+02  0.16057897728E+02  0.80150138460E+02  0.00000000000E+00 0. -1.
         -2    1    6    6    0  503  0.51880928534E+02  0.21271520545E+03  0.20697942926E+03  0.30129698557E+03  0.00000000000E+00 0.  1.
<mgrwt>
<rscale>  0 0.14408018E+04</rscale>
<asrwt>0</asrwt>
<pdfrwt beam="1">  1        2 0.97739863E-01 0.14408018E+04</pdfrwt>
<pdfrwt beam="2">  1       -2 0.12567534E+00 0.14408018E+04</pdfrwt>
<totfact> 0.21224808E+01</totfact>
</mgrwt>
</event>
<event>
12    2  0.3623523E-008  0.1202512E+04  0.7818608E-02  0.9110661E-01
          1   -1    0    0  501    0  0.00000000000E+00  0.00000000000E+00  0.65885364980E+03  0.65885364980E+03  0.00000000000E+00 0. -1.
         -1   -1    0    0    0  501 -0.00000000000E+00 -0.00000000000E+00 -0.54869359901E+03  0.54869359901E+03  0.00000000000E+00 0.  1.
         23    2    1    2    0    0  0.16904863721E+03  0.10518001996E+03 -0.13174968643E+03  0.25542359409E+03  0.90790716519E+02 0.  0.
        254    2    1    2    0    0 -0.16904863721E+03 -0.10518001996E+03  0.24190973723E+03  0.95212365471E+03  0.89909891256E+03 0.  0.
         23    2    4    4    0    0 -0.44838855574E+03 -0.29562274088E+03  0.38446408985E+02  0.54687190376E+03  0.95632896583E+02 0.  0.
         23    2    4    4    0    0  0.27933991853E+03  0.19044272093E+03  0.20346332824E+03  0.40525175096E+03  0.92371184216E+02 0.  0.
          2    1    3    3  502    0 -0.54753043878E+01  0.22461953339E+02 -0.30114399509E+01  0.23314953925E+02  0.00000000000E+00 0. -1.
         -2    1    3    3    0  502  0.17452394160E+03  0.82718066617E+02 -0.12873824648E+03  0.23210864017E+03  0.00000000000E+00 0.  1.
         11    1    5    5    0    0 -0.19652357667E+03 -0.17400826318E+03  0.48820728293E+02  0.26699036566E+03  0.00000000000E+00 0.  1.
        -11    1    5    5    0    0 -0.25186497907E+03 -0.12161447771E+03 -0.10374319308E+02  0.27988153810E+03  0.00000000000E+00 0. -1.
          2    1    6    6  503    0  0.26576735341E+03  0.14602343427E+03  0.16687500312E+03  0.34612482742E+03  0.00000000000E+00 0. -1.
         -2    1    6    6    0  503  0.13572565127E+02  0.44419286657E+02  0.36588325119E+02  0.59126923531E+02  0.00000000000E+00 0.  1.
<mgrwt>
<rscale>  0 0.12025120E+04</rscale>
<asrwt>0</asrwt>
<pdfrwt beam="1">  1        1 0.10136210E+00 0.12025120E+04</pdfrwt>
<pdfrwt beam="2">  1       -1 0.84414400E-01 0.12025120E+04</pdfrwt>
<totfact> 0.41072020E+01</totfact>
</mgrwt>
</event>
<event>
12    2  0.3623523E-008  0.1595930E+04  0.7818608E-02  0.8823052E-01
         -2   -1    0    0    0  501 -0.00000000000E+00  0.00000000000E+00  0.57319440200E+03  0.57319440200E+03  0.00000000000E+00 0. -1.
          2   -1    0    0  501    0  0.00000000000E+00 -0.00000000000E+00 -0.11108762122E+04  0.11108762122E+04  0.00000000000E+00 0.  1.
         23    2    1    2    0    0 -0.18603047592E+02  0.45624771796E+03 -0.48757683111E+03  0.67425606955E+03  0.91553413754E+02 0.  0.
        254    2    1    2    0    0  0.18603047592E+02 -0.45624771796E+03 -0.50104979040E+02  0.10098145446E+04  0.89928129751E+03 0.  0.
         23    2    4    4    0    0 -0.95065178723E+01 -0.55962087342E+03  0.29328859009E+03  0.63841135626E+03  0.91021793427E+02 0.  0.
         23    2    4    4    0    0  0.28109565464E+02  0.10337315546E+03 -0.34339356913E+03  0.37140318834E+03  0.92439320930E+02 0.  0.
          4    1    3    3  502    0  0.15836445414E+02  0.52373269029E+02 -0.27990813966E+02  0.61459238350E+02  0.00000000000E+00 0. -1.
         -4    1    3    3    0  502 -0.34439493006E+02  0.40387444893E+03 -0.45958601714E+03  0.61279683120E+03  0.00000000000E+00 0.  1.
         11    1    5    5    0    0  0.37325452917E+02 -0.35973566077E+03  0.18162435747E+03  0.40471019544E+03  0.00000000000E+00 0. -1.
        -11    1    5    5    0    0 -0.46831970789E+02 -0.19988521265E+03  0.11166423262E+03  0.23370116082E+03  0.00000000000E+00 0.  1.
          4    1    6    6  503    0 -0.32791958377E+02  0.50496413809E+02 -0.12963416940E+03  0.14293431435E+03  0.00000000000E+00 0. -1.
         -4    1    6    6    0  503  0.60901523842E+02  0.52876741651E+02 -0.21375939972E+03  0.22846887399E+03  0.00000000000E+00 0.  1.
<mgrwt>
<rscale>  0 0.15959299E+04</rscale>
<asrwt>0</asrwt>
<pdfrwt beam="1">  1        2 0.17090403E+00 0.15959299E+04</pdfrwt>
<pdfrwt beam="2">  1       -2 0.88183755E-01 0.15959299E+04</pdfrwt>
<totfact> 0.22796910E+01</totfact>
</mgrwt>
</event>
<event>
12    2  0.3623523E-008  0.1806875E+04  0.7818608E-02  0.8702652E-01
         -2   -1    0    0    0  501 -0.00000000000E+00  0.00000000000E+00  0.59101455191E+03  0.59101455191E+03  0.00000000000E+00 0.  1.
          2   -1    0    0  501    0  0.00000000000E+00 -0.00000000000E+00 -0.13810144169E+04  0.13810144169E+04  0.00000000000E+00 0. -1.
         23    2    1    2    0    0 -0.49499977464E+03 -0.39636514671E+03 -0.28983079698E+02  0.64075474114E+03  0.87157977008E+02 0.  0.
        254    2    1    2    0    0  0.49499977464E+03  0.39636514671E+03 -0.76101678525E+03  0.13312742276E+04  0.88938991184E+03 0.  0.
         23    2    4    4    0    0  0.64805354139E+03  0.45543333756E+03 -0.81016326684E+03  0.11366159559E+04  0.90213052867E+02 0.  0.
         23    2    4    4    0    0 -0.15305376674E+03 -0.59068190851E+02  0.49146481591E+02  0.19465827168E+03  0.92530856457E+02 0.  0.
          1    1    3    3  502    0 -0.49451465125E+02 -0.75403791510E+02 -0.15338111889E+02  0.91468228656E+02  0.00000000000E+00 0. -1.
         -1    1    3    3    0  502 -0.44554830952E+03 -0.32096135520E+03 -0.13644967809E+02  0.54928651248E+03  0.00000000000E+00 0.  1.
         11    1    5    5    0    0  0.48007414873E+03  0.28716350336E+03 -0.56378719843E+03  0.79422293536E+03  0.00000000000E+00 0. -1.
        -11    1    5    5    0    0  0.16797939266E+03  0.16826983421E+03 -0.24637606840E+03  0.34239302058E+03  0.00000000000E+00 0.  1.
          4    1    6    6  503    0 -0.16397723042E+03 -0.45231241889E+02  0.39760419141E+02  0.17468625667E+03  0.00000000000E+00 0. -1.
         -4    1    6    6    0  503  0.10923463678E+02 -0.13836948962E+02  0.93860624498E+01  0.19972015011E+02  0.00000000000E+00 0.  1.
<mgrwt>
<rscale>  0 0.18068753E+04</rscale>
<asrwt>0</asrwt>
<pdfrwt beam="1">  1        2 0.21246375E+00 0.18068753E+04</pdfrwt>
<pdfrwt beam="2">  1       -2 0.90925318E-01 0.18068753E+04</pdfrwt>
<totfact> 0.14451638E+01</totfact>
</mgrwt>
</event>
<event>
12    2  0.3623523E-008  0.2533246E+04  0.7818608E-02  0.8391236E-01
         -2   -1    0    0    0  501 -0.00000000000E+00  0.00000000000E+00  0.21162721596E+04  0.21162721596E+04  0.00000000000E+00 0.  1.
          2   -1    0    0  501    0  0.00000000000E+00 -0.00000000000E+00 -0.75809432814E+03  0.75809432814E+03  0.00000000000E+00 0. -1.
         23    2    1    2    0    0 -0.24445063315E+03 -0.28609773068E+03  0.17951750996E+04  0.18364856095E+04  0.91748199185E+02 0.  0.
        254    2    1    2    0    0  0.24445063315E+03  0.28609773068E+03 -0.43699726819E+03  0.10378808782E+04  0.86291487494E+03 0.  0.
         23    2    4    4    0    0  0.23265270011E+02 -0.23339249896E+03  0.82670118154E+02  0.26519962389E+03  0.92104075474E+02 0.  0.
         23    2    4    4    0    0  0.22118536313E+03  0.51949022964E+03 -0.51966738635E+03  0.77268125431E+03  0.90493451556E+02 0.  0.
          2    1    3    3  502    0 -0.11709273155E+01 -0.41203714238E+02  0.23401015578E+03  0.23761285770E+03  0.00000000000E+00 0. -1.
         -2    1    3    3    0  502 -0.24327970583E+03 -0.24489401644E+03  0.15611649439E+04  0.15988727518E+04  0.00000000000E+00 0.  1.
         11    1    5    5    0    0 -0.27782248814E+02 -0.14862508521E+03  0.65466789367E+02  0.16476398214E+03  0.00000000000E+00 0. -1.
        -11    1    5    5    0    0  0.51047518825E+02 -0.84767413752E+02  0.17203328788E+02  0.10043564175E+03  0.00000000000E+00 0.  1.
          3    1    6    6  503    0  0.63494247332E+02  0.26390797980E+03 -0.24065980792E+03  0.36276174605E+03  0.00000000000E+00 0. -1.
         -3    1    6    6    0  503  0.15769111580E+03  0.25558224984E+03 -0.27900757842E+03  0.40991950826E+03  0.00000000000E+00 0.  1.
<mgrwt>
<rscale>  0 0.25332461E+04</rscale>
<asrwt>0</asrwt>
<pdfrwt beam="1">  1        2 0.11662990E+00 0.25332461E+04</pdfrwt>
<pdfrwt beam="2">  1       -2 0.32558033E+00 0.25332461E+04</pdfrwt>
<totfact> 0.72754703E-01</totfact>
</mgrwt>
</event>
<event>
12    2  0.3623523E-008  0.2220683E+04  0.7818608E-02  0.8509868E-01
          1   -1    0    0  501    0  0.00000000000E+00  0.00000000000E+00  0.14294600468E+04  0.14294600468E+04  0.00000000000E+00 0. -1.
         -1   -1    0    0    0  501 -0.00000000000E+00 -0.00000000000E+00 -0.86246414236E+03  0.86246414236E+03  0.00000000000E+00 0.  1.
         23    2    1    2    0    0  0.69683610233E+03 -0.33264304748E+03  0.76653111344E+03  0.10920022186E+04  0.93096438749E+02 0.  0.
        254    2    1    2    0    0 -0.69683610233E+03  0.33264304748E+03 -0.19953520901E+03  0.11999219706E+04  0.89653024788E+03 0.  0.
         23    2    4    4    0    0 -0.87571276537E+02 -0.27540287999E+03 -0.13464729991E+03  0.33214535380E+03  0.93140570616E+02 0.  0.
         23    2    4    4    0    0 -0.60926482579E+03  0.60804592747E+03 -0.64887909094E+02  0.86777661681E+03  0.88895095887E+02 0.  0.
          2    1    3    3  502    0  0.44551744633E+03 -0.20675933535E+03  0.54853181061E+03  0.73628959316E+03  0.00000000000E+00 0. -1.
         -2    1    3    3    0  502  0.25131865600E+03 -0.12588371213E+03  0.21799930283E+03  0.35571262539E+03  0.00000000000E+00 0.  1.
         11    1    5    5    0    0 -0.41483983452E+02 -0.10941206611E+03 -0.10525346955E+03  0.15738555825E+03  0.00000000000E+00 0. -1.
        -11    1    5    5    0    0 -0.46087293085E+02 -0.16599081388E+03 -0.29393830361E+02  0.17475979554E+03  0.00000000000E+00 0.  1.
          2    1    6    6  503    0 -0.33496658584E+03  0.37578170413E+03 -0.52019888827E+01  0.50342979995E+03  0.00000000000E+00 0. -1.
         -2    1    6    6    0  503 -0.27429823995E+03  0.23226422334E+03 -0.59685920211E+02  0.36434681686E+03  0.00000000000E+00 0.  1.
<mgrwt>
<rscale>  0 0.22206828E+04</rscale>
<asrwt>0</asrwt>
<pdfrwt beam="1">  1        1 0.21991693E+00 0.22206828E+04</pdfrwt>
<pdfrwt beam="2">  1       -1 0.13268679E+00 0.22206828E+04</pdfrwt>
<totfact> 0.32100747E+00</totfact>
</mgrwt>
</event>
<event>
12    2  0.3623523E-008  0.1290502E+04  0.7818608E-02  0.9037131E-01
          1   -1    0    0  501    0  0.00000000000E+00  0.00000000000E+00  0.16921315406E+04  0.16921315406E+04  0.00000000000E+00 0. -1.
         -1   -1    0    0    0  501 -0.00000000000E+00 -0.00000000000E+00 -0.24605001102E+03  0.24605001102E+03  0.00000000000E+00 0.  1.
         23    2    1    2    0    0 -0.16799725578E+03  0.16483502311E+03 -0.23276911053E+02  0.25347521590E+03  0.91182277321E+02 0.  0.
        254    2    1    2    0    0  0.16799725578E+03 -0.16483502311E+03  0.14693584406E+04  0.16847063357E+04  0.78982754303E+03 0.  0.
         23    2    4    4    0    0  0.17755737663E+03 -0.46767943310E+03  0.87597384293E+03  0.10128856291E+04  0.91413620864E+02 0.  0.
         23    2    4    4    0    0 -0.95601208500E+01  0.30284440999E+03  0.59338459768E+03  0.67182070655E+03  0.86207009067E+02 0.  0.
          2    1    3    3  502    0  0.48055737269E+01  0.33234320094E+02 -0.13048153803E+02  0.36025933557E+02  0.00000000000E+00 0. -1.
         -2    1    3    3    0  502 -0.17280282950E+03  0.13160070302E+03 -0.10228757251E+02  0.21744928235E+03  0.00000000000E+00 0.  1.
         11    1    5    5    0    0  0.15304345379E+03 -0.36290038868E+03  0.75066948927E+03  0.84771674100E+03  0.00000000000E+00 0. -1.
        -11    1    5    5    0    0  0.24513922833E+02 -0.10477904442E+03  0.12530435366E+03  0.16516888814E+03  0.00000000000E+00 0.  1.
          3    1    6    6  503    0 -0.34006197183E+02  0.27269580612E+03  0.49702958667E+03  0.56794175242E+03  0.00000000000E+00 0. -1.
         -3    1    6    6    0  503  0.24446076333E+02  0.30148603873E+02  0.96355011014E+02  0.10387895413E+03  0.00000000000E+00 0.  1.
<mgrwt>
<rscale>  0 0.12905022E+04</rscale>
<asrwt>0</asrwt>
<pdfrwt beam="1">  1        1 0.26032792E+00 0.12905022E+04</pdfrwt>
<pdfrwt beam="2">  1       -1 0.37853849E-01 0.12905022E+04</pdfrwt>
<totfact> 0.31962343E+01</totfact>
</mgrwt>
</event>
<event>
12    2  0.3623523E-008  0.1219220E+04  0.7818608E-02  0.9096198E-01
         -1   -1    0    0    0  501 -0.00000000000E+00  0.00000000000E+00  0.73950511861E+03  0.73950511861E+03  0.00000000000E+00 0.  1.
          1   -1    0    0  501    0  0.00000000000E+00 -0.00000000000E+00 -0.50253129958E+03  0.50253129958E+03  0.00000000000E+00 0. -1.
         23    2    1    2    0    0  0.15018068075E+03 -0.20408099658E+03  0.23563986617E+02  0.27046466787E+03  0.91611053184E+02 0.  0.
        254    2    1    2    0    0 -0.15018068075E+03  0.20408099658E+03  0.21340983241E+03  0.97157175032E+03  0.91334802754E+03 0.  0.
         23    2    4    4    0    0  0.34055575792E+03  0.41641401660E+02  0.26625216351E+03  0.44399034322E+03  0.92330816731E+02 0.  0.
         23    2    4    4    0    0 -0.49073643867E+03  0.16243959492E+03 -0.52842331098E+02  0.52758140710E+03  0.91328828538E+02 0.  0.
          3    1    3    3  502    0  0.45723487077E+02 -0.58139220153E+02  0.49682312515E+02  0.89101842671E+02  0.00000000000E+00 0.  1.
         -3    1    3    3    0  502  0.10445719367E+03 -0.14594177643E+03 -0.26118325898E+02  0.18136282520E+03  0.00000000000E+00 0. -1.
         11    1    5    5    0    0  0.19303527450E+03  0.59252089266E+02  0.11686851468E+03  0.23330597294E+03  0.00000000000E+00 0. -1.
        -11    1    5    5    0    0  0.14752048342E+03 -0.17610687606E+02  0.14938364883E+03  0.21068437029E+03  0.00000000000E+00 0.  1.
          2    1    6    6  503    0 -0.15188497010E+03  0.40265648479E+02 -0.57571682961E+02  0.16734654245E+03  0.00000000000E+00 0. -1.
         -2    1    6    6    0  503 -0.33885146856E+03  0.12217394645E+03  0.47293518627E+01  0.36023486465E+03  0.00000000000E+00 0.  1.
<mgrwt>
<rscale>  0 0.12192202E+04</rscale>
<asrwt>0</asrwt>
<pdfrwt beam="1">  1        1 0.77312507E-01 0.12192202E+04</pdfrwt>
<pdfrwt beam="2">  1       -1 0.11377002E+00 0.12192202E+04</pdfrwt>
<totfact> 0.30653776E+01</totfact>
</mgrwt>
</event>
<event>
12    2  0.3623523E-008  0.2785334E+04  0.7818608E-02  0.8307836E-01
          2   -1    0    0  501    0  0.00000000000E+00  0.00000000000E+00  0.15992033277E+04  0.15992033277E+04  0.00000000000E+00 0. -1.
         -2   -1    0    0    0  501 -0.00000000000E+00 -0.00000000000E+00 -0.12128049992E+04  0.12128049992E+04  0.00000000000E+00 0.  1.
         23    2    1    2    0    0  0.10415501668E+04 -0.69944942405E+03  0.25527866685E+03  0.12835809257E+04  0.91414157593E+02 0.  0.
        254    2    1    2    0    0 -0.10415501668E+04  0.69944942405E+03  0.13111966160E+03  0.15284274012E+04  0.86304212421E+03 0.  0.
         23    2    4    4    0    0  0.11395107876E+03 -0.17213598325E+02  0.72761754503E+02  0.16406120484E+03  0.91327157506E+02 0.  0.
         23    2    4    4    0    0 -0.11555012456E+04  0.71666302237E+03  0.58357907096E+02  0.13643661963E+04  0.96438872619E+02 0.  0.
          3    1    3    3  502    0  0.91732416110E+03 -0.57979816324E+03  0.22932397788E+03  0.11091614010E+04  0.00000000000E+00 0. -1.
         -3    1    3    3    0  502  0.12422600574E+03 -0.11965126081E+03  0.25954688974E+02  0.17441952469E+03  0.00000000000E+00 0.  1.
         11    1    5    5    0    0  0.29999543649E+02  0.36590682629E+02  0.22373445176E+02  0.52339485319E+02  0.00000000000E+00 0. -1.
        -11    1    5    5    0    0  0.83951535110E+02 -0.53804280954E+02  0.50388309327E+02  0.11172171952E+03  0.00000000000E+00 0.  1.
          3    1    6    6  503    0 -0.33898523122E+03  0.16713354549E+03 -0.66414397051E+01  0.37800624034E+03  0.00000000000E+00 0. -1.
         -3    1    6    6    0  503 -0.81651601438E+03  0.54952947689E+03  0.64999346801E+02  0.98635995600E+03  0.00000000000E+00 0.  1.
<mgrwt>
<rscale>  0 0.27853343E+04</rscale>
<asrwt>0</asrwt>
<pdfrwt beam="1">  1        2 0.24603128E+00 0.27853343E+04</pdfrwt>
<pdfrwt beam="2">  1       -2 0.18658538E+00 0.27853343E+04</pdfrwt>
<totfact> 0.15898269E+00</totfact>
</mgrwt>
</event>
<event>
12    2  0.3623523E-008  0.1739866E+04  0.7818608E-02  0.8738948E-01
         -1   -1    0    0    0  501 -0.00000000000E+00  0.00000000000E+00  0.61200300139E+03  0.61200300139E+03  0.00000000000E+00 0.  1.
          1   -1    0    0  501    0  0.00000000000E+00 -0.00000000000E+00 -0.12365687580E+04  0.12365687580E+04  0.00000000000E+00 0. -1.
         23    2    1    2    0    0  0.12668375616E+03 -0.48421993378E+03 -0.64483448594E+03  0.82240604997E+03  0.10011232909E+03 0.  0.
        254    2    1    2    0    0 -0.12668375616E+03  0.48421993378E+03  0.20268729358E+02  0.10261657094E+04  0.89559339178E+03 0.  0.
         23    2    4    4    0    0 -0.13290975886E+03  0.72742880890E+03  0.10762816670E+03  0.75219728437E+03  0.86018930006E+02 0.  0.
         23    2    4    4    0    0  0.62260027003E+01 -0.24320887513E+03 -0.87359437345E+02  0.27396842502E+03  0.90761812270E+02 0.  0.
          1    1    3    3  502    0  0.13620075422E+03 -0.44686648950E+03 -0.62095484504E+03  0.77706191804E+03  0.00000000000E+00 0. -1.
         -1    1    3    3    0  502 -0.95169980585E+01 -0.37353444281E+02 -0.23879640897E+02  0.45344131936E+02  0.00000000000E+00 0.  1.
         11    1    5    5    0    0 -0.13586761182E+03  0.62012733386E+03  0.11257523554E+03  0.64474111223E+03  0.00000000000E+00 0.  1.
        -11    1    5    5    0    0  0.29578529629E+01  0.10730147504E+03 -0.49470688318E+01  0.10745617214E+03  0.00000000000E+00 0. -1.
          2    1    6    6  503    0 -0.22194068414E+02 -0.80524264027E+02  0.69040273797E+01  0.83811689900E+02  0.00000000000E+00 0. -1.
         -2    1    6    6    0  503  0.28420071114E+02 -0.16268461110E+03 -0.94263464725E+02  0.19015673512E+03  0.00000000000E+00 0.  1.
<mgrwt>
<rscale>  0 0.17398664E+04</rscale>
<asrwt>0</asrwt>
<pdfrwt beam="1">  1        1 0.19024135E+00 0.17398664E+04</pdfrwt>
<pdfrwt beam="2">  1       -1 0.94154309E-01 0.17398664E+04</pdfrwt>
<totfact> 0.10413628E+01</totfact>
</mgrwt>
</event>
<event>
12    2  0.3623523E-008  0.2520833E+04  0.7818608E-02  0.8395601E-01
          1   -1    0    0  501    0  0.00000000000E+00  0.00000000000E+00  0.14705696924E+04  0.14705696924E+04  0.00000000000E+00 0. -1.
         -1   -1    0    0    0  501 -0.00000000000E+00 -0.00000000000E+00 -0.10802958449E+04  0.10802958449E+04  0.00000000000E+00 0.  1.
         23    2    1    2    0    0 -0.76793598185E+03  0.17070036408E+03 -0.60557890340E+03  0.99710696970E+03  0.92909710262E+02 0.  0.
        254    2    1    2    0    0  0.76793598185E+03 -0.17070036408E+03  0.99585275086E+03  0.15537585676E+04  0.89642551191E+03 0.  0.
         23    2    4    4    0    0  0.30875402456E+03  0.35932754898E+03  0.35067983727E+03  0.59630730297E+03  0.90336682309E+02 0.  0.
         23    2    4    4    0    0  0.45918195729E+03 -0.53002791306E+03  0.64517291358E+03  0.95745126460E+03  0.93205027422E+02 0.  0.
          4    1    3    3  502    0 -0.67046872899E+03  0.12528333988E+03 -0.49421302620E+03  0.84230086494E+03  0.00000000000E+00 0.  1.
         -4    1    3    3    0  502 -0.97467252860E+02  0.45417024202E+02 -0.11136587720E+03  0.15480610477E+03  0.00000000000E+00 0. -1.
         11    1    5    5    0    0  0.16135800557E+03  0.18909682895E+03  0.12792914747E+03  0.27957089165E+03  0.00000000000E+00 0.  1.
        -11    1    5    5    0    0  0.14739601898E+03  0.17023072003E+03  0.22275068980E+03  0.31673641132E+03  0.00000000000E+00 0. -1.
          3    1    6    6  503    0  0.41359446108E+03 -0.42928511680E+03  0.55976930321E+03  0.81773330772E+03  0.00000000000E+00 0. -1.
         -3    1    6    6    0  503  0.45587496210E+02 -0.10074279626E+03  0.85403610379E+02  0.13971795688E+03  0.00000000000E+00 0.  1.
<mgrwt>
<rscale>  0 0.25208335E+04</rscale>
<asrwt>0</asrwt>
<pdfrwt beam="1">  1        1 0.22624149E+00 0.25208335E+04</pdfrwt>
<pdfrwt beam="2">  1       -1 0.16619936E+00 0.25208335E+04</pdfrwt>
<totfact> 0.15965024E+00</totfact>
</mgrwt>
</event>
<event>
12    2  0.3623523E-008  0.1722254E+04  0.7818608E-02  0.8748773E-01
         -2   -1    0    0    0  501 -0.00000000000E+00  0.00000000000E+00  0.32834451624E+03  0.32834451624E+03  0.00000000000E+00 0. -1.
          2   -1    0    0  501    0  0.00000000000E+00 -0.00000000000E+00 -0.22584206512E+04  0.22584206512E+04  0.00000000000E+00 0.  1.
         23    2    1    2    0    0 -0.12452799713E+03  0.53148569924E+03 -0.26032236546E+03  0.61068009465E+03  0.84724102130E+02 0.  0.
        254    2    1    2    0    0  0.12452799713E+03 -0.53148569924E+03 -0.16697537695E+04  0.19760850728E+04  0.90490347200E+03 0.  0.
         23    2    4    4    0    0  0.50322747682E+03 -0.29069308454E+03 -0.79623708142E+03  0.98997225129E+03  0.91165814101E+02 0.  0.
         23    2    4    4    0    0 -0.37869947969E+03 -0.24079261469E+03 -0.87351668812E+03  0.98611282156E+03  0.89401975373E+02 0.  0.
          3    1    3    3  502    0 -0.49362481860E+02  0.36061322489E+03 -0.14870628774E+03  0.39318203494E+03  0.00000000000E+00 0. -1.
         -3    1    3    3    0  502 -0.75165515269E+02  0.17087247434E+03 -0.11161607772E+03  0.21749805971E+03  0.00000000000E+00 0.  1.
         11    1    5    5    0    0  0.22245670679E+02 -0.38861067440E+02 -0.49796342681E+02  0.66968113091E+02  0.00000000000E+00 0. -1.
        -11    1    5    5    0    0  0.48098180614E+03 -0.25183201710E+03 -0.74644073874E+03  0.92300413820E+03  0.00000000000E+00 0.  1.
          1    1    6    6  503    0 -0.62608199241E+02 -0.77907511185E+02 -0.23251042771E+03  0.25308193516E+03  0.00000000000E+00 0. -1.
         -1    1    6    6    0  503 -0.31609128045E+03 -0.16288510351E+03 -0.64100626042E+03  0.73303088640E+03  0.00000000000E+00 0.  1.
<mgrwt>
<rscale>  0 0.17222544E+04</rscale>
<asrwt>0</asrwt>
<pdfrwt beam="1">  1        2 0.34744933E+00 0.17222544E+04</pdfrwt>
<pdfrwt beam="2">  1       -2 0.50514541E-01 0.17222544E+04</pdfrwt>
<totfact> 0.16859246E+01</totfact>
</mgrwt>
</event>
<event>
12    2  0.3623523E-008  0.1572155E+04  0.7818608E-02  0.8837839E-01
          1   -1    0    0  501    0  0.00000000000E+00  0.00000000000E+00  0.32839553225E+03  0.32839553225E+03  0.00000000000E+00 0. -1.
         -1   -1    0    0    0  501 -0.00000000000E+00 -0.00000000000E+00 -0.18816266979E+04  0.18816266979E+04  0.00000000000E+00 0.  1.
         23    2    1    2    0    0  0.23169595398E+03 -0.47968377620E+03 -0.57416682223E+03  0.78848307636E+03  0.90876188924E+02 0.  0.
        254    2    1    2    0    0 -0.23169595398E+03  0.47968377620E+03 -0.97906434341E+03  0.14215391538E+04  0.88228512226E+03 0.  0.
         23    2    4    4    0    0 -0.46846303722E+03  0.32365272597E-01 -0.56117787235E+03  0.73668166475E+03  0.91223091769E+02 0.  0.
         23    2    4    4    0    0  0.23676708324E+03  0.47965141093E+03 -0.41788647107E+03  0.68485748904E+03  0.90975545555E+02 0.  0.
          4    1    3    3  502    0  0.15191949207E+03 -0.35069807448E+03 -0.35270046806E+03  0.52006373810E+03  0.00000000000E+00 0. -1.
         -4    1    3    3    0  502  0.79776461911E+02 -0.12898570172E+03 -0.22146635416E+03  0.26841933826E+03  0.00000000000E+00 0.  1.
         11    1    5    5    0    0 -0.40743204881E+03  0.27808584676E+02 -0.50300074190E+03  0.64790735305E+03  0.00000000000E+00 0. -1.
        -11    1    5    5    0    0 -0.61030988408E+02 -0.27776219404E+02 -0.58177130443E+02  0.88774311696E+02  0.00000000000E+00 0.  1.
          3    1    6    6  503    0  0.18284202872E+03  0.43292074124E+03 -0.34610770933E+03  0.58364554493E+03  0.00000000000E+00 0. -1.
         -3    1    6    6    0  503  0.53925054516E+02  0.46730669687E+02 -0.71778761741E+02  0.10121194411E+03  0.00000000000E+00 0.  1.
<mgrwt>
<rscale>  0 0.15721550E+04</rscale>
<asrwt>0</asrwt>
<pdfrwt beam="1">  1        1 0.50522389E-01 0.15721550E+04</pdfrwt>
<pdfrwt beam="2">  1       -1 0.28948103E+00 0.15721550E+04</pdfrwt>
<totfact> 0.28989519E+00</totfact>
</mgrwt>
</event>
<event>
12    2  0.3623523E-008  0.1228006E+04  0.7818608E-02  0.9088690E-01
         -2   -1    0    0    0  501 -0.00000000000E+00  0.00000000000E+00  0.42599224212E+03  0.42599224212E+03  0.00000000000E+00 0.  1.
          2   -1    0    0  501    0  0.00000000000E+00 -0.00000000000E+00 -0.88499118201E+03  0.88499118201E+03  0.00000000000E+00 0. -1.
         23    2    1    2    0    0  0.20561058771E+03  0.17205721872E+03 -0.81870810660E+02  0.29346884132E+03  0.86843139614E+02 0.  0.
        254    2    1    2    0    0 -0.20561058771E+03 -0.17205721872E+03 -0.37712812923E+03  0.10175145828E+04  0.90621790982E+03 0.  0.
         23    2    4    4    0    0 -0.11895701269E+03  0.25395179286E+03 -0.47682635579E+03  0.56081338569E+03  0.92227956823E+02 0.  0.
         23    2    4    4    0    0 -0.86653575020E+02 -0.42600901158E+03  0.99698226558E+02  0.45670119712E+03  0.98202479900E+02 0.  0.
          4    1    3    3  502    0  0.74969287607E+02  0.90025387812E+02  0.34121304871E+01  0.11720327286E+03  0.00000000000E+00 0. -1.
         -4    1    3    3    0  502  0.13064130011E+03  0.82031830906E+02 -0.85282941147E+02  0.17626556846E+03  0.00000000000E+00 0.  1.
         11    1    5    5    0    0 -0.88873714701E+02  0.10792684624E+03 -0.28870419730E+03  0.32077539626E+03  0.00000000000E+00 0.  1.
        -11    1    5    5    0    0 -0.30083297991E+02  0.14602494662E+03 -0.18812215849E+03  0.24003798943E+03  0.00000000000E+00 0. -1.
          1    1    6    6  503    0 -0.78040399228E+02 -0.26079982986E+03  0.19691946574E+02  0.27293704022E+03  0.00000000000E+00 0. -1.
         -1    1    6    6    0  503 -0.86131757921E+01 -0.16520918173E+03  0.80006279984E+02  0.18376415690E+03  0.00000000000E+00 0.  1.
<mgrwt>
<rscale>  0 0.12280055E+04</rscale>
<asrwt>0</asrwt>
<pdfrwt beam="1">  1        2 0.13615249E+00 0.12280055E+04</pdfrwt>
<pdfrwt beam="2">  1       -2 0.65537269E-01 0.12280055E+04</pdfrwt>
<totfact> 0.63435525E+01</totfact>
</mgrwt>
</event>
<event>
12    2  0.3623523E-008  0.1392727E+04  0.7818608E-02  0.8959100E-01
         -1   -1    0    0    0  501 -0.00000000000E+00  0.00000000000E+00  0.39870396437E+03  0.39870396437E+03  0.00000000000E+00 0.  1.
          1   -1    0    0  501    0  0.00000000000E+00 -0.00000000000E+00 -0.12162453542E+04  0.12162453542E+04  0.00000000000E+00 0. -1.
         23    2    1    2    0    0  0.21473299444E+02  0.34982825217E+03 -0.34148777363E+01  0.36203094040E+03  0.90630192600E+02 0.  0.
        254    2    1    2    0    0 -0.21473299444E+02 -0.34982825217E+03 -0.81412651205E+03  0.12529183781E+04  0.88552898093E+03 0.  0.
         23    2    4    4    0    0 -0.34764257286E+03 -0.18311618814E+03 -0.77456876388E+03  0.87296350827E+03  0.87872748790E+02 0.  0.
         23    2    4    4    0    0  0.32616927341E+03 -0.16671206402E+03 -0.39557748175E+02  0.37995486987E+03  0.92852466238E+02 0.  0.
          4    1    3    3  502    0  0.20154616871E+01  0.10655664242E+03 -0.42755099909E+02  0.11483195852E+03  0.00000000000E+00 0. -1.
         -4    1    3    3    0  502  0.19457837757E+02  0.24327160975E+03  0.39340222173E+02  0.24719898187E+03  0.00000000000E+00 0.  1.
         11    1    5    5    0    0 -0.85401210539E+01  0.25962115114E+01 -0.21417895392E+01  0.91793923686E+01  0.00000000000E+00 0. -1.
        -11    1    5    5    0    0 -0.33910245180E+03 -0.18571239965E+03 -0.77242697434E+03  0.86378411591E+03  0.00000000000E+00 0.  1.
          1    1    6    6  503    0  0.24549381572E+02  0.25942310585E+01  0.16303835239E+02  0.29584070272E+02  0.00000000000E+00 0. -1.
         -1    1    6    6    0  503  0.30161989184E+03 -0.16930629508E+03 -0.55861583414E+02  0.35037079960E+03  0.00000000000E+00 0.  1.
<mgrwt>
<rscale>  0 0.13927266E+04</rscale>
<asrwt>0</asrwt>
<pdfrwt beam="1">  1        1 0.18711467E+00 0.13927266E+04</pdfrwt>
<pdfrwt beam="2">  1       -1 0.61339073E-01 0.13927266E+04</pdfrwt>
<totfact> 0.27343604E+01</totfact>
</mgrwt>
</event>
<event>
12    2  0.3623523E-008  0.1470356E+04  0.7818608E-02  0.8904408E-01
         -2   -1    0    0    0  501 -0.00000000000E+00  0.00000000000E+00  0.18533185841E+03  0.18533185841E+03  0.00000000000E+00 0.  1.
          2   -1    0    0  501    0  0.00000000000E+00 -0.00000000000E+00 -0.29163201574E+04  0.29163201574E+04  0.00000000000E+00 0. -1.
         23    2    1    2    0    0 -0.44660788970E+03 -0.23447014344E+02 -0.66697109811E+03  0.80812665081E+03  0.90608324167E+02 0.  0.
        254    2    1    2    0    0  0.44660788970E+03  0.23447014344E+02 -0.20640172009E+04  0.22935253650E+04  0.89447371387E+03 0.  0.
         23    2    4    4    0    0  0.27319321706E+03  0.44751416601E+03 -0.11337752097E+04  0.12524120604E+04  0.90478065231E+02 0.  0.
         23    2    4    4    0    0  0.17341467264E+03 -0.42406715166E+03 -0.93024199123E+03  0.10411133047E+04  0.93065316169E+02 0.  0.
          2    1    3    3  502    0 -0.30634569538E+03 -0.53620334730E+02 -0.42175389060E+03  0.52402210794E+03  0.00000000000E+00 0.  1.
         -2    1    3    3    0  502 -0.14026219432E+03  0.30173320386E+02 -0.24521720751E+03  0.28410454287E+03  0.00000000000E+00 0. -1.
         11    1    5    5    0    0  0.25879193221E+03  0.44823261694E+03 -0.11061143452E+04  0.12212185258E+04  0.00000000000E+00 0.  1.
        -11    1    5    5    0    0  0.14401284851E+02 -0.71845092781E+00 -0.27660864461E+02  0.31193534584E+02  0.00000000000E+00 0. -1.
          2    1    6    6  503    0  0.69849963997E+02 -0.11892798284E+03 -0.20012511186E+03  0.24304926037E+03  0.00000000000E+00 0. -1.
         -2    1    6    6    0  503  0.10356470864E+03 -0.30513916883E+03 -0.73011687937E+03  0.79806404428E+03  0.00000000000E+00 0.  1.
<mgrwt>
<rscale>  0 0.14703565E+04</rscale>
<asrwt>0</asrwt>
<pdfrwt beam="1">  1        2 0.44866463E+00 0.14703565E+04</pdfrwt>
<pdfrwt beam="2">  1       -2 0.28512594E-01 0.14703565E+04</pdfrwt>
<totfact> 0.21574585E+01</totfact>
</mgrwt>
</event>
<event>
12    2  0.3623523E-008  0.1280467E+04  0.7818608E-02  0.9045200E-01
         -2   -1    0    0    0  501 -0.00000000000E+00  0.00000000000E+00  0.56411990039E+03  0.56411990039E+03  0.00000000000E+00 0.  1.
          2   -1    0    0  501    0  0.00000000000E+00 -0.00000000000E+00 -0.72661714210E+03  0.72661714210E+03  0.00000000000E+00 0. -1.
         23    2    1    2    0    0  0.25619938655E+03 -0.13605703983E+03  0.82698832369E+02  0.31543262220E+03  0.92244232972E+02 0.  0.
        254    2    1    2    0    0 -0.25619938655E+03  0.13605703983E+03 -0.24519607408E+03  0.97530442028E+03  0.89830281850E+03 0.  0.
         23    2    4    4    0    0 -0.53249647825E+03 -0.12021775235E+03 -0.10897577813E+03  0.56401132659E+03  0.90709696160E+02 0.  0.
         23    2    4    4    0    0  0.27629709169E+03  0.25627479217E+03 -0.13622029595E+03  0.41129309369E+03  0.92677871711E+02 0.  0.
          1    1    3    3  502    0 -0.46391531207E+01 -0.77844195396E+01 -0.67595498019E+01  0.11305328070E+02  0.00000000000E+00 0. -1.
         -1    1    3    3    0  502  0.26083853967E+03 -0.12827262029E+03  0.89458382171E+02  0.30412729413E+03  0.00000000000E+00 0.  1.
         11    1    5    5    0    0 -0.38178868815E+03 -0.65457728196E+02 -0.39870411766E+02  0.38940591459E+03  0.00000000000E+00 0. -1.
        -11    1    5    5    0    0 -0.15070779009E+03 -0.54760024153E+02 -0.69105366359E+02  0.17460541200E+03  0.00000000000E+00 0.  1.
          2    1    6    6  503    0  0.63511612935E+02  0.52176272227E+02 -0.72588604817E+02  0.10965944515E+03  0.00000000000E+00 0. -1.
         -2    1    6    6    0  503  0.21278547876E+03  0.20409851995E+03 -0.63631691138E+02  0.30163364854E+03  0.00000000000E+00 0.  1.
<mgrwt>
<rscale>  0 0.12804674E+04</rscale>
<asrwt>0</asrwt>
<pdfrwt beam="1">  1        2 0.11178725E+00 0.12804674E+04</pdfrwt>
<pdfrwt beam="2">  1       -2 0.86787677E-01 0.12804674E+04</pdfrwt>
<totfact> 0.44072877E+01</totfact>
</mgrwt>
</event>
<event>
12    2  0.3623523E-008  0.1274126E+04  0.7818608E-02  0.9050339E-01
         -2   -1    0    0    0  501 -0.00000000000E+00  0.00000000000E+00  0.38651087330E+03  0.38651087330E+03  0.00000000000E+00 0.  1.
          2   -1    0    0  501    0  0.00000000000E+00 -0.00000000000E+00 -0.10500339930E+04  0.10500339930E+04  0.00000000000E+00 0. -1.
         23    2    1    2    0    0 -0.92903498114E+02 -0.28117436187E+03 -0.92946987619E+02  0.32472302147E+03  0.95476784790E+02 0.  0.
        254    2    1    2    0    0  0.92903498114E+02  0.28117436187E+03 -0.57057613211E+03  0.11118218448E+04  0.90713869415E+03 0.  0.
         23    2    4    4    0    0 -0.25702033581E+03  0.29986747581E+03  0.34227216643E+02  0.40673252077E+03  0.90993873572E+02 0.  0.
         23    2    4    4    0    0  0.34992383392E+03 -0.18693113941E+02 -0.60480334875E+03  0.70508932408E+03  0.92562099236E+02 0.  0.
          3    1    3    3  502    0 -0.84828887281E+02 -0.18544674623E+03 -0.10239664739E+03  0.22819182545E+03  0.00000000000E+00 0. -1.
         -3    1    3    3    0  502 -0.80746108328E+01 -0.95727615638E+02  0.94496597754E+01  0.96531196023E+02  0.00000000000E+00 0.  1.
         11    1    5    5    0    0 -0.63833705105E+02  0.12241418128E+03  0.41981977273E+02  0.14429989640E+03  0.00000000000E+00 0.  1.
        -11    1    5    5    0    0 -0.19318663070E+03  0.17745329453E+03 -0.77547606297E+01  0.26243262437E+03  0.00000000000E+00 0. -1.
          1    1    6    6  503    0  0.14366810198E+03 -0.24542507597E+02 -0.17080795541E+03  0.22454000943E+03  0.00000000000E+00 0. -1.
         -1    1    6    6    0  503  0.20625573194E+03  0.58493936568E+01 -0.43399539334E+03  0.48054931464E+03  0.00000000000E+00 0.  1.
<mgrwt>
<rscale>  0 0.12741265E+04</rscale>
<asrwt>0</asrwt>
<pdfrwt beam="1">  1        2 0.16154369E+00 0.12741265E+04</pdfrwt>
<pdfrwt beam="2">  1       -2 0.59463212E-01 0.12741265E+04</pdfrwt>
<totfact> 0.60672948E+01</totfact>
</mgrwt>
</event>
<event>
12    2  0.3623523E-008  0.1418203E+04  0.7818608E-02  0.8940747E-01
         -2   -1    0    0    0  501 -0.00000000000E+00  0.00000000000E+00  0.66553317910E+03  0.66553317910E+03  0.00000000000E+00 0.  1.
          2   -1    0    0  501    0  0.00000000000E+00 -0.00000000000E+00 -0.75552156327E+03  0.75552156327E+03  0.00000000000E+00 0. -1.
         23    2    1    2    0    0 -0.58039226108E+02 -0.37323237031E+03  0.12493349888E+03  0.40812244957E+03  0.91019781842E+02 0.  0.
        254    2    1    2    0    0  0.58039226108E+02  0.37323237031E+03 -0.21492188305E+03  0.10129322928E+04  0.91496964976E+03 0.  0.
         23    2    4    4    0    0 -0.39259580061E+03  0.12945186720E+02 -0.53191843464E+02  0.40687390068E+03  0.91749432301E+02 0.  0.
         23    2    4    4    0    0  0.45063502672E+03  0.36028718359E+03 -0.16173003958E+03  0.60605839213E+03  0.90947165975E+02 0.  0.
          2    1    3    3  502    0  0.16004443060E+02 -0.21809684038E+02  0.21003523584E+02  0.34248394392E+02  0.00000000000E+00 0. -1.
         -2    1    3    3    0  502 -0.74043669168E+02 -0.35142268627E+03  0.10392997529E+03  0.37387405518E+03  0.00000000000E+00 0.  1.
         11    1    5    5    0    0 -0.34187393298E+03  0.35607575740E+02 -0.65657807947E+02  0.34993804201E+03  0.00000000000E+00 0.  1.
        -11    1    5    5    0    0 -0.50721867630E+02 -0.22662389021E+02  0.12465964483E+02  0.56935858670E+02  0.00000000000E+00 0. -1.
          2    1    6    6  503    0  0.23748150086E+02  0.43855025345E+01  0.71409608394E+01  0.25183339466E+02  0.00000000000E+00 0. -1.
         -2    1    6    6    0  503  0.42688687663E+03  0.35590168105E+03 -0.16887100042E+03  0.58087505266E+03  0.00000000000E+00 0.  1.
<mgrwt>
<rscale>  0 0.14182026E+04</rscale>
<asrwt>0</asrwt>
<pdfrwt beam="1">  1        2 0.11623409E+00 0.14182026E+04</pdfrwt>
<pdfrwt beam="2">  1       -2 0.10238972E+00 0.14182026E+04</pdfrwt>
<totfact> 0.28195933E+01</totfact>
</mgrwt>
</event>
<event>
12    2  0.3623523E-008  0.2664050E+04  0.7818608E-02  0.8346765E-01
         -2   -1    0    0    0  501 -0.00000000000E+00  0.00000000000E+00  0.11091708149E+04  0.11091708149E+04  0.00000000000E+00 0. -1.
          2   -1    0    0  501    0  0.00000000000E+00 -0.00000000000E+00 -0.15996548639E+04  0.15996548639E+04  0.00000000000E+00 0.  1.
         23    2    1    2    0    0  0.14382753254E+03  0.32254032253E+02 -0.14077200094E+04  0.14183010092E+04  0.90418173421E+02 0.  0.
        254    2    1    2    0    0 -0.14382753254E+03 -0.32254032253E+02  0.91723596044E+03  0.12905246696E+04  0.89577086027E+03 0.  0.
         23    2    4    4    0    0  0.30920346476E+03  0.13928551055E+03  0.62417802280E+03  0.71603811950E+03  0.90028597429E+02 0.  0.
         23    2    4    4    0    0 -0.45303099731E+03 -0.17153954281E+03  0.29305793764E+03  0.57448655014E+03  0.97411201674E+02 0.  0.
          3    1    3    3  502    0  0.14165984364E+03  0.19050810294E+02 -0.97970641630E+03  0.99007833367E+03  0.00000000000E+00 0. -1.
         -3    1    3    3    0  502  0.21676889026E+01  0.13203221959E+02 -0.42801359309E+03  0.42822267551E+03  0.00000000000E+00 0.  1.
         11    1    5    5    0    0  0.29312646885E+02  0.31605730480E+02  0.37407894394E+02  0.57074548001E+02  0.00000000000E+00 0.  1.
        -11    1    5    5    0    0  0.27989081788E+03  0.10767978007E+03  0.58677012841E+03  0.65896357150E+03  0.00000000000E+00 0. -1.
          4    1    6    6  503    0 -0.36025523925E+03 -0.17350862480E+03  0.22003642237E+03  0.45640454364E+03  0.00000000000E+00 0. -1.
         -4    1    6    6    0  503 -0.92775758062E+02  0.19690819921E+01  0.73021515262E+02  0.11808200650E+03  0.00000000000E+00 0.  1.
<mgrwt>
<rscale>  0 0.26640499E+04</rscale>
<asrwt>0</asrwt>
<pdfrwt beam="1">  1        2 0.24610075E+00 0.26640499E+04</pdfrwt>
<pdfrwt beam="2">  1       -2 0.17064166E+00 0.26640499E+04</pdfrwt>
<totfact> 0.20707665E+00</totfact>
</mgrwt>
</event>
<event>
12    2  0.3623523E-008  0.1398218E+04  0.7818608E-02  0.8955110E-01
         -1   -1    0    0    0  501 -0.00000000000E+00  0.00000000000E+00  0.70376616935E+03  0.70376616935E+03  0.00000000000E+00 0.  1.
          1   -1    0    0  501    0  0.00000000000E+00 -0.00000000000E+00 -0.69448235900E+03  0.69448235900E+03  0.00000000000E+00 0. -1.
         23    2    1    2    0    0  0.22153224496E+03  0.31428736433E+03 -0.12074778399E+03  0.41557197453E+03  0.10132598749E+03 0.  0.
        254    2    1    2    0    0 -0.22153224496E+03 -0.31428736433E+03  0.13003159434E+03  0.98267655383E+03  0.89492564550E+03 0.  0.
         23    2    4    4    0    0 -0.55862629301E+02 -0.44538250419E+03  0.41388339919E+03  0.61743854935E+03  0.91894971115E+02 0.  0.
         23    2    4    4    0    0 -0.16566961566E+03  0.13109513986E+03 -0.28385180485E+03  0.36523800447E+03  0.90524005371E+02 0.  0.
          3    1    3    3  502    0  0.16575115340E+03  0.22881744791E+03 -0.13390004353E+03  0.31266610143E+03  0.00000000000E+00 0. -1.
         -3    1    3    3    0  502  0.55781091563E+02  0.85469916417E+02  0.13152259544E+02  0.10290587310E+03  0.00000000000E+00 0.  1.
         11    1    5    5    0    0 -0.39655772622E+02 -0.19111195885E+03  0.23819939114E+03  0.30795342352E+03  0.00000000000E+00 0.  1.
        -11    1    5    5    0    0 -0.16206856679E+02 -0.25427054533E+03  0.17568400805E+03  0.30948512583E+03  0.00000000000E+00 0. -1.
          3    1    6    6  503    0 -0.26713462947E+02  0.75328937648E+02 -0.10587732088E+03  0.13265769871E+03  0.00000000000E+00 0. -1.
         -3    1    6    6    0  503 -0.13895615272E+03  0.55766202210E+02 -0.17797448397E+03  0.23258030577E+03  0.00000000000E+00 0.  1.
<mgrwt>
<rscale>  0 0.13982177E+04</rscale>
<asrwt>0</asrwt>
<pdfrwt beam="1">  1        1 0.10684344E+00 0.13982177E+04</pdfrwt>
<pdfrwt beam="2">  1       -1 0.10827172E+00 0.13982177E+04</pdfrwt>
<totfact> 0.21313355E+01</totfact>
</mgrwt>
</event>
<event>
12    2  0.3623523E-008  0.1561708E+04  0.7818608E-02  0.8844424E-01
          1   -1    0    0  501    0  0.00000000000E+00  0.00000000000E+00  0.12905401971E+04  0.12905401971E+04  0.00000000000E+00 0. -1.
         -1   -1    0    0    0  501 -0.00000000000E+00 -0.00000000000E+00 -0.47246348436E+03  0.47246348436E+03  0.00000000000E+00 0.  1.
         23    2    1    2    0    0 -0.63836629326E+02  0.50758120047E+03  0.26243561021E+03  0.58247875814E+03  0.93248398688E+02 0.  0.
        254    2    1    2    0    0  0.63836629326E+02 -0.50758120047E+03  0.55564110248E+03  0.11805249233E+04  0.90729723322E+03 0.  0.
         23    2    4    4    0    0 -0.37698757729E+03 -0.65795364894E+02  0.31990134078E+03  0.50702190217E+03  0.91025699534E+02 0.  0.
         23    2    4    4    0    0  0.44082420662E+03 -0.44178583558E+03  0.23573976170E+03  0.67350302111E+03  0.92370874965E+02 0.  0.
          1    1    3    3  502    0 -0.55620008711E+01  0.15049023034E+03  0.33361126999E+02  0.15424399527E+03  0.00000000000E+00 0. -1.
         -1    1    3    3    0  502 -0.58274628455E+02  0.35709097014E+03  0.22907448321E+03  0.42823476287E+03  0.00000000000E+00 0.  1.
         11    1    5    5    0    0 -0.59268276968E+02 -0.20022402465E+02  0.15077776157E+02  0.64350327032E+02  0.00000000000E+00 0. -1.
        -11    1    5    5    0    0 -0.31771930032E+03 -0.45772962429E+02  0.30482356462E+03  0.44267157514E+03  0.00000000000E+00 0.  1.
          3    1    6    6  503    0  0.28387135117E+03 -0.29625573705E+03  0.20016537311E+03  0.45652665020E+03  0.00000000000E+00 0. -1.
         -3    1    6    6    0  503  0.15695285544E+03 -0.14553009853E+03  0.35574388592E+02  0.21697637091E+03  0.00000000000E+00 0.  1.
<mgrwt>
<rscale>  0 0.15617082E+04</rscale>
<asrwt>0</asrwt>
<pdfrwt beam="1">  1        1 0.19854464E+00 0.15617082E+04</pdfrwt>
<pdfrwt beam="2">  1       -1 0.72686691E-01 0.15617082E+04</pdfrwt>
<totfact> 0.16879956E+01</totfact>
</mgrwt>
</event>
<event>
12    2  0.3623523E-008  0.1309070E+04  0.7818608E-02  0.9022403E-01
          2   -1    0    0  501    0  0.00000000000E+00  0.00000000000E+00  0.33687005568E+04  0.33687005568E+04  0.00000000000E+00 0. -1.
         -2   -1    0    0    0  501 -0.00000000000E+00 -0.00000000000E+00 -0.12717547257E+03  0.12717547257E+03  0.00000000000E+00 0.  1.
         23    2    1    2    0    0  0.21869181934E+03  0.20321966977E+02  0.14720114677E+03  0.27972859144E+03  0.91328051956E+02 0.  0.
        254    2    1    2    0    0 -0.21869181934E+03 -0.20321966977E+02  0.30943239374E+04  0.32161474379E+04  0.84883721542E+03 0.  0.
         23    2    4    4    0    0 -0.30428593485E+02  0.18972219891E+03  0.16047596430E+03  0.26732550261E+03  0.93754878090E+02 0.  0.
         23    2    4    4    0    0 -0.18826322585E+03 -0.21004416589E+03  0.29338479731E+04  0.29488219353E+04  0.92332457477E+02 0.  0.
          2    1    3    3  502    0  0.80946743115E+02  0.51760530839E+02  0.68515859512E+02  0.11800826572E+03  0.00000000000E+00 0. -1.
         -2    1    3    3    0  502  0.13774507622E+03 -0.31438563862E+02  0.78685287254E+02  0.16172032572E+03  0.00000000000E+00 0.  1.
         11    1    5    5    0    0 -0.58984941409E+02  0.11008877767E+03  0.68843561869E+02  0.14261205522E+03  0.00000000000E+00 0. -1.
        -11    1    5    5    0    0  0.28556347925E+02  0.79633421239E+02  0.91632402429E+02  0.12471344739E+03  0.00000000000E+00 0.  1.
          2    1    6    6  503    0 -0.19348576334E+03 -0.17655522232E+03  0.26665111253E+04  0.26793450820E+04  0.00000000000E+00 0. -1.
         -2    1    6    6    0  503  0.52225374893E+01 -0.33488943570E+02  0.26733684784E+03  0.26947685328E+03  0.00000000000E+00 0.  1.
<mgrwt>
<rscale>  0 0.13090700E+04</rscale>
<asrwt>0</asrwt>
<pdfrwt beam="1">  1        2 0.51826156E+00 0.13090700E+04</pdfrwt>
<pdfrwt beam="2">  1       -2 0.19565460E-01 0.13090700E+04</pdfrwt>
<totfact> 0.22182900E+01</totfact>
</mgrwt>
</event>
<event>
12    2  0.3623523E-008  0.1605677E+04  0.7818608E-02  0.8817068E-01
         -2   -1    0    0    0  501 -0.00000000000E+00  0.00000000000E+00  0.49464346270E+03  0.49464346270E+03  0.00000000000E+00 0.  1.
          2   -1    0    0  501    0  0.00000000000E+00 -0.00000000000E+00 -0.13030593048E+04  0.13030593048E+04  0.00000000000E+00 0. -1.
         23    2    1    2    0    0  0.43787586580E+02  0.54791225667E+03 -0.21581321651E+03  0.59734042056E+03  0.90083516075E+02 0.  0.
        254    2    1    2    0    0 -0.43787586580E+02 -0.54791225667E+03 -0.59260262556E+03  0.12003623469E+04  0.88744954690E+03 0.  0.
         23    2    4    4    0    0 -0.27766484029E+03 -0.67203522530E+03 -0.55136420900E+03  0.91694203075E+03  0.89727861898E+02 0.  0.
         23    2    4    4    0    0  0.23387725371E+03  0.12412296863E+03 -0.41238416557E+02  0.28342031616E+03  0.92311361522E+02 0.  0.
          4    1    3    3  502    0  0.49538363839E+02  0.17687410904E+03 -0.46609239907E+02  0.18950177093E+03  0.00000000000E+00 0. -1.
         -4    1    3    3    0  502 -0.57507772587E+01  0.37103814763E+03 -0.16920397660E+03  0.40783864963E+03  0.00000000000E+00 0.  1.
         11    1    5    5    0    0 -0.25525735906E+03 -0.52332477761E+03 -0.43680863248E+03  0.72789210988E+03  0.00000000000E+00 0.  1.
        -11    1    5    5    0    0 -0.22407481231E+02 -0.14871044769E+03 -0.11455557652E+03  0.18904992087E+03  0.00000000000E+00 0. -1.
          4    1    6    6  503    0  0.88699320071E+02  0.62321104386E+02 -0.61023052300E+02  0.12439976827E+03  0.00000000000E+00 0. -1.
         -4    1    6    6    0  503  0.14517793364E+03  0.61801864244E+02  0.19784635743E+02  0.15902054789E+03  0.00000000000E+00 0.  1.
<mgrwt>
<rscale>  0 0.16056771E+04</rscale>
<asrwt>0</asrwt>
<pdfrwt beam="1">  1        2 0.20047066E+00 0.16056771E+04</pdfrwt>
<pdfrwt beam="2">  1       -2 0.76098994E-01 0.16056771E+04</pdfrwt>
<totfact> 0.24398163E+01</totfact>
</mgrwt>
</event>
<event>
12    2  0.3623523E-008  0.1467758E+04  0.7818608E-02  0.8906181E-01
          1   -1    0    0  501    0  0.00000000000E+00  0.00000000000E+00  0.82311298087E+03  0.82311298087E+03  0.00000000000E+00 0. -1.
         -1   -1    0    0    0  501 -0.00000000000E+00 -0.00000000000E+00 -0.65431879144E+03  0.65431879144E+03  0.00000000000E+00 0.  1.
         23    2    1    2    0    0  0.10396672474E+03  0.28405567847E+03 -0.28799254153E+03  0.42761126501E+03  0.91733209122E+02 0.  0.
        254    2    1    2    0    0 -0.10396672474E+03 -0.28405567847E+03  0.45678673096E+03  0.10498205073E+04  0.89552904567E+03 0.  0.
         23    2    4    4    0    0 -0.19127192201E+03  0.10002086567E+02  0.64502663772E+03  0.67886944908E+03  0.90107578205E+02 0.  0.
         23    2    4    4    0    0  0.87305197271E+02 -0.29405776504E+03 -0.18823990676E+03  0.37095105822E+03  0.89879132415E+02 0.  0.
          2    1    3    3  502    0  0.37239501760E+02  0.31245872635E+02 -0.79544622036E+02  0.93222486252E+02  0.00000000000E+00 0. -1.
         -2    1    3    3    0  502  0.66727222979E+02  0.25280980584E+03 -0.20844791950E+03  0.33438877876E+03  0.00000000000E+00 0.  1.
         11    1    5    5    0    0 -0.70113313272E+02  0.31253470579E+02  0.14652249654E+03  0.16541311349E+03  0.00000000000E+00 0.  1.
        -11    1    5    5    0    0 -0.12115860874E+03 -0.21251384012E+02  0.49850414118E+03  0.51345633560E+03  0.00000000000E+00 0. -1.
          2    1    6    6  503    0  0.19880121602E+02 -0.12207005167E+03 -0.12461020757E+03  0.17556770939E+03  0.00000000000E+00 0. -1.
         -2    1    6    6    0  503  0.67425075669E+02 -0.17198771337E+03 -0.63629699185E+02  0.19538334882E+03  0.00000000000E+00 0.  1.
<mgrwt>
<rscale>  0 0.14677579E+04</rscale>
<asrwt>0</asrwt>
<pdfrwt beam="1">  1        1 0.12663277E+00 0.14677579E+04</pdfrwt>
<pdfrwt beam="2">  1       -1 0.10066443E+00 0.14677579E+04</pdfrwt>
<totfact> 0.19229256E+01</totfact>
</mgrwt>
</event>
<event>
12    2  0.3623523E-008  0.2979316E+04  0.7818608E-02  0.8249662E-01
          1   -1    0    0  501    0  0.00000000000E+00  0.00000000000E+00  0.41438390261E+04  0.41438390261E+04  0.00000000000E+00 0. -1.
         -1   -1    0    0    0  501 -0.00000000000E+00 -0.00000000000E+00 -0.53551330528E+03  0.53551330528E+03  0.00000000000E+00 0.  1.
         23    2    1    2    0    0  0.40649731685E+02 -0.88079494538E+03  0.32175408437E+02  0.88701694204E+03  0.91168317244E+02 0.  0.
        254    2    1    2    0    0 -0.40649731685E+02  0.88079494538E+03  0.35761503124E+04  0.37923353894E+04  0.90305288440E+03 0.  0.
         23    2    4    4    0    0  0.97054518005E+02  0.95767869022E+03  0.34153983424E+04  0.35496267866E+04  0.91304073199E+02 0.  0.
         23    2    4    4    0    0 -0.13770424969E+03 -0.76883744842E+02  0.16075197002E+03  0.24270860277E+03  0.90513531528E+02 0.  0.
          4    1    3    3  502    0 -0.29018789234E+02 -0.25883466647E+03  0.26213992351E+01  0.26046947312E+03  0.00000000000E+00 0. -1.
         -4    1    3    3    0  502  0.69668520919E+02 -0.62196027891E+03  0.29554009202E+02  0.62654746892E+03  0.00000000000E+00 0.  1.
         11    1    5    5    0    0  0.10918183849E+03  0.65953271591E+03  0.23571414582E+04  0.24501061061E+04  0.00000000000E+00 0.  1.
        -11    1    5    5    0    0 -0.12127320485E+02  0.29814597431E+03  0.10582568842E+04  0.10995206805E+04  0.00000000000E+00 0. -1.
          1    1    6    6  503    0 -0.40074425313E+02 -0.22516141506E+02  0.11147248977E+03  0.12057799205E+03  0.00000000000E+00 0. -1.
         -1    1    6    6    0  503 -0.97629824377E+02 -0.54367603336E+02  0.49279480255E+02  0.12213061072E+03  0.00000000000E+00 0.  1.
<mgrwt>
<rscale>  0 0.29793160E+04</rscale>
<asrwt>0</asrwt>
<pdfrwt beam="1">  1        1 0.63751368E+00 0.29793160E+04</pdfrwt>
<pdfrwt beam="2">  1       -1 0.82386665E-01 0.29793160E+04</pdfrwt>
<totfact> 0.88949394E-02</totfact>
</mgrwt>
</event>
<event>
12    2  0.3623523E-008  0.1895189E+04  0.7818608E-02  0.8657255E-01
         -1   -1    0    0    0  501 -0.00000000000E+00  0.00000000000E+00  0.40678067118E+03  0.40678067118E+03  0.00000000000E+00 0.  1.
          1   -1    0    0  501    0  0.00000000000E+00 -0.00000000000E+00 -0.22074192492E+04  0.22074192492E+04  0.00000000000E+00 0. -1.
         23    2    1    2    0    0 -0.49228299380E+03 -0.14564667983E+03  0.15527381249E+02  0.52185311282E+03  0.92380032814E+02 0.  0.
        254    2    1    2    0    0  0.49228299380E+03  0.14564667983E+03 -0.18161659592E+04  0.20923468075E+04  0.90327231227E+03 0.  0.
         23    2    4    4    0    0  0.66748614317E+03 -0.10588820081E+03 -0.14748662287E+04  0.16245372168E+04  0.84502745151E+02 0.  0.
         23    2    4    4    0    0 -0.17520314937E+03  0.25153488064E+03 -0.34129973056E+03  0.46780959070E+03  0.91620780093E+02 0.  0.
          4    1    3    3  502    0 -0.85001070127E+02 -0.30146715899E+02 -0.32343108275E+02  0.95812749961E+02  0.00000000000E+00 0. -1.
         -4    1    3    3    0  502 -0.40728192367E+03 -0.11549996393E+03  0.47870489524E+02  0.42604036286E+03  0.00000000000E+00 0.  1.
         11    1    5    5    0    0  0.50027698131E+03 -0.43754252617E+02 -0.10596122292E+04  0.11725909640E+04  0.00000000000E+00 0.  1.
        -11    1    5    5    0    0  0.16720916186E+03 -0.62133948190E+02 -0.41525399953E+03  0.45194625284E+03  0.00000000000E+00 0. -1.
          2    1    6    6  503    0 -0.33361792220E+02  0.28438806206E+02 -0.11867665057E+02  0.45416036292E+02  0.00000000000E+00 0. -1.
         -2    1    6    6    0  503 -0.14184135715E+03  0.22309607443E+03 -0.32943206550E+03  0.42239355441E+03  0.00000000000E+00 0.  1.
<mgrwt>
<rscale>  0 0.18951892E+04</rscale>
<asrwt>0</asrwt>
<pdfrwt beam="1">  1        1 0.33960296E+00 0.18951892E+04</pdfrwt>
<pdfrwt beam="2">  1       -1 0.62581642E-01 0.18951892E+04</pdfrwt>
<totfact> 0.52208484E+00</totfact>
</mgrwt>
</event>
<event>
12    2  0.3623523E-008  0.2288360E+04  0.7818608E-02  0.8482525E-01
         -1   -1    0    0    0  501 -0.00000000000E+00  0.00000000000E+00  0.14101864029E+04  0.14101864029E+04  0.00000000000E+00 0.  1.
          1   -1    0    0  501    0  0.00000000000E+00 -0.00000000000E+00 -0.92835129923E+03  0.92835129923E+03  0.00000000000E+00 0. -1.
         23    2    1    2    0    0 -0.32626968917E+03  0.75472945413E+02  0.11293521202E+04  0.11815340655E+04  0.91861095618E+02 0.  0.
        254    2    1    2    0    0  0.32626968917E+03 -0.75472945413E+02 -0.64751701659E+03  0.11570036366E+04  0.89846037909E+03 0.  0.
         23    2    4    4    0    0  0.74708817417E+02  0.10929971183E+03  0.19551328176E+03  0.25342766538E+03  0.92045118436E+02 0.  0.
         23    2    4    4    0    0  0.25156087175E+03 -0.18477265724E+03 -0.84303029835E+03  0.90357597123E+03  0.91244971321E+02 0.  0.
          4    1    3    3  502    0 -0.29502263941E+03  0.92724950381E+02  0.10484655029E+04  0.10931222187E+04  0.00000000000E+00 0.  1.
         -4    1    3    3    0  502 -0.31247049764E+02 -0.17252004968E+02  0.80886617281E+02  0.88411846771E+02  0.00000000000E+00 0. -1.
         11    1    5    5    0    0  0.32483716372E+02  0.45466225726E+02  0.15918594750E+03  0.16870843308E+03  0.00000000000E+00 0. -1.
        -11    1    5    5    0    0  0.42225101045E+02  0.63833486101E+02  0.36327334260E+02  0.84719232295E+02  0.00000000000E+00 0.  1.
          2    1    6    6  503    0  0.21253773034E+02  0.20045671218E+01 -0.22069988706E+02  0.30705464644E+02  0.00000000000E+00 0.  1.
         -2    1    6    6    0  503  0.23030709872E+03 -0.18677722436E+03 -0.82096030964E+03  0.87287050658E+03  0.00000000000E+00 0. -1.
<mgrwt>
<rscale>  0 0.22883604E+04</rscale>
<asrwt>0</asrwt>
<pdfrwt beam="1">  1        1 0.14282328E+00 0.22883604E+04</pdfrwt>
<pdfrwt beam="2">  1       -1 0.21695175E+00 0.22883604E+04</pdfrwt>
<totfact> 0.18008148E+00</totfact>
</mgrwt>
</event>
<event>
12    2  0.3623523E-008  0.1330246E+04  0.7818608E-02  0.9005918E-01
          1   -1    0    0  501    0  0.00000000000E+00  0.00000000000E+00  0.53880184078E+03  0.53880184078E+03  0.00000000000E+00 0. -1.
         -1   -1    0    0    0  501 -0.00000000000E+00 -0.00000000000E+00 -0.82105986974E+03  0.82105986974E+03  0.00000000000E+00 0.  1.
         23    2    1    2    0    0  0.29229805402E+03  0.68648033120E+02 -0.25119354945E+03  0.40308234546E+03  0.96054531908E+02 0.  0.
        254    2    1    2    0    0 -0.29229805402E+03 -0.68648033120E+02 -0.31064479505E+02  0.95677936506E+03  0.90791577070E+03 0.  0.
         23    2    4    4    0    0  0.14357055850E+03  0.15526526008E+03 -0.30964742715E+03  0.38622974874E+03  0.92585546459E+02 0.  0.
         23    2    4    4    0    0 -0.43586861253E+03 -0.22391329320E+03  0.27858294765E+03  0.57054961632E+03  0.88316452071E+02 0.  0.
          2    1    3    3  502    0  0.19095681666E+03  0.68439770447E+02 -0.11454836399E+03  0.23295887127E+03  0.00000000000E+00 0. -1.
         -2    1    3    3    0  502  0.10134123736E+03  0.20826267261E+00 -0.13664518546E+03  0.17012347419E+03  0.00000000000E+00 0.  1.
         11    1    5    5    0    0  0.32236429738E+02  0.34934375710E+02 -0.16426783056E+02  0.50293510616E+02  0.00000000000E+00 0. -1.
        -11    1    5    5    0    0  0.11133412876E+03  0.12033088437E+03 -0.29322064409E+03  0.33593623812E+03  0.00000000000E+00 0.  1.
          4    1    6    6  503    0 -0.81387821849E+02 -0.36138005565E+02  0.92328103938E+02  0.12827475109E+03  0.00000000000E+00 0. -1.
         -4    1    6    6    0  503 -0.35448079068E+03 -0.18777528764E+03  0.18625484371E+03  0.44227486523E+03  0.00000000000E+00 0.  1.
<mgrwt>
<rscale>  0 0.13302459E+04</rscale>
<asrwt>0</asrwt>
<pdfrwt beam="1">  1        1 0.82892591E-01 0.13302459E+04</pdfrwt>
<pdfrwt beam="2">  1       -1 0.12631690E+00 0.13302459E+04</pdfrwt>
<totfact> 0.21348721E+01</totfact>
</mgrwt>
</event>
<event>
12    2  0.3623523E-008  0.1227517E+04  0.7818608E-02  0.9089107E-01
         -2   -1    0    0    0  501 -0.00000000000E+00  0.00000000000E+00  0.28735539006E+03  0.28735539006E+03  0.00000000000E+00 0.  1.
          2   -1    0    0  501    0  0.00000000000E+00 -0.00000000000E+00 -0.13109176357E+04  0.13109176357E+04  0.00000000000E+00 0. -1.
         23    2    1    2    0    0  0.73163552135E+02  0.11006029758E+03  0.80704319171E+02  0.17981468488E+03  0.91399996171E+02 0.  0.
        254    2    1    2    0    0 -0.73163552135E+02 -0.11006029758E+03 -0.11042665648E+04  0.14184583408E+04  0.88042787561E+03 0.  0.
         23    2    4    4    0    0  0.36517498842E+03  0.10546470177E+03 -0.54313337890E+03  0.66907800935E+03  0.90531430066E+02 0.  0.
         23    2    4    4    0    0 -0.43833854055E+03 -0.21552499935E+03 -0.56113318586E+03  0.74938033148E+03  0.90048472825E+02 0.  0.
          1    1    3    3  502    0 -0.22647200527E+01  0.42164210592E+02 -0.10343233874E+02  0.43473349292E+02  0.00000000000E+00 0. -1.
         -1    1    3    3    0  502  0.75428272188E+02  0.67896086991E+02  0.91047553045E+02  0.13634133559E+03  0.00000000000E+00 0.  1.
         11    1    5    5    0    0  0.31074416373E+03  0.54027097300E+02 -0.45099439868E+03  0.55034244809E+03  0.00000000000E+00 0. -1.
        -11    1    5    5    0    0  0.54430824688E+02  0.51437604467E+02 -0.92138980225E+02  0.11873556125E+03  0.00000000000E+00 0.  1.
          2    1    6    6  503    0 -0.41239768504E+03 -0.20285793589E+03 -0.48600989982E+03  0.66890120011E+03  0.00000000000E+00 0. -1.
         -2    1    6    6    0  503 -0.25940855512E+02 -0.12667063465E+02 -0.75123286042E+02  0.80479131377E+02  0.00000000000E+00 0.  1.
<mgrwt>
<rscale>  0 0.12275166E+04</rscale>
<asrwt>0</asrwt>
<pdfrwt beam="1">  1        2 0.20167964E+00 0.12275166E+04</pdfrwt>
<pdfrwt beam="2">  1       -2 0.44208521E-01 0.12275166E+04</pdfrwt>
<totfact> 0.77823320E+01</totfact>
</mgrwt>
</event>
<event>
12    2  0.3623523E-008  0.2208435E+04  0.7818608E-02  0.8514926E-01
          1   -1    0    0  501    0  0.00000000000E+00  0.00000000000E+00  0.68955340872E+03  0.68955340872E+03  0.00000000000E+00 0. -1.
         -1   -1    0    0    0  501 -0.00000000000E+00 -0.00000000000E+00 -0.17682398935E+04  0.17682398935E+04  0.00000000000E+00 0.  1.
         23    2    1    2    0    0 -0.39579534480E+03 -0.13667674832E+03  0.45852744425E+03  0.62760563918E+03  0.91142375978E+02 0.  0.
        254    2    1    2    0    0  0.39579534480E+03  0.13667674832E+03 -0.15372139290E+04  0.18301876630E+04  0.90068070361E+03 0.  0.
         23    2    4    4    0    0  0.28764244442E+03  0.50896540954E+03 -0.98897045028E+03  0.11524828675E+04  0.91489040013E+02 0.  0.
         23    2    4    4    0    0  0.10815290039E+03 -0.37228866122E+03 -0.54824347870E+03  0.67770479549E+03  0.91744104729E+02 0.  0.
          1    1    3    3  502    0 -0.21456380887E+03 -0.76580108965E+02  0.31495057900E+03  0.38871070011E+03  0.00000000000E+00 0. -1.
         -1    1    3    3    0  502 -0.18123153593E+03 -0.60096639356E+02  0.14357686525E+03  0.23889493907E+03  0.00000000000E+00 0.  1.
         11    1    5    5    0    0  0.14236185805E+03  0.21811810780E+03 -0.52345414625E+03  0.58467653520E+03  0.00000000000E+00 0. -1.
        -11    1    5    5    0    0  0.14528058637E+03  0.29084730174E+03 -0.46551630403E+03  0.56780633232E+03  0.00000000000E+00 0.  1.
          1    1    6    6  503    0 -0.93431100918E+01 -0.10357645082E+03 -0.12196844360E+03  0.16028623180E+03  0.00000000000E+00 0. -1.
         -1    1    6    6    0  503  0.11749601048E+03 -0.26871221040E+03 -0.42627503510E+03  0.51741856369E+03  0.00000000000E+00 0.  1.
<mgrwt>
<rscale>  0 0.22084346E+04</rscale>
<asrwt>0</asrwt>
<pdfrwt beam="1">  1        1 0.10608514E+00 0.22084346E+04</pdfrwt>
<pdfrwt beam="2">  1       -1 0.27203691E+00 0.22084346E+04</pdfrwt>
<totfact> 0.12728926E+00</totfact>
</mgrwt>
</event>
<event>
12    2  0.3623523E-008  0.3147159E+04  0.7818608E-02  0.8202913E-01
          2   -1    0    0  501    0  0.00000000000E+00  0.00000000000E+00  0.21446061701E+04  0.21446061701E+04  0.00000000000E+00 0. -1.
         -2   -1    0    0    0  501 -0.00000000000E+00 -0.00000000000E+00 -0.11545954627E+04  0.11545954627E+04  0.00000000000E+00 0.  1.
         23    2    1    2    0    0  0.85918500615E+03  0.10981876424E+04  0.75980555606E+02  0.13993753351E+04  0.90902755012E+02 0.  0.
        254    2    1    2    0    0 -0.85918500615E+03 -0.10981876424E+04  0.91403015181E+03  0.18998262977E+04  0.91086435329E+03 0.  0.
         23    2    4    4    0    0 -0.55577918173E+02  0.13960191146E+03  0.16996033145E+03  0.24456588269E+03  0.91369349552E+02 0.  0.
         23    2    4    4    0    0 -0.80360708797E+03 -0.12377895539E+04  0.74406982036E+03  0.16552604150E+04  0.91322572566E+02 0.  0.
          4    1    3    3  502    0  0.74722879989E+01  0.22965056149E+02 -0.71146001347E+01  0.25176306857E+02  0.00000000000E+00 0. -1.
         -4    1    3    3    0  502  0.85171271815E+03  0.10752225863E+04  0.83095155741E+02  0.13741990282E+04  0.00000000000E+00 0.  1.
         11    1    5    5    0    0  0.14299488325E+02  0.78362606063E+02  0.55229248576E+02  0.96930094881E+02  0.00000000000E+00 0. -1.
        -11    1    5    5    0    0 -0.69877406498E+02  0.61239305395E+02  0.11473108287E+03  0.14763578781E+03  0.00000000000E+00 0.  1.
          4    1    6    6  503    0 -0.31116758096E+01 -0.39881411511E+01  0.10670414262E+02  0.11808705971E+02  0.00000000000E+00 0.  1.
         -4    1    6    6    0  503 -0.80049541216E+03 -0.12338014127E+04  0.73339940610E+03  0.16434517090E+04  0.00000000000E+00 0. -1.
<mgrwt>
<rscale>  0 0.31471591E+04</rscale>
<asrwt>0</asrwt>
<pdfrwt beam="1">  1        2 0.32993941E+00 0.31471591E+04</pdfrwt>
<pdfrwt beam="2">  1       -2 0.17763007E+00 0.31471591E+04</pdfrwt>
<totfact> 0.88359178E-01</totfact>
</mgrwt>
</event>
<event>
12    2  0.3623523E-008  0.1407912E+04  0.7818608E-02  0.8948111E-01
          1   -1    0    0  501    0  0.00000000000E+00  0.00000000000E+00  0.31236448461E+03  0.31236448461E+03  0.00000000000E+00 0. -1.
         -1   -1    0    0    0  501 -0.00000000000E+00 -0.00000000000E+00 -0.15864619570E+04  0.15864619570E+04  0.00000000000E+00 0.  1.
         23    2    1    2    0    0 -0.35352969777E+03 -0.13788292475E+03 -0.58580910409E+03  0.70393057168E+03  0.91383779593E+02 0.  0.
        254    2    1    2    0    0  0.35352969777E+03  0.13788292475E+03 -0.68828836831E+03  0.11948958699E+04  0.90002239634E+03 0.  0.
         23    2    4    4    0    0  0.59267445256E+03 -0.99689936182E+02 -0.31773841477E+03  0.68594276224E+03  0.91425831958E+02 0.  0.
         23    2    4    4    0    0 -0.23914475479E+03  0.23757286093E+03 -0.37054995354E+03  0.50895310770E+03  0.89971772121E+02 0.  0.
          3    1    3    3  502    0 -0.34884607543E+02 -0.36300706314E+02 -0.12318683534E+03  0.13307769732E+03  0.00000000000E+00 0. -1.
         -3    1    3    3    0  502 -0.31864509023E+03 -0.10158221843E+03 -0.46262226875E+03  0.57085287436E+03  0.00000000000E+00 0.  1.
         11    1    5    5    0    0  0.33415359482E+03 -0.67994186925E+02 -0.13028122201E+03  0.36504113631E+03  0.00000000000E+00 0. -1.
        -11    1    5    5    0    0  0.25852085774E+03 -0.31695749257E+02 -0.18745719275E+03  0.32090162593E+03  0.00000000000E+00 0.  1.
          4    1    6    6  503    0 -0.51589848924E+02  0.23730172443E+02 -0.26832982621E+02  0.62806389425E+02  0.00000000000E+00 0. -1.
         -4    1    6    6    0  503 -0.18755490587E+03  0.21384268848E+03 -0.34371697092E+03  0.44614671828E+03  0.00000000000E+00 0.  1.
<mgrwt>
<rscale>  0 0.14079125E+04</rscale>
<asrwt>0</asrwt>
<pdfrwt beam="1">  1        1 0.48056075E-01 0.14079125E+04</pdfrwt>
<pdfrwt beam="2">  1       -1 0.24407107E+00 0.14079125E+04</pdfrwt>
<totfact> 0.61828449E+00</totfact>
</mgrwt>
</event>
<event>
12    2  0.3623523E-008  0.1292153E+04  0.7818608E-02  0.9035811E-01
          2   -1    0    0  501    0  0.00000000000E+00  0.00000000000E+00  0.32063912971E+04  0.32063912971E+04  0.00000000000E+00 0.  1.
         -2   -1    0    0    0  501 -0.00000000000E+00 -0.00000000000E+00 -0.13018205298E+03  0.13018205298E+03  0.00000000000E+00 0. -1.
         23    2    1    2    0    0 -0.28051664427E+03 -0.13135707098E+03  0.61219695284E+03  0.69227988288E+03  0.92315000749E+02 0.  0.
        254    2    1    2    0    0  0.28051664427E+03  0.13135707098E+03  0.24640122913E+04  0.26442934672E+04  0.90828800570E+03 0.  0.
         23    2    4    4    0    0  0.35571710685E+03 -0.22728904470E+03  0.58259522444E+03  0.72535536320E+03  0.92348456591E+02 0.  0.
         23    2    4    4    0    0 -0.75200462576E+02  0.35864611568E+03  0.18814170668E+04  0.19189381040E+04  0.91165353837E+02 0.  0.
          1    1    3    3  502    0 -0.17560896832E+03 -0.32204506024E+02  0.32300576238E+03  0.36906417124E+03  0.00000000000E+00 0. -1.
         -1    1    3    3    0  502 -0.10490767595E+03 -0.99152564956E+02  0.28919119046E+03  0.32321571164E+03  0.00000000000E+00 0.  1.
         11    1    5    5    0    0  0.29323911891E+03 -0.17827859324E+03  0.40520042251E+03  0.53099888895E+03  0.00000000000E+00 0.  1.
        -11    1    5    5    0    0  0.62477987937E+02 -0.49010451457E+02  0.17739480193E+03  0.19435647424E+03  0.00000000000E+00 0. -1.
          3    1    6    6  503    0 -0.75025003110E+01  0.19926664668E+02  0.39122143015E+02  0.44541009752E+02  0.00000000000E+00 0. -1.
         -3    1    6    6    0  503 -0.67697962265E+02  0.33871945101E+03  0.18422949238E+04  0.18743970943E+04  0.00000000000E+00 0.  1.
<mgrwt>
<rscale>  0 0.12921526E+04</rscale>
<asrwt>0</asrwt>
<pdfrwt beam="1">  1        2 0.49329091E+00 0.12921526E+04</pdfrwt>
<pdfrwt beam="2">  1       -2 0.20028011E-01 0.12921526E+04</pdfrwt>
<totfact> 0.27269336E+01</totfact>
</mgrwt>
</event>
<event>
12    2  0.3623523E-008  0.1519274E+04  0.7818608E-02  0.8871736E-01
         -2   -1    0    0    0  501 -0.00000000000E+00  0.00000000000E+00  0.45042557981E+03  0.45042557981E+03  0.00000000000E+00 0.  1.
          2   -1    0    0  501    0  0.00000000000E+00 -0.00000000000E+00 -0.12811185179E+04  0.12811185179E+04  0.00000000000E+00 0. -1.
         23    2    1    2    0    0 -0.35684765801E+03  0.34883628253E+03 -0.49289363100E+03  0.70720537781E+03  0.90378713743E+02 0.  0.
        254    2    1    2    0    0  0.35684765801E+03 -0.34883628253E+03 -0.33779930712E+03  0.10243387199E+04  0.82833232353E+03 0.  0.
         23    2    4    4    0    0 -0.13801332200E+03  0.30692872217E+02  0.15160491812E+03  0.22612186627E+03  0.90317870624E+02 0.  0.
         23    2    4    4    0    0  0.49486098001E+03 -0.37952915474E+03 -0.48940422524E+03  0.79821685365E+03  0.93294592220E+02 0.  0.
          2    1    3    3  502    0 -0.15236286728E+03  0.13813562149E+03 -0.14325180514E+03  0.25063314411E+03  0.00000000000E+00 0. -1.
         -2    1    3    3    0  502 -0.20448479073E+03  0.21070066104E+03 -0.34964182586E+03  0.45657223371E+03  0.00000000000E+00 0.  1.
         11    1    5    5    0    0 -0.47614954973E+01 -0.23144091390E+02  0.27300503944E+02  0.36105931940E+02  0.00000000000E+00 0. -1.
        -11    1    5    5    0    0 -0.13325182650E+03  0.53836963607E+02  0.12430441417E+03  0.19001593433E+03  0.00000000000E+00 0.  1.
          4    1    6    6  503    0  0.38441437759E+02 -0.66736478935E+02 -0.67311680399E+02  0.10228569830E+03  0.00000000000E+00 0. -1.
         -4    1    6    6    0  503  0.45641954225E+03 -0.31279267581E+03 -0.42209254484E+03  0.69593115536E+03  0.00000000000E+00 0.  1.
<mgrwt>
<rscale>  0 0.15192742E+04</rscale>
<asrwt>0</asrwt>
<pdfrwt beam="1">  1        2 0.19709515E+00 0.15192742E+04</pdfrwt>
<pdfrwt beam="2">  1       -2 0.69296244E-01 0.15192742E+04</pdfrwt>
<totfact> 0.31092318E+01</totfact>
</mgrwt>
</event>
<event>
12    2  0.3623523E-008  0.1226324E+04  0.7818608E-02  0.9090122E-01
          2   -1    0    0  501    0  0.00000000000E+00  0.00000000000E+00  0.42817046365E+04  0.42817046365E+04  0.00000000000E+00 0. -1.
         -2   -1    0    0    0  501 -0.00000000000E+00 -0.00000000000E+00 -0.87807904434E+02  0.87807904434E+02  0.00000000000E+00 0.  1.
         23    2    1    2    0    0  0.84160576748E+02 -0.32476585669E+02  0.45923423547E+02  0.13622934589E+03  0.91168758663E+02 0.  0.
        254    2    1    2    0    0 -0.84160576748E+02  0.32476585669E+02  0.41479733085E+04  0.42332831950E+04  0.84075341804E+03 0.  0.
         23    2    4    4    0    0  0.23741397913E+03 -0.17597417860E+03  0.73232600630E+03  0.79498860427E+03  0.91505149543E+02 0.  0.
         23    2    4    4    0    0 -0.32157455587E+03  0.20845076427E+03  0.34156473022E+04  0.34382945907E+04  0.91440055193E+02 0.  0.
          4    1    3    3  502    0  0.58858265146E+02 -0.69798943051E+00  0.68047807403E+02  0.89973810954E+02  0.00000000000E+00 0. -1.
         -4    1    3    3    0  502  0.25302311602E+02 -0.31778596238E+02 -0.22124383856E+02  0.46255534937E+02  0.00000000000E+00 0.  1.
         11    1    5    5    0    0  0.36199898290E+02 -0.76238597424E+02  0.18265001205E+03  0.20120582316E+03  0.00000000000E+00 0.  1.
        -11    1    5    5    0    0  0.20121408084E+03 -0.99735581175E+02  0.54967599425E+03  0.59378278111E+03  0.00000000000E+00 0. -1.
          4    1    6    6  503    0 -0.25650516903E+03  0.11898321833E+03  0.23676300090E+04  0.23844546059E+04  0.00000000000E+00 0. -1.
         -4    1    6    6    0  503 -0.65069386847E+02  0.89467545939E+02  0.10480172932E+04  0.10538399849E+04  0.00000000000E+00 0.  1.
<mgrwt>
<rscale>  0 0.12263238E+04</rscale>
<asrwt>0</asrwt>
<pdfrwt beam="1">  1        2 0.65872363E+00 0.12263238E+04</pdfrwt>
<pdfrwt beam="2">  1       -2 0.13508912E-01 0.12263238E+04</pdfrwt>
<totfact> 0.85229521E+00</totfact>
</mgrwt>
</event>
<event>
12    2  0.3623523E-008  0.1441793E+04  0.7818608E-02  0.8924110E-01
          2   -1    0    0  501    0  0.00000000000E+00  0.00000000000E+00  0.63915864104E+03  0.63915864104E+03  0.00000000000E+00 0. -1.
         -2   -1    0    0    0  501 -0.00000000000E+00 -0.00000000000E+00 -0.81308769874E+03  0.81308769874E+03  0.00000000000E+00 0.  1.
         23    2    1    2    0    0  0.12858258753E+03 -0.22047364244E+03  0.31182501989E+03  0.41282233242E+03  0.89695742883E+02 0.  0.
        254    2    1    2    0    0 -0.12858258753E+03  0.22047364244E+03 -0.48575407760E+03  0.10394240074E+04  0.88278147598E+03 0.  0.
         23    2    4    4    0    0  0.27533538447E+03 -0.11477035759E+03 -0.39080067976E+03  0.49920818884E+03  0.86613137513E+02 0.  0.
         23    2    4    4    0    0 -0.40391797199E+03  0.33524400003E+03 -0.94953397839E+02  0.54021581851E+03  0.85315386388E+02 0.  0.
          2    1    3    3  502    0  0.86495358343E+02 -0.15330080218E+03  0.14473659416E+03  0.22788432296E+03  0.00000000000E+00 0. -1.
         -2    1    3    3    0  502  0.42087229183E+02 -0.67172840260E+02  0.16708842573E+03  0.18493800946E+03  0.00000000000E+00 0.  1.
         11    1    5    5    0    0  0.42905834041E+02  0.36100195838E+01 -0.98187331259E+02  0.10721331473E+03  0.00000000000E+00 0. -1.
        -11    1    5    5    0    0  0.23242955043E+03 -0.11838037717E+03 -0.29261334850E+03  0.39199487411E+03  0.00000000000E+00 0.  1.
          2    1    6    6  503    0 -0.25091691362E+02  0.46638263455E+02 -0.26047977411E+02  0.59018791251E+02  0.00000000000E+00 0. -1.
         -2    1    6    6    0  503 -0.37882628063E+03  0.28860573657E+03 -0.68905420428E+02  0.48119702726E+03  0.00000000000E+00 0.  1.
<mgrwt>
<rscale>  0 0.14417934E+04</rscale>
<asrwt>0</asrwt>
<pdfrwt beam="1">  1        2 0.98332099E-01 0.14417934E+04</pdfrwt>
<pdfrwt beam="2">  1       -2 0.12509041E+00 0.14417934E+04</pdfrwt>
<totfact> 0.21314680E+01</totfact>
</mgrwt>
</event>
<event>
12    2  0.3623523E-008  0.1980643E+04  0.7818608E-02  0.8615725E-01
         -2   -1    0    0    0  501 -0.00000000000E+00  0.00000000000E+00  0.59993502476E+03  0.59993502476E+03  0.00000000000E+00 0.  1.
          2   -1    0    0  501    0  0.00000000000E+00 -0.00000000000E+00 -0.16347381497E+04  0.16347381497E+04  0.00000000000E+00 0. -1.
         23    2    1    2    0    0  0.38223973021E+03  0.51844413882E+03 -0.90518720541E+03  0.11146424791E+04  0.90401564441E+02 0.  0.
        254    2    1    2    0    0 -0.38223973021E+03 -0.51844413882E+03 -0.12961591949E+03  0.11200306954E+04  0.90707052403E+03 0.  0.
         23    2    4    4    0    0 -0.30462206441E+03 -0.27207856112E+03 -0.50439413207E+03  0.65487896528E+03  0.87359448022E+02 0.  0.
         23    2    4    4    0    0 -0.77617665800E+02 -0.24636557769E+03  0.37477821258E+03  0.46515173009E+03  0.95848440088E+02 0.  0.
          1    1    3    3  502    0  0.32787993535E+03  0.47311340582E+03 -0.84076332546E+03  0.10189330283E+04  0.00000000000E+00 0. -1.
         -1    1    3    3    0  502  0.54359794864E+02  0.45330732997E+02 -0.64423879947E+02  0.95709450730E+02  0.00000000000E+00 0.  1.
         11    1    5    5    0    0 -0.25255177534E+03 -0.19130728607E+03 -0.42574673145E+03  0.53069874342E+03  0.00000000000E+00 0.  1.
        -11    1    5    5    0    0 -0.52070289073E+02 -0.80771275051E+02 -0.78647400617E+02  0.12418022186E+03  0.00000000000E+00 0. -1.
          3    1    6    6  503    0 -0.40802086905E+02 -0.56229076805E+02  0.16822518911E+03  0.18200613623E+03  0.00000000000E+00 0. -1.
         -3    1    6    6    0  503 -0.36815578895E+02 -0.19013650089E+03  0.20655302347E+03  0.28314559386E+03  0.00000000000E+00 0.  1.
<mgrwt>
<rscale>  0 0.19806430E+04</rscale>
<asrwt>0</asrwt>
<pdfrwt beam="1">  1        2 0.25149818E+00 0.19806430E+04</pdfrwt>
<pdfrwt beam="2">  1       -2 0.92297697E-01 0.19806430E+04</pdfrwt>
<totfact> 0.98921655E+00</totfact>
</mgrwt>
</event>
<event>
12    2  0.3623523E-008  0.1368943E+04  0.7818608E-02  0.8976611E-01
         -1   -1    0    0    0  501 -0.00000000000E+00  0.00000000000E+00  0.37393569970E+03  0.37393569970E+03  0.00000000000E+00 0.  1.
          1   -1    0    0  501    0  0.00000000000E+00 -0.00000000000E+00 -0.12528931501E+04  0.12528931501E+04  0.00000000000E+00 0. -1.
         23    2    1    2    0    0 -0.25667651142E+03 -0.22536685414E+03 -0.36547877656E+02  0.35513061394E+03  0.90049737021E+02 0.  0.
        254    2    1    2    0    0  0.25667651142E+03  0.22536685414E+03 -0.84240957270E+03  0.12716982358E+04  0.88931966376E+03 0.  0.
         23    2    4    4    0    0  0.26878593153E+02 -0.17294451225E+03  0.98097643279E+02  0.22069934012E+03  0.91939045143E+02 0.  0.
         23    2    4    4    0    0  0.22979791826E+03  0.39831136640E+03 -0.94050721598E+03  0.10509988957E+04  0.92659741104E+02 0.  0.
          2    1    3    3  502    0 -0.57270064138E+02 -0.23688481610E+02 -0.35684509765E+02  0.71514953992E+02  0.00000000000E+00 0. -1.
         -2    1    3    3    0  502 -0.19940644728E+03 -0.20167837253E+03 -0.86336789049E+00  0.28361565995E+03  0.00000000000E+00 0.  1.
         11    1    5    5    0    0  0.41574292877E+02 -0.15160593865E+03  0.48116643684E+02  0.16440192779E+03  0.00000000000E+00 0.  1.
        -11    1    5    5    0    0 -0.14695699724E+02 -0.21338573604E+02  0.49980999595E+02  0.56297412324E+02  0.00000000000E+00 0. -1.
          1    1    6    6  503    0 -0.36100647264E+01  0.32453185039E+02 -0.97904858825E+02  0.10320660429E+03  0.00000000000E+00 0. -1.
         -1    1    6    6    0  503  0.23340798299E+03  0.36585818136E+03 -0.84260235715E+03  0.94779229141E+03  0.00000000000E+00 0.  1.
<mgrwt>
<rscale>  0 0.13689434E+04</rscale>
<asrwt>0</asrwt>
<pdfrwt beam="1">  1        1 0.19275279E+00 0.13689434E+04</pdfrwt>
<pdfrwt beam="2">  1       -1 0.57528569E-01 0.13689434E+04</pdfrwt>
<totfact> 0.29249781E+01</totfact>
</mgrwt>
</event>
<event>
12    2  0.3623523E-008  0.2106030E+04  0.7818608E-02  0.8558592E-01
          2   -1    0    0  501    0  0.00000000000E+00  0.00000000000E+00  0.12212336144E+04  0.12212336144E+04  0.00000000000E+00 0. -1.
         -2   -1    0    0    0  501 -0.00000000000E+00 -0.00000000000E+00 -0.90796767560E+03  0.90796767560E+03  0.00000000000E+00 0.  1.
         23    2    1    2    0    0  0.54470187848E+03 -0.52435599734E+03 -0.29328515738E+03  0.81604081859E+03  0.90868507827E+02 0.  0.
        254    2    1    2    0    0 -0.54470187848E+03  0.52435599734E+03  0.60655109615E+03  0.13131604714E+04  0.88591017772E+03 0.  0.
         23    2    4    4    0    0  0.45748321482E+02 -0.96787109111E+02  0.40445413798E+03  0.42804991000E+03  0.90459506481E+02 0.  0.
         23    2    4    4    0    0 -0.59045019996E+03  0.62114310645E+03  0.20209695817E+03  0.88511056138E+03  0.90151694619E+02 0.  0.
          2    1    3    3  502    0  0.81066316395E+01 -0.20119298350E+02  0.38208087016E+01  0.22025036249E+02  0.00000000000E+00 0. -1.
         -2    1    3    3    0  502  0.53659524684E+03 -0.50423669899E+03 -0.29710596608E+03  0.79401578234E+03  0.00000000000E+00 0.  1.
         11    1    5    5    0    0  0.35894304742E+02 -0.10445255506E+03  0.39971928390E+03  0.41469777344E+03  0.00000000000E+00 0. -1.
        -11    1    5    5    0    0  0.98540167400E+01  0.76654459486E+01  0.47348540713E+01  0.13352136555E+02  0.00000000000E+00 0.  1.
          1    1    6    6  503    0 -0.56792513841E+03  0.59287837200E+03  0.21141689502E+03  0.84778583989E+03  0.00000000000E+00 0. -1.
         -1    1    6    6    0  503 -0.22525061551E+02  0.28264734447E+02 -0.93199368468E+01  0.37324721487E+02  0.00000000000E+00 0.  1.
<mgrwt>
<rscale>  0 0.21060301E+04</rscale>
<asrwt>0</asrwt>
<pdfrwt beam="1">  1        2 0.18788209E+00 0.21060301E+04</pdfrwt>
<pdfrwt beam="2">  1       -2 0.13968734E+00 0.21060301E+04</pdfrwt>
<totfact> 0.61220716E+00</totfact>
</mgrwt>
</event>
<event>
12    2  0.3623523E-008  0.3165656E+04  0.7818608E-02  0.8197947E-01
         -2   -1    0    0    0  501 -0.00000000000E+00  0.00000000000E+00  0.14033189153E+04  0.14033189153E+04  0.00000000000E+00 0.  1.
          2   -1    0    0  501    0  0.00000000000E+00 -0.00000000000E+00 -0.17852999298E+04  0.17852999298E+04  0.00000000000E+00 0. -1.
         23    2    1    2    0    0 -0.64855699430E+03 -0.12271480834E+04 -0.61131714680E+03  0.15211696739E+04  0.11717478130E+03 0.  0.
        254    2    1    2    0    0  0.64855699430E+03  0.12271480834E+04  0.22933613230E+03  0.16674491712E+04  0.89513858334E+03 0.  0.
         23    2    4    4    0    0  0.10695216667E+03  0.86258331229E+03 -0.17860176163E+03  0.89207457331E+03  0.91704517316E+02 0.  0.
         23    2    4    4    0    0  0.54160482763E+03  0.36456477115E+03  0.40793789394E+03  0.77537459788E+03  0.92461776181E+02 0.  0.
          1    1    3    3  502    0 -0.51376462842E+03 -0.88412339045E+03 -0.41475588805E+03  0.11034721155E+04  0.00000000000E+00 0. -1.
         -1    1    3    3    0  502 -0.13479236588E+03 -0.34302469299E+03 -0.19656125875E+03  0.41769755845E+03  0.00000000000E+00 0.  1.
         11    1    5    5    0    0  0.11869438280E+02  0.29029697332E+03 -0.23058192345E+02  0.29145307773E+03  0.00000000000E+00 0. -1.
        -11    1    5    5    0    0  0.95082728389E+02  0.57228633897E+03 -0.15554356929E+03  0.60062149558E+03  0.00000000000E+00 0.  1.
          4    1    6    6  503    0  0.11236430828E+03  0.10611328329E+03  0.62070654379E+02  0.16654889012E+03  0.00000000000E+00 0. -1.
         -4    1    6    6    0  503  0.42924051935E+03  0.25845148786E+03  0.34586723956E+03  0.60882570776E+03  0.00000000000E+00 0.  1.
<mgrwt>
<rscale>  0 0.31656564E+04</rscale>
<asrwt>0</asrwt>
<pdfrwt beam="1">  1        2 0.27466153E+00 0.31656564E+04</pdfrwt>
<pdfrwt beam="2">  1       -2 0.21589522E+00 0.31656564E+04</pdfrwt>
<totfact> 0.77937381E-01</totfact>
</mgrwt>
</event>
<event>
12    2  0.3623523E-008  0.1556045E+04  0.7818608E-02  0.8848016E-01
          2   -1    0    0  501    0  0.00000000000E+00  0.00000000000E+00  0.10454854873E+04  0.10454854873E+04  0.00000000000E+00 0. -1.
         -2   -1    0    0    0  501 -0.00000000000E+00 -0.00000000000E+00 -0.57898333428E+03  0.57898333428E+03  0.00000000000E+00 0.  1.
         23    2    1    2    0    0  0.23654960888E+03  0.25791399526E+02 -0.32361015045E+03  0.41167504636E+03  0.90177051230E+02 0.  0.
        254    2    1    2    0    0 -0.23654960888E+03 -0.25791399526E+02  0.79011230345E+03  0.12127937752E+04  0.88880277640E+03 0.  0.
         23    2    4    4    0    0  0.74387032937E+02  0.21714552569E+03  0.76914256901E+03  0.80787000080E+03  0.91586225683E+02 0.  0.
         23    2    4    4    0    0 -0.31093664182E+03 -0.24293692521E+03  0.20969734449E+02  0.40492377440E+03  0.88451051182E+02 0.  0.
          3    1    3    3  502    0  0.10595898839E+03  0.36356707579E+02 -0.21108586409E+03  0.23896936922E+03  0.00000000000E+00 0. -1.
         -3    1    3    3    0  502  0.13059062050E+03 -0.10565308053E+02 -0.11252428636E+03  0.17270567714E+03  0.00000000000E+00 0.  1.
         11    1    5    5    0    0  0.87676886994E+02  0.14816082466E+03  0.61168914849E+03  0.63545454665E+03  0.00000000000E+00 0. -1.
        -11    1    5    5    0    0 -0.13289854057E+02  0.68984701027E+02  0.15745342051E+03  0.17241545415E+03  0.00000000000E+00 0.  1.
          1    1    6    6  503    0 -0.17367307974E+03 -0.90921070536E+02  0.36946280894E+02  0.19948435368E+03  0.00000000000E+00 0. -1.
         -1    1    6    6    0  503 -0.13726356208E+03 -0.15201585468E+03 -0.15976546444E+02  0.20543942072E+03  0.00000000000E+00 0.  1.
<mgrwt>
<rscale>  0 0.15560446E+04</rscale>
<asrwt>0</asrwt>
<pdfrwt beam="1">  1        2 0.16084392E+00 0.15560446E+04</pdfrwt>
<pdfrwt beam="2">  1       -2 0.89074359E-01 0.15560446E+04</pdfrwt>
<totfact> 0.24541625E+01</totfact>
</mgrwt>
</event>
<event>
12    2  0.3623523E-008  0.1883578E+04  0.7818608E-02  0.8663074E-01
          2   -1    0    0  501    0  0.00000000000E+00  0.00000000000E+00  0.26993131856E+04  0.26993131856E+04  0.00000000000E+00 0. -1.
         -2   -1    0    0    0  501 -0.00000000000E+00 -0.00000000000E+00 -0.32858970790E+03  0.32858970790E+03  0.00000000000E+00 0.  1.
         23    2    1    2    0    0  0.31286432775E+03 -0.71178983004E+02 -0.11634793834E+03  0.35333785171E+03  0.91434454629E+02 0.  0.
        254    2    1    2    0    0 -0.31286432775E+03  0.71178983004E+02  0.24870714160E+04  0.26745650418E+04  0.92995881582E+03 0.  0.
         23    2    4    4    0    0  0.29930883499E+02 -0.37488358404E+03  0.13262983415E+04  0.13814961701E+04  0.89614832242E+02 0.  0.
         23    2    4    4    0    0 -0.34279521125E+03  0.44606256705E+03  0.11607730745E+04  0.12930688716E+04  0.90291780431E+02 0.  0.
          1    1    3    3  502    0  0.25867151749E+03 -0.86756609473E+02 -0.73621160118E+02  0.28259111534E+03  0.00000000000E+00 0.  1.
         -1    1    3    3    0  502  0.54192810256E+02  0.15577626469E+02 -0.42726778223E+02  0.70746736371E+02  0.00000000000E+00 0. -1.
         11    1    5    5    0    0  0.17451152552E+02 -0.32069744765E+03  0.99461936785E+03  0.10451885392E+04  0.00000000000E+00 0. -1.
        -11    1    5    5    0    0  0.12479730947E+02 -0.54186136396E+02  0.33167897362E+03  0.33630763091E+03  0.00000000000E+00 0.  1.
          3    1    6    6  503    0 -0.77906622889E+01  0.23520639308E+02  0.10104465018E+03  0.10403814792E+03  0.00000000000E+00 0.  1.
         -3    1    6    6    0  503 -0.33500454896E+03  0.42254192774E+03  0.10597284243E+04  0.11890307237E+04  0.00000000000E+00 0. -1.
<mgrwt>
<rscale>  0 0.18835780E+04</rscale>
<asrwt>0</asrwt>
<pdfrwt beam="1">  1        2 0.41527894E+00 0.18835780E+04</pdfrwt>
<pdfrwt beam="2">  1       -2 0.50552265E-01 0.18835780E+04</pdfrwt>
<totfact> 0.92383259E+00</totfact>
</mgrwt>
</event>
<event>
12    2  0.3623523E-008  0.1171841E+04  0.7818608E-02  0.9137867E-01
          2   -1    0    0  501    0  0.00000000000E+00  0.00000000000E+00  0.59910711530E+03  0.59910711530E+03  0.00000000000E+00 0. -1.
         -2   -1    0    0    0  501 -0.00000000000E+00 -0.00000000000E+00 -0.57302409041E+03  0.57302409041E+03  0.00000000000E+00 0.  1.
         23    2    1    2    0    0  0.11126456101E+02 -0.20978547114E+03 -0.59891523238E+02  0.24133853799E+03  0.10258437229E+03 0.  0.
        254    2    1    2    0    0 -0.11126456101E+02  0.20978547114E+03  0.85974548120E+02  0.93079266772E+03  0.90269021565E+03 0.  0.
         23    2    4    4    0    0  0.22470035615E+03 -0.49819755698E+01 -0.32284835441E+03  0.40402557940E+03  0.92144119348E+02 0.  0.
         23    2    4    4    0    0 -0.23582681225E+03  0.21476744670E+03  0.40882290253E+03  0.52676708832E+03  0.92779621483E+02 0.  0.
          1    1    3    3  502    0 -0.24172760753E+02 -0.94652702290E+02  0.16006907426E+02  0.98993320475E+02  0.00000000000E+00 0. -1.
         -1    1    3    3    0  502  0.35299216853E+02 -0.11513276885E+03 -0.75898430664E+02  0.14234521752E+03  0.00000000000E+00 0.  1.
         11    1    5    5    0    0  0.86823429944E+01  0.21908584356E+02 -0.47474586748E+02  0.53001938976E+02  0.00000000000E+00 0. -1.
        -11    1    5    5    0    0  0.21601801315E+03 -0.26890559926E+02 -0.27537376767E+03  0.35102364042E+03  0.00000000000E+00 0.  1.
          4    1    6    6  503    0 -0.90337694939E+02  0.67179169735E+02  0.80088510896E+02  0.13815972478E+03  0.00000000000E+00 0. -1.
         -4    1    6    6    0  503 -0.14548911731E+03  0.14758827697E+03  0.32873439164E+03  0.38860736354E+03  0.00000000000E+00 0.  1.
<mgrwt>
<rscale>  0 0.11718410E+04</rscale>
<asrwt>0</asrwt>
<pdfrwt beam="1">  1        2 0.92170326E-01 0.11718410E+04</pdfrwt>
<pdfrwt beam="2">  1       -2 0.88157552E-01 0.11718410E+04</pdfrwt>
<totfact> 0.54465162E+01</totfact>
</mgrwt>
</event>
<event>
12    2  0.3623523E-008  0.1746602E+04  0.7818608E-02  0.8735223E-01
          1   -1    0    0  501    0  0.00000000000E+00  0.00000000000E+00  0.13200175696E+04  0.13200175696E+04  0.00000000000E+00 0. -1.
         -1   -1    0    0    0  501 -0.00000000000E+00 -0.00000000000E+00 -0.57776078601E+03  0.57776078601E+03  0.00000000000E+00 0.  1.
         23    2    1    2    0    0 -0.10114242317E+03 -0.28172201198E+03 -0.34231081259E+03  0.46399302751E+03  0.92280850480E+02 0.  0.
        254    2    1    2    0    0  0.10114242317E+03  0.28172201198E+03  0.10845675961E+04  0.14337853281E+04  0.88873866496E+03 0.  0.
         23    2    4    4    0    0 -0.29130626847E+03 -0.78851963578E+02  0.70843909338E+03  0.77539715103E+03  0.90982518062E+02 0.  0.
         23    2    4    4    0    0  0.39244869164E+03  0.36057397556E+03  0.37612850277E+03  0.65838817705E+03  0.89290389506E+02 0.  0.
          3    1    3    3  502    0  0.12711424650E+02 -0.14118347515E+02 -0.72692814895E+01  0.20340858059E+02  0.00000000000E+00 0. -1.
         -3    1    3    3    0  502 -0.11385384782E+03 -0.26760366446E+03 -0.33504153110E+03  0.44365216945E+03  0.00000000000E+00 0.  1.
         11    1    5    5    0    0 -0.40459923706E+02 -0.17741813511E+02  0.43099123844E+02  0.61719622885E+02  0.00000000000E+00 0. -1.
        -11    1    5    5    0    0 -0.25084634476E+03 -0.61110150067E+02  0.66533996953E+03  0.71367752814E+03  0.00000000000E+00 0.  1.
          3    1    6    6  503    0  0.90659091804E+02  0.65993000762E+02  0.12336784721E+03  0.16671464483E+03  0.00000000000E+00 0. -1.
         -3    1    6    6    0  503  0.30178959984E+03  0.29458097479E+03  0.25276065556E+03  0.49167353222E+03  0.00000000000E+00 0.  1.
<mgrwt>
<rscale>  0 0.17466017E+04</rscale>
<asrwt>0</asrwt>
<pdfrwt beam="1">  1        1 0.20307962E+00 0.17466017E+04</pdfrwt>
<pdfrwt beam="2">  1       -1 0.88886275E-01 0.17466017E+04</pdfrwt>
<totfact> 0.10301292E+01</totfact>
</mgrwt>
</event>
<event>
12    2  0.3623523E-008  0.1245151E+04  0.7818608E-02  0.9074229E-01
          1   -1    0    0  501    0  0.00000000000E+00  0.00000000000E+00  0.89864260265E+03  0.89864260265E+03  0.00000000000E+00 0. -1.
         -1   -1    0    0    0  501 -0.00000000000E+00 -0.00000000000E+00 -0.43131738816E+03  0.43131738816E+03  0.00000000000E+00 0.  1.
         23    2    1    2    0    0 -0.87511470410E+02  0.32374558616E+02  0.40719474624E+03  0.42785750713E+03  0.92456019484E+02 0.  0.
        254    2    1    2    0    0  0.87511470410E+02 -0.32374558616E+02  0.60130468252E+02  0.90210248368E+03  0.89524680863E+03 0.  0.
         23    2    4    4    0    0  0.39541900881E+03 -0.13413446478E+03 -0.20379325685E+03  0.47341890914E+03  0.90804872226E+02 0.  0.
         23    2    4    4    0    0 -0.30790753840E+03  0.10175990616E+03  0.26392372510E+03  0.42868357454E+03  0.94613654943E+02 0.  0.
          1    1    3    3  502    0 -0.10592896423E+03  0.36212023092E+02  0.36164917469E+03  0.37857942579E+03  0.00000000000E+00 0. -1.
         -1    1    3    3    0  502  0.18417493817E+02 -0.38374644762E+01  0.45545571556E+02  0.49278081339E+02  0.00000000000E+00 0.  1.
         11    1    5    5    0    0  0.15521515446E+03 -0.89676871071E+02 -0.55527778996E+02  0.18766198235E+03  0.00000000000E+00 0.  1.
        -11    1    5    5    0    0  0.24020385435E+03 -0.44457593706E+02 -0.14826547786E+03  0.28575692679E+03  0.00000000000E+00 0. -1.
          2    1    6    6  503    0 -0.27604275386E+03  0.88474311589E+02  0.26689721131E+03  0.39403226667E+03  0.00000000000E+00 0. -1.
         -2    1    6    6    0  503 -0.31864784543E+02  0.13285594572E+02 -0.29734862076E+01  0.34651307873E+02  0.00000000000E+00 0.  1.
<mgrwt>
<rscale>  0 0.12451509E+04</rscale>
<asrwt>0</asrwt>
<pdfrwt beam="1">  1        1 0.13825271E+00 0.12451509E+04</pdfrwt>
<pdfrwt beam="2">  1       -1 0.66356521E-01 0.12451509E+04</pdfrwt>
<totfact> 0.41426225E+01</totfact>
</mgrwt>
</event>
<event>
12    2  0.3623523E-008  0.1203414E+04  0.7818608E-02  0.9109873E-01
          2   -1    0    0  501    0  0.00000000000E+00  0.00000000000E+00  0.12591684678E+04  0.12591684678E+04  0.00000000000E+00 0. -1.
         -2   -1    0    0    0  501 -0.00000000000E+00 -0.00000000000E+00 -0.28753226356E+03  0.28753226356E+03  0.00000000000E+00 0.  1.
         23    2    1    2    0    0  0.39473978789E+02  0.24760790475E+03  0.24590973396E+03  0.36252582801E+03  0.89919459640E+02 0.  0.
        254    2    1    2    0    0 -0.39473978789E+02 -0.24760790475E+03  0.72572647030E+03  0.11841749034E+04  0.90151174288E+03 0.  0.
         23    2    4    4    0    0  0.11353455085E+03 -0.44593554637E+03  0.78179163236E+03  0.91182894467E+03  0.92115482719E+02 0.  0.
         23    2    4    4    0    0 -0.15300852964E+03  0.19832764162E+03 -0.56065162062E+02  0.27234595869E+03  0.91014038729E+02 0.  0.
          1    1    3    3  502    0  0.68562131291E+01  0.63851219008E+01 -0.68552961151E+01  0.11609156945E+02  0.00000000000E+00 0. -1.
         -1    1    3    3    0  502  0.32617765660E+02  0.24122278285E+03  0.25276503008E+03  0.35091667107E+03  0.00000000000E+00 0.  1.
         11    1    5    5    0    0  0.78709038034E+02 -0.41529239323E+03  0.71248603681E+03  0.82843179393E+03  0.00000000000E+00 0. -1.
        -11    1    5    5    0    0  0.34825512814E+02 -0.30643153139E+02  0.69305595550E+02  0.83397150741E+02  0.00000000000E+00 0.  1.
          3    1    6    6  503    0 -0.13211276740E+03  0.12700892952E+03 -0.72006369561E+01  0.18340365499E+03  0.00000000000E+00 0. -1.
         -3    1    6    6    0  503 -0.20895762234E+02  0.71318712095E+02 -0.48864525106E+02  0.88942303703E+02  0.00000000000E+00 0.  1.
<mgrwt>
<rscale>  0 0.12034144E+04</rscale>
<asrwt>0</asrwt>
<pdfrwt beam="1">  1        2 0.19371822E+00 0.12034144E+04</pdfrwt>
<pdfrwt beam="2">  1       -2 0.44235734E-01 0.12034144E+04</pdfrwt>
<totfact> 0.83477876E+01</totfact>
</mgrwt>
</event>
<event>
12    2  0.3623523E-008  0.1438432E+04  0.7818608E-02  0.8926460E-01
          2   -1    0    0  501    0  0.00000000000E+00  0.00000000000E+00  0.62318126070E+03  0.62318126070E+03  0.00000000000E+00 0. -1.
         -2   -1    0    0    0  501 -0.00000000000E+00 -0.00000000000E+00 -0.83004958112E+03  0.83004958112E+03  0.00000000000E+00 0.  1.
         23    2    1    2    0    0  0.18216006435E+03  0.37370828385E+03 -0.19570511939E+03  0.46812350704E+03  0.89436869518E+02 0.  0.
        254    2    1    2    0    0 -0.18216006435E+03 -0.37370828385E+03 -0.11163201034E+02  0.98510733478E+03  0.89301269505E+03 0.  0.
         23    2    4    4    0    0 -0.32882549643E+03  0.12607167372E+03  0.20273362259E+03  0.41643041218E+03  0.91066417752E+02 0.  0.
         23    2    4    4    0    0  0.14666543209E+03 -0.49977995757E+03 -0.21389682362E+03  0.56867692260E+03  0.79692133797E+02 0.  0.
          4    1    3    3  502    0  0.91186568118E+01  0.13773113721E+02  0.95658570289E+01  0.19088063922E+02  0.00000000000E+00 0. -1.
         -4    1    3    3    0  502  0.17304140753E+03  0.35993517013E+03 -0.20527097642E+03  0.44903544312E+03  0.00000000000E+00 0.  1.
         11    1    5    5    0    0 -0.30970473676E+03  0.92083664237E+02  0.16782035377E+03  0.36408803376E+03  0.00000000000E+00 0.  1.
        -11    1    5    5    0    0 -0.19120759677E+02  0.33988009480E+02  0.34913268814E+02  0.52342378417E+02  0.00000000000E+00 0. -1.
          3    1    6    6  503    0  0.86111999423E+02 -0.36466760701E+03 -0.18477430137E+03  0.41777898762E+03  0.00000000000E+00 0. -1.
         -3    1    6    6    0  503  0.60553432663E+02 -0.13511235056E+03 -0.29122522250E+02  0.15089793499E+03  0.00000000000E+00 0.  1.
<mgrwt>
<rscale>  0 0.14384316E+04</rscale>
<asrwt>0</asrwt>
<pdfrwt beam="1">  1        2 0.95874041E-01 0.14384316E+04</pdfrwt>
<pdfrwt beam="2">  1       -2 0.12769993E+00 0.14384316E+04</pdfrwt>
<totfact> 0.20877884E+01</totfact>
</mgrwt>
</event>
<event>
12    2  0.3623523E-008  0.1291221E+04  0.7818608E-02  0.9036556E-01
         -2   -1    0    0    0  501 -0.00000000000E+00  0.00000000000E+00  0.43576704052E+03  0.43576704052E+03  0.00000000000E+00 0.  1.
          2   -1    0    0  501    0  0.00000000000E+00 -0.00000000000E+00 -0.95650334098E+03  0.95650334098E+03  0.00000000000E+00 0. -1.
         23    2    1    2    0    0 -0.49939135724E+02  0.71387927853E+02  0.20107238480E+03  0.23620125307E+03  0.88151996576E+02 0.  0.
        254    2    1    2    0    0  0.49939135724E+02 -0.71387927853E+02 -0.72180868526E+03  0.11560691284E+04  0.89883140692E+03 0.  0.
         23    2    4    4    0    0  0.27710022961E+03 -0.10927442973E+03  0.77169673068E+02  0.31897458615E+03  0.84048735423E+02 0.  0.
         23    2    4    4    0    0 -0.22716109389E+03  0.37886501873E+02 -0.79897835833E+03  0.83709454228E+03  0.96557268126E+02 0.  0.
          1    1    3    3  502    0 -0.38876393337E+02  0.86805468098E+02  0.12098159031E+03  0.15389317218E+03  0.00000000000E+00 0. -1.
         -1    1    3    3    0  502 -0.11062742387E+02 -0.15417540245E+02  0.80090794494E+02  0.82308080885E+02  0.00000000000E+00 0.  1.
         11    1    5    5    0    0  0.29567832046E+02 -0.39472856364E+02 -0.34755036136E+01  0.49441300618E+02  0.00000000000E+00 0.  1.
        -11    1    5    5    0    0  0.24753239756E+03 -0.69801573361E+02  0.80645176682E+02  0.26953328553E+03  0.00000000000E+00 0. -1.
          3    1    6    6  503    0 -0.15155869665E+03 -0.10813354430E+02 -0.59641935021E+03  0.61546974619E+03  0.00000000000E+00 0. -1.
         -3    1    6    6    0  503 -0.75602397233E+02  0.48699856302E+02 -0.20255900812E+03  0.22162479609E+03  0.00000000000E+00 0.  1.
<mgrwt>
<rscale>  0 0.12912206E+04</rscale>
<asrwt>0</asrwt>
<pdfrwt beam="1">  1        2 0.14715436E+00 0.12912206E+04</pdfrwt>
<pdfrwt beam="2">  1       -2 0.67041084E-01 0.12912206E+04</pdfrwt>
<totfact> 0.53857967E+01</totfact>
</mgrwt>
</event>
<event>
12    2  0.3623523E-008  0.2156634E+04  0.7818608E-02  0.8536698E-01
          1   -1    0    0  501    0  0.00000000000E+00  0.00000000000E+00  0.10391829421E+04  0.10391829421E+04  0.00000000000E+00 0. -1.
         -1   -1    0    0    0  501 -0.00000000000E+00 -0.00000000000E+00 -0.11189249978E+04  0.11189249978E+04  0.00000000000E+00 0.  1.
         23    2    1    2    0    0 -0.69400961214E+03 -0.37604006515E+03  0.36261074130E+03  0.87404202834E+03  0.96991985561E+02 0.  0.
        254    2    1    2    0    0  0.69400961214E+03  0.37604006515E+03 -0.44235279701E+03  0.12840659115E+04  0.91109483350E+03 0.  0.
         23    2    4    4    0    0  0.20555199602E+03  0.56872332120E+03 -0.43558577212E+03  0.75050713924E+03  0.88476901141E+02 0.  0.
         23    2    4    4    0    0  0.48845761612E+03 -0.19268325605E+03 -0.67670248861E+01  0.53355877223E+03  0.94453644103E+02 0.  0.
          4    1    3    3  502    0 -0.33910838605E+03 -0.14272820990E+03  0.20383215590E+03  0.42061073117E+03  0.00000000000E+00 0. -1.
         -4    1    3    3    0  502 -0.35490122609E+03 -0.23331185525E+03  0.15877858540E+03  0.45343129718E+03  0.00000000000E+00 0.  1.
         11    1    5    5    0    0  0.11185529406E+03  0.26054012774E+03 -0.15395080963E+03  0.32263542390E+03  0.00000000000E+00 0. -1.
        -11    1    5    5    0    0  0.93696701956E+02  0.30818319346E+03 -0.28163496249E+03  0.42787171534E+03  0.00000000000E+00 0.  1.
          1    1    6    6  503    0  0.15667168760E+03 -0.10836820099E+03  0.10540733050E+02  0.19078991518E+03  0.00000000000E+00 0. -1.
         -1    1    6    6    0  503  0.33178592853E+03 -0.84315055055E+02 -0.17307757936E+02  0.34276885705E+03  0.00000000000E+00 0.  1.
<mgrwt>
<rscale>  0 0.21566342E+04</rscale>
<asrwt>0</asrwt>
<pdfrwt beam="1">  1        1 0.15987430E+00 0.21566342E+04</pdfrwt>
<pdfrwt beam="2">  1       -1 0.17214231E+00 0.21566342E+04</pdfrwt>
<totfact> 0.30639159E+00</totfact>
</mgrwt>
</event>
<event>
12    2  0.3623523E-008  0.1576168E+04  0.7818608E-02  0.8835324E-01
          1   -1    0    0  501    0  0.00000000000E+00  0.00000000000E+00  0.45223308357E+03  0.45223308357E+03  0.00000000000E+00 0. -1.
         -1   -1    0    0    0  501 -0.00000000000E+00 -0.00000000000E+00 -0.13733542147E+04  0.13733542147E+04  0.00000000000E+00 0.  1.
         23    2    1    2    0    0  0.43827086045E+03  0.28537685963E+03 -0.23565316140E+03  0.58073638448E+03  0.90559575071E+02 0.  0.
        254    2    1    2    0    0 -0.43827086045E+03 -0.28537685963E+03 -0.68546796974E+03  0.12448509138E+04  0.89792324891E+03 0.  0.
         23    2    4    4    0    0 -0.19705491767E+03 -0.16994644611E+02 -0.82040353988E+03  0.84891988215E+03  0.92106131928E+02 0.  0.
         23    2    4    4    0    0 -0.24121594279E+03 -0.26838221502E+03  0.13493557014E+03  0.39593103166E+03  0.91321571086E+02 0.  0.
          1    1    3    3  502    0  0.30618438915E+03  0.19231060066E+03 -0.11615454114E+03  0.37976851464E+03  0.00000000000E+00 0.  1.
         -1    1    3    3    0  502  0.13208647131E+03  0.93066258971E+02 -0.11949862027E+03  0.20096786984E+03  0.00000000000E+00 0. -1.
         11    1    5    5    0    0 -0.16845246852E+03 -0.44704868802E+00 -0.77296031726E+03  0.79110308182E+03  0.00000000000E+00 0.  1.
        -11    1    5    5    0    0 -0.28602449146E+02 -0.16547595923E+02 -0.47443222620E+02  0.57816800331E+02  0.00000000000E+00 0. -1.
          4    1    6    6  503    0 -0.12199701309E+02 -0.15685255164E+02 -0.13469475129E+02  0.24005972212E+02  0.00000000000E+00 0. -1.
         -4    1    6    6    0  503 -0.22901624148E+03 -0.25269695986E+03  0.14840504527E+03  0.37192505945E+03  0.00000000000E+00 0.  1.
<mgrwt>
<rscale>  0 0.15761678E+04</rscale>
<asrwt>0</asrwt>
<pdfrwt beam="1">  1        1 0.69574322E-01 0.15761678E+04</pdfrwt>
<pdfrwt beam="2">  1       -1 0.21128526E+00 0.15761678E+04</pdfrwt>
<totfact> 0.61603585E+00</totfact>
</mgrwt>
</event>
<event>
12    2  0.3623523E-008  0.2165765E+04  0.7818608E-02  0.8532814E-01
         -1   -1    0    0    0  501 -0.00000000000E+00  0.00000000000E+00  0.12301390107E+04  0.12301390107E+04  0.00000000000E+00 0.  1.
          1   -1    0    0  501    0  0.00000000000E+00 -0.00000000000E+00 -0.95325353314E+03  0.95325353314E+03  0.00000000000E+00 0. -1.
         23    2    1    2    0    0  0.87896278101E+03  0.95763603799E+02  0.24101325748E+03  0.92103230356E+03  0.92015627482E+02 0.  0.
        254    2    1    2    0    0 -0.87896278101E+03 -0.95763603799E+02  0.35872220060E+02  0.12623602403E+04  0.90028902125E+03 0.  0.
         23    2    4    4    0    0 -0.10031801546E+04 -0.23026276499E+03  0.12027144240E+03  0.10407358148E+04  0.96303960291E+02 0.  0.
         23    2    4    4    0    0  0.12421737358E+03  0.13449916119E+03 -0.84399222342E+02  0.22162442549E+03  0.92055293065E+02 0.  0.
          1    1    3    3  502    0  0.56403128290E+03  0.65191052674E+02  0.10884121042E+03  0.57812418261E+03  0.00000000000E+00 0. -1.
         -1    1    3    3    0  502  0.31493149812E+03  0.30572551124E+02  0.13217204706E+03  0.34290812095E+03  0.00000000000E+00 0.  1.
         11    1    5    5    0    0 -0.53344901120E+03 -0.16694744938E+03  0.85741999527E+02  0.56550065331E+03  0.00000000000E+00 0. -1.
        -11    1    5    5    0    0 -0.46973114339E+03 -0.63315315614E+02  0.34529442875E+02  0.47523516146E+03  0.00000000000E+00 0.  1.
          1    1    6    6  503    0  0.30786216512E+02  0.10110828329E+03 -0.44860599682E+02  0.11481789704E+03  0.00000000000E+00 0. -1.
         -1    1    6    6    0  503  0.93431157066E+02  0.33390877907E+02 -0.39538622660E+02  0.10680652845E+03  0.00000000000E+00 0.  1.
<mgrwt>
<rscale>  0 0.21657649E+04</rscale>
<asrwt>0</asrwt>
<pdfrwt beam="1">  1        1 0.14665439E+00 0.21657649E+04</pdfrwt>
<pdfrwt beam="2">  1       -1 0.18925216E+00 0.21657649E+04</pdfrwt>
<totfact> 0.26945329E+00</totfact>
</mgrwt>
</event>
<event>
12    2  0.3623523E-008  0.2074872E+04  0.7818608E-02  0.8572394E-01
         -1   -1    0    0    0  501 -0.00000000000E+00  0.00000000000E+00  0.23743800058E+03  0.23743800058E+03  0.00000000000E+00 0.  1.
          1   -1    0    0  501    0  0.00000000000E+00 -0.00000000000E+00 -0.45328591575E+04  0.45328591575E+04  0.00000000000E+00 0. -1.
         23    2    1    2    0    0 -0.69246017006E+03  0.45539085983E+03 -0.14333634831E+04  0.16581759901E+04  0.90193220828E+02 0.  0.
        254    2    1    2    0    0  0.69246017006E+03 -0.45539085983E+03 -0.28620576738E+04  0.31121211680E+04  0.89835522688E+03 0.  0.
         23    2    4    4    0    0  0.63402851808E+03 -0.18059324656E+03 -0.85748646702E+03  0.10858930228E+04  0.96304379513E+02 0.  0.
         23    2    4    4    0    0  0.58431651980E+02 -0.27479761327E+03 -0.20045712068E+04  0.20262281451E+04  0.91470141720E+02 0.  0.
          1    1    3    3  502    0 -0.24076241406E+03  0.12844717441E+03 -0.54094264244E+03  0.60587470574E+03  0.00000000000E+00 0. -1.
         -1    1    3    3    0  502 -0.45169775600E+03  0.32694368542E+03 -0.89242084070E+03  0.10523012844E+04  0.00000000000E+00 0.  1.
         11    1    5    5    0    0  0.12294768930E+03 -0.14892245594E+02 -0.11202759423E+03  0.16699729085E+03  0.00000000000E+00 0. -1.
        -11    1    5    5    0    0  0.51108082878E+03 -0.16570100097E+03 -0.74545887278E+03  0.91889573199E+03  0.00000000000E+00 0.  1.
          3    1    6    6  503    0  0.46926792231E+02 -0.25749472736E+03 -0.19555083426E+04  0.19729466633E+04  0.00000000000E+00 0. -1.
         -3    1    6    6    0  503  0.11504859750E+02 -0.17302885907E+02 -0.49062864213E+02  0.53281481805E+02  0.00000000000E+00 0.  1.
<mgrwt>
<rscale>  0 0.20748716E+04</rscale>
<asrwt>0</asrwt>
<pdfrwt beam="1">  1        1 0.69736299E+00 0.20748716E+04</pdfrwt>
<pdfrwt beam="2">  1       -1 0.36528921E-01 0.20748716E+04</pdfrwt>
<totfact> 0.19975579E-01</totfact>
</mgrwt>
</event>
<event>
12    2  0.3623523E-008  0.1870995E+04  0.7818608E-02  0.8669430E-01
          2   -1    0    0  501    0  0.00000000000E+00  0.00000000000E+00  0.14228934028E+04  0.14228934028E+04  0.00000000000E+00 0. -1.
         -2   -1    0    0    0  501 -0.00000000000E+00 -0.00000000000E+00 -0.61505374800E+03  0.61505374800E+03  0.00000000000E+00 0.  1.
         23    2    1    2    0    0  0.28367606031E+03  0.14179527806E+03 -0.38382212979E+03  0.50641577820E+03  0.92517592998E+02 0.  0.
        254    2    1    2    0    0 -0.28367606031E+03 -0.14179527806E+03  0.11916617846E+04  0.15315313726E+04  0.90826897356E+03 0.  0.
         23    2    4    4    0    0  0.22964466421E+03  0.16005531085E+03  0.15924707455E+03  0.33603876685E+03  0.95958573055E+02 0.  0.
         23    2    4    4    0    0 -0.51332072452E+03 -0.30185058891E+03  0.10324147101E+04  0.11954926058E+04  0.93330020042E+02 0.  0.
          2    1    3    3  502    0  0.12591271275E+02 -0.12987829734E+02 -0.24098337496E+02  0.30132270137E+02  0.00000000000E+00 0. -1.
         -2    1    3    3    0  502  0.27108478904E+03  0.15478310779E+03 -0.35972379230E+03  0.47628350806E+03  0.00000000000E+00 0.  1.
         11    1    5    5    0    0  0.20844577632E+03  0.10279023319E+03  0.10781659305E+03  0.25620283263E+03  0.00000000000E+00 0. -1.
        -11    1    5    5    0    0  0.21198887884E+02  0.57265077657E+02  0.51430481500E+02  0.79835934227E+02  0.00000000000E+00 0.  1.
          1    1    6    6  503    0 -0.41932175343E+03 -0.20246385772E+03  0.78128021114E+03  0.90951696790E+03  0.00000000000E+00 0. -1.
         -1    1    6    6    0  503 -0.93998971089E+02 -0.99386731191E+02  0.25113449892E+03  0.28597563786E+03  0.00000000000E+00 0.  1.
<mgrwt>
<rscale>  0 0.18709954E+04</rscale>
<asrwt>0</asrwt>
<pdfrwt beam="1">  1        2 0.21890668E+00 0.18709954E+04</pdfrwt>
<pdfrwt beam="2">  1       -2 0.94623654E-01 0.18709954E+04</pdfrwt>
<totfact> 0.12400237E+01</totfact>
</mgrwt>
</event>
<event>
12    2  0.3623523E-008  0.1190918E+04  0.7818608E-02  0.9120843E-01
          1   -1    0    0  501    0  0.00000000000E+00  0.00000000000E+00  0.94139754610E+03  0.94139754610E+03  0.00000000000E+00 0. -1.
         -1   -1    0    0    0  501 -0.00000000000E+00 -0.00000000000E+00 -0.37664369780E+03  0.37664369780E+03  0.00000000000E+00 0.  1.
         23    2    1    2    0    0 -0.54006375858E+02 -0.86224324446E+02  0.32761889119E+03  0.35503056341E+03  0.91439818111E+02 0.  0.
        254    2    1    2    0    0  0.54006375858E+02  0.86224324446E+02  0.23713495712E+03  0.96301068049E+03  0.92779591510E+03 0.  0.
         23    2    4    4    0    0 -0.42607033691E+03  0.59448974644E+01  0.82127875842E+02  0.44342094735E+03  0.91136572010E+02 0.  0.
         23    2    4    4    0    0  0.48007671277E+03  0.80279426982E+02  0.15500708128E+03  0.51958973314E+03  0.95015046143E+02 0.  0.
          2    1    3    3  502    0  0.13584523794E+02 -0.11911578429E+02  0.75731008128E+01  0.19590223156E+02  0.00000000000E+00 0.  1.
         -2    1    3    3    0  502 -0.67590899652E+02 -0.74312746017E+02  0.32004579037E+03  0.33544034026E+03  0.00000000000E+00 0. -1.
         11    1    5    5    0    0 -0.34218721042E+03  0.32924558288E+02  0.88806333003E+02  0.35505306406E+03  0.00000000000E+00 0. -1.
        -11    1    5    5    0    0 -0.83883126488E+02 -0.26979660824E+02 -0.66784571611E+01  0.88367883292E+02  0.00000000000E+00 0.  1.
          4    1    6    6  503    0  0.59058809322E+02 -0.14514431776E+02 -0.64650765624E+00  0.60819648638E+02  0.00000000000E+00 0.  1.
         -4    1    6    6    0  503  0.42101790345E+03  0.94793858758E+02  0.15565358894E+03  0.45877008450E+03  0.00000000000E+00 0. -1.
<mgrwt>
<rscale>  0 0.11909181E+04</rscale>
<asrwt>0</asrwt>
<pdfrwt beam="1">  1        1 0.14483039E+00 0.11909181E+04</pdfrwt>
<pdfrwt beam="2">  1       -1 0.57945185E-01 0.11909181E+04</pdfrwt>
<totfact> 0.50318617E+01</totfact>
</mgrwt>
</event>
<event>
12    2  0.3623523E-008  0.1575154E+04  0.7818608E-02  0.8835959E-01
         -1   -1    0    0    0  501 -0.00000000000E+00  0.00000000000E+00  0.29579534793E+03  0.29579534793E+03  0.00000000000E+00 0.  1.
          1   -1    0    0  501    0  0.00000000000E+00 -0.00000000000E+00 -0.20969817998E+04  0.20969817998E+04  0.00000000000E+00 0. -1.
         23    2    1    2    0    0  0.86609489057E+02  0.40010254694E+03 -0.12910678488E+04  0.13583796867E+04  0.10371080674E+03 0.  0.
        254    2    1    2    0    0 -0.86609489057E+02 -0.40010254694E+03 -0.51011860307E+03  0.10343974610E+04  0.80135751475E+03 0.  0.
         23    2    4    4    0    0  0.26081433167E+03 -0.44645868199E+03 -0.38637594047E+03  0.65217496265E+03  0.93254191304E+02 0.  0.
         23    2    4    4    0    0 -0.34742382073E+03  0.46356135049E+02 -0.12374266259E+03  0.38222249835E+03  0.89048241016E+02 0.  0.
          4    1    3    3  502    0 -0.16412150676E+02  0.36728333132E+02 -0.19366680831E+03  0.19780081341E+03  0.00000000000E+00 0.  1.
         -4    1    3    3    0  502  0.10302163973E+03  0.36337421381E+03 -0.10974010405E+04  0.11605788733E+04  0.00000000000E+00 0. -1.
         11    1    5    5    0    0  0.19324988939E+02 -0.25091145881E+01 -0.20300803055E+02  0.28140246235E+02  0.00000000000E+00 0.  1.
        -11    1    5    5    0    0  0.24148934273E+03 -0.44394956740E+03 -0.36607513742E+03  0.62403471641E+03  0.00000000000E+00 0. -1.
          2    1    6    6  503    0 -0.31737924111E+03  0.62102102269E+02 -0.93154907653E+02  0.33654730814E+03  0.00000000000E+00 0. -1.
         -2    1    6    6    0  503 -0.30044579619E+02 -0.15745967221E+02 -0.30587754942E+02  0.45675190209E+02  0.00000000000E+00 0.  1.
<mgrwt>
<rscale>  0 0.15751539E+04</rscale>
<asrwt>0</asrwt>
<pdfrwt beam="1">  1        1 0.32261259E+00 0.15751539E+04</pdfrwt>
<pdfrwt beam="2">  1       -1 0.45506975E-01 0.15751539E+04</pdfrwt>
<totfact> 0.11815015E+01</totfact>
</mgrwt>
</event>
<event>
12    2  0.3623523E-008  0.1374252E+04  0.7818608E-02  0.8972670E-01
          2   -1    0    0  501    0  0.00000000000E+00  0.00000000000E+00  0.10886619219E+04  0.10886619219E+04  0.00000000000E+00 0. -1.
         -2   -1    0    0    0  501 -0.00000000000E+00 -0.00000000000E+00 -0.43369022322E+03  0.43369022322E+03  0.00000000000E+00 0.  1.
         23    2    1    2    0    0 -0.17661792245E+03  0.33076430351E+03  0.48915539856E+02  0.38904651851E+03  0.91463372543E+02 0.  0.
        254    2    1    2    0    0  0.17661792245E+03 -0.33076430351E+03  0.60605615881E+03  0.11333056266E+04  0.88118026569E+03 0.  0.
         23    2    4    4    0    0  0.35624345194E+03 -0.54721635477E+03  0.45336093225E+03  0.80024854247E+03  0.92230466031E+02 0.  0.
         23    2    4    4    0    0 -0.17962552949E+03  0.21645205125E+03  0.15269522657E+03  0.33305708413E+03  0.92164894263E+02 0.  0.
          1    1    3    3  502    0 -0.53910699748E+02  0.85395540680E+02  0.54282528057E+02  0.11465319345E+03  0.00000000000E+00 0. -1.
         -1    1    3    3    0  502 -0.12270722270E+03  0.24536876283E+03 -0.53669882002E+01  0.27439332506E+03  0.00000000000E+00 0.  1.
         11    1    5    5    0    0  0.34555066456E+03 -0.49121119340E+03  0.39606656859E+03  0.71941811560E+03  0.00000000000E+00 0. -1.
        -11    1    5    5    0    0  0.10692787387E+02 -0.56005161365E+02  0.57294363653E+02  0.80830426870E+02  0.00000000000E+00 0.  1.
          1    1    6    6  503    0 -0.16606821497E+03  0.13691205558E+03  0.10768872070E+03  0.24066662327E+03  0.00000000000E+00 0. -1.
         -1    1    6    6    0  503 -0.13557314524E+02  0.79539995674E+02  0.45006505861E+02  0.92390460864E+02  0.00000000000E+00 0.  1.
<mgrwt>
<rscale>  0 0.13742518E+04</rscale>
<asrwt>0</asrwt>
<pdfrwt beam="1">  1        2 0.16748645E+00 0.13742518E+04</pdfrwt>
<pdfrwt beam="2">  1       -2 0.66721573E-01 0.13742518E+04</pdfrwt>
<totfact> 0.44554603E+01</totfact>
</mgrwt>
</event>
<event>
12    2  0.3623523E-008  0.1496478E+04  0.7818608E-02  0.8886799E-01
         -2   -1    0    0    0  501 -0.00000000000E+00  0.00000000000E+00  0.32783650643E+03  0.32783650643E+03  0.00000000000E+00 0.  1.
          2   -1    0    0  501    0  0.00000000000E+00 -0.00000000000E+00 -0.17077458693E+04  0.17077458693E+04  0.00000000000E+00 0. -1.
         23    2    1    2    0    0  0.27022480330E+03 -0.27023173329E+02 -0.95783993747E+03  0.99978745500E+03  0.91465365776E+02 0.  0.
        254    2    1    2    0    0 -0.27022480330E+03  0.27023173329E+02 -0.42206942538E+03  0.10357949207E+04  0.90607771286E+03 0.  0.
         23    2    4    4    0    0 -0.11498405665E+03 -0.32287299170E+03 -0.52154860642E+03  0.63080649463E+03  0.91845428605E+02 0.  0.
         23    2    4    4    0    0 -0.15524074665E+03  0.34989616503E+03  0.99479181037E+02  0.40498842610E+03  0.87134964821E+02 0.  0.
          2    1    3    3  502    0  0.20778896877E+03  0.95245081155E+01 -0.79189362188E+03  0.81875666725E+03  0.00000000000E+00 0. -1.
         -2    1    3    3    0  502  0.62435834530E+02 -0.36547681444E+02 -0.16594631559E+03  0.18103078775E+03  0.00000000000E+00 0.  1.
         11    1    5    5    0    0 -0.96977720262E+02 -0.14942951064E+03 -0.22756492668E+03  0.28899766908E+03  0.00000000000E+00 0.  1.
        -11    1    5    5    0    0 -0.18006336389E+02 -0.17344348106E+03 -0.29398367974E+03  0.34180882555E+03  0.00000000000E+00 0. -1.
          3    1    6    6  503    0 -0.76904766751E+02  0.91570778388E+02  0.75351962521E+01  0.11981790261E+03  0.00000000000E+00 0. -1.
         -3    1    6    6    0  503 -0.78335979898E+02  0.25832538664E+03  0.91943984785E+02  0.28517052349E+03  0.00000000000E+00 0.  1.
<mgrwt>
<rscale>  0 0.14964778E+04</rscale>
<asrwt>0</asrwt>
<pdfrwt beam="1">  1        2 0.26273014E+00 0.14964778E+04</pdfrwt>
<pdfrwt beam="2">  1       -2 0.50436385E-01 0.14964778E+04</pdfrwt>
<totfact> 0.34882648E+01</totfact>
</mgrwt>
</event>
<event>
12    2  0.3623523E-008  0.2520913E+04  0.7818608E-02  0.8395573E-01
          2   -1    0    0  501    0  0.00000000000E+00  0.00000000000E+00  0.20869013977E+04  0.20869013977E+04  0.00000000000E+00 0. -1.
         -2   -1    0    0    0  501 -0.00000000000E+00 -0.00000000000E+00 -0.76129617622E+03  0.76129617622E+03  0.00000000000E+00 0.  1.
         23    2    1    2    0    0 -0.23137055007E+03 -0.60202954591E+03  0.15818342986E+04  0.17111062169E+04  0.98553699479E+02 0.  0.
        254    2    1    2    0    0  0.23137055007E+03  0.60202954591E+03 -0.25622907704E+03  0.11370913571E+04  0.90075052534E+03 0.  0.
         23    2    4    4    0    0  0.12579278391E+03  0.52761647437E+03 -0.56643712361E+03  0.78949265493E+03  0.90800157883E+02 0.  0.
         23    2    4    4    0    0  0.10557776616E+03  0.74413071534E+02  0.31020804657E+03  0.34759870218E+03  0.88948612548E+02 0.  0.
          4    1    3    3  502    0 -0.87638159121E+02 -0.36326126855E+03  0.89367479925E+03  0.96865568856E+03  0.00000000000E+00 0. -1.
         -4    1    3    3    0  502 -0.14373239095E+03 -0.23876827736E+03  0.68815949931E+03  0.74245052830E+03  0.00000000000E+00 0.  1.
         11    1    5    5    0    0  0.13448084360E+03  0.48199045051E+03 -0.49202640554E+03  0.70177622888E+03  0.00000000000E+00 0. -1.
        -11    1    5    5    0    0 -0.86880596836E+01  0.45626023859E+02 -0.74410718073E+02  0.87716426047E+02  0.00000000000E+00 0.  1.
          3    1    6    6  503    0 -0.64783318311E+01  0.73538587642E+01 -0.12421373745E+01  0.98788120386E+01  0.00000000000E+00 0.  1.
         -3    1    6    6    0  503  0.11205609799E+03  0.67059212770E+02  0.31145018395E+03  0.33771989014E+03  0.00000000000E+00 0. -1.
<mgrwt>
<rscale>  0 0.25209126E+04</rscale>
<asrwt>0</asrwt>
<pdfrwt beam="1">  1        2 0.32106175E+00 0.25209126E+04</pdfrwt>
<pdfrwt beam="2">  1       -2 0.11712249E+00 0.25209126E+04</pdfrwt>
<totfact> 0.29997235E+00</totfact>
</mgrwt>
</event>
<event>
12    2  0.3623523E-008  0.1312207E+04  0.7818608E-02  0.9019940E-01
         -2   -1    0    0    0  501 -0.00000000000E+00  0.00000000000E+00  0.11137888355E+04  0.11137888355E+04  0.00000000000E+00 0.  1.
          2   -1    0    0  501    0  0.00000000000E+00 -0.00000000000E+00 -0.38649331762E+03  0.38649331762E+03  0.00000000000E+00 0. -1.
         23    2    1    2    0    0 -0.11329855056E+01 -0.72314553260E+01 -0.19232943697E+03  0.21301922416E+03  0.91285266790E+02 0.  0.
        254    2    1    2    0    0  0.11329855056E+01  0.72314553260E+01  0.91962495485E+03  0.12872629289E+04  0.90071205891E+03 0.  0.
         23    2    4    4    0    0 -0.10156934649E+03  0.12064718563E+02  0.10724068296E+04  0.10816241279E+04  0.96914686358E+02 0.  0.
         23    2    4    4    0    0  0.10270233199E+03 -0.48332632369E+01 -0.15278187471E+03  0.20563880103E+03  0.91508938448E+02 0.  0.
          3    1    3    3  502    0 -0.32333499194E+02  0.29231623043E+02 -0.91433127907E+02  0.10129145983E+03  0.00000000000E+00 0. -1.
         -3    1    3    3    0  502  0.31200513689E+02 -0.36463078369E+02 -0.10089630907E+03  0.11172776433E+03  0.00000000000E+00 0.  1.
         11    1    5    5    0    0 -0.51129479807E+02  0.54476754855E+02  0.53493846274E+03  0.54013063184E+03  0.00000000000E+00 0.  1.
        -11    1    5    5    0    0 -0.50439866682E+02 -0.42412036292E+02  0.53746836682E+03  0.54149349609E+03  0.00000000000E+00 0. -1.
          1    1    6    6  503    0  0.95128842740E+02  0.19692118584E+02 -0.15145928978E+03  0.17993663528E+03  0.00000000000E+00 0. -1.
         -1    1    6    6    0  503  0.75734892543E+01 -0.24525381821E+02 -0.13225849300E+01  0.25702165743E+02  0.00000000000E+00 0.  1.
<mgrwt>
<rscale>  0 0.13122072E+04</rscale>
<asrwt>0</asrwt>
<pdfrwt beam="1">  1        2 0.59460511E-01 0.13122072E+04</pdfrwt>
<pdfrwt beam="2">  1       -2 0.17135213E+00 0.13122072E+04</pdfrwt>
<totfact> 0.16856589E+01</totfact>
</mgrwt>
</event>
<event>
12    2  0.3623523E-008  0.2028624E+04  0.7818608E-02  0.8593354E-01
         -1   -1    0    0    0  501 -0.00000000000E+00  0.00000000000E+00  0.15553591824E+04  0.15553591824E+04  0.00000000000E+00 0.  1.
          1   -1    0    0  501    0  0.00000000000E+00 -0.00000000000E+00 -0.66147342313E+03  0.66147342313E+03  0.00000000000E+00 0. -1.
         23    2    1    2    0    0 -0.67292133487E+01  0.78355787766E+03  0.23666341916E+03  0.82362198444E+03  0.91298243811E+02 0.  0.
        254    2    1    2    0    0  0.67292133487E+01 -0.78355787766E+03  0.65722234013E+03  0.13932106211E+04  0.94609005939E+03 0.  0.
         23    2    4    4    0    0  0.41485325928E+02 -0.46209412989E+03 -0.16801229726E+03  0.50217473329E+03  0.93270110836E+02 0.  0.
         23    2    4    4    0    0 -0.34756112579E+02 -0.32146374777E+03  0.82523463739E+03  0.89103588783E+03  0.91574112910E+02 0.  0.
          4    1    3    3  502    0 -0.13300780292E+02  0.44528325985E+03  0.18046881565E+03  0.48064860936E+03  0.00000000000E+00 0.  1.
         -4    1    3    3    0  502  0.65715669430E+01  0.33827461781E+03  0.56194603512E+02  0.34297337507E+03  0.00000000000E+00 0. -1.
         11    1    5    5    0    0 -0.26471837546E+02 -0.12700109498E+03 -0.28085579929E+02  0.13273596389E+03  0.00000000000E+00 0.  1.
        -11    1    5    5    0    0  0.67957163474E+02 -0.33509303491E+03 -0.13992671733E+03  0.36943876940E+03  0.00000000000E+00 0. -1.
          4    1    6    6  503    0 -0.34388124234E+02 -0.32720074888E+03  0.79726394032E+03  0.86248052945E+03  0.00000000000E+00 0. -1.
         -4    1    6    6    0  503 -0.36798834457E+00  0.57370011083E+01  0.27970697075E+02  0.28555358376E+02  0.00000000000E+00 0.  1.
<mgrwt>
<rscale>  0 0.20286239E+04</rscale>
<asrwt>0</asrwt>
<pdfrwt beam="1">  1        1 0.10176514E+00 0.20286239E+04</pdfrwt>
<pdfrwt beam="2">  1       -1 0.23928603E+00 0.20286239E+04</pdfrwt>
<totfact> 0.22501813E+00</totfact>
</mgrwt>
</event>
<event>
12    2  0.3623523E-008  0.2187353E+04  0.7818608E-02  0.8523711E-01
         -1   -1    0    0    0  501 -0.00000000000E+00  0.00000000000E+00  0.22370652546E+04  0.22370652546E+04  0.00000000000E+00 0.  1.
          1   -1    0    0  501    0  0.00000000000E+00 -0.00000000000E+00 -0.53468629947E+03  0.53468629947E+03  0.00000000000E+00 0. -1.
         23    2    1    2    0    0 -0.89031406468E+03  0.17314144578E+03  0.73768756808E+03  0.11725550076E+04  0.89806479032E+02 0.  0.
        254    2    1    2    0    0  0.89031406468E+03 -0.17314144578E+03  0.96469138701E+03  0.15991965465E+04  0.89675137469E+03 0.  0.
         23    2    4    4    0    0  0.50621899372E+03 -0.52042489896E+02  0.10562527857E+04  0.11762009285E+04  0.93875378497E+02 0.  0.
         23    2    4    4    0    0  0.38409507096E+03 -0.12109895589E+03 -0.91561398660E+02  0.42299561792E+03  0.91366418362E+02 0.  0.
          1    1    3    3  502    0 -0.88291545527E+03  0.17525192004E+03  0.71802068145E+03  0.11514367701E+04  0.00000000000E+00 0.  1.
         -1    1    3    3    0  502 -0.73986094116E+01 -0.21104742555E+01  0.19666886636E+02  0.21118237444E+02  0.00000000000E+00 0. -1.
         11    1    5    5    0    0  0.18383383200E+02 -0.15318345399E+02  0.90451869248E+02  0.93563567344E+02  0.00000000000E+00 0. -1.
        -11    1    5    5    0    0  0.48783561052E+03 -0.36724144497E+02  0.96580091643E+03  0.10826373612E+04  0.00000000000E+00 0.  1.
          3    1    6    6  503    0  0.12636171964E+03  0.40613681594E+01 -0.30127935227E+02  0.12996719349E+03  0.00000000000E+00 0. -1.
         -3    1    6    6    0  503  0.25773335132E+03 -0.12516032405E+03 -0.61433463432E+02  0.29302842444E+03  0.00000000000E+00 0.  1.
<mgrwt>
<rscale>  0 0.21873529E+04</rscale>
<asrwt>0</asrwt>
<pdfrwt beam="1">  1        1 0.82259432E-01 0.21873529E+04</pdfrwt>
<pdfrwt beam="2">  1       -1 0.34416388E+00 0.21873529E+04</pdfrwt>
<totfact> 0.62630140E-01</totfact>
</mgrwt>
</event>
<event>
12    2  0.3623523E-008  0.1738581E+04  0.7818608E-02  0.8739661E-01
         -2   -1    0    0    0  501 -0.00000000000E+00  0.00000000000E+00  0.35721466364E+03  0.35721466364E+03  0.00000000000E+00 0. -1.
          2   -1    0    0  501    0  0.00000000000E+00 -0.00000000000E+00 -0.21154401261E+04  0.21154401261E+04  0.00000000000E+00 0.  1.
         23    2    1    2    0    0 -0.13541656178E+03  0.60869363641E+03 -0.52193771077E+03  0.81826672219E+03  0.91081647459E+02 0.  0.
        254    2    1    2    0    0  0.13541656178E+03 -0.60869363641E+03 -0.12362877516E+04  0.16543880675E+04  0.90539874356E+03 0.  0.
         23    2    4    4    0    0  0.25091091096E+03 -0.76508082059E+03 -0.11803852157E+04  0.14317210739E+04  0.90614727532E+02 0.  0.
         23    2    4    4    0    0 -0.11549434918E+03  0.15638718418E+03 -0.55902535966E+02  0.22266699359E+03  0.93056974152E+02 0.  0.
          1    1    3    3  502    0  0.12486488553E+02  0.85837220090E+02 -0.67459482568E+02  0.10988504237E+03  0.00000000000E+00 0. -1.
         -1    1    3    3    0  502 -0.14790305033E+03  0.52285641632E+03 -0.45447822820E+03  0.70838167981E+03  0.00000000000E+00 0.  1.
         11    1    5    5    0    0  0.25739006663E+03 -0.72019123853E+03 -0.11090552047E+04  0.13471928271E+04  0.00000000000E+00 0.  1.
        -11    1    5    5    0    0 -0.64791556743E+01 -0.44889582062E+02 -0.71330010984E+02  0.84528246776E+02  0.00000000000E+00 0. -1.
          2    1    6    6  503    0 -0.12264734309E+03  0.15483889345E+03 -0.35110528340E+02  0.20062453213E+03  0.00000000000E+00 0.  1.
         -2    1    6    6    0  503  0.71529939089E+01  0.15482907278E+01 -0.20792007626E+02  0.22042461459E+02  0.00000000000E+00 0. -1.
<mgrwt>
<rscale>  0 0.17385813E+04</rscale>
<asrwt>0</asrwt>
<pdfrwt beam="1">  1        2 0.32545232E+00 0.17385813E+04</pdfrwt>
<pdfrwt beam="2">  1       -2 0.54956103E-01 0.17385813E+04</pdfrwt>
<totfact> 0.17021406E+01</totfact>
</mgrwt>
</event>
<event>
12    2  0.3623523E-008  0.2969746E+04  0.7818608E-02  0.8252423E-01
         -1   -1    0    0    0  501 -0.00000000000E+00  0.00000000000E+00  0.20109507324E+04  0.20109507324E+04  0.00000000000E+00 0.  1.
          1   -1    0    0  501    0  0.00000000000E+00 -0.00000000000E+00 -0.10964207258E+04  0.10964207258E+04  0.00000000000E+00 0. -1.
         23    2    1    2    0    0 -0.10763422011E+04 -0.11479434023E+03 -0.41996295036E+03  0.11644939288E+04  0.89369771412E+02 0.  0.
        254    2    1    2    0    0  0.10763422011E+04  0.11479434023E+03  0.13344929569E+04  0.19428775294E+04  0.90675871537E+03 0.  0.
         23    2    4    4    0    0  0.11209027736E+04  0.59344367671E+02  0.14103998939E+04  0.18048253896E+04  0.90675489062E+02 0.  0.
         23    2    4    4    0    0 -0.44560572543E+02  0.55449972558E+02 -0.75906936963E+02  0.13805213984E+03  0.90753436042E+02 0.  0.
          1    1    3    3  502    0 -0.62127170012E+03 -0.91040416010E+02 -0.28243496514E+03  0.68850300816E+03  0.00000000000E+00 0. -1.
         -1    1    3    3    0  502 -0.45507050097E+03 -0.23753924218E+02 -0.13752798522E+03  0.47599092059E+03  0.00000000000E+00 0.  1.
         11    1    5    5    0    0  0.96079975628E+03  0.19759819770E+02  0.11915314353E+04  0.15307755497E+04  0.00000000000E+00 0. -1.
        -11    1    5    5    0    0  0.16010301735E+03  0.39584547901E+02  0.21886845858E+03  0.27404983991E+03  0.00000000000E+00 0.  1.
          2    1    6    6  503    0 -0.68189212161E+02  0.18111360586E+02 -0.53263207955E+02  0.88401127590E+02  0.00000000000E+00 0. -1.
         -2    1    6    6    0  503  0.23628639618E+02  0.37338611972E+02 -0.22643729008E+02  0.49651012251E+02  0.00000000000E+00 0.  1.
<mgrwt>
<rscale>  0 0.29697462E+04</rscale>
<asrwt>0</asrwt>
<pdfrwt beam="1">  1        1 0.16868011E+00 0.29697462E+04</pdfrwt>
<pdfrwt beam="2">  1       -1 0.30937704E+00 0.29697462E+04</pdfrwt>
<totfact> 0.31241460E-01</totfact>
</mgrwt>
</event>
<event>
12    2  0.3623523E-008  0.1876814E+04  0.7818608E-02  0.8666485E-01
          1   -1    0    0  501    0  0.00000000000E+00  0.00000000000E+00  0.84520679261E+03  0.84520679261E+03  0.00000000000E+00 0. -1.
         -1   -1    0    0    0  501 -0.00000000000E+00 -0.00000000000E+00 -0.10418839880E+04  0.10418839880E+04  0.00000000000E+00 0.  1.
         23    2    1    2    0    0  0.71827657748E+02 -0.44697183458E+03 -0.63512957053E+03  0.78513052450E+03  0.89985197754E+02 0.  0.
        254    2    1    2    0    0 -0.71827657748E+02  0.44697183458E+03  0.43845237514E+03  0.11019602561E+04  0.90395402950E+03 0.  0.
         23    2    4    4    0    0 -0.43785751049E+03  0.38803305631E+02  0.13348559989E+03  0.46815493099E+03  0.90142875536E+02 0.  0.
         23    2    4    4    0    0  0.36602985274E+03  0.40816852895E+03  0.30496677525E+03  0.63380532512E+03  0.90139087122E+02 0.  0.
          4    1    3    3  502    0  0.12582931462E+01  0.30214837691E+01 -0.16951304504E+02  0.17264396606E+02  0.00000000000E+00 0. -1.
         -4    1    3    3    0  502  0.70569364602E+02 -0.44999331835E+03 -0.61817826603E+03  0.76786612790E+03  0.00000000000E+00 0.  1.
         11    1    5    5    0    0 -0.24574766864E+03 -0.22905946072E+02  0.79057329923E+02  0.25916531485E+03  0.00000000000E+00 0. -1.
        -11    1    5    5    0    0 -0.19210984185E+03  0.61709251703E+02  0.54428269969E+02  0.20898961614E+03  0.00000000000E+00 0.  1.
          3    1    6    6  503    0  0.25615476577E+03  0.22188391520E+03  0.17372932402E+03  0.38082753823E+03  0.00000000000E+00 0. -1.
         -3    1    6    6    0  503  0.10987508698E+03  0.18628461375E+03  0.13123745123E+03  0.25297778689E+03  0.00000000000E+00 0.  1.
<mgrwt>
<rscale>  0 0.18768137E+04</rscale>
<asrwt>0</asrwt>
<pdfrwt beam="1">  1        1 0.13003181E+00 0.18768137E+04</pdfrwt>
<pdfrwt beam="2">  1       -1 0.16028984E+00 0.18768137E+04</pdfrwt>
<totfact> 0.55106222E+00</totfact>
</mgrwt>
</event>
<event>
12    2  0.3623523E-008  0.1775904E+04  0.7818608E-02  0.8719219E-01
         -2   -1    0    0    0  501 -0.00000000000E+00  0.00000000000E+00  0.27564153624E+03  0.27564153624E+03  0.00000000000E+00 0.  1.
          2   -1    0    0  501    0  0.00000000000E+00 -0.00000000000E+00 -0.28604507374E+04  0.28604507374E+04  0.00000000000E+00 0. -1.
         23    2    1    2    0    0 -0.58793307444E+03 -0.38732279395E+02 -0.15042849598E+04  0.16180709889E+04  0.90083268997E+02 0.  0.
        254    2    1    2    0    0  0.58793307444E+03  0.38732279395E+02 -0.10805242414E+04  0.15180212848E+04  0.88864531470E+03 0.  0.
         23    2    4    4    0    0  0.34663787434E+03 -0.36577867754E+03 -0.83393200290E+03  0.97865820080E+03  0.91528310732E+02 0.  0.
         23    2    4    4    0    0  0.24129520010E+03  0.40451095693E+03 -0.24659223854E+03  0.53936308401E+03  0.90842261207E+02 0.  0.
          1    1    3    3  502    0 -0.55352072821E+03 -0.27340441464E+02 -0.13447717291E+04  0.14544908730E+04  0.00000000000E+00 0. -1.
         -1    1    3    3    0  502 -0.34412346226E+02 -0.11391837931E+02 -0.15951323070E+03  0.16358011588E+03  0.00000000000E+00 0.  1.
         11    1    5    5    0    0  0.19082807576E+03 -0.19468899048E+03 -0.36326247420E+03  0.45417924069E+03  0.00000000000E+00 0. -1.
        -11    1    5    5    0    0  0.15580979858E+03 -0.17108968706E+03 -0.47066952870E+03  0.52447896011E+03  0.00000000000E+00 0.  1.
          1    1    6    6  503    0  0.20052128475E+03  0.38187552520E+03 -0.23550856610E+03  0.49142851677E+03  0.00000000000E+00 0. -1.
         -1    1    6    6    0  503  0.40773915347E+02  0.22635431730E+02 -0.11083672438E+02  0.47934567246E+02  0.00000000000E+00 0.  1.
<mgrwt>
<rscale>  0 0.17759043E+04</rscale>
<asrwt>0</asrwt>
<pdfrwt beam="1">  1        2 0.44006935E+00 0.17759043E+04</pdfrwt>
<pdfrwt beam="2">  1       -2 0.42406390E-01 0.17759043E+04</pdfrwt>
<totfact> 0.10625991E+01</totfact>
</mgrwt>
</event>
<event>
12    2  0.3623523E-008  0.2334382E+04  0.7818608E-02  0.8464487E-01
         -2   -1    0    0    0  501 -0.00000000000E+00  0.00000000000E+00  0.84760419881E+03  0.84760419881E+03  0.00000000000E+00 0.  1.
          2   -1    0    0  501    0  0.00000000000E+00 -0.00000000000E+00 -0.16072769317E+04  0.16072769317E+04  0.00000000000E+00 0. -1.
         23    2    1    2    0    0  0.40111535814E+03  0.73679316932E+03 -0.87926009064E+03  0.12186844390E+04  0.91300328646E+02 0.  0.
        254    2    1    2    0    0 -0.40111535814E+03 -0.73679316932E+03  0.11958735770E+03  0.12361966915E+04  0.90006856359E+03 0.  0.
         23    2    4    4    0    0 -0.65302182656E+03 -0.55688734244E+03 -0.63566115060E+02  0.86548127511E+03  0.91957427465E+02 0.  0.
         23    2    4    4    0    0  0.25190646842E+03 -0.17990582688E+03  0.18315347276E+03  0.37071541642E+03  0.89787248619E+02 0.  0.
          3    1    3    3  502    0  0.28197182259E+03  0.49923720004E+03 -0.65900039537E+03  0.87351440271E+03  0.00000000000E+00 0. -1.
         -3    1    3    3    0  502  0.11914353555E+03  0.23755596928E+03 -0.22025969527E+03  0.34517003630E+03  0.00000000000E+00 0.  1.
         11    1    5    5    0    0 -0.45273558383E+03 -0.36825823192E+03 -0.83933363664E+02  0.58960024065E+03  0.00000000000E+00 0. -1.
        -11    1    5    5    0    0 -0.20028624272E+03 -0.18862911052E+03  0.20367248604E+02  0.27588103446E+03  0.00000000000E+00 0.  1.
          3    1    6    6  503    0 -0.13373426722E+01 -0.16645235196E+02  0.25962661958E+02  0.30869275277E+02  0.00000000000E+00 0. -1.
         -3    1    6    6    0  503  0.25324381109E+03 -0.16326059168E+03  0.15719081080E+03  0.33984614115E+03  0.00000000000E+00 0.  1.
<mgrwt>
<rscale>  0 0.23343819E+04</rscale>
<asrwt>0</asrwt>
<pdfrwt beam="1">  1        2 0.24727337E+00 0.23343819E+04</pdfrwt>
<pdfrwt beam="2">  1       -2 0.13040065E+00 0.23343819E+04</pdfrwt>
<totfact> 0.43047704E+00</totfact>
</mgrwt>
</event>
<event>
12    2  0.3623523E-008  0.3387523E+04  0.7818608E-02  0.8140975E-01
         -1   -1    0    0    0  501 -0.00000000000E+00  0.00000000000E+00  0.22249216817E+04  0.22249216817E+04  0.00000000000E+00 0.  1.
          1   -1    0    0  501    0  0.00000000000E+00 -0.00000000000E+00 -0.12894065517E+04  0.12894065517E+04  0.00000000000E+00 0. -1.
         23    2    1    2    0    0 -0.78977342561E+03 -0.12547778980E+04 -0.90070575547E+02  0.14881244648E+04  0.90510094543E+02 0.  0.
        254    2    1    2    0    0  0.78977342561E+03  0.12547778980E+04  0.10255857055E+04  0.20262037686E+04  0.92491406922E+03 0.  0.
         23    2    4    4    0    0  0.22980410802E+03  0.95199839329E+03  0.96873792953E+03  0.13805508742E+04  0.91414831378E+02 0.  0.
         23    2    4    4    0    0  0.55996931759E+03  0.30277950468E+03  0.56847776015E+02  0.64565289435E+03  0.91623824695E+02 0.  0.
          1    1    3    3  502    0 -0.34329571552E+01 -0.13656265060E+02 -0.88364637514E+01  0.16624134920E+02  0.00000000000E+00 0. -1.
         -1    1    3    3    0  502 -0.78634046845E+03 -0.12411216329E+04 -0.81234111796E+02  0.14715003299E+04  0.00000000000E+00 0.  1.
         11    1    5    5    0    0  0.19676458142E+03  0.74657729155E+03  0.80857389194E+03  0.11179828673E+04  0.00000000000E+00 0. -1.
        -11    1    5    5    0    0  0.33039526599E+02  0.20542110174E+03  0.16016403759E+03  0.26256800699E+03  0.00000000000E+00 0.  1.
          1    1    6    6  503    0  0.25353595491E+03  0.96241530709E+02 -0.35450258580E+01  0.27121113523E+03  0.00000000000E+00 0. -1.
         -1    1    6    6    0  503  0.30643336268E+03  0.20653797397E+03  0.60392801873E+02  0.37444175912E+03  0.00000000000E+00 0.  1.
<mgrwt>
<rscale>  0 0.33875233E+04</rscale>
<asrwt>0</asrwt>
<pdfrwt beam="1">  1        1 0.19837024E+00 0.33875233E+04</pdfrwt>
<pdfrwt beam="2">  1       -1 0.34229564E+00 0.33875233E+04</pdfrwt>
<totfact> 0.13241321E-01</totfact>
</mgrwt>
</event>
<event>
12    2  0.3623523E-008  0.1187047E+04  0.7818608E-02  0.9124271E-01
          1   -1    0    0  501    0  0.00000000000E+00  0.00000000000E+00  0.18892166243E+04  0.18892166243E+04  0.00000000000E+00 0. -1.
         -1   -1    0    0    0  501 -0.00000000000E+00 -0.00000000000E+00 -0.18646352473E+03  0.18646352473E+03  0.00000000000E+00 0.  1.
         23    2    1    2    0    0 -0.12102309878E+03  0.91391940263E+01  0.72108852571E+03  0.73697647448E+03  0.91845232475E+02 0.  0.
        254    2    1    2    0    0  0.12102309878E+03 -0.91391940263E+01  0.98166457381E+03  0.13387036745E+04  0.90207099351E+03 0.  0.
         23    2    4    4    0    0  0.22193344690E+03 -0.32935594528E+03  0.14527041165E+03  0.43277854835E+03  0.91999923184E+02 0.  0.
         23    2    4    4    0    0 -0.10091034812E+03  0.32021675125E+03  0.83639416216E+03  0.90592512615E+03  0.91779483235E+02 0.  0.
          3    1    3    3  502    0 -0.13475797156E+03  0.13979805287E+02  0.60536121868E+03  0.62033648203E+03  0.00000000000E+00 0. -1.
         -3    1    3    3    0  502  0.13734872780E+02 -0.48406112612E+01  0.11572730703E+03  0.11663999245E+03  0.00000000000E+00 0.  1.
         11    1    5    5    0    0  0.22893688071E+03 -0.30050866536E+03  0.13818499945E+03  0.40225942795E+03  0.00000000000E+00 0. -1.
        -11    1    5    5    0    0 -0.70034338022E+01 -0.28847279923E+02  0.70854122008E+01  0.30519120400E+02  0.00000000000E+00 0.  1.
          1    1    6    6  503    0 -0.64279238563E+02  0.82144019388E+02  0.20197771651E+03  0.22732016716E+03  0.00000000000E+00 0. -1.
         -1    1    6    6    0  503 -0.36631109557E+02  0.23807273187E+03  0.63441644566E+03  0.67860495899E+03  0.00000000000E+00 0.  1.
<mgrwt>
<rscale>  0 0.11870467E+04</rscale>
<asrwt>0</asrwt>
<pdfrwt beam="1">  1        1 0.29064870E+00 0.11870467E+04</pdfrwt>
<pdfrwt beam="2">  1       -1 0.28686697E-01 0.11870467E+04</pdfrwt>
<totfact> 0.38790741E+01</totfact>
</mgrwt>
</event>
<event>
12    2  0.3623523E-008  0.2673903E+04  0.7818608E-02  0.8343522E-01
          2   -1    0    0  501    0  0.00000000000E+00  0.00000000000E+00  0.81412145370E+03  0.81412145370E+03  0.00000000000E+00 0. -1.
         -2   -1    0    0    0  501 -0.00000000000E+00 -0.00000000000E+00 -0.21955442140E+04  0.21955442140E+04  0.00000000000E+00 0.  1.
         23    2    1    2    0    0 -0.10562609505E+04  0.91978094185E+02 -0.59546362337E+02  0.10659072894E+04  0.92007689974E+02 0.  0.
        254    2    1    2    0    0  0.10562609505E+04 -0.91978094185E+02 -0.13218763980E+04  0.19437583783E+04  0.95220389423E+03 0.  0.
         23    2    4    4    0    0  0.10526235065E+04  0.25268623462E+01 -0.14271671700E+04  0.17757304193E+04  0.91595631711E+02 0.  0.
         23    2    4    4    0    0  0.36374440508E+01 -0.94504956531E+02  0.10529077202E+03  0.16802795892E+03  0.90569478839E+02 0.  0.
          3    1    3    3  502    0 -0.92969036178E+03  0.85568971803E+02 -0.22578837047E+02  0.93389293905E+03  0.00000000000E+00 0. -1.
         -3    1    3    3    0  502 -0.12657058873E+03  0.64091223816E+01 -0.36967525289E+02  0.13201435039E+03  0.00000000000E+00 0.  1.
         11    1    5    5    0    0  0.62760812245E+03 -0.24577927277E+02 -0.78828608538E+03  0.10079141741E+04  0.00000000000E+00 0.  1.
        -11    1    5    5    0    0  0.42501538402E+03  0.27104789623E+02 -0.63888108460E+03  0.76781624529E+03  0.00000000000E+00 0. -1.
          3    1    6    6  503    0  0.44313438009E+01 -0.86112880380E+02  0.12195154152E+03  0.14935609614E+03  0.00000000000E+00 0. -1.
         -3    1    6    6    0  503 -0.79389975003E+00 -0.83920761514E+01 -0.16660769505E+02  0.18671862774E+02  0.00000000000E+00 0.  1.
<mgrwt>
<rscale>  0 0.26739032E+04</rscale>
<asrwt>0</asrwt>
<pdfrwt beam="1">  1        2 0.12524945E+00 0.26739032E+04</pdfrwt>
<pdfrwt beam="2">  1       -2 0.33777604E+00 0.26739032E+04</pdfrwt>
<totfact> 0.54932696E-01</totfact>
</mgrwt>
</event>
<event>
12    2  0.3623523E-008  0.1088361E+04  0.7818608E-02  0.9216610E-01
         -2   -1    0    0    0  501 -0.00000000000E+00  0.00000000000E+00  0.18859414325E+03  0.18859414325E+03  0.00000000000E+00 0.  1.
          2   -1    0    0  501    0  0.00000000000E+00 -0.00000000000E+00 -0.15702111672E+04  0.15702111672E+04  0.00000000000E+00 0. -1.
         23    2    1    2    0    0  0.10934678642E+03 -0.38968033949E+02 -0.27901667130E+03  0.31667093536E+03  0.94630603249E+02 0.  0.
        254    2    1    2    0    0 -0.10934678642E+03  0.38968033949E+02 -0.11026003527E+04  0.14421343751E+04  0.92225202128E+03 0.  0.
         23    2    4    4    0    0 -0.11172690787E+03 -0.14914349701E+03 -0.11946700924E+04  0.12125141810E+04  0.90704601390E+02 0.  0.
         23    2    4    4    0    0  0.23801214475E+01  0.18811153096E+03  0.92069739748E+02  0.22962019412E+03  0.94111548247E+02 0.  0.
          1    1    3    3  502    0  0.54949588430E+02 -0.27519196376E+02 -0.24248768987E+03  0.25015403890E+03  0.00000000000E+00 0. -1.
         -1    1    3    3    0  502  0.54397197993E+02 -0.11448837573E+02 -0.36528981423E+02  0.66516896463E+02  0.00000000000E+00 0.  1.
         11    1    5    5    0    0 -0.54033214392E+02 -0.16911520231E+02 -0.48757657302E+03  0.49085283164E+03  0.00000000000E+00 0.  1.
        -11    1    5    5    0    0 -0.57693693479E+02 -0.13223197678E+03 -0.70709351940E+03  0.72166134934E+03  0.00000000000E+00 0. -1.
          4    1    6    6  503    0  0.53769070462E+01  0.94325522114E+02 -0.50009075535E+01  0.94610910194E+02  0.00000000000E+00 0. -1.
         -4    1    6    6    0  503 -0.29967855987E+01  0.93786008844E+02  0.97070647301E+02  0.13500928393E+03  0.00000000000E+00 0.  1.
<mgrwt>
<rscale>  0 0.10883614E+04</rscale>
<asrwt>0</asrwt>
<pdfrwt beam="1">  1        2 0.24157094E+00 0.10883614E+04</pdfrwt>
<pdfrwt beam="2">  1       -2 0.29014485E-01 0.10883614E+04</pdfrwt>
<totfact> 0.12558203E+02</totfact>
</mgrwt>
</event>
<event>
12    2  0.3623523E-008  0.1718539E+04  0.7818608E-02  0.8750861E-01
          1   -1    0    0  501    0  0.00000000000E+00  0.00000000000E+00  0.85197161364E+03  0.85197161364E+03  0.00000000000E+00 0. -1.
         -1   -1    0    0    0  501 -0.00000000000E+00 -0.00000000000E+00 -0.86662965254E+03  0.86662965254E+03  0.00000000000E+00 0.  1.
         23    2    1    2    0    0  0.22472504764E+03  0.74755787905E+02 -0.50099679705E+03  0.56190947891E+03  0.93030623881E+02 0.  0.
        254    2    1    2    0    0 -0.22472504764E+03 -0.74755787905E+02  0.48633875815E+03  0.11566917873E+04  0.10224092763E+04 0.  0.
         23    2    4    4    0    0 -0.58880635854E+03  0.55578210187E+02  0.46586500258E+03  0.75840801606E+03  0.91491272242E+02 0.  0.
         23    2    4    4    0    0  0.36408131090E+03 -0.13033399809E+03  0.20473755571E+02  0.39828377120E+03  0.93105508597E+02 0.  0.
          3    1    3    3  502    0  0.29854822675E+01  0.22900833675E+02 -0.80040284267E+02  0.83305512381E+02  0.00000000000E+00 0. -1.
         -3    1    3    3    0  502  0.22173956537E+03  0.51854954230E+02 -0.42095651278E+03  0.47860396653E+03  0.00000000000E+00 0.  1.
         11    1    5    5    0    0 -0.86385925478E+02 -0.13975613685E+02  0.40432435543E+02  0.96398276658E+02  0.00000000000E+00 0. -1.
        -11    1    5    5    0    0 -0.50242043306E+03  0.69553823872E+02  0.42543256704E+03  0.66200973941E+03  0.00000000000E+00 0.  1.
          3    1    6    6  503    0  0.17412427539E+03 -0.13399852091E+02  0.57125388912E+01  0.17473251677E+03  0.00000000000E+00 0. -1.
         -3    1    6    6    0  503  0.18995703551E+03 -0.11693414600E+03  0.14761216680E+02  0.22355125443E+03  0.00000000000E+00 0.  1.
<mgrwt>
<rscale>  0 0.17185388E+04</rscale>
<asrwt>0</asrwt>
<pdfrwt beam="1">  1        1 0.13107256E+00 0.17185388E+04</pdfrwt>
<pdfrwt beam="2">  1       -1 0.13332764E+00 0.17185388E+04</pdfrwt>
<totfact> 0.90168389E+00</totfact>
</mgrwt>
</event>
<event>
12    2  0.3623523E-008  0.1926667E+04  0.7818608E-02  0.8641695E-01
          2   -1    0    0  501    0  0.00000000000E+00  0.00000000000E+00  0.55500754523E+03  0.55500754523E+03  0.00000000000E+00 0. -1.
         -2   -1    0    0    0  501 -0.00000000000E+00 -0.00000000000E+00 -0.16720696382E+04  0.16720696382E+04  0.00000000000E+00 0.  1.
         23    2    1    2    0    0  0.69783669808E+03 -0.24179224615E+03 -0.27403186198E+03  0.79812708398E+03  0.12835043168E+03 0.  0.
        254    2    1    2    0    0 -0.69783669808E+03  0.24179224615E+03 -0.84303023096E+03  0.14289500994E+04  0.88643040833E+03 0.  0.
         23    2    4    4    0    0 -0.64625193575E+03 -0.94063231082E+02 -0.18857532602E+03  0.68583738075E+03  0.91229399628E+02 0.  0.
         23    2    4    4    0    0 -0.51584762337E+02  0.33585547723E+03 -0.65445490494E+03  0.74311271866E+03  0.91898861493E+02 0.  0.
          1    1    3    3  502    0  0.68714215323E+03 -0.21417052657E+03 -0.26709036924E+03  0.76770477303E+03  0.00000000000E+00 0. -1.
         -1    1    3    3    0  502  0.10694544859E+02 -0.27621719579E+02 -0.69414927388E+01  0.30422310952E+02  0.00000000000E+00 0.  1.
         11    1    5    5    0    0 -0.15664573955E+03 -0.70440898425E+01 -0.87682290879E+01  0.15704900115E+03  0.00000000000E+00 0.  1.
        -11    1    5    5    0    0 -0.48960619620E+03 -0.87019141240E+02 -0.17980709693E+03  0.52878837960E+03  0.00000000000E+00 0. -1.
          2    1    6    6  503    0  0.18085324711E+02  0.16126548890E+03 -0.26657200852E+03  0.31208055468E+03  0.00000000000E+00 0. -1.
         -2    1    6    6    0  503 -0.69670087048E+02  0.17458998833E+03 -0.38788289642E+03  0.43103216398E+03  0.00000000000E+00 0.  1.
<mgrwt>
<rscale>  0 0.19266668E+04</rscale>
<asrwt>0</asrwt>
<pdfrwt beam="1">  1        2 0.85385776E-01 0.19266668E+04</pdfrwt>
<pdfrwt beam="2">  1       -2 0.25724148E+00 0.19266668E+04</pdfrwt>
<totfact> 0.29524150E+00</totfact>
</mgrwt>
</event>
<event>
12    2  0.3623523E-008  0.1269498E+04  0.7818608E-02  0.9054110E-01
         -1   -1    0    0    0  501 -0.00000000000E+00  0.00000000000E+00  0.22143661506E+03  0.22143661506E+03  0.00000000000E+00 0.  1.
          1   -1    0    0  501    0  0.00000000000E+00 -0.00000000000E+00 -0.18195102734E+04  0.18195102734E+04  0.00000000000E+00 0. -1.
         23    2    1    2    0    0  0.49542947461E+02  0.12827311159E+03 -0.81208321729E+03  0.82852939719E+03  0.89851629943E+02 0.  0.
        254    2    1    2    0    0 -0.49542947461E+02 -0.12827311159E+03 -0.78599044109E+03  0.12124174913E+04  0.91283443457E+03 0.  0.
         23    2    4    4    0    0  0.21167194340E+02 -0.35507639644E+03 -0.87035768688E+03  0.94460621522E+03  0.90725417023E+02 0.  0.
         23    2    4    4    0    0 -0.70710141802E+02  0.22680328485E+03  0.84367245797E+02  0.26781127608E+03  0.90362565595E+02 0.  0.
          3    1    3    3  502    0  0.86555562154E+01  0.18045838926E+02 -0.38615884353E+03  0.38667715654E+03  0.00000000000E+00 0. -1.
         -3    1    3    3    0  502  0.40887391246E+02  0.11022727266E+03 -0.42592437376E+03  0.44185224065E+03  0.00000000000E+00 0.  1.
         11    1    5    5    0    0  0.23674986511E+02 -0.17671797970E+02 -0.77383801675E+02  0.82831456533E+02  0.00000000000E+00 0.  1.
        -11    1    5    5    0    0 -0.25077921705E+01 -0.33740459847E+03 -0.79297388521E+03  0.86177475869E+03  0.00000000000E+00 0. -1.
          3    1    6    6  503    0  0.21617424478E+02  0.33092894789E+02  0.11042410125E+02  0.41041290769E+02  0.00000000000E+00 0. -1.
         -3    1    6    6    0  503 -0.92327566280E+02  0.19371039006E+03  0.73324835671E+02  0.22676998531E+03  0.00000000000E+00 0.  1.
<mgrwt>
<rscale>  0 0.12694978E+04</rscale>
<asrwt>0</asrwt>
<pdfrwt beam="1">  1        1 0.27992467E+00 0.12694978E+04</pdfrwt>
<pdfrwt beam="2">  1       -1 0.34067170E-01 0.12694978E+04</pdfrwt>
<totfact> 0.31711798E+01</totfact>
</mgrwt>
</event>
<event>
12    2  0.3623523E-008  0.1374495E+04  0.7818608E-02  0.8972490E-01
         -1   -1    0    0    0  501 -0.00000000000E+00  0.00000000000E+00  0.11610778734E+04  0.11610778734E+04  0.00000000000E+00 0.  1.
          1   -1    0    0  501    0  0.00000000000E+00 -0.00000000000E+00 -0.40678527012E+03  0.40678527012E+03  0.00000000000E+00 0. -1.
         23    2    1    2    0    0  0.11778774395E+03 -0.20232016664E+03  0.53770968152E+03  0.59338473116E+03  0.90367776963E+02 0.  0.
        254    2    1    2    0    0 -0.11778774395E+03  0.20232016664E+03  0.21658292175E+03  0.97447841236E+03  0.92081084469E+03 0.  0.
         23    2    4    4    0    0  0.30886520684E+03 -0.14470953670E+03 -0.52350580781E+02  0.35560361267E+03  0.85876539471E+02 0.  0.
         23    2    4    4    0    0 -0.42665295078E+03  0.34702970334E+03  0.26893350254E+03  0.61887479968E+03  0.90655576132E+02 0.  0.
          4    1    3    3  502    0 -0.15148867675E+02 -0.25122126875E+02  0.57943530535E+02  0.64946610239E+02  0.00000000000E+00 0. -1.
         -4    1    3    3    0  502  0.13293661162E+03 -0.17719803977E+03  0.47976615099E+03  0.52843812092E+03  0.00000000000E+00 0.  1.
         11    1    5    5    0    0  0.81075382846E+02  0.14232441150E+01 -0.11139863605E+02  0.81849495347E+02  0.00000000000E+00 0.  1.
        -11    1    5    5    0    0  0.22778982399E+03 -0.14613278082E+03 -0.41210717177E+02  0.27375411733E+03  0.00000000000E+00 0. -1.
          3    1    6    6  503    0 -0.37523359195E+03  0.33828452774E+03  0.24529405025E+03  0.56161004382E+03  0.00000000000E+00 0. -1.
         -3    1    6    6    0  503 -0.51419358836E+02  0.87451755998E+01  0.23639452290E+02  0.57264755862E+02  0.00000000000E+00 0.  1.
<mgrwt>
<rscale>  0 0.13744954E+04</rscale>
<asrwt>0</asrwt>
<pdfrwt beam="1">  1        1 0.62582350E-01 0.13744954E+04</pdfrwt>
<pdfrwt beam="2">  1       -1 0.17862736E+00 0.13744954E+04</pdfrwt>
<totfact> 0.12200744E+01</totfact>
</mgrwt>
</event>
<event>
12    2  0.3623523E-008  0.1668363E+04  0.7818608E-02  0.8779616E-01
          1   -1    0    0  501    0  0.00000000000E+00  0.00000000000E+00  0.75816834474E+03  0.75816834474E+03  0.00000000000E+00 0. -1.
         -1   -1    0    0    0  501 -0.00000000000E+00 -0.00000000000E+00 -0.91781612457E+03  0.91781612457E+03  0.00000000000E+00 0.  1.
         23    2    1    2    0    0 -0.28148439845E+03  0.43349553060E+03  0.21719471767E+03  0.56882181032E+03  0.96087797845E+02 0.  0.
        254    2    1    2    0    0  0.28148439845E+03 -0.43349553060E+03 -0.37684249751E+03  0.11071626590E+04  0.90368525711E+03 0.  0.
         23    2    4    4    0    0  0.19498408566E+03 -0.16887570953E+03  0.27808755006E+03  0.38971740698E+03  0.89493982367E+02 0.  0.
         23    2    4    4    0    0  0.86500312794E+02 -0.26461982107E+03 -0.65493004757E+03  0.71744525201E+03  0.91040477863E+02 0.  0.
          2    1    3    3  502    0 -0.18802376043E+03  0.32700188511E+03  0.11576237727E+03  0.39456823915E+03  0.00000000000E+00 0. -1.
         -2    1    3    3    0  502 -0.93460638020E+02  0.10649364548E+03  0.10143234040E+03  0.17425357117E+03  0.00000000000E+00 0.  1.
         11    1    5    5    0    0  0.30591131363E+02 -0.60418408235E+02  0.33088479512E+02  0.75372732789E+02  0.00000000000E+00 0.  1.
        -11    1    5    5    0    0  0.16439295429E+03 -0.10845730129E+03  0.24499907055E+03  0.31434467419E+03  0.00000000000E+00 0. -1.
          3    1    6    6  503    0  0.90351579097E+02 -0.26320625850E+03 -0.65650595285E+03  0.71305049505E+03  0.00000000000E+00 0. -1.
         -3    1    6    6    0  503 -0.38512663027E+01 -0.14135625742E+01  0.15759052862E+01  0.43947569622E+01  0.00000000000E+00 0.  1.
<mgrwt>
<rscale>  0 0.16683634E+04</rscale>
<asrwt>0</asrwt>
<pdfrwt beam="1">  1        1 0.11664128E+00 0.16683634E+04</pdfrwt>
<pdfrwt beam="2">  1       -1 0.14120248E+00 0.16683634E+04</pdfrwt>
<totfact> 0.94180365E+00</totfact>
</mgrwt>
</event>
<event>
12    2  0.3623523E-008  0.2136413E+04  0.7818608E-02  0.8545371E-01
         -4   -1    0    0    0  501 -0.00000000000E+00  0.00000000000E+00  0.74744612810E+03  0.74744612810E+03  0.00000000000E+00 0. -1.
          4   -1    0    0  501    0  0.00000000000E+00 -0.00000000000E+00 -0.15266189824E+04  0.15266189824E+04  0.00000000000E+00 0.  1.
         23    2    1    2    0    0 -0.32484180327E+03 -0.80088912363E+03 -0.48958283808E+03  0.99740407872E+03  0.90432048633E+02 0.  0.
        254    2    1    2    0    0  0.32484180327E+03  0.80088912363E+03 -0.28959001624E+03  0.12766610318E+04  0.89389900275E+03 0.  0.
         23    2    4    4    0    0 -0.15126285536E+03  0.69460090618E+03 -0.30791449286E+03  0.78017188568E+03  0.92227794139E+02 0.  0.
         23    2    4    4    0    0  0.47610465863E+03  0.10628821745E+03  0.18324476624E+02  0.49648914612E+03  0.90514389131E+02 0.  0.
          4    1    3    3  502    0 -0.19325344095E+03 -0.58245147152E+03 -0.35758747959E+03  0.71025728766E+03  0.00000000000E+00 0. -1.
         -4    1    3    3    0  502 -0.13158836232E+03 -0.21843765210E+03 -0.13199535849E+03  0.28714679106E+03  0.00000000000E+00 0.  1.
         11    1    5    5    0    0 -0.74357617790E+02  0.42110847298E+03 -0.23013999532E+03  0.48561900579E+03  0.00000000000E+00 0. -1.
        -11    1    5    5    0    0 -0.76905237568E+02  0.27349243320E+03 -0.77774497545E+02  0.29455287989E+03  0.00000000000E+00 0.  1.
          1    1    6    6  503    0  0.22681432387E+03  0.51106438528E+01  0.16058457370E+02  0.22743950899E+03  0.00000000000E+00 0. -1.
         -1    1    6    6    0  503  0.24929033475E+03  0.10117757360E+03  0.22660192543E+01  0.26904963714E+03  0.00000000000E+00 0.  1.
<mgrwt>
<rscale>  0 0.21364133E+04</rscale>
<asrwt>0</asrwt>
<pdfrwt beam="1">  1        4 0.23486446E+00 0.21364133E+04</pdfrwt>
<pdfrwt beam="2">  1       -4 0.11499171E+00 0.21364133E+04</pdfrwt>
<totfact> 0.84871928E-02</totfact>
</mgrwt>
</event>
<event>
12    2  0.3623523E-008  0.3202690E+04  0.7818608E-02  0.8188107E-01
          2   -1    0    0  501    0  0.00000000000E+00  0.00000000000E+00  0.29147484818E+04  0.29147484818E+04  0.00000000000E+00 0. -1.
         -2   -1    0    0    0  501 -0.00000000000E+00 -0.00000000000E+00 -0.87976926519E+03  0.87976926519E+03  0.00000000000E+00 0.  1.
         23    2    1    2    0    0  0.94371200144E+02  0.97181064428E+03 -0.36872342927E+03  0.10475780362E+04  0.90227062583E+02 0.  0.
        254    2    1    2    0    0 -0.94371200144E+02 -0.97181064428E+03  0.24037026459E+04  0.27469397108E+04  0.90253504828E+03 0.  0.
         23    2    4    4    0    0 -0.81212683371E+02  0.68032246521E+02  0.92685769419E+03  0.93860917748E+03  0.10343169851E+03 0.  0.
         23    2    4    4    0    0 -0.13158516773E+02 -0.10398428908E+04  0.14768449517E+04  0.18083305334E+04  0.86844242310E+02 0.  0.
          1    1    3    3  502    0  0.56371434214E+02  0.48418704174E+03 -0.13689331130E+03  0.50631473281E+03  0.00000000000E+00 0. -1.
         -1    1    3    3    0  502  0.37999765930E+02  0.48762360253E+03 -0.23183011797E+03  0.54126330335E+03  0.00000000000E+00 0.  1.
         11    1    5    5    0    0  0.18471982214E+02  0.11635920113E+02  0.53640805948E+02  0.57913252599E+02  0.00000000000E+00 0.  1.
        -11    1    5    5    0    0 -0.99684665585E+02  0.56396326409E+02  0.87321688824E+03  0.88069592488E+03  0.00000000000E+00 0. -1.
          1    1    6    6  503    0  0.26763752760E+02 -0.67311189507E+03  0.99179310285E+03  0.11989368126E+04  0.00000000000E+00 0. -1.
         -1    1    6    6    0  503 -0.39922269532E+02 -0.36673099573E+03  0.48505184886E+03  0.60939372077E+03  0.00000000000E+00 0.  1.
<mgrwt>
<rscale>  0 0.32026902E+04</rscale>
<asrwt>0</asrwt>
<pdfrwt beam="1">  1        2 0.44842284E+00 0.32026902E+04</pdfrwt>
<pdfrwt beam="2">  1       -2 0.13534912E+00 0.32026902E+04</pdfrwt>
<totfact> 0.64874076E-01</totfact>
</mgrwt>
</event>
<event>
12    2  0.3623523E-008  0.1400495E+04  0.7818608E-02  0.8953461E-01
          2   -1    0    0  501    0  0.00000000000E+00  0.00000000000E+00  0.10976065464E+04  0.10976065464E+04  0.00000000000E+00 0. -1.
         -2   -1    0    0    0  501 -0.00000000000E+00 -0.00000000000E+00 -0.44674146739E+03  0.44674146739E+03  0.00000000000E+00 0.  1.
         23    2    1    2    0    0  0.14371618597E+03  0.34852462038E+03  0.49637773614E+02  0.39091729380E+03  0.90712010796E+02 0.  0.
        254    2    1    2    0    0 -0.14371618597E+03 -0.34852462038E+03  0.60122730540E+03  0.11534307200E+04  0.90928785317E+03 0.  0.
         23    2    4    4    0    0  0.25073763751E+03 -0.45492883521E+03  0.17236379081E+03  0.55422344844E+03  0.87319794136E+02 0.  0.
         23    2    4    4    0    0 -0.39445382347E+03  0.10640421483E+03  0.42886351459E+03  0.59920727155E+03  0.90607749920E+02 0.  0.
          3    1    3    3  502    0  0.10253773878E+03  0.23230382650E+03  0.75541227056E+02  0.26492552286E+03  0.00000000000E+00 0. -1.
         -3    1    3    3    0  502  0.41178447184E+02  0.11622079388E+03 -0.25903453442E+02  0.12599177094E+03  0.00000000000E+00 0.  1.
         11    1    5    5    0    0  0.25055314675E+03 -0.45483935618E+03  0.17772745124E+03  0.54885587016E+03  0.00000000000E+00 0. -1.
        -11    1    5    5    0    0  0.18449075867E+00 -0.89479025748E-01 -0.53636604354E+01  0.53675782809E+01  0.00000000000E+00 0.  1.
          1    1    6    6  503    0 -0.15327649779E+03  0.83884894933E+02  0.15475925403E+03  0.23341119742E+03  0.00000000000E+00 0. -1.
         -1    1    6    6    0  503 -0.24117732569E+03  0.22519319895E+02  0.27410426056E+03  0.36579607413E+03  0.00000000000E+00 0.  1.
<mgrwt>
<rscale>  0 0.14004947E+04</rscale>
<asrwt>0</asrwt>
<pdfrwt beam="1">  1        2 0.16886254E+00 0.14004947E+04</pdfrwt>
<pdfrwt beam="2">  1       -2 0.68729457E-01 0.14004947E+04</pdfrwt>
<totfact> 0.41170106E+01</totfact>
</mgrwt>
</event>
<event>
12    2  0.3623523E-008  0.2453589E+04  0.7818608E-02  0.8419709E-01
          2   -1    0    0  501    0  0.00000000000E+00  0.00000000000E+00  0.19833495923E+04  0.19833495923E+04  0.00000000000E+00 0.  1.
         -2   -1    0    0    0  501 -0.00000000000E+00 -0.00000000000E+00 -0.75882986235E+03  0.75882986235E+03  0.00000000000E+00 0. -1.
         23    2    1    2    0    0 -0.21725544945E+01 -0.83358902818E+03  0.12555840830E+04  0.15096471642E+04  0.87565878005E+02 0.  0.
        254    2    1    2    0    0  0.21725544945E+01  0.83358902818E+03 -0.31064353084E+02  0.12325322904E+04  0.90735630542E+03 0.  0.
         23    2    4    4    0    0 -0.24115279955E+02  0.74206908504E+02 -0.37510203146E+03  0.39368117509E+03  0.90526911023E+02 0.  0.
         23    2    4    4    0    0  0.26287834450E+02  0.75938211968E+03  0.34403767838E+03  0.83885111532E+03  0.89202105373E+02 0.  0.
          3    1    3    3  502    0  0.35967261034E+02 -0.26859422983E+03  0.43970039537E+03  0.51650066975E+03  0.00000000000E+00 0. -1.
         -3    1    3    3    0  502 -0.38139815528E+02 -0.56499479835E+03  0.81588368764E+03  0.99314649446E+03  0.00000000000E+00 0.  1.
         11    1    5    5    0    0 -0.66764583546E+01  0.84753760481E+02 -0.35506373637E+03  0.36510002998E+03  0.00000000000E+00 0.  1.
        -11    1    5    5    0    0 -0.17438821601E+02 -0.10546851978E+02 -0.20038295097E+02  0.28581145111E+02  0.00000000000E+00 0. -1.
          3    1    6    6  503    0  0.16486242201E+02  0.23560650683E+03  0.63374556770E+02  0.24453743412E+03  0.00000000000E+00 0. -1.
         -3    1    6    6    0  503  0.98015922488E+01  0.52377561285E+03  0.28066312161E+03  0.59431368120E+03  0.00000000000E+00 0.  1.
<mgrwt>
<rscale>  0 0.24535891E+04</rscale>
<asrwt>0</asrwt>
<pdfrwt beam="1">  1        2 0.30513071E+00 0.24535891E+04</pdfrwt>
<pdfrwt beam="2">  1       -2 0.11674306E+00 0.24535891E+04</pdfrwt>
<totfact> 0.34728512E+00</totfact>
</mgrwt>
</event>
<event>
12    2  0.3623523E-008  0.1817370E+04  0.7818608E-02  0.8697116E-01
         -2   -1    0    0    0  501 -0.00000000000E+00  0.00000000000E+00  0.14077646401E+04  0.14077646401E+04  0.00000000000E+00 0.  1.
          2   -1    0    0  501    0  0.00000000000E+00 -0.00000000000E+00 -0.58653879518E+03  0.58653879518E+03  0.00000000000E+00 0. -1.
         23    2    1    2    0    0 -0.11761837766E+03 -0.53547748192E+03 -0.16724352821E+02  0.55577274807E+03  0.89629387583E+02 0.  0.
        254    2    1    2    0    0  0.11761837766E+03  0.53547748192E+03  0.83795019778E+03  0.14385306872E+04  0.10327825462E+04 0.  0.
         23    2    4    4    0    0 -0.13791658637E+03  0.43141347762E+03 -0.85710144388E+02  0.46974198129E+03  0.90403134148E+02 0.  0.
         23    2    4    4    0    0  0.25553496403E+03  0.10406400430E+03  0.92366034217E+03  0.96878870594E+03  0.96310405669E+02 0.  0.
          4    1    3    3  502    0 -0.83000534557E+02 -0.31916188505E+03 -0.52096219841E+02  0.33386735948E+03  0.00000000000E+00 0. -1.
         -4    1    3    3    0  502 -0.34617843107E+02 -0.21631559687E+03  0.35371867020E+02  0.22190538859E+03  0.00000000000E+00 0.  1.
         11    1    5    5    0    0 -0.34182777921E+02  0.15353000433E+03 -0.71526943189E+02  0.17278896996E+03  0.00000000000E+00 0. -1.
        -11    1    5    5    0    0 -0.10373380845E+03  0.27788347329E+03 -0.14183201199E+02  0.29695301133E+03  0.00000000000E+00 0.  1.
          1    1    6    6  503    0  0.18697191316E+02  0.44137904067E+02  0.15276940865E+03  0.16011318421E+03  0.00000000000E+00 0. -1.
         -1    1    6    6    0  503  0.23683777272E+03  0.59926100229E+02  0.77089093352E+03  0.80867552174E+03  0.00000000000E+00 0.  1.
<mgrwt>
<rscale>  0 0.18173702E+04</rscale>
<asrwt>0</asrwt>
<pdfrwt beam="1">  1        2 0.90236739E-01 0.18173702E+04</pdfrwt>
<pdfrwt beam="2">  1       -2 0.21657917E+00 0.18173702E+04</pdfrwt>
<totfact> 0.49901555E+00</totfact>
</mgrwt>
</event>
<event>
12    2  0.3623523E-008  0.1660023E+04  0.7818608E-02  0.8784499E-01
          1   -1    0    0  501    0  0.00000000000E+00  0.00000000000E+00  0.49690078031E+03  0.49690078031E+03  0.00000000000E+00 0. -1.
         -1   -1    0    0    0  501 -0.00000000000E+00 -0.00000000000E+00 -0.13864320785E+04  0.13864320785E+04  0.00000000000E+00 0.  1.
         23    2    1    2    0    0  0.18851385013E+03  0.13749455457E+02  0.30455837437E+03  0.36912343503E+03  0.88146399110E+02 0.  0.
        254    2    1    2    0    0 -0.18851385013E+03 -0.13749455457E+02 -0.11940896726E+04  0.15142094238E+04  0.91173105342E+03 0.  0.
         23    2    4    4    0    0  0.51454456520E+01 -0.41291461751E+03 -0.83765449440E+03  0.93791389949E+03  0.86559077529E+02 0.  0.
         23    2    4    4    0    0 -0.19365929578E+03  0.39916516206E+03 -0.35643517820E+03  0.57629552433E+03  0.90739989329E+02 0.  0.
          3    1    3    3  502    0  0.11660697280E+03 -0.14384317334E+02  0.11483812291E+03  0.16429208491E+03  0.00000000000E+00 0. -1.
         -3    1    3    3    0  502  0.71906877327E+02  0.28133772792E+02  0.18972025146E+03  0.20483135012E+03  0.00000000000E+00 0.  1.
         11    1    5    5    0    0 -0.23599706335E+02 -0.35538099433E+03 -0.67956447350E+03  0.76724212014E+03  0.00000000000E+00 0.  1.
        -11    1    5    5    0    0  0.28745151987E+02 -0.57533623182E+02 -0.15809002090E+03  0.17067177935E+03  0.00000000000E+00 0. -1.
          1    1    6    6  503    0 -0.11925088342E+02  0.21313016184E+02 -0.54156949742E+02  0.59408985820E+02  0.00000000000E+00 0. -1.
         -1    1    6    6    0  503 -0.18173420744E+03  0.37785214587E+03 -0.30227822846E+03  0.51688653851E+03  0.00000000000E+00 0.  1.
<mgrwt>
<rscale>  0 0.16600231E+04</rscale>
<asrwt>0</asrwt>
<pdfrwt beam="1">  1        1 0.76446275E-01 0.16600231E+04</pdfrwt>
<pdfrwt beam="2">  1       -1 0.21329724E+00 0.16600231E+04</pdfrwt>
<totfact> 0.52112043E+00</totfact>
</mgrwt>
</event>
<event>
12    2  0.3623523E-008  0.1912565E+04  0.7818608E-02  0.8648627E-01
         -2   -1    0    0    0  501 -0.00000000000E+00  0.00000000000E+00  0.87097721489E+03  0.87097721489E+03  0.00000000000E+00 0.  1.
          2   -1    0    0  501    0  0.00000000000E+00 -0.00000000000E+00 -0.10499428752E+04  0.10499428752E+04  0.00000000000E+00 0. -1.
         23    2    1    2    0    0 -0.67146856435E+03  0.30816991617E+03 -0.11406148207E+02  0.74426120983E+03  0.89195953330E+02 0.  0.
        254    2    1    2    0    0  0.67146856435E+03 -0.30816991617E+03 -0.16755951214E+03  0.11766588803E+04  0.90033949170E+03 0.  0.
         23    2    4    4    0    0 -0.18125592480E+02  0.32171625700E+02 -0.36428839121E+03  0.37767860538E+03  0.92582646237E+02 0.  0.
         23    2    4    4    0    0  0.68959415683E+03 -0.34034154187E+03  0.19672887908E+03  0.79898027492E+03  0.91075581707E+02 0.  0.
          2    1    3    3  502    0 -0.47176861556E+03  0.20332202019E+03 -0.47227538644E+02  0.51588362149E+03  0.00000000000E+00 0. -1.
         -2    1    3    3    0  502 -0.19969994880E+03  0.10484789598E+03  0.35821390437E+02  0.22837758833E+03  0.00000000000E+00 0.  1.
         11    1    5    5    0    0  0.31763514762E+02  0.29474377673E+02 -0.10447090730E+03  0.11310097383E+03  0.00000000000E+00 0. -1.
        -11    1    5    5    0    0 -0.49889107242E+02  0.26972480268E+01 -0.25981748391E+03  0.26457763154E+03  0.00000000000E+00 0.  1.
          3    1    6    6  503    0  0.26691501038E+03 -0.14718225571E+03  0.12186975060E+03  0.32826586066E+03  0.00000000000E+00 0. -1.
         -3    1    6    6    0  503  0.42267914645E+03 -0.19315928616E+03  0.74859128480E+02  0.47071441426E+03  0.00000000000E+00 0.  1.
<mgrwt>
<rscale>  0 0.19125651E+04</rscale>
<asrwt>0</asrwt>
<pdfrwt beam="1">  1        2 0.16152967E+00 0.19125651E+04</pdfrwt>
<pdfrwt beam="2">  1       -2 0.13399649E+00 0.19125651E+04</pdfrwt>
<totfact> 0.88076776E+00</totfact>
</mgrwt>
</event>
<event>
12    2  0.3623523E-008  0.1178440E+04  0.7818608E-02  0.9131940E-01
         -1   -1    0    0    0  501 -0.00000000000E+00  0.00000000000E+00  0.40637434880E+03  0.40637434880E+03  0.00000000000E+00 0.  1.
          1   -1    0    0  501    0  0.00000000000E+00 -0.00000000000E+00 -0.85433661537E+03  0.85433661537E+03  0.00000000000E+00 0. -1.
         23    2    1    2    0    0  0.15294929621E+03  0.29290837271E+02  0.10261958653E+03  0.20785248682E+03  0.91762935763E+02 0.  0.
        254    2    1    2    0    0 -0.15294929621E+03 -0.29290837271E+02 -0.55058185310E+03  0.10528584773E+04  0.88380945684E+03 0.  0.
         23    2    4    4    0    0  0.15151451237E+03  0.26655257568E+03 -0.52746043389E+03  0.61812739793E+03  0.99297772878E+02 0.  0.
         23    2    4    4    0    0 -0.30446380858E+03 -0.29584341295E+03 -0.23121419215E+02  0.43473107941E+03  0.90746766646E+02 0.  0.
          2    1    3    3  502    0 -0.42833930494E+01 -0.11146743674E+02 -0.51340260631E+01  0.12998291202E+02  0.00000000000E+00 0. -1.
         -2    1    3    3    0  502  0.15723268926E+03  0.40437580945E+02  0.10775361259E+03  0.19485419562E+03  0.00000000000E+00 0.  1.
         11    1    5    5    0    0  0.16256265221E+02  0.38149745078E+02 -0.21380791269E+02  0.46656269072E+02  0.00000000000E+00 0. -1.
        -11    1    5    5    0    0  0.13525824715E+03  0.22840283060E+03 -0.50607964262E+03  0.57147112886E+03  0.00000000000E+00 0.  1.
          2    1    6    6  503    0 -0.31668046617E+02 -0.16898681046E+01  0.68168605441E+01  0.32437484774E+02  0.00000000000E+00 0. -1.
         -2    1    6    6    0  503 -0.27279576197E+03 -0.29415354484E+03 -0.29938279759E+02  0.40229359464E+03  0.00000000000E+00 0.  1.
<mgrwt>
<rscale>  0 0.11784405E+04</rscale>
<asrwt>0</asrwt>
<pdfrwt beam="1">  1        1 0.13143640E+00 0.11784405E+04</pdfrwt>
<pdfrwt beam="2">  1       -1 0.62519131E-01 0.11784405E+04</pdfrwt>
<totfact> 0.51089651E+01</totfact>
</mgrwt>
</event>
<event>
12    2  0.3623523E-008  0.1964038E+04  0.7818608E-02  0.8623621E-01
          2   -1    0    0  501    0  0.00000000000E+00  0.00000000000E+00  0.14880127185E+04  0.14880127185E+04  0.00000000000E+00 0. -1.
         -2   -1    0    0    0  501 -0.00000000000E+00 -0.00000000000E+00 -0.64808700960E+03  0.64808700960E+03  0.00000000000E+00 0.  1.
         23    2    1    2    0    0 -0.36402285372E+03 -0.68916280945E+03  0.36364077707E+03  0.86477586110E+03  0.90247765782E+02 0.  0.
        254    2    1    2    0    0  0.36402285372E+03  0.68916280945E+03  0.47628493182E+03  0.12713238670E+04  0.88428446924E+03 0.  0.
         23    2    4    4    0    0 -0.15851524293E+03  0.60892502439E+03  0.19097407073E+03  0.66397160839E+03  0.92034958004E+02 0.  0.
         23    2    4    4    0    0  0.52253809665E+03  0.80237785067E+02  0.28531086109E+03  0.60735225860E+03  0.89388556130E+02 0.  0.
          3    1    3    3  502    0 -0.36051313314E+03 -0.65770608313E+03  0.33268805961E+03  0.82050493963E+03  0.00000000000E+00 0. -1.
         -3    1    3    3    0  502 -0.35097205786E+01 -0.31456726323E+02  0.30952717457E+02  0.44270921466E+02  0.00000000000E+00 0.  1.
         11    1    5    5    0    0 -0.11426293045E+03  0.33442404983E+03  0.14571384044E+03  0.38226690371E+03  0.00000000000E+00 0. -1.
        -11    1    5    5    0    0 -0.44252312478E+02  0.27450097456E+03  0.45260230295E+02  0.28170470468E+03  0.00000000000E+00 0.  1.
          1    1    6    6  503    0  0.47906444666E+03  0.84234178147E+02  0.23336521947E+03  0.53949742027E+03  0.00000000000E+00 0. -1.
         -1    1    6    6    0  503  0.43473649990E+02 -0.39963930801E+01  0.51945641621E+02  0.67854838328E+02  0.00000000000E+00 0.  1.
<mgrwt>
<rscale>  0 0.19640384E+04</rscale>
<asrwt>0</asrwt>
<pdfrwt beam="1">  1        2 0.22892503E+00 0.19640384E+04</pdfrwt>
<pdfrwt beam="2">  1       -2 0.99705694E-01 0.19640384E+04</pdfrwt>
<totfact> 0.99941326E+00</totfact>
</mgrwt>
</event>
<event>
12    2  0.3623523E-008  0.2081188E+04  0.7818608E-02  0.8569576E-01
          2   -1    0    0  501    0  0.00000000000E+00  0.00000000000E+00  0.14010483832E+04  0.14010483832E+04  0.00000000000E+00 0. -1.
         -2   -1    0    0    0  501 -0.00000000000E+00 -0.00000000000E+00 -0.77287511280E+03  0.77287511280E+03  0.00000000000E+00 0.  1.
         23    2    1    2    0    0  0.43147546024E+03  0.50171406731E+03  0.80007217360E+03  0.10422166260E+04  0.90619723922E+02 0.  0.
        254    2    1    2    0    0 -0.43147546024E+03 -0.50171406731E+03 -0.17189890321E+03  0.11317068700E+04  0.90184429288E+03 0.  0.
         23    2    4    4    0    0 -0.38211380762E+03 -0.18645972586E+03 -0.50166627956E+03  0.66376685653E+03  0.90217473052E+02 0.  0.
         23    2    4    4    0    0 -0.49361652617E+02 -0.31525434144E+03  0.32976737635E+03  0.46794001349E+03  0.91648574292E+02 0.  0.
          1    1    3    3  502    0  0.23692092349E+03  0.32168997233E+03  0.53100569539E+03  0.66451712606E+03  0.00000000000E+00 0. -1.
         -1    1    3    3    0  502  0.19455453674E+03  0.18002409498E+03  0.26906647821E+03  0.37769949991E+03  0.00000000000E+00 0.  1.
         11    1    5    5    0    0 -0.31340941473E+03 -0.15497207122E+03 -0.35216177027E+03  0.49624562117E+03  0.00000000000E+00 0. -1.
        -11    1    5    5    0    0 -0.68704392892E+02 -0.31487654646E+02 -0.14950450929E+03  0.16752123536E+03  0.00000000000E+00 0.  1.
          4    1    6    6  503    0 -0.39392604150E+02 -0.31888502589E+03  0.32093515886E+03  0.45413523668E+03  0.00000000000E+00 0. -1.
         -4    1    6    6    0  503 -0.99690484666E+01  0.36306844516E+01  0.88322174914E+01  0.13804776808E+02  0.00000000000E+00 0.  1.
<mgrwt>
<rscale>  0 0.20811876E+04</rscale>
<asrwt>0</asrwt>
<pdfrwt beam="1">  1        2 0.21554590E+00 0.20811876E+04</pdfrwt>
<pdfrwt beam="2">  1       -2 0.11890386E+00 0.20811876E+04</pdfrwt>
<totfact> 0.72468300E+00</totfact>
</mgrwt>
</event>
<event>
12    2  0.3623523E-008  0.1692653E+04  0.7818608E-02  0.8765566E-01
          4   -1    0    0  501    0  0.00000000000E+00  0.00000000000E+00  0.63359895016E+03  0.63359895016E+03  0.00000000000E+00 0. -1.
         -4   -1    0    0    0  501 -0.00000000000E+00 -0.00000000000E+00 -0.11304764739E+04  0.11304764739E+04  0.00000000000E+00 0.  1.
         23    2    1    2    0    0 -0.44251298529E+03  0.27057567179E+03  0.12894341238E+03  0.54295098872E+03  0.95605628724E+02 0.  0.
        254    2    1    2    0    0  0.44251298529E+03 -0.27057567179E+03 -0.62582093607E+03  0.12211244353E+04  0.91129803366E+03 0.  0.
         23    2    4    4    0    0  0.40779779520E+03 -0.35666390966E+03 -0.81976754529E+03  0.98760692739E+03  0.99198933876E+02 0.  0.
         23    2    4    4    0    0  0.34715190089E+02  0.86088237869E+02  0.19394660922E+03  0.23351750791E+03  0.91097805406E+02 0.  0.
          3    1    3    3  502    0 -0.41613239558E+02  0.60658242634E+02  0.48885954866E+01  0.73722333602E+02  0.00000000000E+00 0.  1.
         -3    1    3    3    0  502 -0.40089974573E+03  0.20991742916E+03  0.12405481689E+03  0.46922865512E+03  0.00000000000E+00 0. -1.
         11    1    5    5    0    0  0.10735759550E+02  0.10528500938E+01 -0.24395980415E+01  0.11059686480E+02  0.00000000000E+00 0. -1.
        -11    1    5    5    0    0  0.39706203565E+03 -0.35771675975E+03 -0.81732794725E+03  0.97654724091E+03  0.00000000000E+00 0.  1.
          2    1    6    6  503    0 -0.11829675275E+02  0.52328319839E+02  0.33915474094E+02  0.63470100499E+02  0.00000000000E+00 0.  1.
         -2    1    6    6    0  503  0.46544865365E+02  0.33759918030E+02  0.16003113513E+03  0.17004740741E+03  0.00000000000E+00 0. -1.
<mgrwt>
<rscale>  0 0.16926532E+04</rscale>
<asrwt>0</asrwt>
<pdfrwt beam="1">  1        4 0.97476761E-01 0.16926532E+04</pdfrwt>
<pdfrwt beam="2">  1       -4 0.17391946E+00 0.16926532E+04</pdfrwt>
<totfact> 0.33146629E-01</totfact>
</mgrwt>
</event>
<event>
12    2  0.3623523E-008  0.1270330E+04  0.7818608E-02  0.9053431E-01
         -1   -1    0    0    0  501 -0.00000000000E+00  0.00000000000E+00  0.32226958775E+04  0.32226958775E+04  0.00000000000E+00 0. -1.
          1   -1    0    0  501    0  0.00000000000E+00 -0.00000000000E+00 -0.12518535988E+03  0.12518535988E+03  0.00000000000E+00 0.  1.
         23    2    1    2    0    0 -0.25134480703E+03  0.15689728115E+03  0.10062415121E+04  0.10544177429E+04  0.10716261976E+03 0.  0.
        254    2    1    2    0    0  0.25134480703E+03 -0.15689728115E+03  0.20912690056E+04  0.22934634945E+04  0.89374368701E+03 0.  0.
         23    2    4    4    0    0  0.13695981108E+03  0.70129687026E+02 -0.19731950469E+01  0.18274710492E+03  0.98572044751E+02 0.  0.
         23    2    4    4    0    0  0.11438499595E+03 -0.22702696818E+03  0.20932422006E+04  0.21107163896E+04  0.93997846719E+02 0.  0.
          3    1    3    3  502    0 -0.58064776802E+02  0.32103041980E+02  0.40990814192E+03  0.41524307149E+03  0.00000000000E+00 0. -1.
         -3    1    3    3    0  502 -0.19328003023E+03  0.12479423917E+03  0.59633337016E+03  0.63917467142E+03  0.00000000000E+00 0.  1.
         11    1    5    5    0    0  0.51021140139E+02  0.15300076140E+02  0.45725066771E+02  0.70199934488E+02  0.00000000000E+00 0.  1.
        -11    1    5    5    0    0  0.85938670937E+02  0.54829610886E+02 -0.47698261818E+02  0.11254717043E+03  0.00000000000E+00 0. -1.
          4    1    6    6  503    0  0.12393036268E+03 -0.19312898453E+03  0.16208321368E+04  0.16369955270E+04  0.00000000000E+00 0. -1.
         -4    1    6    6    0  503 -0.95453667237E+01 -0.33897983650E+02  0.47241006376E+03  0.47372086260E+03  0.00000000000E+00 0.  1.
<mgrwt>
<rscale>  0 0.12703296E+04</rscale>
<asrwt>0</asrwt>
<pdfrwt beam="1">  1        1 0.19259289E-01 0.12703296E+04</pdfrwt>
<pdfrwt beam="2">  1       -1 0.49579930E+00 0.12703296E+04</pdfrwt>
<totfact> 0.43438594E-01</totfact>
</mgrwt>
</event>
<event>
12    2  0.3623523E-008  0.2641945E+04  0.7818608E-02  0.8354091E-01
          1   -1    0    0  501    0  0.00000000000E+00  0.00000000000E+00  0.29675506097E+04  0.29675506097E+04  0.00000000000E+00 0. -1.
         -1   -1    0    0    0  501 -0.00000000000E+00 -0.00000000000E+00 -0.58801645492E+03  0.58801645492E+03  0.00000000000E+00 0.  1.
         23    2    1    2    0    0 -0.48345450721E+03  0.50430458225E+03 -0.20392577560E+03  0.73389763529E+03  0.94702929756E+02 0.  0.
        254    2    1    2    0    0  0.48345450721E+03 -0.50430458225E+03  0.25834599304E+04  0.28216694293E+04  0.89414863660E+03 0.  0.
         23    2    4    4    0    0 -0.24098509727E+03 -0.61181852445E+02  0.42264929759E+03  0.49817295256E+03  0.87902364787E+02 0.  0.
         23    2    4    4    0    0  0.72443960448E+03 -0.44312272981E+03  0.21608106328E+04  0.23234964768E+04  0.91448305637E+02 0.  0.
          2    1    3    3  502    0 -0.90450438979E+02  0.78952035792E+02 -0.71822420295E+02  0.13990413119E+03  0.00000000000E+00 0. -1.
         -2    1    3    3    0  502 -0.39300406823E+03  0.42535254646E+03 -0.13210335530E+03  0.59399350410E+03  0.00000000000E+00 0.  1.
         11    1    5    5    0    0 -0.24065135117E+03 -0.57704686897E+02  0.36835292466E+03  0.44376433027E+03  0.00000000000E+00 0.  1.
        -11    1    5    5    0    0 -0.33374609625E+00 -0.34771655486E+01  0.54296372925E+02  0.54408622290E+02  0.00000000000E+00 0. -1.
          2    1    6    6  503    0  0.42556507592E+03 -0.20855653569E+03  0.11699479333E+04  0.12622914200E+04  0.00000000000E+00 0. -1.
         -2    1    6    6    0  503  0.29887452855E+03 -0.23456619412E+03  0.99086269952E+03  0.10612050568E+04  0.00000000000E+00 0.  1.
<mgrwt>
<rscale>  0 0.26419452E+04</rscale>
<asrwt>0</asrwt>
<pdfrwt beam="1">  1        1 0.45654624E+00 0.26419452E+04</pdfrwt>
<pdfrwt beam="2">  1       -1 0.90464072E-01 0.26419452E+04</pdfrwt>
<totfact> 0.66126890E-01</totfact>
</mgrwt>
</event>
<event>
12    2  0.3623523E-008  0.1743640E+04  0.7818608E-02  0.8736859E-01
          2   -1    0    0  501    0  0.00000000000E+00  0.00000000000E+00  0.28339564097E+04  0.28339564097E+04  0.00000000000E+00 0. -1.
         -2   -1    0    0    0  501 -0.00000000000E+00 -0.00000000000E+00 -0.26820093489E+03  0.26820093489E+03  0.00000000000E+00 0.  1.
         23    2    1    2    0    0 -0.48294969960E+03  0.27361207729E+03  0.40416691941E+03  0.69474652656E+03  0.10591438163E+03 0.  0.
        254    2    1    2    0    0  0.48294969960E+03 -0.27361207729E+03  0.21615885554E+04  0.24074108180E+04  0.90280550663E+03 0.  0.
         23    2    4    4    0    0  0.58646972204E+03 -0.20549751141E+03  0.71081564919E+03  0.94861246755E+03  0.91819194072E+02 0.  0.
         23    2    4    4    0    0 -0.10352002244E+03 -0.68114565882E+02  0.14507729062E+04  0.14587983505E+04  0.89412599007E+02 0.  0.
          3    1    3    3  502    0 -0.17009904427E+03  0.64201226557E+02  0.82849386360E+02  0.19979865658E+03  0.00000000000E+00 0. -1.
         -3    1    3    3    0  502 -0.31285065533E+03  0.20941085074E+03  0.32131753305E+03  0.49494786997E+03  0.00000000000E+00 0.  1.
         11    1    5    5    0    0  0.21114671216E+03 -0.11703848032E+03  0.30197550785E+03  0.38661369256E+03  0.00000000000E+00 0. -1.
        -11    1    5    5    0    0  0.37532300988E+03 -0.88459031091E+02  0.40884014134E+03  0.56199877500E+03  0.00000000000E+00 0.  1.
          4    1    6    6  503    0 -0.72568667912E+02 -0.69341990637E+02  0.67644481116E+03  0.68385093827E+03  0.00000000000E+00 0.  1.
         -4    1    6    6    0  503 -0.30951354529E+02  0.12274247552E+01  0.77432809503E+03  0.77494741219E+03  0.00000000000E+00 0. -1.
<mgrwt>
<rscale>  0 0.17436396E+04</rscale>
<asrwt>0</asrwt>
<pdfrwt beam="1">  1        2 0.43599327E+00 0.17436396E+04</pdfrwt>
<pdfrwt beam="2">  1       -2 0.41261684E-01 0.17436396E+04</pdfrwt>
<totfact> 0.11672786E+01</totfact>
</mgrwt>
</event>
<event>
12    2  0.3623523E-008  0.1045852E+04  0.7818608E-02  0.9259638E-01
         -1   -1    0    0    0  501 -0.00000000000E+00  0.00000000000E+00  0.98326460274E+02  0.98326460274E+02  0.00000000000E+00 0.  1.
          1   -1    0    0  501    0  0.00000000000E+00 -0.00000000000E+00 -0.27810556232E+04  0.27810556232E+04  0.00000000000E+00 0. -1.
         23    2    1    2    0    0  0.84650033348E+02 -0.61286468444E+02 -0.37176641070E+03  0.39623763142E+03  0.88726191533E+02 0.  0.
        254    2    1    2    0    0 -0.84650033348E+02  0.61286468444E+02 -0.23109627522E+04  0.24831444520E+04  0.90251640885E+03 0.  0.
         23    2    4    4    0    0 -0.33880715580E+03 -0.26647528472E+02 -0.33090888129E+03  0.48272111300E+03  0.89546667297E+02 0.  0.
         23    2    4    4    0    0  0.25415712245E+03  0.87933996916E+02 -0.19800538709E+04  0.20004233390E+04  0.93551979865E+02 0.  0.
          2    1    3    3  502    0  0.41158378574E+02 -0.31558813838E+01 -0.43220465813E+02  0.59766047044E+02  0.00000000000E+00 0.  1.
         -2    1    3    3    0  502  0.43491654774E+02 -0.58130587060E+02 -0.32854594489E+03  0.33647158437E+03  0.00000000000E+00 0. -1.
         11    1    5    5    0    0 -0.28696686047E+03 -0.55190212855E+02 -0.27215686720E+03  0.39933106436E+03  0.00000000000E+00 0. -1.
        -11    1    5    5    0    0 -0.51840295334E+02  0.28542684383E+02 -0.58752014087E+02  0.83390048635E+02  0.00000000000E+00 0.  1.
          2    1    6    6  503    0  0.19263083664E+03  0.92836908818E+02 -0.12887623846E+04  0.13063819559E+04  0.00000000000E+00 0. -1.
         -2    1    6    6    0  503  0.61526285808E+02 -0.49029119014E+01 -0.69129148636E+03  0.69404138314E+03  0.00000000000E+00 0.  1.
<mgrwt>
<rscale>  0 0.10458515E+04</rscale>
<asrwt>0</asrwt>
<pdfrwt beam="1">  1        1 0.42785471E+00 0.10458515E+04</pdfrwt>
<pdfrwt beam="2">  1       -1 0.15127148E-01 0.10458515E+04</pdfrwt>
<totfact> 0.28339626E+01</totfact>
</mgrwt>
</event>
<event>
12    2  0.3623523E-008  0.1929127E+04  0.7818608E-02  0.8640492E-01
          2   -1    0    0  501    0  0.00000000000E+00  0.00000000000E+00  0.17627404654E+04  0.17627404654E+04  0.00000000000E+00 0. -1.
         -2   -1    0    0    0  501 -0.00000000000E+00 -0.00000000000E+00 -0.52780493985E+03  0.52780493985E+03  0.00000000000E+00 0.  1.
         23    2    1    2    0    0 -0.45854681722E+03 -0.49198923644E+03  0.88107620446E+03  0.11129722924E+04  0.10046617974E+03 0.  0.
        254    2    1    2    0    0  0.45854681722E+03  0.49198923644E+03  0.35385932109E+03  0.11775731128E+04  0.89952399890E+03 0.  0.
         23    2    4    4    0    0 -0.13105687676E+03  0.36274754709E+03 -0.10981979074E+03  0.41133149792E+03  0.91496048408E+02 0.  0.
         23    2    4    4    0    0  0.58960369398E+03  0.12924168935E+03  0.46367911184E+03  0.76624161492E+03  0.88272098952E+02 0.  0.
          2    1    3    3  502    0 -0.39432112343E+03 -0.36908824968E+03  0.72715239192E+03  0.90579571953E+03  0.00000000000E+00 0. -1.
         -2    1    3    3    0  502 -0.64225693791E+02 -0.12290098676E+03  0.15392381254E+03  0.20717657289E+03  0.00000000000E+00 0.  1.
         11    1    5    5    0    0 -0.11473403531E+02  0.20820749958E+02  0.15098529702E+02  0.28162177056E+02  0.00000000000E+00 0.  1.
        -11    1    5    5    0    0 -0.11958347323E+03  0.34192679713E+03 -0.12491832044E+03  0.38316932086E+03  0.00000000000E+00 0. -1.
          3    1    6    6  503    0  0.50740261247E+03  0.10983196786E+03  0.43416600652E+03  0.67677218731E+03  0.00000000000E+00 0. -1.
         -3    1    6    6    0  503  0.82201081514E+02  0.19409721482E+02  0.29513105318E+02  0.89469427603E+02  0.00000000000E+00 0.  1.
<mgrwt>
<rscale>  0 0.19291274E+04</rscale>
<asrwt>0</asrwt>
<pdfrwt beam="1">  1        2 0.27119084E+00 0.19291274E+04</pdfrwt>
<pdfrwt beam="2">  1       -2 0.81200761E-01 0.19291274E+04</pdfrwt>
<totfact> 0.11301851E+01</totfact>
</mgrwt>
</event>
<event>
12    2  0.3623523E-008  0.1466860E+04  0.7818608E-02  0.8906795E-01
         -1   -1    0    0    0  501 -0.00000000000E+00  0.00000000000E+00  0.36311325184E+03  0.36311325184E+03  0.00000000000E+00 0.  1.
          1   -1    0    0  501    0  0.00000000000E+00 -0.00000000000E+00 -0.14814089671E+04  0.14814089671E+04  0.00000000000E+00 0. -1.
         23    2    1    2    0    0 -0.39226102411E+03 -0.17022447356E+03 -0.17071790483E+03  0.46949326778E+03  0.91838134958E+02 0.  0.
        254    2    1    2    0    0  0.39226102411E+03  0.17022447356E+03 -0.94757781044E+03  0.13750289512E+04  0.89997545926E+03 0.  0.
         23    2    4    4    0    0 -0.94494497589E+02  0.35000737682E+03 -0.69866678807E+03  0.79223008902E+03  0.89771149526E+02 0.  0.
         23    2    4    4    0    0  0.48675552170E+03 -0.17978290326E+03 -0.24891102237E+03  0.58279886215E+03  0.91896607419E+02 0.  0.
          4    1    3    3  502    0 -0.36372543353E+02 -0.39206266901E+02  0.29125027556E+00  0.53480632952E+02  0.00000000000E+00 0. -1.
         -4    1    3    3    0  502 -0.35588848075E+03 -0.13101820666E+03 -0.17100915510E+03  0.41601263483E+03  0.00000000000E+00 0.  1.
         11    1    5    5    0    0 -0.49923767471E+02  0.22998382124E+03 -0.53468909589E+03  0.58418949824E+03  0.00000000000E+00 0. -1.
        -11    1    5    5    0    0 -0.44570730119E+02  0.12002355558E+03 -0.16397769218E+03  0.20804059078E+03  0.00000000000E+00 0.  1.
          3    1    6    6  503    0  0.10731664759E+03 -0.93130453115E+01 -0.25790663048E+02  0.11076440748E+03  0.00000000000E+00 0. -1.
         -3    1    6    6    0  503  0.37943887411E+03 -0.17046985795E+03 -0.22312035932E+03  0.47203445467E+03  0.00000000000E+00 0.  1.
<mgrwt>
<rscale>  0 0.14668595E+04</rscale>
<asrwt>0</asrwt>
<pdfrwt beam="1">  1        1 0.22790908E+00 0.14668595E+04</pdfrwt>
<pdfrwt beam="2">  1       -1 0.55863576E-01 0.14668595E+04</pdfrwt>
<totfact> 0.21185071E+01</totfact>
</mgrwt>
</event>
<event>
12    2  0.3623523E-008  0.2496176E+04  0.7818608E-02  0.8404349E-01
          1   -1    0    0  501    0  0.00000000000E+00  0.00000000000E+00  0.43340156064E+04  0.43340156064E+04  0.00000000000E+00 0. -1.
         -1   -1    0    0    0  501 -0.00000000000E+00 -0.00000000000E+00 -0.35941805023E+03  0.35941805023E+03  0.00000000000E+00 0.  1.
         23    2    1    2    0    0  0.77243229417E+03  0.44066685126E+03  0.55620837126E+03  0.10529481037E+04  0.92157657685E+02 0.  0.
        254    2    1    2    0    0 -0.77243229417E+03 -0.44066685126E+03  0.34183891849E+04  0.36404855530E+04  0.88142584434E+03 0.  0.
         23    2    4    4    0    0 -0.79566255650E+03 -0.45562385724E+02  0.26804115971E+04  0.27979058134E+04  0.92280960377E+02 0.  0.
         23    2    4    4    0    0  0.23230262331E+02 -0.39510446553E+03  0.73797758778E+03  0.84257973961E+03  0.93180007329E+02 0.  0.
          3    1    3    3  502    0  0.58992781469E+03  0.35012302121E+03  0.38387006901E+03  0.78610252920E+03  0.00000000000E+00 0. -1.
         -3    1    3    3    0  502  0.18250447948E+03  0.90543830045E+02  0.17233830224E+03  0.26684557446E+03  0.00000000000E+00 0.  1.
         11    1    5    5    0    0 -0.17904668128E+03 -0.18569994876E+02  0.74625471200E+03  0.76765790165E+03  0.00000000000E+00 0. -1.
        -11    1    5    5    0    0 -0.61661587522E+03 -0.26992390848E+02  0.19341568851E+04  0.20302479117E+04  0.00000000000E+00 0.  1.
          4    1    6    6  503    0 -0.10797761203E+02 -0.27873185302E+03  0.44109702896E+03  0.52189522559E+03  0.00000000000E+00 0. -1.
         -4    1    6    6    0  503  0.34028023535E+02 -0.11637261251E+03  0.29688055882E+03  0.32068451402E+03  0.00000000000E+00 0.  1.
<mgrwt>
<rscale>  0 0.24961758E+04</rscale>
<asrwt>0</asrwt>
<pdfrwt beam="1">  1        1 0.66677159E+00 0.24961758E+04</pdfrwt>
<pdfrwt beam="2">  1       -1 0.55295088E-01 0.24961758E+04</pdfrwt>
<totfact> 0.13920782E-01</totfact>
</mgrwt>
</event>
<event>
12    2  0.3623523E-008  0.2814168E+04  0.7818608E-02  0.8298883E-01
         -2   -1    0    0    0  501 -0.00000000000E+00  0.00000000000E+00  0.11011094120E+04  0.11011094120E+04  0.00000000000E+00 0.  1.
          2   -1    0    0  501    0  0.00000000000E+00 -0.00000000000E+00 -0.17980829213E+04  0.17980829213E+04  0.00000000000E+00 0. -1.
         23    2    1    2    0    0  0.41235019653E+03 -0.11034449306E+04 -0.78647114400E+03  0.14190842900E+04  0.87406877298E+02 0.  0.
        254    2    1    2    0    0 -0.41235019653E+03  0.11034449306E+04  0.89497634695E+02  0.14801080433E+04  0.89167628307E+03 0.  0.
         23    2    4    4    0    0  0.11210837774E+03  0.81261677257E+03  0.23247749423E+03  0.85752515254E+03  0.91593091894E+02 0.  0.
         23    2    4    4    0    0 -0.52445857427E+03  0.29082815803E+03 -0.14297985954E+03  0.62258289077E+03  0.86766364542E+02 0.  0.
          3    1    3    3  502    0  0.41545959096E+03 -0.10783448112E+04 -0.77415490637E+03  0.13909529189E+04  0.00000000000E+00 0. -1.
         -3    1    3    3    0  502 -0.31093944244E+01 -0.25100119395E+02 -0.12316237631E+02  0.28131371042E+02  0.00000000000E+00 0.  1.
         11    1    5    5    0    0  0.64742577353E+02  0.35335367255E+03  0.14613481851E+03  0.38782187201E+03  0.00000000000E+00 0.  1.
        -11    1    5    5    0    0  0.47365800387E+02  0.45926310003E+03  0.86342675724E+02  0.46970328053E+03  0.00000000000E+00 0. -1.
          3    1    6    6  503    0 -0.10663812377E+03  0.40198076305E+02  0.28569141055E+01  0.11399884534E+03  0.00000000000E+00 0. -1.
         -3    1    6    6    0  503 -0.41782045050E+03  0.25063008172E+03 -0.14583677364E+03  0.50858404543E+03  0.00000000000E+00 0.  1.
<mgrwt>
<rscale>  0 0.28141685E+04</rscale>
<asrwt>0</asrwt>
<pdfrwt beam="1">  1        2 0.27662814E+00 0.28141685E+04</pdfrwt>
<pdfrwt beam="2">  1       -2 0.16940145E+00 0.28141685E+04</pdfrwt>
<totfact> 0.16184099E+00</totfact>
</mgrwt>
</event>
<event>
12    2  0.3623523E-008  0.1905514E+04  0.7818608E-02  0.8652117E-01
         -2   -1    0    0    0  501 -0.00000000000E+00  0.00000000000E+00  0.95999668816E+03  0.95999668816E+03  0.00000000000E+00 0. -1.
          2   -1    0    0  501    0  0.00000000000E+00 -0.00000000000E+00 -0.94557143945E+03  0.94557143945E+03  0.00000000000E+00 0.  1.
         23    2    1    2    0    0  0.50774618960E+03  0.53035426101E+03 -0.49107816551E+02  0.74174584455E+03  0.93238860140E+02 0.  0.
        254    2    1    2    0    0 -0.50774618960E+03 -0.53035426101E+03  0.63533065251E+02  0.11638222831E+04  0.90075747066E+03 0.  0.
         23    2    4    4    0    0 -0.48424963556E+02  0.23873457121E+03 -0.19732849306E+02  0.25943237335E+03  0.87043658106E+02 0.  0.
         23    2    4    4    0    0 -0.45932122604E+03 -0.76908883222E+03  0.83265914557E+02  0.90438990971E+03  0.92272833041E+02 0.  0.
          2    1    3    3  502    0  0.87797101689E+02  0.13026430649E+03 -0.37972284911E+02  0.16161378354E+03  0.00000000000E+00 0. -1.
         -2    1    3    3    0  502  0.41994908791E+03  0.40008995452E+03 -0.11135531640E+02  0.58013206101E+03  0.00000000000E+00 0.  1.
         11    1    5    5    0    0 -0.69177488408E+02  0.20917135629E+03 -0.28809355206E+02  0.22218946902E+03  0.00000000000E+00 0.  1.
        -11    1    5    5    0    0  0.20752524852E+02  0.29563214919E+02  0.90765059008E+01  0.37242904337E+02  0.00000000000E+00 0. -1.
          1    1    6    6  503    0 -0.19202275394E+03 -0.23670869783E+03  0.24582099664E+02  0.30579081949E+03  0.00000000000E+00 0. -1.
         -1    1    6    6    0  503 -0.26729847210E+03 -0.53238013439E+03  0.58683814893E+02  0.59859909022E+03  0.00000000000E+00 0.  1.
<mgrwt>
<rscale>  0 0.19055135E+04</rscale>
<asrwt>0</asrwt>
<pdfrwt beam="1">  1        2 0.14547253E+00 0.19055135E+04</pdfrwt>
<pdfrwt beam="2">  1       -2 0.14769180E+00 0.19055135E+04</pdfrwt>
<totfact> 0.79867207E+00</totfact>
</mgrwt>
</event>
<event>
12    2  0.3623523E-008  0.1760112E+04  0.7818608E-02  0.8727804E-01
         -2   -1    0    0    0  501 -0.00000000000E+00  0.00000000000E+00  0.73978623256E+03  0.73978623256E+03  0.00000000000E+00 0.  1.
          2   -1    0    0  501    0  0.00000000000E+00 -0.00000000000E+00 -0.10469223774E+04  0.10469223774E+04  0.00000000000E+00 0. -1.
         23    2    1    2    0    0 -0.27136905641E+03 -0.31337777049E+03  0.39711622155E+03  0.58130088955E+03  0.91447465566E+02 0.  0.
        254    2    1    2    0    0  0.27136905641E+03  0.31337777049E+03 -0.70425236637E+03  0.12054077204E+04  0.88610923992E+03 0.  0.
         23    2    4    4    0    0  0.37225914295E+01 -0.97890437591E+02 -0.69323725306E+03  0.70620166284E+03  0.92447304496E+02 0.  0.
         23    2    4    4    0    0  0.26764646498E+03  0.41126820808E+03 -0.11015113308E+02  0.49920605756E+03  0.91154736530E+02 0.  0.
          2    1    3    3  502    0 -0.16730611709E+03 -0.23029506882E+03  0.22025968251E+03  0.35991871760E+03  0.00000000000E+00 0. -1.
         -2    1    3    3    0  502 -0.10406293933E+03 -0.83082701672E+02  0.17685653904E+03  0.22138217195E+03  0.00000000000E+00 0.  1.
         11    1    5    5    0    0 -0.20109323879E+02 -0.76037806666E+01 -0.34477686464E+03  0.34544650639E+03  0.00000000000E+00 0. -1.
        -11    1    5    5    0    0  0.23831915309E+02 -0.90286656924E+02 -0.34846038842E+03  0.36075515645E+03  0.00000000000E+00 0.  1.
          1    1    6    6  503    0  0.60178557605E+02  0.16145169235E+03 -0.25350379598E+02  0.17415725510E+03  0.00000000000E+00 0. -1.
         -1    1    6    6    0  503  0.20746790738E+03  0.24981651573E+03  0.14335266290E+02  0.32504880246E+03  0.00000000000E+00 0.  1.
<mgrwt>
<rscale>  0 0.17601122E+04</rscale>
<asrwt>0</asrwt>
<pdfrwt beam="1">  1        2 0.16106498E+00 0.17601122E+04</pdfrwt>
<pdfrwt beam="2">  1       -2 0.11381327E+00 0.17601122E+04</pdfrwt>
<totfact> 0.13469040E+01</totfact>
</mgrwt>
</event>
<event>
12    2  0.3623523E-008  0.3236185E+04  0.7818608E-02  0.8179326E-01
          2   -1    0    0  501    0  0.00000000000E+00  0.00000000000E+00  0.39350980324E+04  0.39350980324E+04  0.00000000000E+00 0. -1.
         -2   -1    0    0    0  501 -0.00000000000E+00 -0.00000000000E+00 -0.66535160822E+03  0.66535160822E+03  0.00000000000E+00 0.  1.
         23    2    1    2    0    0 -0.10353046537E+04  0.10389539820E+04  0.18939775508E+04  0.23972839763E+04  0.92403450555E+02 0.  0.
        254    2    1    2    0    0  0.10353046537E+04 -0.10389539820E+04  0.13757688735E+04  0.22031656643E+04  0.89995435913E+03 0.  0.
         23    2    4    4    0    0  0.36342213421E+03  0.10589856037E+03  0.34005270653E+03  0.51709750108E+03  0.91999074392E+02 0.  0.
         23    2    4    4    0    0  0.67188251949E+03 -0.11448525424E+04  0.10357161669E+04  0.16860681632E+04  0.89467361646E+02 0.  0.
          4    1    3    3  502    0 -0.49815999494E+03  0.46218822472E+03  0.93843106909E+03  0.11586346305E+04  0.00000000000E+00 0. -1.
         -4    1    3    3    0  502 -0.53714465877E+03  0.57676575732E+03  0.95554648168E+03  0.12386493458E+04  0.00000000000E+00 0.  1.
         11    1    5    5    0    0  0.57812986905E+02 -0.14097150701E+02  0.70815690905E+02  0.92498287504E+02  0.00000000000E+00 0. -1.
        -11    1    5    5    0    0  0.30560914731E+03  0.11999571107E+03  0.26923701562E+03  0.42459921358E+03  0.00000000000E+00 0.  1.
          3    1    6    6  503    0  0.13832515958E+02 -0.56870027877E+02  0.37168270866E+02  0.69332668546E+02  0.00000000000E+00 0. -1.
         -3    1    6    6    0  503  0.65805000353E+03 -0.10879825145E+04  0.99854789606E+03  0.16167354947E+04  0.00000000000E+00 0.  1.
<mgrwt>
<rscale>  0 0.32361853E+04</rscale>
<asrwt>0</asrwt>
<pdfrwt beam="1">  1        2 0.60539968E+00 0.32361853E+04</pdfrwt>
<pdfrwt beam="2">  1       -2 0.10236179E+00 0.32361853E+04</pdfrwt>
<totfact> 0.25253243E-01</totfact>
</mgrwt>
</event>
<event>
12    2  0.3623523E-008  0.2180893E+04  0.7818608E-02  0.8526423E-01
         -2   -1    0    0    0  501 -0.00000000000E+00  0.00000000000E+00  0.86934607586E+03  0.86934607586E+03  0.00000000000E+00 0.  1.
          2   -1    0    0  501    0  0.00000000000E+00 -0.00000000000E+00 -0.13677788578E+04  0.13677788578E+04  0.00000000000E+00 0. -1.
         23    2    1    2    0    0  0.56293246293E+02 -0.25983384541E+03 -0.10925864755E+04  0.11273177027E+04  0.80108922548E+02 0.  0.
        254    2    1    2    0    0 -0.56293246293E+02  0.25983384541E+03  0.59415369361E+03  0.11098072310E+04  0.89887202731E+03 0.  0.
         23    2    4    4    0    0 -0.27089283802E+03  0.43190419675E+03  0.86990035114E+02  0.52522637597E+03  0.91494890308E+02 0.  0.
         23    2    4    4    0    0  0.21459959172E+03 -0.17207035133E+03  0.50716365850E+03  0.58458085499E+03  0.94120183549E+02 0.  0.
          1    1    3    3  502    0  0.59226293166E+01 -0.99654859167E+02 -0.27233411405E+03  0.29005523297E+03  0.00000000000E+00 0. -1.
         -1    1    3    3    0  502  0.50370616976E+02 -0.16017898625E+03 -0.82025236148E+03  0.83726246972E+03  0.00000000000E+00 0.  1.
         11    1    5    5    0    0 -0.26604363170E+03  0.41249690852E+03  0.10057299796E+03  0.50104674574E+03  0.00000000000E+00 0.  1.
        -11    1    5    5    0    0 -0.48492063153E+01  0.19407288231E+02 -0.13582962843E+02  0.24179630228E+02  0.00000000000E+00 0. -1.
          2    1    6    6  503    0  0.21651040947E+02  0.90773594906E+01  0.66816009158E+02  0.70820513336E+02  0.00000000000E+00 0. -1.
         -2    1    6    6    0  503  0.19294855078E+03 -0.18114771082E+03  0.44034764934E+03  0.51376034166E+03  0.00000000000E+00 0.  1.
<mgrwt>
<rscale>  0 0.21808926E+04</rscale>
<asrwt>0</asrwt>
<pdfrwt beam="1">  1        2 0.21042752E+00 0.21808926E+04</pdfrwt>
<pdfrwt beam="2">  1       -2 0.13374555E+00 0.21808926E+04</pdfrwt>
<totfact> 0.55865782E+00</totfact>
</mgrwt>
</event>
<event>
12    2  0.3623523E-008  0.2314737E+04  0.7818608E-02  0.8472133E-01
         -2   -1    0    0    0  501 -0.00000000000E+00  0.00000000000E+00  0.92201358714E+03  0.92201358714E+03  0.00000000000E+00 0.  1.
          2   -1    0    0  501    0  0.00000000000E+00 -0.00000000000E+00 -0.14527999852E+04  0.14527999852E+04  0.00000000000E+00 0. -1.
         23    2    1    2    0    0  0.37950632809E+01  0.94693299522E+03  0.52642331764E+02  0.95605851986E+03  0.12074840934E+03 0.  0.
        254    2    1    2    0    0 -0.37950632809E+01 -0.94693299522E+03 -0.58342872981E+03  0.14187550525E+04  0.88078392141E+03 0.  0.
         23    2    4    4    0    0  0.40554700729E+03 -0.56224032887E+03 -0.45736902570E+03  0.83596450992E+03  0.95224333218E+02 0.  0.
         23    2    4    4    0    0 -0.40934207057E+03 -0.38469266635E+03 -0.12605970411E+03  0.58279054256E+03  0.90578083517E+02 0.  0.
          3    1    3    3  502    0 -0.56211354940E+02  0.35487444705E+03  0.99287494998E+01  0.35943590480E+03  0.00000000000E+00 0. -1.
         -3    1    3    3    0  502  0.60006418221E+02  0.59205854817E+03  0.42713582264E+02  0.59662261506E+03  0.00000000000E+00 0.  1.
         11    1    5    5    0    0  0.92185820115E+02 -0.16862689300E+03 -0.85538582404E+02  0.21035708582E+03  0.00000000000E+00 0. -1.
        -11    1    5    5    0    0  0.31336118718E+03 -0.39361343587E+03 -0.37183044330E+03  0.62560742410E+03  0.00000000000E+00 0.  1.
          2    1    6    6  503    0 -0.26278429020E+02 -0.21795637832E+02 -0.32025484158E+02  0.46810653657E+02  0.00000000000E+00 0. -1.
         -2    1    6    6    0  503 -0.38306364155E+03 -0.36289702852E+03 -0.94034219950E+02  0.53597988890E+03  0.00000000000E+00 0.  1.
<mgrwt>
<rscale>  0 0.23147366E+04</rscale>
<asrwt>0</asrwt>
<pdfrwt beam="1">  1        2 0.22350769E+00 0.23147366E+04</pdfrwt>
<pdfrwt beam="2">  1       -2 0.14184824E+00 0.23147366E+04</pdfrwt>
<totfact> 0.42439561E+00</totfact>
</mgrwt>
</event>
<event>
12    2  0.3623523E-008  0.1255991E+04  0.7818608E-02  0.9065212E-01
          1   -1    0    0  501    0  0.00000000000E+00  0.00000000000E+00  0.41905195392E+03  0.41905195392E+03  0.00000000000E+00 0. -1.
         -1   -1    0    0    0  501 -0.00000000000E+00 -0.00000000000E+00 -0.94112005632E+03  0.94112005632E+03  0.00000000000E+00 0.  1.
         23    2    1    2    0    0  0.78240876867E+02  0.27951466636E+03 -0.88484376986E+02  0.31673127229E+03  0.90769655471E+02 0.  0.
        254    2    1    2    0    0 -0.78240876867E+02 -0.27951466636E+03 -0.43358372541E+03  0.10434407380E+04  0.90361697813E+03 0.  0.
         23    2    4    4    0    0 -0.12588634990E+03 -0.25440405974E+03 -0.69765945853E+03  0.75880820891E+03  0.92154105371E+02 0.  0.
         23    2    4    4    0    0  0.47645473033E+02 -0.25110606622E+02  0.26407573312E+03  0.28463252904E+03  0.91537151498E+02 0.  0.
          3    1    3    3  502    0  0.71786498294E+02  0.27291629956E+03 -0.62337102721E+02  0.28900263369E+03  0.00000000000E+00 0. -1.
         -3    1    3    3    0  502  0.64543785730E+01  0.65983667946E+01 -0.26147274265E+02  0.27728638600E+02  0.00000000000E+00 0.  1.
         11    1    5    5    0    0 -0.12655934404E+03 -0.26164875191E+03 -0.68642100540E+03  0.74542010544E+03  0.00000000000E+00 0. -1.
        -11    1    5    5    0    0  0.67299413845E+00  0.72446921761E+01 -0.11238453125E+02  0.13388103468E+02  0.00000000000E+00 0.  1.
          3    1    6    6  503    0  0.55562306716E+02 -0.37272425210E+01  0.71089027186E+02  0.90303444290E+02  0.00000000000E+00 0. -1.
         -3    1    6    6    0  503 -0.79168336830E+01 -0.21383364101E+02  0.19298670593E+03  0.19432908475E+03  0.00000000000E+00 0.  1.
<mgrwt>
<rscale>  0 0.12559908E+04</rscale>
<asrwt>0</asrwt>
<pdfrwt beam="1">  1        1 0.64469532E-01 0.12559908E+04</pdfrwt>
<pdfrwt beam="2">  1       -1 0.14478770E+00 0.12559908E+04</pdfrwt>
<totfact> 0.21317012E+01</totfact>
</mgrwt>
</event>
<event>
12    2  0.3623523E-008  0.1847075E+04  0.7818608E-02  0.8681658E-01
          2   -1    0    0  501    0  0.00000000000E+00  0.00000000000E+00  0.27702113623E+04  0.27702113623E+04  0.00000000000E+00 0.  1.
         -2   -1    0    0    0  501 -0.00000000000E+00 -0.00000000000E+00 -0.30789056874E+03  0.30789056874E+03  0.00000000000E+00 0. -1.
         23    2    1    2    0    0  0.32085621845E+03 -0.14290248820E+03 -0.65430821961E+02  0.36871997276E+03  0.91122948781E+02 0.  0.
        254    2    1    2    0    0 -0.32085621845E+03  0.14290248820E+03  0.25277516155E+04  0.27093819583E+04  0.90986401846E+03 0.  0.
         23    2    4    4    0    0 -0.34507137267E+03  0.30171612980E+03  0.24682056848E+04  0.25120951408E+04  0.92064209439E+02 0.  0.
         23    2    4    4    0    0  0.24215154219E+02 -0.15881364161E+03  0.59545930675E+02  0.19728681746E+03  0.97817299232E+02 0.  0.
          2    1    3    3  502    0  0.28068501840E+03 -0.14385458610E+03 -0.33077338281E+02  0.31713141094E+03  0.00000000000E+00 0. -1.
         -2    1    3    3    0  502  0.40171200056E+02  0.95209790600E+00 -0.32353483680E+02  0.51588561819E+02  0.00000000000E+00 0.  1.
         11    1    5    5    0    0 -0.72662828305E+02  0.55635256878E+02  0.71770305661E+03  0.72351423337E+03  0.00000000000E+00 0.  1.
        -11    1    5    5    0    0 -0.27240854437E+03  0.24608087293E+03  0.17505026282E+04  0.17885809074E+04  0.00000000000E+00 0. -1.
          4    1    6    6  503    0  0.26323845367E+02 -0.14786383924E+03  0.82797561881E+02  0.17149955114E+03  0.00000000000E+00 0. -1.
         -4    1    6    6    0  503 -0.21086911475E+01 -0.10949802370E+02 -0.23251631207E+02  0.25787266316E+02  0.00000000000E+00 0.  1.
<mgrwt>
<rscale>  0 0.18470755E+04</rscale>
<asrwt>0</asrwt>
<pdfrwt beam="1">  1        2 0.42618635E+00 0.18470755E+04</pdfrwt>
<pdfrwt beam="2">  1       -2 0.47367782E-01 0.18470755E+04</pdfrwt>
<totfact> 0.95957625E+00</totfact>
</mgrwt>
</event>
<event>
12    2  0.3623523E-008  0.1391606E+04  0.7818608E-02  0.8959917E-01
         -2   -1    0    0    0  501 -0.00000000000E+00  0.00000000000E+00  0.75598264065E+03  0.75598264065E+03  0.00000000000E+00 0. -1.
          2   -1    0    0  501    0  0.00000000000E+00 -0.00000000000E+00 -0.64041427509E+03  0.64041427509E+03  0.00000000000E+00 0.  1.
         23    2    1    2    0    0 -0.25231494049E+03  0.94599419129E+02  0.32646031900E+03  0.43458549909E+03  0.98368373206E+02 0.  0.
        254    2    1    2    0    0  0.25231494049E+03 -0.94599419129E+02 -0.21089195344E+03  0.96181141664E+03  0.89888481234E+03 0.  0.
         23    2    4    4    0    0  0.32849941266E+03 -0.42695484339E+03  0.71259484018E+01  0.54644698690E+03  0.91385053148E+02 0.  0.
         23    2    4    4    0    0 -0.76184472174E+02  0.33235542426E+03 -0.21801790184E+03  0.41536442974E+03  0.93443042162E+02 0.  0.
          2    1    3    3  502    0 -0.24850794135E+03  0.10682091719E+03  0.29303903156E+03  0.39879666408E+03  0.00000000000E+00 0. -1.
         -2    1    3    3    0  502 -0.38069991321E+01 -0.12221498060E+02  0.33421287441E+02  0.35788835011E+02  0.00000000000E+00 0.  1.
         11    1    5    5    0    0  0.14774139773E+03 -0.22438897576E+03 -0.37667713792E+02  0.27128728261E+03  0.00000000000E+00 0. -1.
        -11    1    5    5    0    0  0.18075801493E+03 -0.20256586763E+03  0.44793662193E+02  0.27515970429E+03  0.00000000000E+00 0.  1.
          1    1    6    6  503    0 -0.58857422980E+02  0.22612616473E+03 -0.95876898957E+02  0.25256606733E+03  0.00000000000E+00 0. -1.
         -1    1    6    6    0  503 -0.17327049194E+02  0.10622925954E+03 -0.12214100289E+03  0.16279836241E+03  0.00000000000E+00 0.  1.
<mgrwt>
<rscale>  0 0.13916064E+04</rscale>
<asrwt>0</asrwt>
<pdfrwt beam="1">  1        2 0.98525273E-01 0.13916064E+04</pdfrwt>
<pdfrwt beam="2">  1       -2 0.11630502E+00 0.13916064E+04</pdfrwt>
<totfact> 0.25580104E+01</totfact>
</mgrwt>
</event>
<event>
12    2  0.3623523E-008  0.1089523E+04  0.7818608E-02  0.9215464E-01
         -2   -1    0    0    0  501 -0.00000000000E+00  0.00000000000E+00  0.12917848809E+03  0.12917848809E+03  0.00000000000E+00 0. -1.
          2   -1    0    0  501    0  0.00000000000E+00 -0.00000000000E+00 -0.22973244826E+04  0.22973244826E+04  0.00000000000E+00 0.  1.
         23    2    1    2    0    0 -0.13426599853E+02  0.83508875653E+02 -0.83941607397E+02  0.14913112824E+03  0.89665456338E+02 0.  0.
        254    2    1    2    0    0  0.13426599853E+02 -0.83508875653E+02 -0.20842043871E+04  0.22773718425E+04  0.91398062103E+03 0.  0.
         23    2    4    4    0    0  0.88135621244E+02  0.24353181027E+03 -0.18202563617E+04  0.18407946976E+04  0.90090322790E+02 0.  0.
         23    2    4    4    0    0 -0.74709021390E+02 -0.32704068593E+03 -0.26394802545E+03  0.43657714483E+03  0.91618748716E+02 0.  0.
          3    1    3    3  502    0 -0.38031642427E+02  0.82072865271E+02 -0.40336361284E+02  0.99042329744E+02  0.00000000000E+00 0. -1.
         -3    1    3    3    0  502  0.24605042574E+02  0.14360103826E+01 -0.43605246114E+02  0.50088798493E+02  0.00000000000E+00 0.  1.
         11    1    5    5    0    0  0.62872038830E+02  0.23202266139E+03 -0.17217680321E+04  0.17384684538E+04  0.00000000000E+00 0.  1.
        -11    1    5    5    0    0  0.25263582414E+02  0.11509148886E+02 -0.98488329627E+02  0.10232624383E+03  0.00000000000E+00 0. -1.
          2    1    6    6  503    0 -0.29555326682E+02 -0.34919814678E+02 -0.67931422504E+02  0.81899871525E+02  0.00000000000E+00 0. -1.
         -2    1    6    6    0  503 -0.45153694709E+02 -0.29212087125E+03 -0.19601660294E+03  0.35467727330E+03  0.00000000000E+00 0.  1.
<mgrwt>
<rscale>  0 0.10895227E+04</rscale>
<asrwt>0</asrwt>
<pdfrwt beam="1">  1        2 0.35343452E+00 0.10895227E+04</pdfrwt>
<pdfrwt beam="2">  1       -2 0.19873614E-01 0.10895227E+04</pdfrwt>
<totfact> 0.98272408E+01</totfact>
</mgrwt>
</event>
<event>
12    2  0.3623523E-008  0.1304832E+04  0.7818608E-02  0.9025742E-01
         -2   -1    0    0    0  501 -0.00000000000E+00  0.00000000000E+00  0.25346831582E+03  0.25346831582E+03  0.00000000000E+00 0. -1.
          2   -1    0    0  501    0  0.00000000000E+00 -0.00000000000E+00 -0.16792882425E+04  0.16792882425E+04  0.00000000000E+00 0.  1.
         23    2    1    2    0    0 -0.50769651684E+02  0.32628943453E+03 -0.34359964313E+03  0.48506218843E+03  0.90455841587E+02 0.  0.
        254    2    1    2    0    0  0.50769651684E+02 -0.32628943453E+03 -0.10822202835E+04  0.14476943698E+04  0.90309240601E+03 0.  0.
         23    2    4    4    0    0  0.10846712770E+03 -0.27931608467E+03 -0.12233318412E+04  0.12627411289E+04  0.90508408803E+02 0.  0.
         23    2    4    4    0    0 -0.57697476012E+02 -0.46973349854E+02  0.14111155767E+03  0.18495324092E+03  0.93593457490E+02 0.  0.
          4    1    3    3  502    0  0.13459150769E+02  0.64061833391E+01 -0.76525618990E+01  0.16755584980E+02  0.00000000000E+00 0. -1.
         -4    1    3    3    0  502 -0.64228802453E+02  0.31988325119E+03 -0.33594708123E+03  0.46830660346E+03  0.00000000000E+00 0.  1.
         11    1    5    5    0    0 -0.11313986537E+02 -0.57237766346E+02 -0.29593843044E+03  0.30163508218E+03  0.00000000000E+00 0. -1.
        -11    1    5    5    0    0  0.11978111423E+03 -0.22207831833E+03 -0.92739341075E+03  0.96110604675E+03  0.00000000000E+00 0.  1.
          3    1    6    6  503    0  0.19862991552E+02 -0.33506068704E+02  0.62905319477E+02  0.73988338892E+02  0.00000000000E+00 0. -1.
         -3    1    6    6    0  503 -0.77560467564E+02 -0.13467281150E+02  0.78206238190E+02  0.11096490203E+03  0.00000000000E+00 0.  1.
<mgrwt>
<rscale>  0 0.13048316E+04</rscale>
<asrwt>0</asrwt>
<pdfrwt beam="1">  1        2 0.25835203E+00 0.13048316E+04</pdfrwt>
<pdfrwt beam="2">  1       -2 0.38995126E-01 0.13048316E+04</pdfrwt>
<totfact> 0.61327870E+01</totfact>
</mgrwt>
</event>
<event>
12    2  0.3623523E-008  0.2255172E+04  0.7818608E-02  0.8495809E-01
         -2   -1    0    0    0  501 -0.00000000000E+00  0.00000000000E+00  0.10691807630E+04  0.10691807630E+04  0.00000000000E+00 0.  1.
          2   -1    0    0  501    0  0.00000000000E+00 -0.00000000000E+00 -0.11891819099E+04  0.11891819099E+04  0.00000000000E+00 0. -1.
         23    2    1    2    0    0  0.61634541695E+03 -0.64108681092E+03 -0.35909142853E+03  0.96349993248E+03  0.92257756972E+02 0.  0.
        254    2    1    2    0    0 -0.61634541695E+03  0.64108681092E+03  0.23909028162E+03  0.12948627405E+04  0.91029192123E+03 0.  0.
         23    2    4    4    0    0 -0.78176332306E+03  0.26931551398E+03  0.27416283774E+03  0.87588601420E+03  0.91248610491E+02 0.  0.
         23    2    4    4    0    0  0.16541790612E+03  0.37177129694E+03 -0.35072556116E+02  0.41897672631E+03  0.93458183701E+02 0.  0.
          3    1    3    3  502    0  0.46180320838E+03 -0.52423573932E+03 -0.25618656553E+03  0.74412154249E+03  0.00000000000E+00 0. -1.
         -3    1    3    3    0  502  0.15454220857E+03 -0.11685107160E+03 -0.10290486300E+03  0.21937838999E+03  0.00000000000E+00 0.  1.
         11    1    5    5    0    0 -0.41433117742E+03  0.18673300663E+03  0.16910797355E+03  0.48490931839E+03  0.00000000000E+00 0.  1.
        -11    1    5    5    0    0 -0.36743214565E+03  0.82582507341E+02  0.10505486419E+03  0.39097669581E+03  0.00000000000E+00 0. -1.
          3    1    6    6  503    0  0.11429249215E+02  0.13061126217E+03 -0.40960164043E+01  0.13117433779E+03  0.00000000000E+00 0. -1.
         -3    1    6    6    0  503  0.15398865690E+03  0.24116003477E+03 -0.30976539712E+02  0.28780238851E+03  0.00000000000E+00 0.  1.
<mgrwt>
<rscale>  0 0.22551722E+04</rscale>
<asrwt>0</asrwt>
<pdfrwt beam="1">  1        2 0.18295106E+00 0.22551722E+04</pdfrwt>
<pdfrwt beam="2">  1       -2 0.16448935E+00 0.22551722E+04</pdfrwt>
<totfact> 0.40850818E+00</totfact>
</mgrwt>
</event>
<event>
12    2  0.3623523E-008  0.1495420E+04  0.7818608E-02  0.8887505E-01
          2   -1    0    0  501    0  0.00000000000E+00  0.00000000000E+00  0.11401112146E+04  0.11401112146E+04  0.00000000000E+00 0. -1.
         -2   -1    0    0    0  501 -0.00000000000E+00 -0.00000000000E+00 -0.49036438028E+03  0.49036438028E+03  0.00000000000E+00 0.  1.
         23    2    1    2    0    0 -0.14276583347E+03 -0.50274130731E+02  0.69277445723E+03  0.71436000037E+03  0.86395544576E+02 0.  0.
        254    2    1    2    0    0  0.14276583347E+03  0.50274130731E+02 -0.43027622877E+02  0.91611559453E+03  0.90250032398E+03 0.  0.
         23    2    4    4    0    0  0.19677118928E+03 -0.34557822848E+03 -0.22689794882E+03  0.46671421302E+03  0.90533223330E+02 0.  0.
         23    2    4    4    0    0 -0.54005355814E+02  0.39585235921E+03  0.18387032594E+03  0.44940138151E+03  0.92399330057E+02 0.  0.
          1    1    3    3  502    0 -0.12505890369E+03 -0.10550217814E+02  0.58147433484E+03  0.59486421859E+03  0.00000000000E+00 0. -1.
         -1    1    3    3    0  502 -0.17706929778E+02 -0.39723912917E+02  0.11130012239E+03  0.11949578178E+03  0.00000000000E+00 0.  1.
         11    1    5    5    0    0 -0.72248371306E+01 -0.54402661008E+01  0.12904284663E+01  0.91356429679E+01  0.00000000000E+00 0. -1.
        -11    1    5    5    0    0  0.20399602641E+03 -0.34013796238E+03 -0.22818837729E+03  0.45757857005E+03  0.00000000000E+00 0.  1.
          3    1    6    6  503    0 -0.36883611084E+02  0.13862437101E+03  0.11136556421E+03  0.18160232900E+03  0.00000000000E+00 0. -1.
         -3    1    6    6    0  503 -0.17121744730E+02  0.25722798819E+03  0.72504761730E+02  0.26779905251E+03  0.00000000000E+00 0.  1.
<mgrwt>
<rscale>  0 0.14954196E+04</rscale>
<asrwt>0</asrwt>
<pdfrwt beam="1">  1        2 0.17540172E+00 0.14954196E+04</pdfrwt>
<pdfrwt beam="2">  1       -2 0.75440674E-01 0.14954196E+04</pdfrwt>
<totfact> 0.31365089E+01</totfact>
</mgrwt>
</event>
<event>
12    2  0.3623523E-008  0.1178984E+04  0.7818608E-02  0.9131453E-01
          2   -1    0    0  501    0  0.00000000000E+00  0.00000000000E+00  0.86962983122E+03  0.86962983122E+03  0.00000000000E+00 0.  1.
         -2   -1    0    0    0  501 -0.00000000000E+00 -0.00000000000E+00 -0.39959643505E+03  0.39959643505E+03  0.00000000000E+00 0. -1.
         23    2    1    2    0    0  0.54981604524E+02 -0.48625850956E+02 -0.14425855750E+03  0.18594159151E+03  0.91522094719E+02 0.  0.
        254    2    1    2    0    0 -0.54981604524E+02  0.48625850956E+02  0.61429195368E+03  0.10832846748E+04  0.88924891453E+03 0.  0.
         23    2    4    4    0    0 -0.50655762430E+02  0.66808074175E+02 -0.21519606000E+03  0.24845017533E+03  0.91590503551E+02 0.  0.
         23    2    4    4    0    0 -0.43258420939E+01 -0.18182223219E+02  0.82948801368E+03  0.83483449943E+03  0.92460642659E+02 0.  0.
          1    1    3    3  502    0  0.56204668442E+02 -0.44255631332E+02 -0.15693860495E+03  0.17247391508E+03  0.00000000000E+00 0. -1.
         -1    1    3    3    0  502 -0.12230639176E+01 -0.43702196238E+01  0.12680047450E+02  0.13467676423E+02  0.00000000000E+00 0.  1.
         11    1    5    5    0    0 -0.29537001404E+02  0.24766897967E+02 -0.12736734399E+02  0.40596281726E+02  0.00000000000E+00 0.  1.
        -11    1    5    5    0    0 -0.21118761026E+02  0.42041176208E+02 -0.20245932560E+03  0.20785389361E+03  0.00000000000E+00 0. -1.
          1    1    6    6  503    0 -0.21893877489E+02  0.27919999228E+02  0.54067388370E+03  0.54183679900E+03  0.00000000000E+00 0. -1.
         -1    1    6    6    0  503  0.17568035395E+02 -0.46102222447E+02  0.28881412998E+03  0.29299770043E+03  0.00000000000E+00 0.  1.
<mgrwt>
<rscale>  0 0.11789843E+04</rscale>
<asrwt>0</asrwt>
<pdfrwt beam="1">  1        2 0.13378920E+00 0.11789843E+04</pdfrwt>
<pdfrwt beam="2">  1       -2 0.61476375E-01 0.11789843E+04</pdfrwt>
<totfact> 0.74773698E+01</totfact>
</mgrwt>
</event>
<event>
12    2  0.3623523E-008  0.1091906E+04  0.7818608E-02  0.9213117E-01
         -1   -1    0    0    0  501 -0.00000000000E+00  0.00000000000E+00  0.23141977893E+03  0.23141977893E+03  0.00000000000E+00 0.  1.
          1   -1    0    0  501    0  0.00000000000E+00 -0.00000000000E+00 -0.12879816128E+04  0.12879816128E+04  0.00000000000E+00 0. -1.
         23    2    1    2    0    0 -0.32178242482E+01  0.29663474471E+02  0.38885685248E+02  0.10406434689E+03  0.91798778131E+02 0.  0.
        254    2    1    2    0    0  0.32178242482E+01 -0.29663474471E+02 -0.10954475192E+04  0.14153370449E+04  0.89570274492E+03 0.  0.
         23    2    4    4    0    0 -0.26779982847E+03 -0.27150057024E+03 -0.19034577942E+03  0.43576182553E+03  0.90705816132E+02 0.  0.
         23    2    4    4    0    0  0.27101765272E+03  0.24183709577E+03 -0.90510173973E+03  0.97957521934E+03  0.91775280472E+02 0.  0.
          1    1    3    3  502    0  0.34217902465E+02 -0.15199542044E+02  0.93428051415E+01  0.38589881256E+02  0.00000000000E+00 0. -1.
         -1    1    3    3    0  502 -0.37435726713E+02  0.44863016515E+02  0.29542880106E+02  0.65474465636E+02  0.00000000000E+00 0.  1.
         11    1    5    5    0    0 -0.29398507438E+02 -0.12608810322E+02 -0.44492537217E+02  0.54798177026E+02  0.00000000000E+00 0. -1.
        -11    1    5    5    0    0 -0.23840132103E+03 -0.25889175992E+03 -0.14585324220E+03  0.38096364851E+03  0.00000000000E+00 0.  1.
          4    1    6    6  503    0  0.53018077907E+02  0.97703953616E+02 -0.32011091887E+03  0.33886277387E+03  0.00000000000E+00 0. -1.
         -4    1    6    6    0  503  0.21799957481E+03  0.14413314215E+03 -0.58499082087E+03  0.64071244547E+03  0.00000000000E+00 0.  1.
<mgrwt>
<rscale>  0 0.10919055E+04</rscale>
<asrwt>0</asrwt>
<pdfrwt beam="1">  1        1 0.19815102E+00 0.10919055E+04</pdfrwt>
<pdfrwt beam="2">  1       -1 0.35603042E-01 0.10919055E+04</pdfrwt>
<totfact> 0.69175498E+01</totfact>
</mgrwt>
</event>
<event>
12    2  0.3623523E-008  0.1813271E+04  0.7818608E-02  0.8699274E-01
          2   -1    0    0  501    0  0.00000000000E+00  0.00000000000E+00  0.15037830019E+04  0.15037830019E+04  0.00000000000E+00 0. -1.
         -2   -1    0    0    0  501 -0.00000000000E+00 -0.00000000000E+00 -0.54661365525E+03  0.54661365525E+03  0.00000000000E+00 0.  1.
         23    2    1    2    0    0 -0.41254309112E+03 -0.52363073295E+03  0.16062210944E+03  0.69198077752E+03  0.93042935766E+02 0.  0.
        254    2    1    2    0    0  0.41254309112E+03  0.52363073295E+03  0.79654723720E+03  0.13584158796E+04  0.87545716880E+03 0.  0.
         23    2    4    4    0    0  0.62207450007E+03  0.12910282967E+03  0.42239189446E+03  0.76823179844E+03  0.90116365686E+02 0.  0.
         23    2    4    4    0    0 -0.20953140895E+03  0.39452790328E+03  0.37415534274E+03  0.59018408119E+03  0.93644815021E+02 0.  0.
          3    1    3    3  502    0 -0.39310139103E+03 -0.47896655291E+03  0.12623760804E+03  0.63235559310E+03  0.00000000000E+00 0. -1.
         -3    1    3    3    0  502 -0.19441700087E+02 -0.44664180032E+02  0.34384501399E+02  0.59625184416E+02  0.00000000000E+00 0.  1.
         11    1    5    5    0    0  0.15692954728E+03  0.61548008232E+02  0.79184457272E+02  0.18623967998E+03  0.00000000000E+00 0. -1.
        -11    1    5    5    0    0  0.46514495279E+03  0.67554821434E+02  0.34320743719E+03  0.58199211846E+03  0.00000000000E+00 0.  1.
          3    1    6    6  503    0 -0.15527912311E+03  0.22178298806E+03  0.26454243515E+03  0.37852608875E+03  0.00000000000E+00 0. -1.
         -3    1    6    6    0  503 -0.54252285837E+02  0.17274491522E+03  0.10961290760E+03  0.21165799244E+03  0.00000000000E+00 0.  1.
<mgrwt>
<rscale>  0 0.18132714E+04</rscale>
<asrwt>0</asrwt>
<pdfrwt beam="1">  1        2 0.23135123E+00 0.18132714E+04</pdfrwt>
<pdfrwt beam="2">  1       -2 0.84094409E-01 0.18132714E+04</pdfrwt>
<totfact> 0.14707838E+01</totfact>
</mgrwt>
</event>
<event>
12    2  0.3623523E-008  0.1481031E+04  0.7818608E-02  0.8897166E-01
         -1   -1    0    0    0  501 -0.00000000000E+00  0.00000000000E+00  0.47605547409E+03  0.47605547409E+03  0.00000000000E+00 0.  1.
          1   -1    0    0  501    0  0.00000000000E+00 -0.00000000000E+00 -0.11518891975E+04  0.11518891975E+04  0.00000000000E+00 0. -1.
         23    2    1    2    0    0  0.16020258448E+03 -0.40450211082E+03 -0.46892195679E+02  0.44722171067E+03  0.92312267604E+02 0.  0.
        254    2    1    2    0    0 -0.16020258448E+03  0.40450211082E+03 -0.62894152773E+03  0.11807229609E+04  0.89958459270E+03 0.  0.
         23    2    4    4    0    0 -0.33186406767E+03  0.15394207543E+03 -0.75086566218E+03  0.84002187133E+03  0.89473904964E+02 0.  0.
         23    2    4    4    0    0  0.17166148319E+03  0.25056003539E+03  0.12192413445E+03  0.34070108959E+03  0.94677039139E+02 0.  0.
          2    1    3    3  502    0  0.14859489501E+03 -0.37757027529E+03 -0.67559441437E+02  0.41134417917E+03  0.00000000000E+00 0. -1.
         -2    1    3    3    0  502  0.11607689469E+02 -0.26931835524E+02  0.20667245758E+02  0.35877531502E+02  0.00000000000E+00 0.  1.
         11    1    5    5    0    0 -0.18987694865E+03  0.83389856143E+02 -0.52121659726E+03  0.56095798862E+03  0.00000000000E+00 0.  1.
        -11    1    5    5    0    0 -0.14198711902E+03  0.70552219286E+02 -0.22964906492E+03  0.27906388271E+03  0.00000000000E+00 0. -1.
          1    1    6    6  503    0  0.89934216504E+02  0.71391215621E+02  0.12739758632E+02  0.11552995463E+03  0.00000000000E+00 0. -1.
         -1    1    6    6    0  503  0.81727266689E+02  0.17916881977E+03  0.10918437582E+03  0.22517113496E+03  0.00000000000E+00 0.  1.
<mgrwt>
<rscale>  0 0.14810309E+04</rscale>
<asrwt>0</asrwt>
<pdfrwt beam="1">  1        1 0.17721372E+00 0.14810309E+04</pdfrwt>
<pdfrwt beam="2">  1       -1 0.73239304E-01 0.14810309E+04</pdfrwt>
<totfact> 0.21107809E+01</totfact>
</mgrwt>
</event>
<event>
12    2  0.3623523E-008  0.1490722E+04  0.7818608E-02  0.8890646E-01
         -2   -1    0    0    0  501 -0.00000000000E+00  0.00000000000E+00  0.36429013359E+03  0.36429013359E+03  0.00000000000E+00 0.  1.
          2   -1    0    0  501    0  0.00000000000E+00 -0.00000000000E+00 -0.15250566166E+04  0.15250566166E+04  0.00000000000E+00 0. -1.
         23    2    1    2    0    0 -0.35684057127E+03 -0.58029622068E+02 -0.75209111773E+03  0.83950017194E+03  0.91743441126E+02 0.  0.
        254    2    1    2    0    0  0.35684057127E+03  0.58029622068E+02 -0.40867536526E+03  0.10498465782E+04  0.89691674826E+03 0.  0.
         23    2    4    4    0    0 -0.28097765320E+03 -0.24137926485E+02 -0.22974750294E+03  0.37616238034E+03  0.95828702278E+02 0.  0.
         23    2    4    4    0    0  0.63781822447E+03  0.82167548553E+02 -0.17892786233E+03  0.67368419789E+03  0.90948474840E+02 0.  0.
          3    1    3    3  502    0 -0.35852825529E+03 -0.47071230495E+02 -0.73485993582E+03  0.81900997299E+03  0.00000000000E+00 0. -1.
         -3    1    3    3    0  502  0.16876840257E+01 -0.10958391573E+02 -0.17231181904E+02  0.20490198951E+02  0.00000000000E+00 0.  1.
         11    1    5    5    0    0 -0.88713325103E+02 -0.12428016624E+02 -0.13366882494E+03  0.16090949136E+03  0.00000000000E+00 0. -1.
        -11    1    5    5    0    0 -0.19226432810E+03 -0.11709909861E+02 -0.96078677999E+02  0.21525288898E+03  0.00000000000E+00 0.  1.
          3    1    6    6  503    0  0.39987840228E+03  0.41842626016E+02 -0.66792461080E+02  0.40757180327E+03  0.00000000000E+00 0. -1.
         -3    1    6    6    0  503  0.23793982219E+03  0.40324922537E+02 -0.11213540125E+03  0.26611239462E+03  0.00000000000E+00 0.  1.
<mgrwt>
<rscale>  0 0.14907221E+04</rscale>
<asrwt>0</asrwt>
<pdfrwt beam="1">  1        2 0.23462410E+00 0.14907221E+04</pdfrwt>
<pdfrwt beam="2">  1       -2 0.56044636E-01 0.14907221E+04</pdfrwt>
<totfact> 0.35507351E+01</totfact>
</mgrwt>
</event>
<event>
12    2  0.3623523E-008  0.3222881E+04  0.7818608E-02  0.8182800E-01
          1   -1    0    0  501    0  0.00000000000E+00  0.00000000000E+00  0.37129195566E+04  0.37129195566E+04  0.00000000000E+00 0. -1.
         -1   -1    0    0    0  501 -0.00000000000E+00 -0.00000000000E+00 -0.69937969118E+03  0.69937969118E+03  0.00000000000E+00 0.  1.
         23    2    1    2    0    0  0.54288474308E+03 -0.13758907546E+04  0.11761347974E+04  0.18925367446E+04  0.10297113753E+03 0.  0.
        254    2    1    2    0    0 -0.54288474308E+03  0.13758907546E+04  0.18374050680E+04  0.25197625032E+04  0.88619776339E+03 0.  0.
         23    2    4    4    0    0 -0.50195998249E+03  0.29700056323E+03  0.95326341071E+03  0.11213040670E+04  0.91861427834E+02 0.  0.
         23    2    4    4    0    0 -0.40924760597E+02  0.10788901913E+04  0.88414165727E+03  0.13984584362E+04  0.91107884356E+02 0.  0.
          3    1    3    3  502    0  0.53785317713E+03 -0.13748259785E+04  0.11661785762E+04  0.18813306415E+04  0.00000000000E+00 0. -1.
         -3    1    3    3    0  502  0.50315659571E+01 -0.10647760721E+01  0.99562212464E+01  0.11206103050E+02  0.00000000000E+00 0.  1.
         11    1    5    5    0    0 -0.65639740684E+02  0.66179633311E+02  0.10988987422E+03  0.14409754987E+03  0.00000000000E+00 0. -1.
        -11    1    5    5    0    0 -0.43632024180E+03  0.23082092992E+03  0.84337353650E+03  0.97720651715E+03  0.00000000000E+00 0.  1.
          2    1    6    6  503    0  0.19109014740E+01  0.26659180240E+02  0.43161248941E+02  0.50766690316E+02  0.00000000000E+00 0. -1.
         -2    1    6    6    0  503 -0.42835662071E+02  0.10522310111E+04  0.84098040832E+03  0.13476917458E+04  0.00000000000E+00 0.  1.
<mgrwt>
<rscale>  0 0.32228810E+04</rscale>
<asrwt>0</asrwt>
<pdfrwt beam="1">  1        1 0.57121838E+00 0.32228810E+04</pdfrwt>
<pdfrwt beam="2">  1       -1 0.10759688E+00 0.32228810E+04</pdfrwt>
<totfact> 0.11286368E-01</totfact>
</mgrwt>
</event>
<event>
12    2  0.3623523E-008  0.2445528E+04  0.7818608E-02  0.8422653E-01
         -2   -1    0    0    0  501 -0.00000000000E+00  0.00000000000E+00  0.60858277921E+03  0.60858277921E+03  0.00000000000E+00 0.  1.
          2   -1    0    0  501    0  0.00000000000E+00 -0.00000000000E+00 -0.24567767519E+04  0.24567767519E+04  0.00000000000E+00 0. -1.
         23    2    1    2    0    0 -0.74937328072E+03 -0.54172733982E+03 -0.14490641133E+04  0.17213617488E+04  0.90943065910E+02 0.  0.
        254    2    1    2    0    0  0.74937328072E+03  0.54172733982E+03 -0.39912985937E+03  0.13439977823E+04  0.88994189115E+03 0.  0.
         23    2    4    4    0    0  0.80601340757E+03  0.69484516939E+03 -0.23131448138E+03  0.10928901743E+04  0.91842916088E+02 0.  0.
         23    2    4    4    0    0 -0.56640126858E+02 -0.15311782957E+03 -0.16781537799E+03  0.25110760797E+03  0.90773652483E+02 0.  0.
          2    1    3    3  502    0 -0.31630506113E+03 -0.23856810399E+03 -0.70377513426E+03  0.80762805272E+03  0.00000000000E+00 0. -1.
         -2    1    3    3    0  502 -0.43306821959E+03 -0.30315923582E+03 -0.74528897906E+03  0.91373369610E+03  0.00000000000E+00 0.  1.
         11    1    5    5    0    0  0.16663934163E+03  0.10106156706E+03 -0.57288178910E+02  0.20313553593E+03  0.00000000000E+00 0. -1.
        -11    1    5    5    0    0  0.63937406594E+03  0.59378360233E+03 -0.17402630247E+03  0.88975463840E+03  0.00000000000E+00 0.  1.
          1    1    6    6  503    0 -0.26045534399E+02 -0.37112272618E+02 -0.10783130266E+03  0.11697555503E+03  0.00000000000E+00 0. -1.
         -1    1    6    6    0  503 -0.30594592459E+02 -0.11600555695E+03 -0.59984075334E+02  0.13413205294E+03  0.00000000000E+00 0.  1.
<mgrwt>
<rscale>  0 0.24455282E+04</rscale>
<asrwt>0</asrwt>
<pdfrwt beam="1">  1        2 0.37796566E+00 0.24455282E+04</pdfrwt>
<pdfrwt beam="2">  1       -2 0.93628118E-01 0.24455282E+04</pdfrwt>
<totfact> 0.31848114E+00</totfact>
</mgrwt>
</event>
<event>
12    2  0.3623523E-008  0.1336373E+04  0.7818608E-02  0.9001208E-01
          1   -1    0    0  501    0  0.00000000000E+00  0.00000000000E+00  0.15482545522E+04  0.15482545522E+04  0.00000000000E+00 0. -1.
         -1   -1    0    0    0  501 -0.00000000000E+00 -0.00000000000E+00 -0.28837192082E+03  0.28837192082E+03  0.00000000000E+00 0.  1.
         23    2    1    2    0    0 -0.28925443996E+03  0.18937899649E+03  0.23009647538E+03  0.42556952484E+03  0.92911232575E+02 0.  0.
        254    2    1    2    0    0  0.28925443996E+03 -0.18937899649E+03  0.10297861560E+04  0.14110569482E+04  0.90060515685E+03 0.  0.
         23    2    4    4    0    0  0.25600774550E+03 -0.50618698188E+03  0.40182401789E+03  0.70117165391E+03  0.91727425040E+02 0.  0.
         23    2    4    4    0    0  0.33246694468E+02  0.31680798539E+03  0.62796213812E+03  0.70988529428E+03  0.90155653271E+02 0.  0.
          1    1    3    3  502    0 -0.10045353698E+03  0.16101526621E+02  0.64689682196E+02  0.12056088601E+03  0.00000000000E+00 0. -1.
         -1    1    3    3    0  502 -0.18880090298E+03  0.17327746987E+03  0.16540679318E+03  0.30500863883E+03  0.00000000000E+00 0.  1.
         11    1    5    5    0    0  0.20883927881E+02 -0.12415598865E+03  0.82074522226E+02  0.15028997026E+03  0.00000000000E+00 0. -1.
        -11    1    5    5    0    0  0.23512381761E+03 -0.38203099323E+03  0.31974949567E+03  0.55088168365E+03  0.00000000000E+00 0.  1.
          2    1    6    6  503    0 -0.14222632836E+02  0.37774989140E+02  0.14075874825E+03  0.14643175304E+03  0.00000000000E+00 0. -1.
         -2    1    6    6    0  503  0.47469327304E+02  0.27903299625E+03  0.48720338987E+03  0.56345354124E+03  0.00000000000E+00 0.  1.
<mgrwt>
<rscale>  0 0.13363729E+04</rscale>
<asrwt>0</asrwt>
<pdfrwt beam="1">  1        1 0.23819300E+00 0.13363729E+04</pdfrwt>
<pdfrwt beam="2">  1       -1 0.44364912E-01 0.13363729E+04</pdfrwt>
<totfact> 0.29847842E+01</totfact>
</mgrwt>
</event>
<event>
12    2  0.3623523E-008  0.2342960E+04  0.7818608E-02  0.8461173E-01
         -1   -1    0    0    0  501 -0.00000000000E+00  0.00000000000E+00  0.57703003439E+03  0.57703003439E+03  0.00000000000E+00 0.  1.
          1   -1    0    0  501    0  0.00000000000E+00 -0.00000000000E+00 -0.23783249016E+04  0.23783249016E+04  0.00000000000E+00 0. -1.
         23    2    1    2    0    0 -0.97620122826E+03 -0.13053141576E+03 -0.59912937211E+03  0.11567181152E+04  0.95044752048E+02 0.  0.
        254    2    1    2    0    0  0.97620122826E+03  0.13053141576E+03 -0.12021654951E+04  0.17986368209E+04  0.90547514989E+03 0.  0.
         23    2    4    4    0    0  0.13109691726E+03  0.30276883451E+03 -0.74172746407E+03  0.81686527469E+03  0.90850851258E+02 0.  0.
         23    2    4    4    0    0  0.84510431100E+03 -0.17223741876E+03 -0.46043803107E+03  0.98177154616E+03  0.89471579323E+02 0.  0.
          4    1    3    3  502    0 -0.74583881514E+03 -0.11841641171E+03 -0.49959665286E+03  0.90548042512E+03  0.00000000000E+00 0. -1.
         -4    1    3    3    0  502 -0.23036241312E+03 -0.12115004050E+02 -0.99532719252E+02  0.25123769005E+03  0.00000000000E+00 0.  1.
         11    1    5    5    0    0  0.10144940049E+03  0.29307470251E+03 -0.65539241440E+03  0.72506825814E+03  0.00000000000E+00 0. -1.
        -11    1    5    5    0    0  0.29647516767E+02  0.96941319996E+01 -0.86335049677E+02  0.91797016555E+02  0.00000000000E+00 0.  1.
          1    1    6    6  503    0  0.48623828684E+03 -0.61944690106E+02 -0.28928715017E+03  0.56916770066E+03  0.00000000000E+00 0. -1.
         -1    1    6    6    0  503  0.35886602416E+03 -0.11029272865E+03 -0.17115088090E+03  0.41260384551E+03  0.00000000000E+00 0.  1.
<mgrwt>
<rscale>  0 0.23429596E+04</rscale>
<asrwt>0</asrwt>
<pdfrwt beam="1">  1        1 0.36589614E+00 0.23429596E+04</pdfrwt>
<pdfrwt beam="2">  1       -1 0.88773850E-01 0.23429596E+04</pdfrwt>
<totfact> 0.18432149E+00</totfact>
</mgrwt>
</event>
<event>
12    2  0.3623523E-008  0.1145366E+04  0.7818608E-02  0.9162069E-01
          1   -1    0    0  501    0  0.00000000000E+00  0.00000000000E+00  0.25251531230E+03  0.25251531230E+03  0.00000000000E+00 0. -1.
         -1   -1    0    0    0  501 -0.00000000000E+00 -0.00000000000E+00 -0.12987959389E+04  0.12987959389E+04  0.00000000000E+00 0.  1.
         23    2    1    2    0    0 -0.86021170548E+02  0.14648416337E+03 -0.44035787967E+02  0.19666451006E+03  0.88772332369E+02 0.  0.
        254    2    1    2    0    0  0.86021170548E+02 -0.14648416337E+03 -0.10022448386E+04  0.13546467411E+04  0.89538585246E+03 0.  0.
         23    2    4    4    0    0 -0.15243626119E+03 -0.11709072685E+03  0.91610035940E+02  0.23120872052E+03  0.90100065042E+02 0.  0.
         23    2    4    4    0    0  0.23845743173E+03 -0.29393436514E+02 -0.10938548745E+04  0.11234380206E+04  0.88705009299E+02 0.  0.
          4    1    3    3  502    0 -0.86795835500E+02  0.73288293058E+02 -0.48076011538E+02  0.12335312661E+03  0.00000000000E+00 0.  1.
         -4    1    3    3    0  502  0.77466495192E+00  0.73195870310E+02  0.40402235708E+01  0.73311383446E+02  0.00000000000E+00 0. -1.
         11    1    5    5    0    0 -0.94775497650E+02 -0.11764986181E+03  0.84519240349E+02  0.17311090933E+03  0.00000000000E+00 0. -1.
        -11    1    5    5    0    0 -0.57660763536E+02  0.55913495599E+00  0.70907955905E+01  0.58097811195E+02  0.00000000000E+00 0.  1.
          2    1    6    6  503    0  0.21025542291E+03 -0.55275309152E+02 -0.90536732751E+03  0.93110294833E+03  0.00000000000E+00 0. -1.
         -2    1    6    6    0  503  0.28202008824E+02  0.25881872639E+02 -0.18848754703E+03  0.19233507225E+03  0.00000000000E+00 0.  1.
<mgrwt>
<rscale>  0 0.11453661E+04</rscale>
<asrwt>0</asrwt>
<pdfrwt beam="1">  1        1 0.38848509E-01 0.11453661E+04</pdfrwt>
<pdfrwt beam="2">  1       -1 0.19981476E+00 0.11453661E+04</pdfrwt>
<totfact> 0.16470551E+01</totfact>
</mgrwt>
</event>
<event>
12    2  0.3623523E-008  0.1436348E+04  0.7818608E-02  0.8927920E-01
         -2   -1    0    0    0  501 -0.00000000000E+00  0.00000000000E+00  0.28600543048E+03  0.28600543048E+03  0.00000000000E+00 0.  1.
          2   -1    0    0  501    0  0.00000000000E+00 -0.00000000000E+00 -0.18033703548E+04  0.18033703548E+04  0.00000000000E+00 0. -1.
         23    2    1    2    0    0 -0.39732077437E+03  0.26535960464E+02 -0.19695035575E+03  0.45376407155E+03  0.92436113349E+02 0.  0.
        254    2    1    2    0    0  0.39732077437E+03 -0.26535960464E+02 -0.13204145685E+04  0.16356117137E+04  0.87929692954E+03 0.  0.
         23    2    4    4    0    0  0.20271810012E+03 -0.17823972625E+03  0.52976639490E+01  0.28412875140E+03  0.88527137086E+02 0.  0.
         23    2    4    4    0    0  0.19460267425E+03  0.15170376578E+03 -0.13257122325E+04  0.13514829623E+04  0.90050211997E+02 0.  0.
          1    1    3    3  502    0 -0.25309821233E+02  0.24347720857E+02 -0.29205707332E+02  0.45676820189E+02  0.00000000000E+00 0. -1.
         -1    1    3    3    0  502 -0.37201095314E+03  0.21882396073E+01 -0.16774464842E+03  0.40808725136E+03  0.00000000000E+00 0.  1.
         11    1    5    5    0    0  0.17362935115E+03 -0.18046055156E+03  0.20441676474E+02  0.25125887922E+03  0.00000000000E+00 0.  1.
        -11    1    5    5    0    0  0.29088748974E+02  0.22208253135E+01 -0.15144012525E+02  0.32869872183E+02  0.00000000000E+00 0. -1.
          2    1    6    6  503    0  0.32019358912E+02  0.63350513215E+02 -0.51834342853E+03  0.52318107456E+03  0.00000000000E+00 0. -1.
         -2    1    6    6    0  503  0.16258331534E+03  0.88353252568E+02 -0.80736880395E+03  0.82830188776E+03  0.00000000000E+00 0.  1.
<mgrwt>
<rscale>  0 0.14363477E+04</rscale>
<asrwt>0</asrwt>
<pdfrwt beam="1">  1        2 0.27744159E+00 0.14363477E+04</pdfrwt>
<pdfrwt beam="2">  1       -2 0.44000836E-01 0.14363477E+04</pdfrwt>
<totfact> 0.40853170E+01</totfact>
</mgrwt>
</event>
<event>
12    2  0.3623523E-008  0.2412806E+04  0.7818608E-02  0.8434725E-01
          1   -1    0    0  501    0  0.00000000000E+00  0.00000000000E+00  0.35244287849E+04  0.35244287849E+04  0.00000000000E+00 0. -1.
         -1   -1    0    0    0  501 -0.00000000000E+00 -0.00000000000E+00 -0.41294863628E+03  0.41294863628E+03  0.00000000000E+00 0.  1.
         23    2    1    2    0    0 -0.92782499011E+03 -0.34450821951E+03  0.83018026406E+03  0.12950963766E+04  0.92359234517E+02 0.  0.
        254    2    1    2    0    0  0.92782499011E+03  0.34450821951E+03  0.22812998845E+04  0.26422810446E+04  0.89318241689E+03 0.  0.
         23    2    4    4    0    0  0.52742173789E+03 -0.26127178923E+03  0.11440464301E+04  0.12897638363E+04  0.90619434211E+02 0.  0.
         23    2    4    4    0    0  0.40040325221E+03  0.60578000874E+03  0.11372534545E+04  0.13525172083E+04  0.93087032478E+02 0.  0.
          3    1    3    3  502    0 -0.89258885450E+03 -0.34837212888E+03  0.79334225915E+03  0.12439734497E+04  0.00000000000E+00 0. -1.
         -3    1    3    3    0  502 -0.35236135609E+02  0.38639093724E+01  0.36838004914E+02  0.51122926895E+02  0.00000000000E+00 0.  1.
         11    1    5    5    0    0  0.85834139687E+02 -0.14411418495E+02  0.21408038838E+03  0.23109651925E+03  0.00000000000E+00 0.  1.
        -11    1    5    5    0    0  0.44158759821E+03 -0.24686037074E+03  0.92996604167E+03  0.10586673171E+04  0.00000000000E+00 0. -1.
          2    1    6    6  503    0  0.21415815057E+03  0.24026417152E+03  0.50262987176E+03  0.59684786467E+03  0.00000000000E+00 0. -1.
         -2    1    6    6    0  503  0.18624510164E+03  0.36551583722E+03  0.63462358271E+03  0.75566934361E+03  0.00000000000E+00 0.  1.
<mgrwt>
<rscale>  0 0.24128059E+04</rscale>
<asrwt>0</asrwt>
<pdfrwt beam="1">  1        1 0.54221979E+00 0.24128059E+04</pdfrwt>
<pdfrwt beam="2">  1       -1 0.63530562E-01 0.24128059E+04</pdfrwt>
<totfact> 0.53842389E-01</totfact>
</mgrwt>
</event>
<event>
12    2  0.3623523E-008  0.1623756E+04  0.7818608E-02  0.8806085E-01
         -2   -1    0    0    0  501 -0.00000000000E+00  0.00000000000E+00  0.54134762726E+03  0.54134762726E+03  0.00000000000E+00 0.  1.
          2   -1    0    0  501    0  0.00000000000E+00 -0.00000000000E+00 -0.12176015656E+04  0.12176015656E+04  0.00000000000E+00 0. -1.
         23    2    1    2    0    0 -0.36120968179E+03  0.11798985398E+03  0.21953067724E+03  0.44838721420E+03  0.91996389886E+02 0.  0.
        254    2    1    2    0    0  0.36120968179E+03 -0.11798985398E+03 -0.89578461559E+03  0.13105619787E+04  0.87792287959E+03 0.  0.
         23    2    4    4    0    0  0.58940169690E+03  0.77696996593E+02 -0.39629326245E+03  0.72062579711E+03  0.93925534382E+02 0.  0.
         23    2    4    4    0    0 -0.22819201511E+03 -0.19568685057E+03 -0.49949135314E+03  0.58993618155E+03  0.90377802525E+02 0.  0.
          3    1    3    3  502    0 -0.13911719861E+03  0.75718124134E+02  0.50974761595E+02  0.16638886859E+03  0.00000000000E+00 0. -1.
         -3    1    3    3    0  502 -0.22209248318E+03  0.42271729841E+02  0.16855591565E+03  0.28199834561E+03  0.00000000000E+00 0.  1.
         11    1    5    5    0    0  0.86114389462E+02  0.45772068807E+02 -0.67756162130E+02  0.11875044363E+03  0.00000000000E+00 0. -1.
        -11    1    5    5    0    0  0.50328730744E+03  0.31924927786E+02 -0.32853710032E+03  0.60187535348E+03  0.00000000000E+00 0.  1.
          3    1    6    6  503    0 -0.19081654955E+02  0.91620908280E+01 -0.32979965501E+02  0.39188411407E+02  0.00000000000E+00 0. -1.
         -3    1    6    6    0  503 -0.20911036016E+03 -0.20484894140E+03 -0.46651138764E+03  0.55074777014E+03  0.00000000000E+00 0.  1.
<mgrwt>
<rscale>  0 0.16237558E+04</rscale>
<asrwt>0</asrwt>
<pdfrwt beam="1">  1        2 0.18732331E+00 0.16237558E+04</pdfrwt>
<pdfrwt beam="2">  1       -2 0.83284252E-01 0.16237558E+04</pdfrwt>
<totfact> 0.22337791E+01</totfact>
</mgrwt>
</event>
<event>
12    2  0.3623523E-008  0.1508863E+04  0.7818608E-02  0.8878580E-01
         -2   -1    0    0    0  501 -0.00000000000E+00  0.00000000000E+00  0.44084269695E+03  0.44084269695E+03  0.00000000000E+00 0.  1.
          2   -1    0    0  501    0  0.00000000000E+00 -0.00000000000E+00 -0.12910882861E+04  0.12910882861E+04  0.00000000000E+00 0. -1.
         23    2    1    2    0    0  0.47478860830E+03 -0.26605908233E+02 -0.22842724966E+03  0.53519499388E+03  0.90125335863E+02 0.  0.
        254    2    1    2    0    0 -0.47478860830E+03  0.26605908233E+02 -0.62181833950E+03  0.11967359892E+04  0.90519991357E+03 0.  0.
         23    2    4    4    0    0 -0.59380674839E+03  0.15130716130E+02 -0.47467993240E+02  0.60313100400E+03  0.93157955135E+02 0.  0.
         23    2    4    4    0    0  0.11901814008E+03  0.11475192103E+02 -0.57435034626E+03  0.59360498517E+03  0.90507239898E+02 0.  0.
          3    1    3    3  502    0  0.16835664486E+03 -0.43029124743E+02 -0.52765838261E+02  0.18160313635E+03  0.00000000000E+00 0. -1.
         -3    1    3    3    0  502  0.30643196344E+03  0.16423216510E+02 -0.17566141140E+03  0.35359185754E+03  0.00000000000E+00 0.  1.
         11    1    5    5    0    0 -0.62394205306E+02 -0.12988799043E+02 -0.30626068612E+02  0.70708569742E+02  0.00000000000E+00 0.  1.
        -11    1    5    5    0    0 -0.53141254308E+03  0.28119515172E+02 -0.16841924628E+02  0.53242243426E+03  0.00000000000E+00 0. -1.
          2    1    6    6  503    0  0.32124892864E+02 -0.25122620286E+02 -0.31535998192E+03  0.31798596351E+03  0.00000000000E+00 0. -1.
         -2    1    6    6    0  503  0.86893247220E+02  0.36597812389E+02 -0.25899036433E+03  0.27561902166E+03  0.00000000000E+00 0.  1.
<mgrwt>
<rscale>  0 0.15088629E+04</rscale>
<asrwt>0</asrwt>
<pdfrwt beam="1">  1        2 0.19862897E+00 0.15088629E+04</pdfrwt>
<pdfrwt beam="2">  1       -2 0.67821954E-01 0.15088629E+04</pdfrwt>
<totfact> 0.32171919E+01</totfact>
</mgrwt>
</event>
<event>
12    2  0.3623523E-008  0.1558802E+04  0.7818608E-02  0.8846265E-01
          1   -1    0    0  501    0  0.00000000000E+00  0.00000000000E+00  0.50145321007E+03  0.50145321007E+03  0.00000000000E+00 0. -1.
         -1   -1    0    0    0  501 -0.00000000000E+00 -0.00000000000E+00 -0.12114109899E+04  0.12114109899E+04  0.00000000000E+00 0.  1.
         23    2    1    2    0    0  0.47428715690E+03 -0.14971260561E+03 -0.39932423389E+03  0.64307759794E+03  0.82016960010E+02 0.  0.
        254    2    1    2    0    0 -0.47428715690E+03  0.14971260561E+03 -0.31063354599E+03  0.10697866021E+04  0.89475583406E+03 0.  0.
         23    2    4    4    0    0 -0.17841570194E+03 -0.25160410447E+03  0.17691712825E+03  0.36737518149E+03  0.92347526358E+02 0.  0.
         23    2    4    4    0    0 -0.29587145496E+03  0.40131671008E+03 -0.48755067424E+03  0.70241142058E+03  0.84149415625E+02 0.  0.
          4    1    3    3  502    0  0.25654191532E+01  0.43452551076E+01 -0.13756632855E+02  0.14652902951E+02  0.00000000000E+00 0.  1.
         -4    1    3    3    0  502  0.47172173775E+03 -0.15405786072E+03 -0.38556760103E+03  0.62842469499E+03  0.00000000000E+00 0. -1.
         11    1    5    5    0    0 -0.18077947876E+03 -0.21617708646E+03  0.13509220853E+03  0.31251185170E+03  0.00000000000E+00 0. -1.
        -11    1    5    5    0    0  0.23637768182E+01 -0.35427018009E+02  0.41824919721E+02  0.54863329789E+02  0.00000000000E+00 0.  1.
          2    1    6    6  503    0 -0.29480656281E+03  0.40531491632E+03 -0.48097550538E+03  0.69464273381E+03  0.00000000000E+00 0. -1.
         -2    1    6    6    0  503 -0.10648921517E+01 -0.39982062380E+01 -0.65751688642E+01  0.77686867622E+01  0.00000000000E+00 0.  1.
<mgrwt>
<rscale>  0 0.15588020E+04</rscale>
<asrwt>0</asrwt>
<pdfrwt beam="1">  1        1 0.77146648E-01 0.15588020E+04</pdfrwt>
<pdfrwt beam="2">  1       -1 0.18637092E+00 0.15588020E+04</pdfrwt>
<totfact> 0.79644605E+00</totfact>
</mgrwt>
</event>
<event>
12    2  0.3623523E-008  0.2581022E+04  0.7818608E-02  0.8374676E-01
         -1   -1    0    0    0  501 -0.00000000000E+00  0.00000000000E+00  0.76954953063E+03  0.76954953063E+03  0.00000000000E+00 0.  1.
          1   -1    0    0  501    0  0.00000000000E+00 -0.00000000000E+00 -0.21641466870E+04  0.21641466870E+04  0.00000000000E+00 0. -1.
         23    2    1    2    0    0 -0.12412438018E+03  0.99183148317E+03 -0.12060813628E+04  0.15701253232E+04  0.10735326831E+03 0.  0.
        254    2    1    2    0    0  0.12412438018E+03 -0.99183148317E+03 -0.18851579356E+03  0.13635708944E+04  0.90810287237E+03 0.  0.
         23    2    4    4    0    0  0.21236782857E+03 -0.79999482446E+03  0.24980073633E+03  0.86862508903E+03  0.83769467286E+02 0.  0.
         23    2    4    4    0    0 -0.88243448385E+02 -0.19183665870E+03 -0.43831652989E+03  0.49494580534E+03  0.90894224498E+02 0.  0.
          2    1    3    3  502    0 -0.59557632378E+02  0.18570732948E+03 -0.20057977365E+03  0.27976162960E+03  0.00000000000E+00 0.  1.
         -2    1    3    3    0  502 -0.64566747803E+02  0.80612415369E+03 -0.10055015891E+04  0.12903636936E+04  0.00000000000E+00 0. -1.
         11    1    5    5    0    0  0.40149437968E+02 -0.66813166536E+02  0.35075241821E+02  0.85476600193E+02  0.00000000000E+00 0. -1.
        -11    1    5    5    0    0  0.17221839060E+03 -0.73318165793E+03  0.21472549451E+03  0.78314848884E+03  0.00000000000E+00 0.  1.
          3    1    6    6  503    0  0.13418177653E+02 -0.31577196672E+01 -0.14425913872E+02  0.19953086880E+02  0.00000000000E+00 0. -1.
         -3    1    6    6    0  503 -0.10166162604E+03 -0.18867893904E+03 -0.42389061602E+03  0.47499271846E+03  0.00000000000E+00 0.  1.
<mgrwt>
<rscale>  0 0.25810216E+04</rscale>
<asrwt>0</asrwt>
<pdfrwt beam="1">  1        1 0.33294564E+00 0.25810216E+04</pdfrwt>
<pdfrwt beam="2">  1       -1 0.11839224E+00 0.25810216E+04</pdfrwt>
<totfact> 0.13006342E+00</totfact>
</mgrwt>
</event>
<event>
12    2  0.3623523E-008  0.1093351E+04  0.7818608E-02  0.9211697E-01
         -1   -1    0    0    0  501 -0.00000000000E+00  0.00000000000E+00  0.49217845053E+03  0.49217845053E+03  0.00000000000E+00 0.  1.
          1   -1    0    0  501    0  0.00000000000E+00 -0.00000000000E+00 -0.60720691481E+03  0.60720691481E+03  0.00000000000E+00 0. -1.
         23    2    1    2    0    0  0.11490133683E+03  0.52237263339E+01 -0.14055566443E+03  0.20326696243E+03  0.91279563387E+02 0.  0.
        254    2    1    2    0    0 -0.11490133683E+03 -0.52237263339E+01  0.25527200146E+02  0.89611840291E+03  0.88833943375E+03 0.  0.
         23    2    4    4    0    0 -0.23098970403E+03  0.18196758666E+03  0.36741534714E+03  0.47943233765E+03  0.91612679845E+02 0.  0.
         23    2    4    4    0    0  0.11608836720E+03 -0.18719131300E+03 -0.34188814699E+03  0.41668606526E+03  0.90678968154E+02 0.  0.
          4    1    3    3  502    0 -0.20260967935E+00  0.29177963526E+02 -0.25160959515E+02  0.38528800785E+02  0.00000000000E+00 0. -1.
         -4    1    3    3    0  502  0.11510394651E+03 -0.23954237192E+02 -0.11539470492E+03  0.16473816165E+03  0.00000000000E+00 0.  1.
         11    1    5    5    0    0 -0.10885780562E+03  0.14256266594E+03  0.22442719471E+03  0.28730071578E+03  0.00000000000E+00 0.  1.
        -11    1    5    5    0    0 -0.12213189841E+03  0.39404920725E+02  0.14298815243E+03  0.19213162187E+03  0.00000000000E+00 0. -1.
          2    1    6    6  503    0  0.27612051052E+02  0.68967757352E+00 -0.22055931787E+02  0.35346359720E+02  0.00000000000E+00 0. -1.
         -2    1    6    6    0  503  0.88476316149E+02 -0.18788099057E+03 -0.31983221521E+03  0.38133970554E+03  0.00000000000E+00 0.  1.
<mgrwt>
<rscale>  0 0.10933511E+04</rscale>
<asrwt>0</asrwt>
<pdfrwt beam="1">  1        1 0.93416448E-01 0.10933511E+04</pdfrwt>
<pdfrwt beam="2">  1       -1 0.75719762E-01 0.10933511E+04</pdfrwt>
<totfact> 0.58834941E+01</totfact>
</mgrwt>
</event>
<event>
12    2  0.3623523E-008  0.1131011E+04  0.7818608E-02  0.9175482E-01
         -1   -1    0    0    0  501 -0.00000000000E+00  0.00000000000E+00  0.76424862682E+03  0.76424862682E+03  0.00000000000E+00 0.  1.
          1   -1    0    0  501    0  0.00000000000E+00 -0.00000000000E+00 -0.41844593841E+03  0.41844593841E+03  0.00000000000E+00 0. -1.
         23    2    1    2    0    0 -0.29888851828E+02  0.17682888325E+03  0.67008704894E+02  0.21281587911E+03  0.92944254562E+02 0.  0.
        254    2    1    2    0    0  0.29888851828E+02 -0.17682888325E+03  0.27879398351E+03  0.96987868612E+03  0.91146957335E+03 0.  0.
         23    2    4    4    0    0  0.35455097827E+03 -0.23665351876E+03  0.41536451858E+03  0.60178847904E+03  0.88940463611E+02 0.  0.
         23    2    4    4    0    0 -0.32466212645E+03  0.59824635513E+02 -0.13657053507E+03  0.36809020709E+03  0.88625087541E+02 0.  0.
          4    1    3    3  502    0 -0.48728977607E+02  0.12873349706E+03  0.13282978738E+02  0.13828689037E+03  0.00000000000E+00 0. -1.
         -4    1    3    3    0  502  0.18840125779E+02  0.48095386188E+02  0.53725726156E+02  0.74528988742E+02  0.00000000000E+00 0.  1.
         11    1    5    5    0    0  0.92361084959E+01  0.76295135256E+01  0.71643230361E+01  0.13958606712E+02  0.00000000000E+00 0. -1.
        -11    1    5    5    0    0  0.34531486978E+03 -0.24428303229E+03  0.40820019555E+03  0.58782987232E+03  0.00000000000E+00 0.  1.
          2    1    6    6  503    0 -0.16539462731E+02  0.37352761051E+01  0.12666490206E+02  0.21164736926E+02  0.00000000000E+00 0. -1.
         -2    1    6    6    0  503 -0.30812266371E+03  0.56089359408E+02 -0.14923702527E+03  0.34692547016E+03  0.00000000000E+00 0.  1.
<mgrwt>
<rscale>  0 0.11310115E+04</rscale>
<asrwt>0</asrwt>
<pdfrwt beam="1">  1        1 0.64376299E-01 0.11310115E+04</pdfrwt>
<pdfrwt beam="2">  1       -1 0.11757671E+00 0.11310115E+04</pdfrwt>
<totfact> 0.36562872E+01</totfact>
</mgrwt>
</event>
<event>
12    2  0.3623523E-008  0.1870850E+04  0.7818608E-02  0.8669504E-01
          2   -1    0    0  501    0  0.00000000000E+00  0.00000000000E+00  0.17050505532E+04  0.17050505532E+04  0.00000000000E+00 0. -1.
         -2   -1    0    0    0  501 -0.00000000000E+00 -0.00000000000E+00 -0.51319304209E+03  0.51319304209E+03  0.00000000000E+00 0.  1.
         23    2    1    2    0    0  0.13616647497E+03  0.54758701265E+02 -0.37550489484E+03  0.41308573564E+03  0.89978189956E+02 0.  0.
        254    2    1    2    0    0 -0.13616647497E+03 -0.54758701265E+02  0.15673624059E+04  0.18051578596E+04  0.88341958456E+03 0.  0.
         23    2    4    4    0    0  0.24725620671E+03  0.10575001968E+03  0.14116741205E+03  0.31682576754E+03  0.90175552840E+02 0.  0.
         23    2    4    4    0    0 -0.38342268168E+03 -0.16050872095E+03  0.14261949938E+04  0.14883320921E+04  0.91237346886E+02 0.  0.
          1    1    3    3  502    0 -0.11346513356E+02  0.44426578104E+01 -0.59503724516E+02  0.60738569337E+02  0.00000000000E+00 0. -1.
         -1    1    3    3    0  502  0.14751298833E+03  0.50316043455E+02 -0.31600117033E+03  0.35234716630E+03  0.00000000000E+00 0.  1.
         11    1    5    5    0    0  0.23993862897E+03  0.11671270929E+03  0.14421259183E+03  0.30329799509E+03  0.00000000000E+00 0. -1.
        -11    1    5    5    0    0  0.73175777368E+01 -0.10962689611E+02 -0.30451797786E+01  0.13527772445E+02  0.00000000000E+00 0.  1.
          2    1    6    6  503    0 -0.28820741860E+03 -0.12616630154E+03  0.92563784496E+03  0.97764353002E+03  0.00000000000E+00 0. -1.
         -2    1    6    6    0  503 -0.95215263079E+02 -0.34342419410E+02  0.50055714889E+03  0.51068856204E+03  0.00000000000E+00 0.  1.
<mgrwt>
<rscale>  0 0.18708502E+04</rscale>
<asrwt>0</asrwt>
<pdfrwt beam="1">  1        2 0.26231547E+00 0.18708502E+04</pdfrwt>
<pdfrwt beam="2">  1       -2 0.78952776E-01 0.18708502E+04</pdfrwt>
<totfact> 0.13022739E+01</totfact>
</mgrwt>
</event>
<event>
12    2  0.3623523E-008  0.1193524E+04  0.7818608E-02  0.9118544E-01
         -2   -1    0    0    0  501 -0.00000000000E+00  0.00000000000E+00  0.11329749589E+04  0.11329749589E+04  0.00000000000E+00 0.  1.
          2   -1    0    0  501    0  0.00000000000E+00 -0.00000000000E+00 -0.31432731774E+03  0.31432731774E+03  0.00000000000E+00 0. -1.
         23    2    1    2    0    0 -0.11291355769E+03  0.13312364505E+03 -0.27808608540E+02  0.19861303908E+03  0.90567346216E+02 0.  0.
        254    2    1    2    0    0  0.11291355769E+03 -0.13312364505E+03  0.84645624969E+03  0.12486892375E+04  0.90125759522E+03 0.  0.
         23    2    4    4    0    0  0.45578871922E+03  0.90588335627E+02  0.30784339365E+03  0.56512278822E+03  0.92987136920E+02 0.  0.
         23    2    4    4    0    0 -0.34287516153E+03 -0.22371198068E+03  0.53861285603E+03  0.68356644932E+03  0.97718244225E+02 0.  0.
          1    1    3    3  502    0 -0.12799504526E+03  0.12374287187E+03 -0.30576847792E+02  0.18063768591E+03  0.00000000000E+00 0. -1.
         -1    1    3    3    0  502  0.15081487573E+02  0.93807731852E+01  0.27682392516E+01  0.17975353168E+02  0.00000000000E+00 0.  1.
         11    1    5    5    0    0  0.18961388637E+03  0.60093830205E+02  0.18002258623E+03  0.26827751655E+03  0.00000000000E+00 0. -1.
        -11    1    5    5    0    0  0.26617483285E+03  0.30494505422E+02  0.12782080742E+03  0.29684527168E+03  0.00000000000E+00 0.  1.
          4    1    6    6  503    0 -0.23482094571E+03 -0.14938802247E+03  0.28674888700E+03  0.39960303052E+03  0.00000000000E+00 0. -1.
         -4    1    6    6    0  503 -0.10805421582E+03 -0.74323958208E+02  0.25186396903E+03  0.28396341880E+03  0.00000000000E+00 0.  1.
<mgrwt>
<rscale>  0 0.11935242E+04</rscale>
<asrwt>0</asrwt>
<pdfrwt beam="1">  1        2 0.48358049E-01 0.11935242E+04</pdfrwt>
<pdfrwt beam="2">  1       -2 0.17430384E+00 0.11935242E+04</pdfrwt>
<totfact> 0.20419200E+01</totfact>
</mgrwt>
</event>
<event>
12    2  0.3623523E-008  0.1737195E+04  0.7818608E-02  0.8740430E-01
          2   -1    0    0  501    0  0.00000000000E+00  0.00000000000E+00  0.19846398918E+04  0.19846398918E+04  0.00000000000E+00 0.  1.
         -2   -1    0    0    0  501 -0.00000000000E+00 -0.00000000000E+00 -0.38015043800E+03  0.38015043800E+03  0.00000000000E+00 0. -1.
         23    2    1    2    0    0  0.31929394730E+03  0.53840395810E+03  0.43346625846E+03  0.76685447265E+03  0.91352822152E+02 0.  0.
        254    2    1    2    0    0 -0.31929394730E+03 -0.53840395810E+03  0.11710231954E+04  0.15979358572E+04  0.88897482117E+03 0.  0.
         23    2    4    4    0    0 -0.27047841531E+03 -0.39670590306E+01  0.98032011782E+03  0.10211117714E+04  0.92018507099E+02 0.  0.
         23    2    4    4    0    0 -0.48815531996E+02 -0.53443689907E+03  0.19070307755E+03  0.57682408575E+03  0.91392597418E+02 0.  0.
          2    1    3    3  502    0  0.79002858027E+02  0.70043162771E+02  0.85220126612E+02  0.13568333062E+03  0.00000000000E+00 0. -1.
         -2    1    3    3    0  502  0.24029108928E+03  0.46836079533E+03  0.34824613185E+03  0.63117114203E+03  0.00000000000E+00 0.  1.
         11    1    5    5    0    0  0.15025130774E+01  0.90567351317E+01  0.11287421740E+02  0.14549497804E+02  0.00000000000E+00 0.  1.
        -11    1    5    5    0    0 -0.27198092839E+03 -0.13023794162E+02  0.96903269608E+03  0.10065622736E+04  0.00000000000E+00 0. -1.
          3    1    6    6  503    0 -0.27301451824E+02 -0.46489213333E+03  0.13411523301E+03  0.48462042944E+03  0.00000000000E+00 0. -1.
         -3    1    6    6    0  503 -0.21514080172E+02 -0.69544765741E+02  0.56587844543E+02  0.92203656314E+02  0.00000000000E+00 0.  1.
<mgrwt>
<rscale>  0 0.17371951E+04</rscale>
<asrwt>0</asrwt>
<pdfrwt beam="1">  1        2 0.30532921E+00 0.17371951E+04</pdfrwt>
<pdfrwt beam="2">  1       -2 0.58484684E-01 0.17371951E+04</pdfrwt>
<totfact> 0.17674006E+01</totfact>
</mgrwt>
</event>
<event>
12    2  0.3623523E-008  0.2814256E+04  0.7818608E-02  0.8298856E-01
          2   -1    0    0  501    0  0.00000000000E+00  0.00000000000E+00  0.22068331031E+04  0.22068331031E+04  0.00000000000E+00 0. -1.
         -2   -1    0    0    0  501 -0.00000000000E+00 -0.00000000000E+00 -0.89721722976E+03  0.89721722976E+03  0.00000000000E+00 0.  1.
         23    2    1    2    0    0  0.47617562279E+03  0.18023192705E+03 -0.68711454252E+03  0.86015212543E+03  0.92241601673E+02 0.  0.
        254    2    1    2    0    0 -0.47617562279E+03 -0.18023192705E+03  0.19967304159E+04  0.22438982074E+04  0.88821170921E+03 0.  0.
         23    2    4    4    0    0 -0.22200252640E+03  0.27503531192E+03  0.13975089349E+04  0.14444013861E+04  0.91294012128E+02 0.  0.
         23    2    4    4    0    0 -0.25417309639E+03 -0.45526723897E+03  0.59922148098E+03  0.79949682129E+03  0.90865627036E+02 0.  0.
          1    1    3    3  502    0  0.21110906525E+03  0.88328594873E+02 -0.23460889751E+03  0.32773512612E+03  0.00000000000E+00 0. -1.
         -1    1    3    3    0  502  0.26506655754E+03  0.91903332177E+02 -0.45250564501E+03  0.53241699931E+03  0.00000000000E+00 0.  1.
         11    1    5    5    0    0 -0.18340380055E+03  0.16053735378E+03  0.96873630631E+03  0.99892904011E+03  0.00000000000E+00 0. -1.
        -11    1    5    5    0    0 -0.38598725854E+02  0.11449795814E+03  0.42877262858E+03  0.44547234603E+03  0.00000000000E+00 0.  1.
          3    1    6    6  503    0 -0.25887559636E+03 -0.45595653957E+03  0.59570152269E+03  0.79358253793E+03  0.00000000000E+00 0. -1.
         -3    1    6    6    0  503  0.47024999745E+01  0.68930059805E+00  0.35199582888E+01  0.59142833615E+01  0.00000000000E+00 0.  1.
<mgrwt>
<rscale>  0 0.28142556E+04</rscale>
<asrwt>0</asrwt>
<pdfrwt beam="1">  1        2 0.33951278E+00 0.28142556E+04</pdfrwt>
<pdfrwt beam="2">  1       -2 0.13803342E+00 0.28142556E+04</pdfrwt>
<totfact> 0.16574067E+00</totfact>
</mgrwt>
</event>
<event>
12    2  0.3623523E-008  0.1208393E+04  0.7818608E-02  0.9105542E-01
         -2   -1    0    0    0  501 -0.00000000000E+00  0.00000000000E+00  0.14153363914E+03  0.14153363914E+03  0.00000000000E+00 0.  1.
          2   -1    0    0  501    0  0.00000000000E+00 -0.00000000000E+00 -0.25792691082E+04  0.25792691082E+04  0.00000000000E+00 0. -1.
         23    2    1    2    0    0 -0.24528259077E+03  0.69968110516E+02 -0.59159982755E+03  0.65148633186E+03  0.96876203563E+02 0.  0.
        254    2    1    2    0    0  0.24528259077E+03 -0.69968110516E+02 -0.18461356415E+04  0.20693164155E+04  0.89933004771E+03 0.  0.
         23    2    4    4    0    0 -0.27771779731E+02 -0.42494252187E+03 -0.59557900434E+03  0.73786977729E+03  0.91597157086E+02 0.  0.
         23    2    4    4    0    0  0.27305437050E+03  0.35497441135E+03 -0.12505566372E+04  0.13314466382E+04  0.91064403731E+02 0.  0.
          2    1    3    3  502    0 -0.12301913505E+03  0.69630170652E+02 -0.39957121329E+03  0.42383867538E+03  0.00000000000E+00 0. -1.
         -2    1    3    3    0  502 -0.12226345572E+03  0.33793986426E+00 -0.19202861426E+03  0.22764765648E+03  0.00000000000E+00 0.  1.
         11    1    5    5    0    0  0.26946123062E+02 -0.19983723661E+03 -0.31500880857E+03  0.37402080713E+03  0.00000000000E+00 0. -1.
        -11    1    5    5    0    0 -0.54717902793E+02 -0.22510528526E+03 -0.28057019577E+03  0.36384897016E+03  0.00000000000E+00 0.  1.
          2    1    6    6  503    0  0.18188238932E+03  0.26645769193E+03 -0.78126018666E+03  0.84525048618E+03  0.00000000000E+00 0. -1.
         -2    1    6    6    0  503  0.91171981173E+02  0.88516719421E+02 -0.46929645050E+03  0.48619615200E+03  0.00000000000E+00 0.  1.
<mgrwt>
<rscale>  0 0.12083929E+04</rscale>
<asrwt>0</asrwt>
<pdfrwt beam="1">  1        2 0.39681064E+00 0.12083929E+04</pdfrwt>
<pdfrwt beam="2">  1       -2 0.21774406E-01 0.12083929E+04</pdfrwt>
<totfact> 0.57177934E+01</totfact>
</mgrwt>
</event>
<event>
12    2  0.3623523E-008  0.1504454E+04  0.7818608E-02  0.8881497E-01
         -2   -1    0    0    0  501 -0.00000000000E+00  0.00000000000E+00  0.10118864502E+04  0.10118864502E+04  0.00000000000E+00 0.  1.
          2   -1    0    0  501    0  0.00000000000E+00 -0.00000000000E+00 -0.55919833288E+03  0.55919833288E+03  0.00000000000E+00 0. -1.
         23    2    1    2    0    0  0.14462350151E+03 -0.19775742243E+03 -0.28991761549E+03  0.38601286452E+03  0.70212196136E+02 0.  0.
        254    2    1    2    0    0 -0.14462350151E+03  0.19775742243E+03  0.74260573284E+03  0.11850719186E+04  0.89045394181E+03 0.  0.
         23    2    4    4    0    0 -0.38125465807E+03 -0.15109602792E+03  0.13735735984E+03  0.44119816866E+03  0.87198943636E+02 0.  0.
         23    2    4    4    0    0  0.23663115656E+03  0.34885345035E+03  0.60524837299E+03  0.74387374993E+03  0.96589485705E+02 0.  0.
          1    1    3    3  502    0  0.12741599879E+03 -0.20027834191E+03 -0.26736765427E+03  0.35753561156E+03  0.00000000000E+00 0. -1.
         -1    1    3    3    0  502  0.17207502728E+02  0.25209194746E+01 -0.22549961221E+02  0.28477252961E+02  0.00000000000E+00 0.  1.
         11    1    5    5    0    0 -0.13633833651E+03 -0.83737241059E+02  0.87423253766E+02  0.18232633612E+03  0.00000000000E+00 0.  1.
        -11    1    5    5    0    0 -0.24491632156E+03 -0.67358786860E+02  0.49934106077E+02  0.25887183255E+03  0.00000000000E+00 0. -1.
          2    1    6    6  503    0  0.20085237904E+03  0.22168523626E+03  0.44486516923E+03  0.53608865026E+03  0.00000000000E+00 0. -1.
         -2    1    6    6    0  503  0.35778777514E+02  0.12716821409E+03  0.16038320376E+03  0.20778509967E+03  0.00000000000E+00 0.  1.
<mgrwt>
<rscale>  0 0.15044537E+04</rscale>
<asrwt>0</asrwt>
<pdfrwt beam="1">  1        2 0.86030513E-01 0.15044537E+04</pdfrwt>
<pdfrwt beam="2">  1       -2 0.15567484E+00 0.15044537E+04</pdfrwt>
<totfact> 0.14133275E+01</totfact>
</mgrwt>
</event>
<event>
12    2  0.3623523E-008  0.1618340E+04  0.7818608E-02  0.8809360E-01
         -2   -1    0    0    0  501 -0.00000000000E+00  0.00000000000E+00  0.41133119589E+03  0.41133119589E+03  0.00000000000E+00 0.  1.
          2   -1    0    0  501    0  0.00000000000E+00 -0.00000000000E+00 -0.15917980032E+04  0.15917980032E+04  0.00000000000E+00 0. -1.
         23    2    1    2    0    0 -0.24217573053E+03  0.49181094771E+03 -0.40415429641E+03  0.68708343466E+03  0.90641371002E+02 0.  0.
        254    2    1    2    0    0  0.24217573053E+03 -0.49181094771E+03 -0.77631251087E+03  0.13160457644E+04  0.91037807898E+03 0.  0.
         23    2    4    4    0    0  0.28810886037E+03 -0.69075593179E+03 -0.78695636941E+03  0.10900531486E+04  0.93621934759E+02 0.  0.
         23    2    4    4    0    0 -0.45933129840E+02  0.19894498408E+03  0.10643858545E+02  0.22599261580E+03  0.96282976505E+02 0.  0.
          2    1    3    3  502    0 -0.72035077434E+02  0.21979873335E+03 -0.13170047392E+03  0.26616827458E+03  0.00000000000E+00 0. -1.
         -2    1    3    3    0  502 -0.17014065309E+03  0.27201221436E+03 -0.27245382249E+03  0.42091516008E+03  0.00000000000E+00 0.  1.
         11    1    5    5    0    0  0.13247009601E+03 -0.43637743452E+03 -0.47845107980E+03  0.66097581458E+03  0.00000000000E+00 0.  1.
        -11    1    5    5    0    0  0.15563876436E+03 -0.25437849727E+03 -0.30850528962E+03  0.42907733401E+03  0.00000000000E+00 0. -1.
          3    1    6    6  503    0  0.15182055279E+02  0.10609184393E+03  0.33936697729E+02  0.11241740792E+03  0.00000000000E+00 0. -1.
         -3    1    6    6    0  503 -0.61115185119E+02  0.92853140147E+02 -0.23292839184E+02  0.11357520788E+03  0.00000000000E+00 0.  1.
<mgrwt>
<rscale>  0 0.16183401E+04</rscale>
<asrwt>0</asrwt>
<pdfrwt beam="1">  1        2 0.24489201E+00 0.16183401E+04</pdfrwt>
<pdfrwt beam="2">  1       -2 0.63281721E-01 0.16183401E+04</pdfrwt>
<totfact> 0.24953337E+01</totfact>
</mgrwt>
</event>
<event>
12    2  0.3623523E-008  0.1776022E+04  0.7818608E-02  0.8719156E-01
         -2   -1    0    0    0  501 -0.00000000000E+00  0.00000000000E+00  0.89489171909E+03  0.89489171909E+03  0.00000000000E+00 0.  1.
          2   -1    0    0  501    0  0.00000000000E+00 -0.00000000000E+00 -0.88118289074E+03  0.88118289074E+03  0.00000000000E+00 0. -1.
         23    2    1    2    0    0 -0.18835317803E+03  0.60025261984E+03  0.19106160296E+03  0.66453553905E+03  0.96554747374E+02 0.  0.
        254    2    1    2    0    0  0.18835317803E+03 -0.60025261984E+03 -0.17735277460E+03  0.11115390708E+04  0.89904670174E+03 0.  0.
         23    2    4    4    0    0  0.10256537997E+03  0.21444932159E+03 -0.12954888614E+03  0.28597113569E+03  0.92132555863E+02 0.  0.
         23    2    4    4    0    0  0.85787798063E+02 -0.81470194143E+03 -0.47803888468E+02  0.82556793510E+03  0.90434529029E+02 0.  0.
          3    1    3    3  502    0 -0.13352368990E+03  0.35910630893E+03  0.71074378505E+02  0.38966329588E+03  0.00000000000E+00 0. -1.
         -3    1    3    3    0  502 -0.54829488133E+02  0.24114631091E+03  0.11998722445E+03  0.27487224317E+03  0.00000000000E+00 0.  1.
         11    1    5    5    0    0  0.26390864522E+02  0.38110714048E+02 -0.71665328121E+02  0.85351177555E+02  0.00000000000E+00 0. -1.
        -11    1    5    5    0    0  0.76174515446E+02  0.17633860754E+03 -0.57883558016E+02  0.20061995813E+03  0.00000000000E+00 0.  1.
          3    1    6    6  503    0  0.58470973493E+02 -0.18821173811E+03 -0.95124985895E+01  0.19731447168E+03  0.00000000000E+00 0. -1.
         -3    1    6    6    0  503  0.27316824570E+02 -0.62649020332E+03 -0.38291389878E+02  0.62825346342E+03  0.00000000000E+00 0.  1.
<mgrwt>
<rscale>  0 0.17760217E+04</rscale>
<asrwt>0</asrwt>
<pdfrwt beam="1">  1        2 0.13556660E+00 0.17760217E+04</pdfrwt>
<pdfrwt beam="2">  1       -2 0.13767565E+00 0.17760217E+04</pdfrwt>
<totfact> 0.10713234E+01</totfact>
</mgrwt>
</event>
<event>
12    2  0.3623523E-008  0.1547166E+04  0.7818608E-02  0.8853680E-01
         -2   -1    0    0    0  501 -0.00000000000E+00  0.00000000000E+00  0.17173059486E+03  0.17173059486E+03  0.00000000000E+00 0. -1.
          2   -1    0    0  501    0  0.00000000000E+00 -0.00000000000E+00 -0.34847046439E+04  0.34847046439E+04  0.00000000000E+00 0.  1.
         23    2    1    2    0    0  0.13286123768E+03  0.21163585827E+03 -0.21252554560E+04  0.21417635382E+04  0.89434081621E+02 0.  0.
        254    2    1    2    0    0 -0.13286123768E+03 -0.21163585827E+03 -0.11877185930E+04  0.15146717007E+04  0.90615288971E+03 0.  0.
         23    2    4    4    0    0 -0.38438818988E+03  0.11342093541E+02 -0.15452663629E+03  0.42420392349E+03  0.90485157758E+02 0.  0.
         23    2    4    4    0    0  0.25152695220E+03 -0.22297795181E+03 -0.10331919567E+04  0.10904677772E+04  0.93002036935E+02 0.  0.
          2    1    3    3  502    0  0.10672807519E+03  0.19952328128E+03 -0.20201436140E+04  0.20327765846E+04  0.00000000000E+00 0.  1.
         -2    1    3    3    0  502  0.26133162493E+02  0.12112576991E+02 -0.10511184208E+03  0.10898695357E+03  0.00000000000E+00 0. -1.
         11    1    5    5    0    0 -0.38569784769E+03  0.13569012566E+02 -0.14171230716E+03  0.41113176211E+03  0.00000000000E+00 0. -1.
        -11    1    5    5    0    0  0.13096578142E+01 -0.22269190248E+01 -0.12814329131E+02  0.13072161375E+02  0.00000000000E+00 0.  1.
          3    1    6    6  503    0  0.20564932451E+03 -0.15129853262E+03 -0.65917699293E+03  0.70689263587E+03  0.00000000000E+00 0. -1.
         -3    1    6    6    0  503  0.45877627687E+02 -0.71679419192E+02 -0.37401496382E+03  0.38357514130E+03  0.00000000000E+00 0.  1.
<mgrwt>
<rscale>  0 0.15471657E+04</rscale>
<asrwt>0</asrwt>
<pdfrwt beam="1">  1        2 0.53610842E+00 0.15471657E+04</pdfrwt>
<pdfrwt beam="2">  1       -2 0.26420091E-01 0.15471657E+04</pdfrwt>
<totfact> 0.10540126E+01</totfact>
</mgrwt>
</event>
<event>
12    2  0.3623523E-008  0.1742071E+04  0.7818608E-02  0.8737727E-01
         -2   -1    0    0    0  501 -0.00000000000E+00  0.00000000000E+00  0.66564635499E+03  0.66564635499E+03  0.00000000000E+00 0.  1.
          2   -1    0    0  501    0  0.00000000000E+00 -0.00000000000E+00 -0.11397987599E+04  0.11397987599E+04  0.00000000000E+00 0. -1.
         23    2    1    2    0    0 -0.21169365297E+03  0.17573758509E+03 -0.77815764387E+03  0.83041284344E+03  0.91423576360E+02 0.  0.
        254    2    1    2    0    0  0.21169365297E+03 -0.17573758509E+03  0.30400523891E+03  0.97503227149E+03  0.88463034293E+03 0.  0.
         23    2    4    4    0    0 -0.10154455354E+03 -0.32357254585E+03 -0.16310710593E+03  0.38622293854E+03  0.86912263055E+02 0.  0.
         23    2    4    4    0    0  0.31323820651E+03  0.14783496076E+03  0.46711234484E+03  0.58880933295E+03  0.92353333580E+02 0.  0.
          1    1    3    3  502    0 -0.37146903901E+02  0.73707791342E+02 -0.30274993398E+03  0.31379970284E+03  0.00000000000E+00 0. -1.
         -1    1    3    3    0  502 -0.17454674907E+03  0.10202979375E+03 -0.47540770988E+03  0.51661314060E+03  0.00000000000E+00 0.  1.
         11    1    5    5    0    0 -0.83283014256E+01 -0.69312170123E+02  0.53212003859E+00  0.69812754447E+02  0.00000000000E+00 0.  1.
        -11    1    5    5    0    0 -0.93216252119E+02 -0.25426037573E+03 -0.16363922596E+03  0.31641018409E+03  0.00000000000E+00 0. -1.
          3    1    6    6  503    0  0.22591203179E+03  0.14885770656E+03  0.33815643748E+03  0.43306424364E+03  0.00000000000E+00 0. -1.
         -3    1    6    6    0  503  0.87326174722E+02 -0.10227458038E+01  0.12895590736E+03  0.15574508930E+03  0.00000000000E+00 0.  1.
<mgrwt>
<rscale>  0 0.17420711E+04</rscale>
<asrwt>0</asrwt>
<pdfrwt beam="1">  1        2 0.17535366E+00 0.17420711E+04</pdfrwt>
<pdfrwt beam="2">  1       -2 0.10240713E+00 0.17420711E+04</pdfrwt>
<totfact> 0.15247257E+01</totfact>
</mgrwt>
</event>
<event>
12    2  0.3623523E-008  0.1694633E+04  0.7818608E-02  0.8764431E-01
          2   -1    0    0  501    0  0.00000000000E+00  0.00000000000E+00  0.74999183200E+03  0.74999183200E+03  0.00000000000E+00 0. -1.
         -2   -1    0    0    0  501 -0.00000000000E+00 -0.00000000000E+00 -0.95727032624E+03  0.95727032624E+03  0.00000000000E+00 0.  1.
         23    2    1    2    0    0 -0.37115900756E+03  0.21171570884E+03  0.33968845864E+03  0.55349071622E+03  0.91548750667E+02 0.  0.
        254    2    1    2    0    0  0.37115900756E+03 -0.21171570884E+03 -0.54696695288E+03  0.11537714420E+04  0.92164697287E+03 0.  0.
         23    2    4    4    0    0  0.10981966237E+03 -0.49894485202E+03 -0.54674950604E+03  0.75454162963E+03  0.96910912111E+02 0.  0.
         23    2    4    4    0    0  0.26133934519E+03  0.28722914318E+03 -0.21744683968E+00  0.39922981238E+03  0.92658306562E+02 0.  0.
          1    1    3    3  502    0 -0.19781674063E+03  0.61973599096E+02  0.14652740732E+03  0.25385521652E+03  0.00000000000E+00 0. -1.
         -1    1    3    3    0  502 -0.17334226693E+03  0.14974210974E+03  0.19316105132E+03  0.29963549970E+03  0.00000000000E+00 0.  1.
         11    1    5    5    0    0 -0.17766338224E+02 -0.83252455716E+02 -0.92989942880E+02  0.12607039158E+03  0.00000000000E+00 0. -1.
        -11    1    5    5    0    0  0.12758600059E+03 -0.41569239631E+03 -0.45375956316E+03  0.62847123805E+03  0.00000000000E+00 0.  1.
          2    1    6    6  503    0  0.20957053025E+01  0.36179874326E+02 -0.11953326095E+02  0.38160939346E+02  0.00000000000E+00 0. -1.
         -2    1    6    6    0  503  0.25924363988E+03  0.25104926886E+03  0.11735879255E+02  0.36106887304E+03  0.00000000000E+00 0.  1.
<mgrwt>
<rscale>  0 0.16946326E+04</rscale>
<asrwt>0</asrwt>
<pdfrwt beam="1">  1        2 0.11538336E+00 0.16946326E+04</pdfrwt>
<pdfrwt beam="2">  1       -2 0.14727236E+00 0.16946326E+04</pdfrwt>
<totfact> 0.11223231E+01</totfact>
</mgrwt>
</event>
<event>
12    2  0.3623523E-008  0.1572691E+04  0.7818608E-02  0.8837503E-01
          2   -1    0    0  501    0  0.00000000000E+00  0.00000000000E+00  0.19033308066E+04  0.19033308066E+04  0.00000000000E+00 0. -1.
         -2   -1    0    0    0  501 -0.00000000000E+00 -0.00000000000E+00 -0.32487199565E+03  0.32487199565E+03  0.00000000000E+00 0.  1.
         23    2    1    2    0    0 -0.51261023643E+02  0.45435223103E+03  0.17388780512E+03  0.49780526697E+03  0.92246802975E+02 0.  0.
        254    2    1    2    0    0  0.51261023643E+02 -0.45435223103E+03  0.14045710058E+04  0.17303975352E+04  0.90132806309E+03 0.  0.
         23    2    4    4    0    0 -0.27162699726E+03  0.14083938826E+03  0.35733164713E+03  0.47993865130E+03  0.95069679979E+02 0.  0.
         23    2    4    4    0    0  0.32288802090E+03 -0.59519161929E+03  0.10472393586E+04  0.12504588839E+04  0.91800917268E+02 0.  0.
          3    1    3    3  502    0 -0.14477846775E+02  0.17109672412E+03  0.11358067195E+03  0.20587439396E+03  0.00000000000E+00 0. -1.
         -3    1    3    3    0  502 -0.36783176868E+02  0.28325550692E+03  0.60307133177E+02  0.29193087300E+03  0.00000000000E+00 0.  1.
         11    1    5    5    0    0 -0.17498880161E+03  0.39947719563E+02  0.18017203923E+03  0.25432039774E+03  0.00000000000E+00 0.  1.
        -11    1    5    5    0    0 -0.96638195651E+02  0.10089166869E+03  0.17715960790E+03  0.22561825357E+03  0.00000000000E+00 0. -1.
          2    1    6    6  503    0  0.28164592193E+02 -0.61656921385E+02  0.61690517872E+02  0.91654460903E+02  0.00000000000E+00 0. -1.
         -2    1    6    6    0  503  0.29472342871E+03 -0.53353469790E+03  0.98554884078E+03  0.11588044230E+04  0.00000000000E+00 0.  1.
<mgrwt>
<rscale>  0 0.15726905E+04</rscale>
<asrwt>0</asrwt>
<pdfrwt beam="1">  1        2 0.29282012E+00 0.15726905E+04</pdfrwt>
<pdfrwt beam="2">  1       -2 0.49980308E-01 0.15726905E+04</pdfrwt>
<totfact> 0.27519657E+01</totfact>
</mgrwt>
</event>
<event>
12    2  0.3623523E-008  0.1371742E+04  0.7818608E-02  0.8974531E-01
         -1   -1    0    0    0  501 -0.00000000000E+00  0.00000000000E+00  0.45601483782E+03  0.45601483782E+03  0.00000000000E+00 0.  1.
          1   -1    0    0  501    0  0.00000000000E+00 -0.00000000000E+00 -0.10315865262E+04  0.10315865262E+04  0.00000000000E+00 0. -1.
         23    2    1    2    0    0  0.94429303755E+02  0.27979981661E+03  0.10189745775E+03  0.32524396900E+03  0.90530197692E+02 0.  0.
        254    2    1    2    0    0 -0.94429303755E+02 -0.27979981661E+03 -0.67746914612E+03  0.11623573950E+04  0.89716522392E+03 0.  0.
         23    2    4    4    0    0 -0.16371766347E+03 -0.25185180552E+03  0.13486666595E+03  0.34144689402E+03  0.90355733480E+02 0.  0.
         23    2    4    4    0    0  0.69288359713E+02 -0.27948011090E+02 -0.81233581207E+03  0.82091050099E+03  0.91774783894E+02 0.  0.
          3    1    3    3  502    0  0.42690053337E+02  0.26316283955E+02  0.15574269192E+02  0.52512334893E+02  0.00000000000E+00 0. -1.
         -3    1    3    3    0  502  0.51739250419E+02  0.25348353266E+03  0.86323188559E+02  0.27273163411E+03  0.00000000000E+00 0.  1.
         11    1    5    5    0    0 -0.65309721125E+01 -0.50755719240E+02 -0.31696800916E+01  0.51272248870E+02  0.00000000000E+00 0. -1.
        -11    1    5    5    0    0 -0.15718669136E+03 -0.20109608628E+03  0.13803634604E+03  0.29017464515E+03  0.00000000000E+00 0.  1.
          2    1    6    6  503    0 -0.17433773904E+02  0.13660199136E+02 -0.14892358712E+03  0.15056152336E+03  0.00000000000E+00 0. -1.
         -2    1    6    6    0  503  0.86722133618E+02 -0.41608210225E+02 -0.66341222494E+03  0.67034897764E+03  0.00000000000E+00 0.  1.
<mgrwt>
<rscale>  0 0.13717416E+04</rscale>
<asrwt>0</asrwt>
<pdfrwt beam="1">  1        1 0.15870562E+00 0.13717416E+04</pdfrwt>
<pdfrwt beam="2">  1       -1 0.70156129E-01 0.13717416E+04</pdfrwt>
<totfact> 0.28701175E+01</totfact>
</mgrwt>
</event>
<event>
12    2  0.3623523E-008  0.2355762E+04  0.7818608E-02  0.8456254E-01
         -2   -1    0    0    0  501 -0.00000000000E+00  0.00000000000E+00  0.50997101475E+03  0.50997101475E+03  0.00000000000E+00 0.  1.
          2   -1    0    0  501    0  0.00000000000E+00 -0.00000000000E+00 -0.27205548232E+04  0.27205548232E+04  0.00000000000E+00 0. -1.
         23    2    1    2    0    0 -0.69781269605E+03 -0.62835971948E+03 -0.47099781215E+03  0.10544021900E+04  0.90258204529E+02 0.  0.
        254    2    1    2    0    0  0.69781269605E+03  0.62835971948E+03 -0.17395859963E+04  0.21761236479E+04  0.90971215041E+03 0.  0.
         23    2    4    4    0    0  0.50391404257E+03 -0.38189224611E+02 -0.35568200413E+03  0.62514458211E+03  0.94383691872E+02 0.  0.
         23    2    4    4    0    0  0.19389865347E+03  0.66654894409E+03 -0.13839039921E+04  0.15509790658E+04  0.91987066087E+02 0.  0.
          1    1    3    3  502    0 -0.48350533730E+02 -0.65832884517E+02 -0.63496726391E+02  0.10345809325E+03  0.00000000000E+00 0. -1.
         -1    1    3    3    0  502 -0.64946216232E+03 -0.56252683496E+03 -0.40750108576E+03  0.95094409680E+03  0.00000000000E+00 0.  1.
         11    1    5    5    0    0  0.50302753192E+03 -0.33723717263E+02 -0.35949866467E+03  0.61920374423E+03  0.00000000000E+00 0.  1.
        -11    1    5    5    0    0  0.88651065698E+00 -0.44655073479E+01  0.38166605334E+01  0.59408378741E+01  0.00000000000E+00 0. -1.
          4    1    6    6  503    0  0.39067788730E+02  0.29108277519E+03 -0.60731479074E+03  0.67460116305E+03  0.00000000000E+00 0.  1.
         -4    1    6    6    0  503  0.15483086474E+03  0.37546616890E+03 -0.77658920139E+03  0.87637790272E+03  0.00000000000E+00 0. -1.
<mgrwt>
<rscale>  0 0.23557624E+04</rscale>
<asrwt>0</asrwt>
<pdfrwt beam="1">  1        2 0.41854690E+00 0.23557624E+04</pdfrwt>
<pdfrwt beam="2">  1       -2 0.78457079E-01 0.23557624E+04</pdfrwt>
<totfact> 0.33649038E+00</totfact>
</mgrwt>
</event>
<event>
12    2  0.3623523E-008  0.1233043E+04  0.7818608E-02  0.9084416E-01
          2   -1    0    0  501    0  0.00000000000E+00  0.00000000000E+00  0.14857915622E+04  0.14857915622E+04  0.00000000000E+00 0. -1.
         -2   -1    0    0    0  501 -0.00000000000E+00 -0.00000000000E+00 -0.25582233789E+03  0.25582233789E+03  0.00000000000E+00 0.  1.
         23    2    1    2    0    0 -0.12096924718E+03 -0.16046850232E+03  0.38097935233E+02  0.22501985815E+03  0.93801838434E+02 0.  0.
        254    2    1    2    0    0  0.12096924718E+03  0.16046850232E+03  0.11918712891E+04  0.15165940420E+04  0.91603308855E+03 0.  0.
         23    2    4    4    0    0 -0.27288610749E+03 -0.11837797211E+02  0.99378070942E+03  0.10345008598E+04  0.89358656165E+02 0.  0.
         23    2    4    4    0    0  0.39385535467E+03  0.17230629953E+03  0.19809057969E+03  0.48209318216E+03  0.91446472101E+02 0.  0.
          3    1    3    3  502    0  0.11834567410E+02 -0.23674185047E+02  0.20645364721E+02  0.33567173069E+02  0.00000000000E+00 0. -1.
         -3    1    3    3    0  502 -0.13280381459E+03 -0.13679431727E+03  0.17452570512E+02  0.19145268509E+03  0.00000000000E+00 0.  1.
         11    1    5    5    0    0 -0.19195956279E+03  0.63949431176E+01  0.81628817159E+03  0.83857960154E+03  0.00000000000E+00 0. -1.
        -11    1    5    5    0    0 -0.80926544696E+02 -0.18232740329E+02  0.17749253783E+03  0.19592125827E+03  0.00000000000E+00 0.  1.
          4    1    6    6  503    0  0.36820776682E+03  0.13538840483E+03  0.16198568652E+03  0.42443649978E+03  0.00000000000E+00 0. -1.
         -4    1    6    6    0  503  0.25647587849E+02  0.36917894701E+02  0.36104893171E+02  0.57656682375E+02  0.00000000000E+00 0.  1.
<mgrwt>
<rscale>  0 0.12330429E+04</rscale>
<asrwt>0</asrwt>
<pdfrwt beam="1">  1        2 0.22858331E+00 0.12330429E+04</pdfrwt>
<pdfrwt beam="2">  1       -2 0.39357284E-01 0.12330429E+04</pdfrwt>
<totfact> 0.77686691E+01</totfact>
</mgrwt>
</event>
<event>
12    2  0.3623523E-008  0.1675696E+04  0.7818608E-02  0.8775349E-01
         -2   -1    0    0    0  501 -0.00000000000E+00  0.00000000000E+00  0.26149557796E+03  0.26149557796E+03  0.00000000000E+00 0.  1.
          2   -1    0    0  501    0  0.00000000000E+00 -0.00000000000E+00 -0.26845161583E+04  0.26845161583E+04  0.00000000000E+00 0. -1.
         23    2    1    2    0    0 -0.55006243271E+03  0.44650192674E+02 -0.53151381203E+03  0.77151594093E+03  0.90374748353E+02 0.  0.
        254    2    1    2    0    0  0.55006243271E+03 -0.44650192674E+02 -0.18915067683E+04  0.21744957953E+04  0.91982160758E+03 0.  0.
         23    2    4    4    0    0  0.69576178116E+03  0.22460331133E+03 -0.11328309922E+04  0.13512871120E+04  0.90220278877E+02 0.  0.
         23    2    4    4    0    0 -0.14569934844E+03 -0.26925350400E+03 -0.75867577613E+03  0.82320868330E+03  0.91421296293E+02 0.  0.
          4    1    3    3  502    0 -0.28372499418E+03  0.33995508315E+01 -0.32861960139E+03  0.43416848307E+03  0.00000000000E+00 0. -1.
         -4    1    3    3    0  502 -0.26633743853E+03  0.41250641843E+02 -0.20289421064E+03  0.33734745787E+03  0.00000000000E+00 0.  1.
         11    1    5    5    0    0  0.66392540762E+03  0.19220955509E+03 -0.10589629542E+04  0.12645726544E+04  0.00000000000E+00 0.  1.
        -11    1    5    5    0    0  0.31836373544E+02  0.32393756237E+02 -0.73868037988E+02  0.86714457617E+02  0.00000000000E+00 0. -1.
          2    1    6    6  503    0 -0.39749622863E+02 -0.13791203942E+03 -0.43687156160E+03  0.45984402189E+03  0.00000000000E+00 0. -1.
         -2    1    6    6    0  503 -0.10594972558E+03 -0.13134146458E+03 -0.32180421453E+03  0.36336466140E+03  0.00000000000E+00 0.  1.
<mgrwt>
<rscale>  0 0.16756958E+04</rscale>
<asrwt>0</asrwt>
<pdfrwt beam="1">  1        2 0.41300251E+00 0.16756958E+04</pdfrwt>
<pdfrwt beam="2">  1       -2 0.40230087E-01 0.16756958E+04</pdfrwt>
<totfact> 0.15165117E+01</totfact>
</mgrwt>
</event>
<event>
12    2  0.3623523E-008  0.2096870E+04  0.7818608E-02  0.8562623E-01
          2   -1    0    0  501    0  0.00000000000E+00  0.00000000000E+00  0.89801577598E+03  0.89801577598E+03  0.00000000000E+00 0. -1.
         -2   -1    0    0    0  501 -0.00000000000E+00 -0.00000000000E+00 -0.12240502014E+04  0.12240502014E+04  0.00000000000E+00 0.  1.
         23    2    1    2    0    0  0.16977866263E+03 -0.55339487245E+03  0.50050525757E+03  0.77058868701E+03  0.90723384831E+02 0.  0.
        254    2    1    2    0    0 -0.16977866263E+03  0.55339487245E+03 -0.82653968300E+03  0.13514772904E+04  0.89902855334E+03 0.  0.
         23    2    4    4    0    0 -0.74895920394E+02  0.19065693054E+03  0.17091656340E+03  0.28182709340E+03  0.90854690990E+02 0.  0.
         23    2    4    4    0    0 -0.94882742239E+02  0.36273794190E+03 -0.99745624640E+03  0.10696501970E+04  0.93010919539E+02 0.  0.
          3    1    3    3  502    0  0.27788168769E+02 -0.12646318059E+03  0.16287700622E+03  0.20807219306E+03  0.00000000000E+00 0. -1.
         -3    1    3    3    0  502  0.14199049386E+03 -0.42693169185E+03  0.33762825135E+03  0.56251649395E+03  0.00000000000E+00 0.  1.
         11    1    5    5    0    0  0.24957174157E+01 -0.81159374451E+01  0.16290546895E+02  0.18370600539E+02  0.00000000000E+00 0. -1.
        -11    1    5    5    0    0 -0.77391637810E+02  0.19877286799E+03  0.15462601650E+03  0.26345649286E+03  0.00000000000E+00 0.  1.
          4    1    6    6  503    0 -0.10822862109E+03  0.27803125761E+03 -0.72403452775E+03  0.78309693653E+03  0.00000000000E+00 0. -1.
         -4    1    6    6    0  503  0.13345878848E+02  0.84706684293E+02 -0.27342171865E+03  0.28655326046E+03  0.00000000000E+00 0.  1.
<mgrwt>
<rscale>  0 0.20968704E+04</rscale>
<asrwt>0</asrwt>
<pdfrwt beam="1">  1        2 0.13815627E+00 0.20968704E+04</pdfrwt>
<pdfrwt beam="2">  1       -2 0.18831541E+00 0.20968704E+04</pdfrwt>
<totfact> 0.43119870E+00</totfact>
</mgrwt>
</event>
<event>
12    2  0.3623523E-008  0.2473691E+04  0.7818608E-02  0.8412419E-01
         -2   -1    0    0    0  501 -0.00000000000E+00  0.00000000000E+00  0.18928992302E+04  0.18928992302E+04  0.00000000000E+00 0.  1.
          2   -1    0    0  501    0  0.00000000000E+00 -0.00000000000E+00 -0.80817109578E+03  0.80817109578E+03  0.00000000000E+00 0. -1.
         23    2    1    2    0    0 -0.26814238254E+03 -0.99838792375E+03  0.14266088519E+03  0.10472301030E+04  0.87521294067E+02 0.  0.
        254    2    1    2    0    0  0.26814238254E+03  0.99838792375E+03  0.94206724922E+03  0.16538402229E+04  0.88261996204E+03 0.  0.
         23    2    4    4    0    0 -0.25763470129E+03  0.13266678638E+03  0.39742495652E+03  0.50023234575E+03  0.91157490957E+02 0.  0.
         23    2    4    4    0    0  0.52577708383E+03  0.86572113737E+03  0.54464229270E+03  0.11536078772E+04  0.90891571420E+02 0.  0.
          3    1    3    3  502    0 -0.11305101470E+02 -0.22421909031E+02  0.16810295013E+02  0.30218096271E+02  0.00000000000E+00 0. -1.
         -3    1    3    3    0  502 -0.25683728107E+03 -0.97596601472E+03  0.12585059018E+03  0.10170120068E+04  0.00000000000E+00 0.  1.
         11    1    5    5    0    0 -0.22743150769E+03  0.87698871117E+02  0.28212419010E+03  0.37284077208E+03  0.00000000000E+00 0.  1.
        -11    1    5    5    0    0 -0.30203193602E+02  0.44967915263E+02  0.11530076642E+03  0.12739157367E+03  0.00000000000E+00 0. -1.
          1    1    6    6  503    0  0.32097444370E+03  0.56405043661E+03  0.30336883431E+03  0.71638686348E+03  0.00000000000E+00 0. -1.
         -1    1    6    6    0  503  0.20480264014E+03  0.30167070076E+03  0.24127345840E+03  0.43722101371E+03  0.00000000000E+00 0.  1.
<mgrwt>
<rscale>  0 0.24736907E+04</rscale>
<asrwt>0</asrwt>
<pdfrwt beam="1">  1        2 0.12433402E+00 0.24736907E+04</pdfrwt>
<pdfrwt beam="2">  1       -2 0.29121526E+00 0.24736907E+04</pdfrwt>
<totfact> 0.10926445E+00</totfact>
</mgrwt>
</event>
<event>
12    2  0.3623523E-008  0.2194510E+04  0.7818608E-02  0.8520717E-01
         -2   -1    0    0    0  501 -0.00000000000E+00  0.00000000000E+00  0.14432366591E+04  0.14432366591E+04  0.00000000000E+00 0.  1.
          2   -1    0    0  501    0  0.00000000000E+00 -0.00000000000E+00 -0.83421394048E+03  0.83421394048E+03  0.00000000000E+00 0. -1.
         23    2    1    2    0    0 -0.29230699617E+02 -0.91525139896E+03  0.29070817126E+03  0.96383084748E+03  0.76935717431E+02 0.  0.
        254    2    1    2    0    0  0.29230699617E+02  0.91525139896E+03  0.31831454739E+03  0.13136197521E+04  0.88641589843E+03 0.  0.
         23    2    4    4    0    0  0.29878948832E+02  0.46922710999E+03  0.60791029450E+03  0.77409102174E+03  0.92710039598E+02 0.  0.
         23    2    4    4    0    0 -0.64824921498E+00  0.44602428897E+03 -0.28959574711E+03  0.53952873039E+03  0.91035529272E+02 0.  0.
          2    1    3    3  502    0 -0.40184667279E+02 -0.57908710402E+03  0.15232697446E+03  0.60013347572E+03  0.00000000000E+00 0. -1.
         -2    1    3    3    0  502  0.10953967662E+02 -0.33616429494E+03  0.13838119680E+03  0.36369737177E+03  0.00000000000E+00 0.  1.
         11    1    5    5    0    0  0.43926638020E+02  0.45274435716E+03  0.55961982882E+03  0.72116666261E+03  0.00000000000E+00 0. -1.
        -11    1    5    5    0    0 -0.14047689188E+02  0.16482752837E+02  0.48290465686E+02  0.52924359125E+02  0.00000000000E+00 0.  1.
          4    1    6    6  503    0 -0.24245782435E+02  0.41742044770E+03 -0.26479819002E+03  0.49491996278E+03  0.00000000000E+00 0. -1.
         -4    1    6    6    0  503  0.23597533220E+02  0.28603841276E+02 -0.24797557090E+02  0.44608767607E+02  0.00000000000E+00 0.  1.
<mgrwt>
<rscale>  0 0.21945096E+04</rscale>
<asrwt>0</asrwt>
<pdfrwt beam="1">  1        2 0.12834061E+00 0.21945096E+04</pdfrwt>
<pdfrwt beam="2">  1       -2 0.22203641E+00 0.21945096E+04</pdfrwt>
<totfact> 0.28556634E+00</totfact>
</mgrwt>
</event>
<event>
12    2  0.3623523E-008  0.1326909E+04  0.7818608E-02  0.9008494E-01
         -2   -1    0    0    0  501 -0.00000000000E+00  0.00000000000E+00  0.23723094818E+03  0.23723094818E+03  0.00000000000E+00 0.  1.
          2   -1    0    0  501    0  0.00000000000E+00 -0.00000000000E+00 -0.18554577891E+04  0.18554577891E+04  0.00000000000E+00 0. -1.
         23    2    1    2    0    0  0.10828283735E+03  0.31456173450E+03 -0.31906829848E+03  0.47004797428E+03  0.92012289115E+02 0.  0.
        254    2    1    2    0    0 -0.10828283735E+03 -0.31456173450E+03 -0.12991585425E+04  0.16226407630E+04  0.91349650776E+03 0.  0.
         23    2    4    4    0    0  0.36863512474E+03 -0.31990023233E+02 -0.33897349095E+03  0.51026799377E+03  0.92494222111E+02 0.  0.
         23    2    4    4    0    0 -0.47691796209E+03 -0.28257171127E+03 -0.96018505151E+03  0.11123727692E+04  0.90112873897E+02 0.  0.
          2    1    3    3  502    0  0.78212366652E+02  0.99757079934E+02 -0.13922463801E+03  0.18828741095E+03  0.00000000000E+00 0. -1.
         -2    1    3    3    0  502  0.30070470694E+02  0.21480465457E+03 -0.17984366047E+03  0.28176056332E+03  0.00000000000E+00 0.  1.
         11    1    5    5    0    0  0.18927960336E+03 -0.58864830709E+02 -0.15203138231E+03  0.24981068382E+03  0.00000000000E+00 0.  1.
        -11    1    5    5    0    0  0.17935552138E+03  0.26874807477E+02 -0.18694210864E+03  0.26045730995E+03  0.00000000000E+00 0. -1.
          3    1    6    6  503    0 -0.34674559239E+03 -0.24734352970E+03 -0.75456654972E+03  0.86647677723E+03  0.00000000000E+00 0. -1.
         -3    1    6    6    0  503 -0.13017236970E+03 -0.35228181569E+02 -0.20561850179E+03  0.24589599202E+03  0.00000000000E+00 0.  1.
<mgrwt>
<rscale>  0 0.13269092E+04</rscale>
<asrwt>0</asrwt>
<pdfrwt beam="1">  1        2 0.28545505E+00 0.13269092E+04</pdfrwt>
<pdfrwt beam="2">  1       -2 0.36497068E-01 0.13269092E+04</pdfrwt>
<totfact> 0.55599456E+01</totfact>
</mgrwt>
</event>
<event>
12    2  0.3623523E-008  0.2422722E+04  0.7818608E-02  0.8431046E-01
          1   -1    0    0  501    0  0.00000000000E+00  0.00000000000E+00  0.16117575597E+04  0.16117575597E+04  0.00000000000E+00 0. -1.
         -1   -1    0    0    0  501 -0.00000000000E+00 -0.00000000000E+00 -0.91043156674E+03  0.91043156674E+03  0.00000000000E+00 0.  1.
         23    2    1    2    0    0  0.68210494759E+02 -0.78811149301E+03  0.99847591870E+03  0.12771338400E+04  0.91347074051E+02 0.  0.
        254    2    1    2    0    0 -0.68210494759E+02  0.78811149301E+03 -0.29714992575E+03  0.12450552865E+04  0.91438076915E+03 0.  0.
         23    2    4    4    0    0  0.17871879001E+03  0.58093492781E+03 -0.55042580918E+03  0.82521112989E+03  0.92623113894E+02 0.  0.
         23    2    4    4    0    0 -0.24692928477E+03  0.20717656520E+03  0.25327588343E+03  0.41984415659E+03  0.90687605810E+02 0.  0.
          2    1    3    3  502    0  0.13064360440E+02 -0.12861302787E+02  0.32454292693E+02  0.37274277153E+02  0.00000000000E+00 0. -1.
         -2    1    3    3    0  502  0.55146134319E+02 -0.77525019022E+03  0.96602162601E+03  0.12398595628E+04  0.00000000000E+00 0.  1.
         11    1    5    5    0    0  0.34886553438E+02  0.25119595420E+03 -0.25590703933E+03  0.36028445955E+03  0.00000000000E+00 0. -1.
        -11    1    5    5    0    0  0.14383223657E+03  0.32973897361E+03 -0.29451876985E+03  0.46492667034E+03  0.00000000000E+00 0.  1.
          1    1    6    6  503    0 -0.21133080991E+03  0.15296989833E+03  0.23818679674E+03  0.35326116565E+03  0.00000000000E+00 0. -1.
         -1    1    6    6    0  503 -0.35598474859E+02  0.54206666869E+02  0.15089086690E+02  0.66582990940E+02  0.00000000000E+00 0.  1.
<mgrwt>
<rscale>  0 0.24227216E+04</rscale>
<asrwt>0</asrwt>
<pdfrwt beam="1">  1        1 0.24796270E+00 0.24227216E+04</pdfrwt>
<pdfrwt beam="2">  1       -1 0.14006639E+00 0.24227216E+04</pdfrwt>
<totfact> 0.20507837E+00</totfact>
</mgrwt>
</event>
<event>
12    2  0.3623523E-008  0.1264568E+04  0.7818608E-02  0.9058145E-01
          1   -1    0    0  501    0  0.00000000000E+00  0.00000000000E+00  0.30721248030E+03  0.30721248030E+03  0.00000000000E+00 0. -1.
         -1   -1    0    0    0  501 -0.00000000000E+00 -0.00000000000E+00 -0.13013233379E+04  0.13013233379E+04  0.00000000000E+00 0.  1.
         23    2    1    2    0    0 -0.10519579060E+03  0.24573586484E+03 -0.43259951173E+03  0.51688279768E+03  0.92591680859E+02 0.  0.
        254    2    1    2    0    0  0.10519579060E+03 -0.24573586484E+03 -0.56151134591E+03  0.10916530206E+04  0.89719510480E+03 0.  0.
         23    2    4    4    0    0 -0.72971686286E+01 -0.56953482228E+03 -0.39568269816E+03  0.69959558203E+03  0.91902221532E+02 0.  0.
         23    2    4    4    0    0  0.11249295923E+03  0.32379895744E+03 -0.16582864775E+03  0.39205743853E+03  0.93324508986E+02 0.  0.
          3    1    3    3  502    0 -0.88011237435E+02  0.22178476452E+03 -0.42339349174E+03  0.48600052319E+03  0.00000000000E+00 0. -1.
         -3    1    3    3    0  502 -0.17184553164E+02  0.23951100316E+02 -0.92060199812E+01  0.30882274490E+02  0.00000000000E+00 0.  1.
         11    1    5    5    0    0 -0.25877208861E+02 -0.68176583157E+02 -0.30417581472E+02  0.79012060421E+02  0.00000000000E+00 0. -1.
        -11    1    5    5    0    0  0.18580040232E+02 -0.50135823912E+03 -0.36526511669E+03  0.62058352161E+03  0.00000000000E+00 0.  1.
          4    1    6    6  503    0  0.81250504125E+02  0.98061261302E+02 -0.57343117220E+02  0.13966348299E+03  0.00000000000E+00 0. -1.
         -4    1    6    6    0  503  0.31242455103E+02  0.22573769613E+03 -0.10848553053E+03  0.25239395554E+03  0.00000000000E+00 0.  1.
<mgrwt>
<rscale>  0 0.12645675E+04</rscale>
<asrwt>0</asrwt>
<pdfrwt beam="1">  1        1 0.47263459E-01 0.12645675E+04</pdfrwt>
<pdfrwt beam="2">  1       -1 0.20020359E+00 0.12645675E+04</pdfrwt>
<totfact> 0.12562071E+01</totfact>
</mgrwt>
</event>
<event>
12    2  0.3623523E-008  0.1932496E+04  0.7818608E-02  0.8638848E-01
          2   -1    0    0  501    0  0.00000000000E+00  0.00000000000E+00  0.59544946341E+03  0.59544946341E+03  0.00000000000E+00 0.  1.
         -2   -1    0    0    0  501 -0.00000000000E+00 -0.00000000000E+00 -0.15679507030E+04  0.15679507030E+04  0.00000000000E+00 0. -1.
         23    2    1    2    0    0  0.85736943626E+02 -0.26415956178E+03 -0.11632528547E+04  0.11993439599E+04  0.90208827553E+02 0.  0.
        254    2    1    2    0    0 -0.85736943626E+02  0.26415956178E+03  0.19075161519E+03  0.96405620645E+03  0.90326468597E+03 0.  0.
         23    2    4    4    0    0 -0.47889219590E+03  0.22564721099E+03  0.83292537910E+02  0.54438150804E+03  0.95703606549E+02 0.  0.
         23    2    4    4    0    0  0.39315525228E+03  0.38512350792E+02  0.10745907728E+03  0.41967469841E+03  0.92331715232E+02 0.  0.
          1    1    3    3  502    0  0.82918826387E+02 -0.26609083482E+03 -0.10598309249E+04  0.10958656183E+04  0.00000000000E+00 0. -1.
         -1    1    3    3    0  502  0.28181172391E+01  0.19312730327E+01 -0.10342192985E+03  0.10347834157E+03  0.00000000000E+00 0.  1.
         11    1    5    5    0    0 -0.62072091918E+02  0.94762164044E+01  0.36214621044E+02  0.72486150745E+02  0.00000000000E+00 0. -1.
        -11    1    5    5    0    0 -0.41682010398E+03  0.21617099459E+03  0.47077916867E+02  0.47189535730E+03  0.00000000000E+00 0.  1.
          4    1    6    6  503    0  0.85362443835E+00  0.95009790256E+01  0.11169096733E+02  0.14688294624E+02  0.00000000000E+00 0. -1.
         -4    1    6    6    0  503  0.39230162784E+03  0.29011371767E+02  0.96289980544E+02  0.40498640378E+03  0.00000000000E+00 0.  1.
<mgrwt>
<rscale>  0 0.19324962E+04</rscale>
<asrwt>0</asrwt>
<pdfrwt beam="1">  1        2 0.91607610E-01 0.19324962E+04</pdfrwt>
<pdfrwt beam="2">  1       -2 0.24122318E+00 0.19324962E+04</pdfrwt>
<totfact> 0.34026441E+00</totfact>
</mgrwt>
</event>
<event>
12    2  0.3623523E-008  0.1525051E+04  0.7818608E-02  0.8867963E-01
         -2   -1    0    0    0  501 -0.00000000000E+00  0.00000000000E+00  0.12134495558E+03  0.12134495558E+03  0.00000000000E+00 0.  1.
          2   -1    0    0  501    0  0.00000000000E+00 -0.00000000000E+00 -0.47916737971E+04  0.47916737971E+04  0.00000000000E+00 0. -1.
         23    2    1    2    0    0  0.19402210302E+03  0.42633315154E+03 -0.10230902373E+04  0.11299687306E+04  0.10349476357E+03 0.  0.
        254    2    1    2    0    0 -0.19402210302E+03 -0.42633315154E+03 -0.36472386042E+04  0.37830500220E+04  0.88865825842E+03 0.  0.
         23    2    4    4    0    0 -0.52812276104E+02 -0.59600248074E+03 -0.14268921064E+04  0.15499201169E+04  0.90681816660E+02 0.  0.
         23    2    4    4    0    0 -0.14120982691E+03  0.16966932920E+03 -0.22203464978E+04  0.22331299051E+04  0.90568792793E+02 0.  0.
          2    1    3    3  502    0  0.20636169597E+03  0.40761067974E+03 -0.96454468810E+03  0.10672760051E+04  0.00000000000E+00 0. -1.
         -2    1    3    3    0  502 -0.12339592949E+02  0.18722471800E+02 -0.58545549172E+02  0.62692725513E+02  0.00000000000E+00 0.  1.
         11    1    5    5    0    0 -0.50850365668E+02 -0.15690839262E+03 -0.34865006987E+03  0.38569790586E+03  0.00000000000E+00 0.  1.
        -11    1    5    5    0    0 -0.19619104361E+01 -0.43909408812E+03 -0.10782420366E+04  0.11642222111E+04  0.00000000000E+00 0. -1.
          2    1    6    6  503    0 -0.12977303347E+03  0.10805222917E+03 -0.13481708188E+04  0.13587055903E+04  0.00000000000E+00 0. -1.
         -2    1    6    6    0  503 -0.11436793445E+02  0.61617100033E+02 -0.87217567899E+03  0.87442431478E+03  0.00000000000E+00 0.  1.
<mgrwt>
<rscale>  0 0.15250514E+04</rscale>
<asrwt>0</asrwt>
<pdfrwt beam="1">  1        2 0.73718058E+00 0.15250514E+04</pdfrwt>
<pdfrwt beam="2">  1       -2 0.18668455E-01 0.15250514E+04</pdfrwt>
<totfact> 0.14764480E+00</totfact>
</mgrwt>
</event>
<event>
12    2  0.3623523E-008  0.1445292E+04  0.7818608E-02  0.8921671E-01
          2   -1    0    0  501    0  0.00000000000E+00  0.00000000000E+00  0.12344259464E+04  0.12344259464E+04  0.00000000000E+00 0.  1.
         -2   -1    0    0    0  501 -0.00000000000E+00 -0.00000000000E+00 -0.42304455999E+03  0.42304455999E+03  0.00000000000E+00 0. -1.
         23    2    1    2    0    0 -0.51590556482E+02  0.30889362084E+03 -0.10026619752E+03  0.34167968488E+03  0.92816174148E+02 0.  0.
        254    2    1    2    0    0  0.51590556482E+02 -0.30889362084E+03  0.91164758387E+03  0.13157908215E+04  0.89561560625E+03 0.  0.
         23    2    4    4    0    0  0.34415313579E+03 -0.33095382244E+03  0.88140110915E+03  0.10065558656E+04  0.91186522722E+02 0.  0.
         23    2    4    4    0    0 -0.29256257931E+03  0.22060201603E+02  0.30246474724E+02  0.30923495585E+03  0.92907983402E+02 0.  0.
          4    1    3    3  502    0 -0.36913295941E+02  0.27990147144E+03 -0.57756408033E+02  0.28817221899E+03  0.00000000000E+00 0. -1.
         -4    1    3    3    0  502 -0.14677260541E+02  0.28992149400E+02 -0.42509789484E+02  0.53507465889E+02  0.00000000000E+00 0.  1.
         11    1    5    5    0    0  0.27207366049E+03 -0.20750756914E+03  0.59197856199E+03  0.68375586713E+03  0.00000000000E+00 0.  1.
        -11    1    5    5    0    0  0.72079475299E+02 -0.12344625330E+03  0.28942254717E+03  0.32279999848E+03  0.00000000000E+00 0. -1.
          3    1    6    6  503    0 -0.19289748095E+03 -0.27425106124E+01 -0.21712206963E+02  0.19413495165E+03  0.00000000000E+00 0. -1.
         -3    1    6    6    0  503 -0.99665098361E+02  0.24802712215E+02  0.51958681687E+02  0.11510000420E+03  0.00000000000E+00 0.  1.
<mgrwt>
<rscale>  0 0.14452919E+04</rscale>
<asrwt>0</asrwt>
<pdfrwt beam="1">  1        2 0.18991168E+00 0.14452919E+04</pdfrwt>
<pdfrwt beam="2">  1       -2 0.65083779E-01 0.14452919E+04</pdfrwt>
<totfact> 0.38159442E+01</totfact>
</mgrwt>
</event>
<event>
12    2  0.3623523E-008  0.1697951E+04  0.7818608E-02  0.8762534E-01
          2   -1    0    0  501    0  0.00000000000E+00  0.00000000000E+00  0.27248762433E+04  0.27248762433E+04  0.00000000000E+00 0. -1.
         -2   -1    0    0    0  501 -0.00000000000E+00 -0.00000000000E+00 -0.26451102192E+03  0.26451102192E+03  0.00000000000E+00 0.  1.
         23    2    1    2    0    0 -0.20927279455E+03 -0.49572424126E+03  0.41944938493E+03  0.68873969006E+03  0.94270611753E+02 0.  0.
        254    2    1    2    0    0  0.20927279455E+03  0.49572424126E+03  0.20409158364E+04  0.23006475751E+04  0.91548030437E+03 0.  0.
         23    2    4    4    0    0  0.29739103312E+03  0.62790765745E+03  0.88321787018E+03  0.11282436467E+04  0.10074952701E+03 0.  0.
         23    2    4    4    0    0 -0.88118238576E+02 -0.13218341619E+03  0.11576979663E+04  0.11724039285E+04  0.95021634015E+02 0.  0.
          3    1    3    3  502    0 -0.19376783966E+02 -0.36856073639E+02  0.70195247709E+02  0.81616191542E+02  0.00000000000E+00 0. -1.
         -3    1    3    3    0  502 -0.18989601058E+03 -0.45886816762E+03  0.34925413722E+03  0.60712349852E+03  0.00000000000E+00 0.  1.
         11    1    5    5    0    0  0.13016573199E+02  0.97702193410E+02  0.15429078249E+03  0.18308685189E+03  0.00000000000E+00 0. -1.
        -11    1    5    5    0    0  0.28437445992E+03  0.53020546404E+03  0.72892708769E+03  0.94515679478E+03  0.00000000000E+00 0.  1.
          3    1    6    6  503    0 -0.30934465852E+02  0.30230592918E+01  0.10451192592E+03  0.10903587816E+03  0.00000000000E+00 0. -1.
         -3    1    6    6    0  503 -0.57183772725E+02 -0.13520647548E+03  0.10531860403E+04  0.10633680503E+04  0.00000000000E+00 0.  1.
<mgrwt>
<rscale>  0 0.16979515E+04</rscale>
<asrwt>0</asrwt>
<pdfrwt beam="1">  1        2 0.41921171E+00 0.16979515E+04</pdfrwt>
<pdfrwt beam="2">  1       -2 0.40694005E-01 0.16979515E+04</pdfrwt>
<totfact> 0.14004647E+01</totfact>
</mgrwt>
</event>
<event>
12    2  0.3623523E-008  0.1949703E+04  0.7818608E-02  0.8630504E-01
         -1   -1    0    0    0  501 -0.00000000000E+00  0.00000000000E+00  0.13380844037E+04  0.13380844037E+04  0.00000000000E+00 0.  1.
          1   -1    0    0  501    0  0.00000000000E+00 -0.00000000000E+00 -0.71022070631E+03  0.71022070631E+03  0.00000000000E+00 0. -1.
         23    2    1    2    0    0  0.37035785323E+03 -0.27556105738E+03  0.96205707081E+03  0.10708536583E+04  0.89860526051E+02 0.  0.
        254    2    1    2    0    0 -0.37035785323E+03  0.27556105738E+03 -0.33419337339E+03  0.97745145178E+03  0.79412045306E+03 0.  0.
         23    2    4    4    0    0 -0.48604539302E+03  0.44098064370E+03 -0.35476598461E+03  0.75194383226E+03  0.94109355762E+02 0.  0.
         23    2    4    4    0    0  0.11568753979E+03 -0.16541958632E+03  0.20572611223E+02  0.22550761951E+03  0.98403291231E+02 0.  0.
          4    1    3    3  502    0  0.26583686320E+03 -0.23828859164E+03  0.68616100534E+03  0.77347761182E+03  0.00000000000E+00 0.  1.
         -4    1    3    3    0  502  0.10452099003E+03 -0.37272465742E+02  0.27589606547E+03  0.29737604645E+03  0.00000000000E+00 0. -1.
         11    1    5    5    0    0 -0.22413833781E+03  0.21480758386E+03 -0.22036795878E+03  0.38071292311E+03  0.00000000000E+00 0. -1.
        -11    1    5    5    0    0 -0.26190705521E+03  0.22617305984E+03 -0.13439802583E+03  0.37123090916E+03  0.00000000000E+00 0.  1.
          2    1    6    6  503    0  0.12762167711E+03 -0.13805776541E+03  0.36732032540E+02  0.19156325658E+03  0.00000000000E+00 0.  1.
         -2    1    6    6    0  503 -0.11934137324E+02 -0.27361820917E+02 -0.16159421317E+02  0.33944362932E+02  0.00000000000E+00 0. -1.
<mgrwt>
<rscale>  0 0.19497028E+04</rscale>
<asrwt>0</asrwt>
<pdfrwt beam="1">  1        1 0.10926472E+00 0.19497028E+04</pdfrwt>
<pdfrwt beam="2">  1       -1 0.20585914E+00 0.19497028E+04</pdfrwt>
<totfact> 0.34052889E+00</totfact>
</mgrwt>
</event>
<event>
12    2  0.3623523E-008  0.3965074E+04  0.7818608E-02  0.8011629E-01
         -2   -1    0    0    0  501 -0.00000000000E+00  0.00000000000E+00  0.14419094778E+04  0.14419094778E+04  0.00000000000E+00 0. -1.
          2   -1    0    0  501    0  0.00000000000E+00 -0.00000000000E+00 -0.27258671482E+04  0.27258671482E+04  0.00000000000E+00 0.  1.
         23    2    1    2    0    0 -0.12314667223E+04 -0.34631600899E+03 -0.20597870864E+04  0.24268371890E+04  0.10183729465E+03 0.  0.
        254    2    1    2    0    0  0.12314667223E+04  0.34631600899E+03  0.77582941591E+03  0.17409394370E+04  0.89023242726E+03 0.  0.
         23    2    4    4    0    0  0.11320491623E+04  0.58973401993E+03  0.64620375287E+03  0.14338123271E+04  0.94429757052E+02 0.  0.
         23    2    4    4    0    0  0.99417560009E+02 -0.24341801094E+03  0.12962566304E+03  0.30712710991E+03  0.91586406411E+02 0.  0.
          4    1    3    3  502    0 -0.90614441581E+02 -0.53534176932E+02 -0.15707275795E+03  0.18907336252E+03  0.00000000000E+00 0. -1.
         -4    1    3    3    0  502 -0.11408522807E+04 -0.29278183206E+03 -0.19027143284E+04  0.22377638265E+04  0.00000000000E+00 0.  1.
         11    1    5    5    0    0  0.10994260208E+04  0.55684063839E+03  0.61051305818E+03  0.13753309660E+04  0.00000000000E+00 0. -1.
        -11    1    5    5    0    0  0.32623141449E+02  0.32893381540E+02  0.35690694695E+02  0.58481361090E+02  0.00000000000E+00 0.  1.
          1    1    6    6  503    0  0.10466862259E+03 -0.23117513830E+03  0.14037957446E+03  0.29000670690E+03  0.00000000000E+00 0. -1.
         -1    1    6    6    0  503 -0.52510625773E+01 -0.12242872638E+02 -0.10753911418E+02  0.17120403015E+02  0.00000000000E+00 0.  1.
<mgrwt>
<rscale>  0 0.39650744E+04</rscale>
<asrwt>0</asrwt>
<pdfrwt beam="1">  1        2 0.41936418E+00 0.39650744E+04</pdfrwt>
<pdfrwt beam="2">  1       -2 0.22183223E+00 0.39650744E+04</pdfrwt>
<totfact> 0.19505525E-01</totfact>
</mgrwt>
</event>
<event>
12    2  0.3623523E-008  0.1785672E+04  0.7818608E-02  0.8713956E-01
         -2   -1    0    0    0  501 -0.00000000000E+00  0.00000000000E+00  0.31844299575E+03  0.31844299575E+03  0.00000000000E+00 0.  1.
          2   -1    0    0  501    0  0.00000000000E+00 -0.00000000000E+00 -0.25032935683E+04  0.25032935683E+04  0.00000000000E+00 0. -1.
         23    2    1    2    0    0  0.36134728513E+03  0.47302298927E+03 -0.12733098968E+04  0.14084333537E+04  0.89687288024E+02 0.  0.
        254    2    1    2    0    0 -0.36134728513E+03 -0.47302298927E+03 -0.91154067581E+03  0.14133032104E+04  0.90121970244E+03 0.  0.
         23    2    4    4    0    0  0.15043915394E+03 -0.51953461969E+03 -0.37025954194E+03  0.66133740806E+03  0.87902666720E+02 0.  0.
         23    2    4    4    0    0 -0.51178643907E+03  0.46511630415E+02 -0.54128113387E+03  0.75196580235E+03  0.91534753200E+02 0.  0.
          4    1    3    3  502    0  0.23027292280E+03  0.27505867552E+03 -0.85939130886E+03  0.93125523660E+03  0.00000000000E+00 0.  1.
         -4    1    3    3    0  502  0.13107436233E+03  0.19796431376E+03 -0.41391858791E+03  0.47717811705E+03  0.00000000000E+00 0. -1.
         11    1    5    5    0    0  0.39695230223E+02 -0.28940730149E+03 -0.18387924037E+03  0.34517223599E+03  0.00000000000E+00 0.  1.
        -11    1    5    5    0    0  0.11074392372E+03 -0.23012731820E+03 -0.18638030157E+03  0.31616517208E+03  0.00000000000E+00 0. -1.
          3    1    6    6  503    0 -0.11501648663E+03 -0.25098947470E+02 -0.10269969964E+03  0.15622412639E+03  0.00000000000E+00 0. -1.
         -3    1    6    6    0  503 -0.39676995244E+03  0.71610577884E+02 -0.43858143423E+03  0.59574167596E+03  0.00000000000E+00 0.  1.
<mgrwt>
<rscale>  0 0.17856722E+04</rscale>
<asrwt>0</asrwt>
<pdfrwt beam="1">  1        2 0.38512210E+00 0.17856722E+04</pdfrwt>
<pdfrwt beam="2">  1       -2 0.48991229E-01 0.17856722E+04</pdfrwt>
<totfact> 0.12938442E+01</totfact>
</mgrwt>
</event>
<event>
12    2  0.3623523E-008  0.1358951E+04  0.7818608E-02  0.8984080E-01
         -2   -1    0    0    0  501 -0.00000000000E+00  0.00000000000E+00  0.69665052252E+03  0.69665052252E+03  0.00000000000E+00 0.  1.
          2   -1    0    0  501    0  0.00000000000E+00 -0.00000000000E+00 -0.66272364297E+03  0.66272364297E+03  0.00000000000E+00 0. -1.
         23    2    1    2    0    0  0.13856966026E+03  0.31603910883E+03 -0.13577358258E+03  0.38171399634E+03  0.90492210826E+02 0.  0.
        254    2    1    2    0    0 -0.13856966026E+03 -0.31603910883E+03  0.16970046214E+03  0.97766016914E+03  0.89885420977E+03 0.  0.
         23    2    4    4    0    0 -0.54162401981E+02 -0.48374018809E+03 -0.21408728262E+03  0.53959108979E+03  0.91580807166E+02 0.  0.
         23    2    4    4    0    0 -0.84407258283E+02  0.16770107926E+03  0.38378774475E+03  0.43806907935E+03  0.96763877674E+02 0.  0.
          1    1    3    3  502    0  0.12832983953E+03  0.31385027656E+03 -0.14401406571E+03  0.36838918949E+03  0.00000000000E+00 0. -1.
         -1    1    3    3    0  502  0.10239820732E+02  0.21888322704E+01  0.82404831324E+01  0.13324806850E+02  0.00000000000E+00 0.  1.
         11    1    5    5    0    0 -0.11217089787E+02 -0.35587901986E+03 -0.18640667702E+03  0.40189942662E+03  0.00000000000E+00 0. -1.
        -11    1    5    5    0    0 -0.42945312194E+02 -0.12786116824E+03 -0.27680605600E+02  0.13769166318E+03  0.00000000000E+00 0.  1.
          3    1    6    6  503    0 -0.10113640537E+03  0.16521888548E+03  0.36099975875E+03  0.40969095478E+03  0.00000000000E+00 0. -1.
         -3    1    6    6    0  503  0.16729147085E+02  0.24821937877E+01  0.22787986004E+02  0.28378124573E+02  0.00000000000E+00 0.  1.
<mgrwt>
<rscale>  0 0.13589507E+04</rscale>
<asrwt>0</asrwt>
<pdfrwt beam="1">  1        2 0.10195748E+00 0.13589507E+04</pdfrwt>
<pdfrwt beam="2">  1       -2 0.10717700E+00 0.13589507E+04</pdfrwt>
<totfact> 0.29980021E+01</totfact>
</mgrwt>
</event>
<event>
12    2  0.3623523E-008  0.1293439E+04  0.7818608E-02  0.9034785E-01
         -2   -1    0    0    0  501 -0.00000000000E+00  0.00000000000E+00  0.29271598098E+03  0.29271598098E+03  0.00000000000E+00 0.  1.
          2   -1    0    0  501    0  0.00000000000E+00 -0.00000000000E+00 -0.14288453638E+04  0.14288453638E+04  0.00000000000E+00 0. -1.
         23    2    1    2    0    0 -0.21413836577E+03  0.22409890701E+03 -0.14617946044E+03  0.35426254292E+03  0.89766111882E+02 0.  0.
        254    2    1    2    0    0  0.21413836577E+03 -0.22409890701E+03 -0.98994992238E+03  0.13672988019E+04  0.89074665588E+03 0.  0.
         23    2    4    4    0    0  0.11960871326E+03 -0.50701923674E+03 -0.89508856190E+03  0.10407136972E+04  0.10259978137E+03 0.  0.
         23    2    4    4    0    0  0.94529652503E+02  0.28292032973E+03 -0.94861360483E+02  0.32658510469E+03  0.93163215485E+02 0.  0.
          4    1    3    3  502    0 -0.97430666846E+02  0.75066146965E+02 -0.14880623288E+02  0.12389146142E+03  0.00000000000E+00 0. -1.
         -4    1    3    3    0  502 -0.11670769892E+03  0.14903276005E+03 -0.13129883716E+03  0.23037108150E+03  0.00000000000E+00 0.  1.
         11    1    5    5    0    0  0.27938403099E+02 -0.58321792484E+02 -0.18281691265E+03  0.19391753247E+03  0.00000000000E+00 0. -1.
        -11    1    5    5    0    0  0.91670310164E+02 -0.44869744425E+03 -0.71227164925E+03  0.84679616471E+03  0.00000000000E+00 0.  1.
          1    1    6    6  503    0 -0.18014555191E+01  0.10489482995E+02  0.14184652652E+02  0.17733551994E+02  0.00000000000E+00 0. -1.
         -1    1    6    6    0  503  0.96331108022E+02  0.27243084673E+03 -0.10904601313E+03  0.30885155270E+03  0.00000000000E+00 0.  1.
<mgrwt>
<rscale>  0 0.12934386E+04</rscale>
<asrwt>0</asrwt>
<pdfrwt beam="1">  1        2 0.21982236E+00 0.12934386E+04</pdfrwt>
<pdfrwt beam="2">  1       -2 0.45033228E-01 0.12934386E+04</pdfrwt>
<totfact> 0.63859484E+01</totfact>
</mgrwt>
</event>
<event>
12    2  0.3623523E-008  0.2246506E+04  0.7818608E-02  0.8499317E-01
          1   -1    0    0  501    0  0.00000000000E+00  0.00000000000E+00  0.70118551023E+03  0.70118551023E+03  0.00000000000E+00 0.  1.
         -1   -1    0    0    0  501 -0.00000000000E+00 -0.00000000000E+00 -0.17993766266E+04  0.17993766266E+04  0.00000000000E+00 0. -1.
         23    2    1    2    0    0  0.44717565094E+03 -0.86303278923E+02 -0.13408352127E+04  0.14189223458E+04  0.89929067520E+02 0.  0.
        254    2    1    2    0    0 -0.44717565094E+03  0.86303278923E+02  0.24264409630E+03  0.10816397910E+04  0.95060725922E+03 0.  0.
         23    2    4    4    0    0 -0.53594634356E+03 -0.26765767242E+03  0.33744635771E+03  0.69372687595E+03  0.92237851745E+02 0.  0.
         23    2    4    4    0    0  0.88770692622E+02  0.35396095135E+03 -0.94802261413E+02  0.38791291506E+03  0.91216061929E+02 0.  0.
          3    1    3    3  502    0  0.28093269987E+03 -0.95420677429E+02 -0.81262935594E+03  0.86509812025E+03  0.00000000000E+00 0. -1.
         -3    1    3    3    0  502  0.16624295106E+03  0.91173985054E+01 -0.52820585675E+03  0.55382422558E+03  0.00000000000E+00 0.  1.
         11    1    5    5    0    0 -0.44111498489E+03 -0.25312167027E+03  0.26479892115E+03  0.57338597689E+03  0.00000000000E+00 0. -1.
        -11    1    5    5    0    0 -0.94831358671E+02 -0.14536002151E+02  0.72647436563E+02  0.12034089905E+03  0.00000000000E+00 0.  1.
          2    1    6    6  503    0  0.26483531109E+02  0.27016522665E+03 -0.61730522521E+02  0.27839052520E+03  0.00000000000E+00 0. -1.
         -2    1    6    6    0  503  0.62287161513E+02  0.83795724694E+02 -0.33071738892E+02  0.10952238986E+03  0.00000000000E+00 0.  1.
<mgrwt>
<rscale>  0 0.22465056E+04</rscale>
<asrwt>0</asrwt>
<pdfrwt beam="1">  1        1 0.10787470E+00 0.22465056E+04</pdfrwt>
<pdfrwt beam="2">  1       -1 0.27682717E+00 0.22465056E+04</pdfrwt>
<totfact> 0.11515545E+00</totfact>
</mgrwt>
</event>
<event>
12    2  0.3623523E-008  0.1868292E+04  0.7818608E-02  0.8670803E-01
         -2   -1    0    0    0  501 -0.00000000000E+00  0.00000000000E+00  0.38517270780E+03  0.38517270780E+03  0.00000000000E+00 0.  1.
          2   -1    0    0  501    0  0.00000000000E+00 -0.00000000000E+00 -0.22655511700E+04  0.22655511700E+04  0.00000000000E+00 0. -1.
         23    2    1    2    0    0 -0.54975079425E+03 -0.21120962659E+03 -0.12901225120E+04  0.14211499116E+04  0.91736214011E+02 0.  0.
        254    2    1    2    0    0  0.54975079425E+03  0.21120962659E+03 -0.59025595015E+03  0.12295739662E+04  0.90366731134E+03 0.  0.
         23    2    4    4    0    0  0.29212791905E+03 -0.27587622070E+03 -0.52485639244E+03  0.66720342597E+03  0.90773171765E+02 0.  0.
         23    2    4    4    0    0  0.25762287520E+03  0.48708584729E+03 -0.65399557711E+02  0.56237054025E+03  0.91440439277E+02 0.  0.
          2    1    3    3  502    0 -0.51524775111E+03 -0.19438541450E+03 -0.11377680982E+04  0.12640340896E+04  0.00000000000E+00 0. -1.
         -2    1    3    3    0  502 -0.34503043138E+02 -0.16824212089E+02 -0.15235441384E+03  0.15711582197E+03  0.00000000000E+00 0.  1.
         11    1    5    5    0    0  0.47205004884E+02 -0.62496295796E+01 -0.64132456989E+02  0.79877045485E+02  0.00000000000E+00 0.  1.
        -11    1    5    5    0    0  0.24492291416E+03 -0.26962659112E+03 -0.46072393545E+03  0.58732638049E+03  0.00000000000E+00 0. -1.
          1    1    6    6  503    0  0.16137752786E+03  0.20889478007E+03 -0.23111372121E+02  0.26497900136E+03  0.00000000000E+00 0. -1.
         -1    1    6    6    0  503  0.96245347345E+02  0.27819106721E+03 -0.42288185589E+02  0.29739153889E+03  0.00000000000E+00 0.  1.
<mgrwt>
<rscale>  0 0.18682917E+04</rscale>
<asrwt>0</asrwt>
<pdfrwt beam="1">  1        2 0.34854634E+00 0.18682917E+04</pdfrwt>
<pdfrwt beam="2">  1       -2 0.59257339E-01 0.18682917E+04</pdfrwt>
<totfact> 0.11843084E+01</totfact>
</mgrwt>
</event>
<event>
12    2  0.3623523E-008  0.1322021E+04  0.7818608E-02  0.9012282E-01
          1   -1    0    0  501    0  0.00000000000E+00  0.00000000000E+00  0.23441538165E+04  0.23441538165E+04  0.00000000000E+00 0. -1.
         -1   -1    0    0    0  501 -0.00000000000E+00 -0.00000000000E+00 -0.18639346097E+03  0.18639346097E+03  0.00000000000E+00 0.  1.
         23    2    1    2    0    0  0.10975571158E+03  0.19530924695E+03  0.63049380081E+02  0.24925742248E+03  0.89230152773E+02 0.  0.
        254    2    1    2    0    0 -0.10975571158E+03 -0.19530924695E+03  0.20947109755E+04  0.22812898550E+04  0.87537267128E+03 0.  0.
         23    2    4    4    0    0  0.12335096542E+03  0.30219404176E+03  0.64788051796E+03  0.73119611739E+03  0.91443408658E+02 0.  0.
         23    2    4    4    0    0 -0.23310667700E+03 -0.49750328871E+03  0.14468304575E+04  0.15500937376E+04  0.87315390832E+02 0.  0.
          1    1    3    3  502    0  0.93704294803E+02  0.89165999637E+02  0.10607680497E+02  0.12978286960E+03  0.00000000000E+00 0. -1.
         -1    1    3    3    0  502  0.16051416776E+02  0.10614324731E+03  0.52441699583E+02  0.11947455288E+03  0.00000000000E+00 0.  1.
         11    1    5    5    0    0  0.13726336549E+03  0.27358157961E+03  0.60225363360E+03  0.67557201792E+03  0.00000000000E+00 0. -1.
        -11    1    5    5    0    0 -0.13912400064E+02  0.28612462146E+02  0.45626884358E+02  0.55624099470E+02  0.00000000000E+00 0.  1.
          2    1    6    6  503    0 -0.20655857198E+03 -0.35348413257E+03  0.10377727143E+04  0.11156117972E+04  0.00000000000E+00 0. -1.
         -2    1    6    6    0  503 -0.26548105020E+02 -0.14401915614E+03  0.40905774327E+03  0.43448194041E+03  0.00000000000E+00 0.  1.
<mgrwt>
<rscale>  0 0.13220211E+04</rscale>
<asrwt>0</asrwt>
<pdfrwt beam="1">  1        1 0.36063903E+00 0.13220211E+04</pdfrwt>
<pdfrwt beam="2">  1       -1 0.28675919E-01 0.13220211E+04</pdfrwt>
<totfact> 0.18863234E+01</totfact>
</mgrwt>
</event>
<event>
12    2  0.3623523E-008  0.1674444E+04  0.7818608E-02  0.8776076E-01
         -2   -1    0    0    0  501 -0.00000000000E+00  0.00000000000E+00  0.42231560096E+03  0.42231560096E+03  0.00000000000E+00 0. -1.
          2   -1    0    0  501    0  0.00000000000E+00 -0.00000000000E+00 -0.16597557289E+04  0.16597557289E+04  0.00000000000E+00 0.  1.
         23    2    1    2    0    0 -0.35401178031E+03 -0.38029962786E+03 -0.87735229982E+02  0.53506111558E+03  0.92955792074E+02 0.  0.
        254    2    1    2    0    0  0.35401178031E+03  0.38029962786E+03 -0.11497048980E+04  0.15470102143E+04  0.89524695092E+03 0.  0.
         23    2    4    4    0    0  0.20985439267E+03 -0.12426656467E+03 -0.93918120953E+03  0.97456401900E+03  0.90733883353E+02 0.  0.
         23    2    4    4    0    0  0.14415738764E+03  0.50456619253E+03 -0.21052368843E+03  0.57244619527E+03  0.89476410478E+02 0.  0.
          2    1    3    3  502    0 -0.33113830020E+03 -0.38046826267E+03 -0.78818760604E+02  0.51051059713E+03  0.00000000000E+00 0. -1.
         -2    1    3    3    0  502 -0.22873480107E+02  0.16863481435E+00 -0.89164693778E+01  0.24550518448E+02  0.00000000000E+00 0.  1.
         11    1    5    5    0    0  0.89040024833E+02 -0.35794656696E+01 -0.29881019344E+03  0.31181480128E+03  0.00000000000E+00 0.  1.
        -11    1    5    5    0    0  0.12081436783E+03 -0.12068709900E+03 -0.64037101609E+03  0.66274921772E+03  0.00000000000E+00 0. -1.
          2    1    6    6  503    0 -0.12538113381E+02  0.29484773407E+02 -0.14212612235E+02  0.35050741740E+02  0.00000000000E+00 0.  1.
         -2    1    6    6    0  503  0.15669550102E+03  0.47508141912E+03 -0.19631107620E+03  0.53739545353E+03  0.00000000000E+00 0. -1.
<mgrwt>
<rscale>  0 0.16744441E+04</rscale>
<asrwt>0</asrwt>
<pdfrwt beam="1">  1        2 0.25534704E+00 0.16744441E+04</pdfrwt>
<pdfrwt beam="2">  1       -2 0.64971630E-01 0.16744441E+04</pdfrwt>
<totfact> 0.21512803E+01</totfact>
</mgrwt>
</event>
<event>
12    2  0.3623523E-008  0.1382965E+04  0.7818608E-02  0.8966242E-01
         -1   -1    0    0    0  501 -0.00000000000E+00  0.00000000000E+00  0.18842625558E+03  0.18842625558E+03  0.00000000000E+00 0.  1.
          1   -1    0    0  501    0  0.00000000000E+00 -0.00000000000E+00 -0.25375870630E+04  0.25375870630E+04  0.00000000000E+00 0. -1.
         23    2    1    2    0    0 -0.17621879367E+03  0.33013422298E+03 -0.45812457549E+03  0.59839227319E+03  0.90296830028E+02 0.  0.
        254    2    1    2    0    0  0.17621879367E+03 -0.33013422298E+03 -0.18910362319E+04  0.21276210454E+04  0.90039525429E+03 0.  0.
         23    2    4    4    0    0  0.37205505028E+03  0.72385574013E+02 -0.14154573334E+04  0.14681453107E+04  0.90920619838E+02 0.  0.
         23    2    4    4    0    0 -0.19583625661E+03 -0.40251979700E+03 -0.47557889858E+03  0.65947573467E+03  0.91427181255E+02 0.  0.
          2    1    3    3  502    0 -0.85560773973E-01  0.13556428938E+02 -0.53918948402E+02  0.55597095994E+02  0.00000000000E+00 0. -1.
         -2    1    3    3    0  502 -0.17613323289E+03  0.31657779404E+03 -0.40420562709E+03  0.54279517719E+03  0.00000000000E+00 0.  1.
         11    1    5    5    0    0  0.14134581627E+03  0.27004439160E+02 -0.38019202129E+03  0.40651427104E+03  0.00000000000E+00 0.  1.
        -11    1    5    5    0    0  0.23070923400E+03  0.45381134852E+02 -0.10352653121E+04  0.10616310397E+04  0.00000000000E+00 0. -1.
          2    1    6    6  503    0 -0.16231678827E+03 -0.27176485076E+03 -0.28504996183E+03  0.42597694140E+03  0.00000000000E+00 0. -1.
         -2    1    6    6    0  503 -0.33519468343E+02 -0.13075494623E+03 -0.19052893674E+03  0.23349879327E+03  0.00000000000E+00 0.  1.
<mgrwt>
<rscale>  0 0.13829650E+04</rscale>
<asrwt>0</asrwt>
<pdfrwt beam="1">  1        1 0.39039800E+00 0.13829650E+04</pdfrwt>
<pdfrwt beam="2">  1       -1 0.28988655E-01 0.13829650E+04</pdfrwt>
<totfact> 0.13549945E+01</totfact>
</mgrwt>
</event>
<event>
12    2  0.3623523E-008  0.1566479E+04  0.7818608E-02  0.8841410E-01
         -1   -1    0    0    0  501 -0.00000000000E+00  0.00000000000E+00  0.60269669717E+03  0.60269669717E+03  0.00000000000E+00 0.  1.
          1   -1    0    0  501    0  0.00000000000E+00 -0.00000000000E+00 -0.10178655778E+04  0.10178655778E+04  0.00000000000E+00 0. -1.
         23    2    1    2    0    0 -0.18889046979E+03 -0.28047439543E+03 -0.55377999277E+03  0.65605999834E+03  0.96937840698E+02 0.  0.
        254    2    1    2    0    0  0.18889046979E+03  0.28047439543E+03  0.13861111212E+03  0.96450227665E+03  0.89258394854E+03 0.  0.
         23    2    4    4    0    0  0.40984025907E+03 -0.12216345615E+03  0.21853354791E+03  0.48881875007E+03  0.91070911315E+02 0.  0.
         23    2    4    4    0    0 -0.22094978927E+03  0.40263785158E+03 -0.79922435791E+02  0.47568352658E+03  0.94610637936E+02 0.  0.
          4    1    3    3  502    0 -0.64343862950E+02 -0.14327784692E+03 -0.33038828877E+03  0.36582112497E+03  0.00000000000E+00 0. -1.
         -4    1    3    3    0  502 -0.12454660684E+03 -0.13719654851E+03 -0.22339170400E+03  0.29023887337E+03  0.00000000000E+00 0.  1.
         11    1    5    5    0    0  0.27585017940E+03 -0.84583243999E+02  0.19355295692E+03  0.34743401355E+03  0.00000000000E+00 0.  1.
        -11    1    5    5    0    0  0.13399007967E+03 -0.37580212149E+02  0.24980590994E+02  0.14138473652E+03  0.00000000000E+00 0. -1.
          1    1    6    6  503    0 -0.21859388131E+03  0.33843300812E+03 -0.54375181886E+02  0.40654255169E+03  0.00000000000E+00 0. -1.
         -1    1    6    6    0  503 -0.23559079621E+01  0.64204843460E+02 -0.25547253905E+02  0.69140974885E+02  0.00000000000E+00 0.  1.
<mgrwt>
<rscale>  0 0.15664791E+04</rscale>
<asrwt>0</asrwt>
<pdfrwt beam="1">  1        1 0.15659470E+00 0.15664791E+04</pdfrwt>
<pdfrwt beam="2">  1       -1 0.92722569E-01 0.15664791E+04</pdfrwt>
<totfact> 0.15943374E+01</totfact>
</mgrwt>
</event>
<event>
12    2  0.3623523E-008  0.1412077E+04  0.7818608E-02  0.8945123E-01
          2   -1    0    0  501    0  0.00000000000E+00  0.00000000000E+00  0.66614128330E+03  0.66614128330E+03  0.00000000000E+00 0.  1.
         -2   -1    0    0    0  501 -0.00000000000E+00 -0.00000000000E+00 -0.74832485158E+03  0.74832485158E+03  0.00000000000E+00 0. -1.
         23    2    1    2    0    0 -0.33627241161E+03  0.21892526572E+03 -0.24209247942E+02  0.41399441578E+03  0.98984250444E+02 0.  0.
        254    2    1    2    0    0  0.33627241161E+03 -0.21892526572E+03 -0.57974320337E+02  0.10004717191E+04  0.91464486666E+03 0.  0.
         23    2    4    4    0    0 -0.39068625847E+02 -0.46105135167E+03 -0.21440348689E+03  0.51836107586E+03  0.92922781768E+02 0.  0.
         23    2    4    4    0    0  0.37534103745E+03  0.24212608595E+03  0.15642916656E+03  0.48211064324E+03  0.91949183121E+02 0.  0.
          4    1    3    3  502    0 -0.91482096964E+02  0.70498723268E+02 -0.51432164679E+02  0.12642907739E+03  0.00000000000E+00 0. -1.
         -4    1    3    3    0  502 -0.24479031464E+03  0.14842654245E+03  0.27222916737E+02  0.28756533839E+03  0.00000000000E+00 0.  1.
         11    1    5    5    0    0 -0.65204993621E+01 -0.61962737748E+01 -0.21339559998E+02  0.23157882924E+02  0.00000000000E+00 0.  1.
        -11    1    5    5    0    0 -0.32548126485E+02 -0.45485507789E+03 -0.19306392689E+03  0.49520319293E+03  0.00000000000E+00 0. -1.
          3    1    6    6  503    0  0.17351950274E+03  0.14671618820E+03  0.41376246747E+02  0.23096894056E+03  0.00000000000E+00 0. -1.
         -3    1    6    6    0  503  0.20182153472E+03  0.95409897750E+02  0.11505291981E+03  0.25114170267E+03  0.00000000000E+00 0.  1.
<mgrwt>
<rscale>  0 0.14120766E+04</rscale>
<asrwt>0</asrwt>
<pdfrwt beam="1">  1        2 0.10248327E+00 0.14120766E+04</pdfrwt>
<pdfrwt beam="2">  1       -2 0.11512690E+00 0.14120766E+04</pdfrwt>
<totfact> 0.24938275E+01</totfact>
</mgrwt>
</event>
<event>
12    2  0.3623523E-008  0.1298407E+04  0.7818608E-02  0.9030830E-01
          1   -1    0    0  501    0  0.00000000000E+00  0.00000000000E+00  0.27194435056E+04  0.27194435056E+04  0.00000000000E+00 0. -1.
         -1   -1    0    0    0  501 -0.00000000000E+00 -0.00000000000E+00 -0.15498203851E+03  0.15498203851E+03  0.00000000000E+00 0.  1.
         23    2    1    2    0    0  0.23232475633E+02 -0.31765566144E+03  0.67408280846E+03  0.75123763105E+03  0.92333517626E+02 0.  0.
        254    2    1    2    0    0 -0.23232475633E+02  0.31765566144E+03  0.18903786587E+04  0.21231879131E+04  0.91266125920E+03 0.  0.
         23    2    4    4    0    0  0.32020511617E+03  0.47540547622E+03  0.11265049533E+04  0.12664671821E+04  0.79900127415E+02 0.  0.
         23    2    4    4    0    0 -0.34343759180E+03 -0.15774981479E+03  0.76387370536E+03  0.85672073097E+03  0.87366982348E+02 0.  0.
          4    1    3    3  502    0  0.18530868856E+02 -0.10580720602E+03  0.13860055133E+03  0.17535298907E+03  0.00000000000E+00 0.  1.
         -4    1    3    3    0  502  0.47016067764E+01 -0.21184845542E+03  0.53548225713E+03  0.57588464198E+03  0.00000000000E+00 0. -1.
         11    1    5    5    0    0  0.25665570309E+02  0.82852632865E+02  0.20034010850E+03  0.21831041970E+03  0.00000000000E+00 0. -1.
        -11    1    5    5    0    0  0.29453954586E+03  0.39255284336E+03  0.92616484478E+03  0.10481567624E+04  0.00000000000E+00 0.  1.
          4    1    6    6  503    0 -0.81161246093E+02 -0.31536578188E+01  0.20091980101E+03  0.21671608123E+03  0.00000000000E+00 0. -1.
         -4    1    6    6    0  503 -0.26227634570E+03 -0.15459615697E+03  0.56295390435E+03  0.64000464974E+03  0.00000000000E+00 0.  1.
<mgrwt>
<rscale>  0 0.12984066E+04</rscale>
<asrwt>0</asrwt>
<pdfrwt beam="1">  1        1 0.41837589E+00 0.12984066E+04</pdfrwt>
<pdfrwt beam="2">  1       -1 0.23843393E-01 0.12984066E+04</pdfrwt>
<totfact> 0.14290331E+01</totfact>
</mgrwt>
</event>
<event>
12    2  0.3623523E-008  0.1255531E+04  0.7818608E-02  0.9065593E-01
         -2   -1    0    0    0  501 -0.00000000000E+00  0.00000000000E+00  0.64467518585E+03  0.64467518585E+03  0.00000000000E+00 0.  1.
          2   -1    0    0  501    0  0.00000000000E+00 -0.00000000000E+00 -0.61129900136E+03  0.61129900136E+03  0.00000000000E+00 0. -1.
         23    2    1    2    0    0 -0.29772653119E+03 -0.34336099951E+02  0.11173216873E+02  0.31380770042E+03  0.92360039706E+02 0.  0.
        254    2    1    2    0    0  0.29772653119E+03  0.34336099951E+02  0.22202967613E+02  0.94216648678E+03  0.89295277698E+03 0.  0.
         23    2    4    4    0    0 -0.29063850106E+02  0.30554093306E+03  0.29027519928E+03  0.43224466342E+03  0.91519334457E+02 0.  0.
         23    2    4    4    0    0  0.32679038130E+03 -0.27120483311E+03 -0.26807223167E+03  0.50992182336E+03  0.88394172517E+02 0.  0.
          1    1    3    3  502    0 -0.21298481754E+03 -0.54853140940E+02 -0.20854062857E+02  0.22092146005E+03  0.00000000000E+00 0. -1.
         -1    1    3    3    0  502 -0.84741713653E+02  0.20517040989E+02  0.32027279730E+02  0.92886240373E+02  0.00000000000E+00 0.  1.
         11    1    5    5    0    0 -0.37428022935E+02  0.29859875397E+03  0.29404192471E+03  0.42074068767E+03  0.00000000000E+00 0.  1.
        -11    1    5    5    0    0  0.83641728291E+01  0.69421790884E+01 -0.37667254282E+01  0.11503975750E+02  0.00000000000E+00 0. -1.
          2    1    6    6  503    0  0.18064748765E+03 -0.17269072039E+03 -0.10952975355E+03  0.27285960972E+03  0.00000000000E+00 0. -1.
         -2    1    6    6    0  503  0.14614289365E+03 -0.98514112723E+02 -0.15854247812E+03  0.23706221364E+03  0.00000000000E+00 0.  1.
<mgrwt>
<rscale>  0 0.12555306E+04</rscale>
<asrwt>0</asrwt>
<pdfrwt beam="1">  1        2 0.94046000E-01 0.12555306E+04</pdfrwt>
<pdfrwt beam="2">  1       -2 0.99180798E-01 0.12555306E+04</pdfrwt>
<totfact> 0.40157948E+01</totfact>
</mgrwt>
</event>
<event>
12    2  0.3623523E-008  0.1355415E+04  0.7818608E-02  0.8986739E-01
          1   -1    0    0  501    0  0.00000000000E+00  0.00000000000E+00  0.41817181128E+03  0.41817181128E+03  0.00000000000E+00 0. -1.
         -1   -1    0    0    0  501 -0.00000000000E+00 -0.00000000000E+00 -0.10983226884E+04  0.10983226884E+04  0.00000000000E+00 0.  1.
         23    2    1    2    0    0 -0.31655707767E+03 -0.21147852157E+02 -0.41113230684E+03  0.52719614781E+03  0.90831654561E+02 0.  0.
        254    2    1    2    0    0  0.31655707767E+03  0.21147852157E+02 -0.26901857026E+03  0.98929835185E+03  0.89759936650E+03 0.  0.
         23    2    4    4    0    0 -0.23757190017E+03 -0.96831537735E+02  0.11820473466E+03  0.29701559886E+03  0.91810414568E+02 0.  0.
         23    2    4    4    0    0  0.55412897783E+03  0.11797938989E+03 -0.38722330492E+03  0.69228275298E+03  0.91298749633E+02 0.  0.
          3    1    3    3  502    0  0.15086474305E+01 -0.37590281851E+01 -0.30912397545E+02  0.31176635995E+02  0.00000000000E+00 0. -1.
         -3    1    3    3    0  502 -0.31806572510E+03 -0.17388823972E+02 -0.38021990929E+03  0.49601951182E+03  0.00000000000E+00 0.  1.
         11    1    5    5    0    0 -0.87270144344E+02  0.63954313903E+01  0.58068630901E+02  0.10501878656E+03  0.00000000000E+00 0. -1.
        -11    1    5    5    0    0 -0.15030175582E+03 -0.10322696913E+03  0.60136103761E+02  0.19199681230E+03  0.00000000000E+00 0.  1.
          3    1    6    6  503    0  0.52185847902E+03  0.98956307234E+02 -0.38244904743E+03  0.65451959233E+03  0.00000000000E+00 0. -1.
         -3    1    6    6    0  503  0.32270498817E+02  0.19023082658E+02 -0.47742574920E+01  0.37763160651E+02  0.00000000000E+00 0.  1.
<mgrwt>
<rscale>  0 0.13554152E+04</rscale>
<asrwt>0</asrwt>
<pdfrwt beam="1">  1        1 0.64334126E-01 0.13554152E+04</pdfrwt>
<pdfrwt beam="2">  1       -1 0.16897272E+00 0.13554152E+04</pdfrwt>
<totfact> 0.13848776E+01</totfact>
</mgrwt>
</event>
<event>
12    2  0.3623523E-008  0.2242068E+04  0.7818608E-02  0.8501120E-01
         -2   -1    0    0    0  501 -0.00000000000E+00  0.00000000000E+00  0.10330296011E+04  0.10330296011E+04  0.00000000000E+00 0.  1.
          2   -1    0    0  501    0  0.00000000000E+00 -0.00000000000E+00 -0.12165357060E+04  0.12165357060E+04  0.00000000000E+00 0. -1.
         23    2    1    2    0    0  0.91121404229E+03 -0.20893877059E+03 -0.13263859026E+03  0.95150884116E+03  0.11751441810E+03 0.  0.
        254    2    1    2    0    0 -0.91121404229E+03  0.20893877059E+03 -0.50867514592E+02  0.12980564659E+04  0.89910880542E+03 0.  0.
         23    2    4    4    0    0 -0.24829158493E+03  0.49370499373E+03  0.56754353734E+02  0.56303431376E+03  0.91614681252E+02 0.  0.
         23    2    4    4    0    0 -0.66292245736E+03 -0.28476622314E+03 -0.10762186833E+03  0.73502215217E+03  0.90095012800E+02 0.  0.
          1    1    3    3  502    0  0.85440602533E+02  0.14275774926E+02 -0.17646713600E+02  0.88404190013E+02  0.00000000000E+00 0. -1.
         -1    1    3    3    0  502  0.82577343975E+03 -0.22321454552E+03 -0.11499187666E+03  0.86310465115E+03  0.00000000000E+00 0.  1.
         11    1    5    5    0    0 -0.18003655126E+03  0.38607790099E+03  0.80129775584E+02  0.43346290079E+03  0.00000000000E+00 0. -1.
        -11    1    5    5    0    0 -0.68255033674E+02  0.10762709274E+03 -0.23375421851E+02  0.12957141297E+03  0.00000000000E+00 0.  1.
          4    1    6    6  503    0 -0.28937623996E+03 -0.12062032663E+03 -0.91891988870E+02  0.32669865177E+03  0.00000000000E+00 0. -1.
         -4    1    6    6    0  503 -0.37354621740E+03 -0.16414589651E+03 -0.15729879456E+02  0.40832350040E+03  0.00000000000E+00 0.  1.
<mgrwt>
<rscale>  0 0.22420681E+04</rscale>
<asrwt>0</asrwt>
<pdfrwt beam="1">  1        2 0.18715934E+00 0.22420681E+04</pdfrwt>
<pdfrwt beam="2">  1       -2 0.15892763E+00 0.22420681E+04</pdfrwt>
<totfact> 0.43270438E+00</totfact>
</mgrwt>
</event>
<event>
12    2  0.3623523E-008  0.1514515E+04  0.7818608E-02  0.8874858E-01
          2   -1    0    0  501    0  0.00000000000E+00  0.00000000000E+00  0.87571741148E+03  0.87571741148E+03  0.00000000000E+00 0. -1.
         -2   -1    0    0    0  501 -0.00000000000E+00 -0.00000000000E+00 -0.65482154604E+03  0.65482154604E+03  0.00000000000E+00 0.  1.
         23    2    1    2    0    0 -0.21191962803E+03  0.12172144548E+03  0.49319152144E+03  0.55784318609E+03  0.90692361385E+02 0.  0.
        254    2    1    2    0    0  0.21191962803E+03 -0.12172144548E+03 -0.27229565600E+03  0.97269577143E+03  0.90125806540E+03 0.  0.
         23    2    4    4    0    0  0.20519931449E+03 -0.26174255722E+03 -0.54959458381E+03  0.64902401088E+03  0.92531266159E+02 0.  0.
         23    2    4    4    0    0  0.67203135408E+01  0.14002111174E+03  0.27729892781E+03  0.32367176055E+03  0.90651193398E+02 0.  0.
          3    1    3    3  502    0 -0.21080857225E+03  0.10422659971E+03  0.40848867722E+03  0.47134534859E+03  0.00000000000E+00 0. -1.
         -3    1    3    3    0  502 -0.11110557832E+01  0.17494845764E+02  0.84702844219E+02  0.86497837499E+02  0.00000000000E+00 0.  1.
         11    1    5    5    0    0  0.20176375560E+03 -0.26448180961E+03 -0.55163909211E+03  0.64417771510E+03  0.00000000000E+00 0. -1.
        -11    1    5    5    0    0  0.34355588917E+01  0.27392523943E+01  0.20445082994E+01  0.48462957776E+01  0.00000000000E+00 0.  1.
          2    1    6    6  503    0 -0.35291472838E+02  0.10005354228E+03  0.20647380097E+03  0.23213709283E+03  0.00000000000E+00 0. -1.
         -2    1    6    6    0  503  0.42011786379E+02  0.39967569461E+02  0.70825126838E+02  0.91534667722E+02  0.00000000000E+00 0.  1.
<mgrwt>
<rscale>  0 0.15145146E+04</rscale>
<asrwt>0</asrwt>
<pdfrwt beam="1">  1        2 0.13472576E+00 0.15145146E+04</pdfrwt>
<pdfrwt beam="2">  1       -2 0.10074178E+00 0.15145146E+04</pdfrwt>
<totfact> 0.23866828E+01</totfact>
</mgrwt>
</event>
<event>
12    2  0.3623523E-008  0.1407476E+04  0.7818608E-02  0.8948425E-01
          1   -1    0    0  501    0  0.00000000000E+00  0.00000000000E+00  0.10090142903E+04  0.10090142903E+04  0.00000000000E+00 0. -1.
         -1   -1    0    0    0  501 -0.00000000000E+00 -0.00000000000E+00 -0.49082298590E+03  0.49082298590E+03  0.00000000000E+00 0.  1.
         23    2    1    2    0    0 -0.20819606772E+03 -0.89880111547E+02  0.51967506628E+03  0.57478842186E+03  0.94316055518E+02 0.  0.
        254    2    1    2    0    0  0.20819606772E+03  0.89880111547E+02 -0.14837618449E+01  0.92504885437E+03  0.89682169039E+03 0.  0.
         23    2    4    4    0    0  0.19934192686E+03 -0.33337635886E+03 -0.20275826067E+03  0.44774039927E+03  0.92106201818E+02 0.  0.
         23    2    4    4    0    0  0.88541408570E+01  0.42325647040E+03  0.20127449883E+03  0.47730845510E+03  0.89930539216E+02 0.  0.
          1    1    3    3  502    0 -0.72680110747E+02 -0.69877990668E+02  0.29383357074E+03  0.31065012373E+03  0.00000000000E+00 0. -1.
         -1    1    3    3    0  502 -0.13551595697E+03 -0.20002120879E+02  0.22584149554E+03  0.26413829813E+03  0.00000000000E+00 0.  1.
         11    1    5    5    0    0  0.10228633822E+03 -0.97260197086E+02 -0.97817274613E+02  0.17172728420E+03  0.00000000000E+00 0.  1.
        -11    1    5    5    0    0  0.97055588641E+02 -0.23611616177E+03 -0.10494098606E+03  0.27601311507E+03  0.00000000000E+00 0. -1.
          3    1    6    6  503    0  0.39038381523E+02  0.18579461558E+03  0.58822541699E+02  0.19875544225E+03  0.00000000000E+00 0. -1.
         -3    1    6    6    0  503 -0.30184240666E+02  0.23746185482E+03  0.14245195713E+03  0.27855301285E+03  0.00000000000E+00 0.  1.
<mgrwt>
<rscale>  0 0.14074763E+04</rscale>
<asrwt>0</asrwt>
<pdfrwt beam="1">  1        1 0.15523297E+00 0.14074763E+04</pdfrwt>
<pdfrwt beam="2">  1       -1 0.75511228E-01 0.14074763E+04</pdfrwt>
<totfact> 0.25576963E+01</totfact>
</mgrwt>
</event>
<event>
12    2  0.3623523E-008  0.2411514E+04  0.7818608E-02  0.8435205E-01
          1   -1    0    0  501    0  0.00000000000E+00  0.00000000000E+00  0.20046747705E+04  0.20046747705E+04  0.00000000000E+00 0. -1.
         -1   -1    0    0    0  501 -0.00000000000E+00 -0.00000000000E+00 -0.72522997660E+03  0.72522997660E+03  0.00000000000E+00 0.  1.
         23    2    1    2    0    0 -0.16299905135E+03 -0.36652015485E+03 -0.52917877406E+03  0.67003785814E+03  0.89525648685E+02 0.  0.
        254    2    1    2    0    0  0.16299905135E+03  0.36652015485E+03  0.18086235680E+04  0.20598668890E+04  0.90057019438E+03 0.  0.
         23    2    4    4    0    0  0.41918467716E+03  0.51214021377E+03  0.13583713829E+04  0.15137975819E+04  0.91689220262E+02 0.  0.
         23    2    4    4    0    0 -0.25618562581E+03 -0.14562005891E+03  0.45025218511E+03  0.54606930706E+03  0.92889081617E+02 0.  0.
          1    1    3    3  502    0 -0.45894149889E+02 -0.98591034780E+02 -0.83979044292E+02  0.13740067326E+03  0.00000000000E+00 0. -1.
         -1    1    3    3    0  502 -0.11710490146E+03 -0.26792912007E+03 -0.44519972977E+03  0.53263718488E+03  0.00000000000E+00 0.  1.
         11    1    5    5    0    0  0.38658980973E+02  0.61312743418E+02  0.95224948736E+02  0.11967272111E+03  0.00000000000E+00 0.  1.
        -11    1    5    5    0    0  0.38052569619E+03  0.45082747035E+03  0.12631464341E+04  0.13941248608E+04  0.00000000000E+00 0. -1.
          1    1    6    6  503    0 -0.19236008920E+03 -0.15100200605E+03  0.34559731578E+03  0.42336924124E+03  0.00000000000E+00 0. -1.
         -1    1    6    6    0  503 -0.63825536612E+02  0.53819471377E+01  0.10465486933E+03  0.12270006582E+03  0.00000000000E+00 0.  1.
<mgrwt>
<rscale>  0 0.24115142E+04</rscale>
<asrwt>0</asrwt>
<pdfrwt beam="1">  1        1 0.30841150E+00 0.24115142E+04</pdfrwt>
<pdfrwt beam="2">  1       -1 0.11157384E+00 0.24115142E+04</pdfrwt>
<totfact> 0.19537857E+00</totfact>
</mgrwt>
</event>
<event>
12    2  0.3623523E-008  0.2155289E+04  0.7818608E-02  0.8537272E-01
         -1   -1    0    0    0  501 -0.00000000000E+00  0.00000000000E+00  0.50095603034E+03  0.50095603034E+03  0.00000000000E+00 0.  1.
          1   -1    0    0  501    0  0.00000000000E+00 -0.00000000000E+00 -0.23182036986E+04  0.23182036986E+04  0.00000000000E+00 0. -1.
         23    2    1    2    0    0  0.12106686470E+03 -0.51288389718E+03 -0.16808980441E+04  0.17639947388E+04  0.92477705950E+02 0.  0.
        254    2    1    2    0    0 -0.12106686470E+03  0.51288389718E+03 -0.13634962415E+03  0.10551649901E+04  0.90392193175E+03 0.  0.
         23    2    4    4    0    0 -0.41174196864E+03  0.33566307016E+03 -0.35056850896E+03  0.64299059306E+03  0.91309790719E+02 0.  0.
         23    2    4    4    0    0  0.29067510394E+03  0.17722082701E+03  0.21421888482E+03  0.41217439708E+03  0.89993140930E+02 0.  0.
          1    1    3    3  502    0  0.10530002561E+03 -0.49479698885E+03 -0.16432074130E+04  0.17193146186E+04  0.00000000000E+00 0. -1.
         -1    1    3    3    0  502  0.15766839087E+02 -0.18086908333E+02 -0.37690631083E+02  0.44680120179E+02  0.00000000000E+00 0.  1.
         11    1    5    5    0    0 -0.25174717709E+03  0.16765646891E+03 -0.23933100916E+03  0.38570022645E+03  0.00000000000E+00 0.  1.
        -11    1    5    5    0    0 -0.15999479155E+03  0.16800660126E+03 -0.11123749980E+03  0.25729036661E+03  0.00000000000E+00 0. -1.
          2    1    6    6  503    0  0.17436949185E+03  0.54717424649E+02  0.12183403062E+03  0.21964117843E+03  0.00000000000E+00 0. -1.
         -2    1    6    6    0  503  0.11630561210E+03  0.12250340237E+03  0.92384854196E+02  0.19253321864E+03  0.00000000000E+00 0.  1.
<mgrwt>
<rscale>  0 0.21552894E+04</rscale>
<asrwt>0</asrwt>
<pdfrwt beam="1">  1        1 0.35664673E+00 0.21552894E+04</pdfrwt>
<pdfrwt beam="2">  1       -1 0.77070157E-01 0.21552894E+04</pdfrwt>
<totfact> 0.27945270E+00</totfact>
</mgrwt>
</event>
<event>
12    2  0.3623523E-008  0.2247286E+04  0.7818608E-02  0.8499000E-01
         -2   -1    0    0    0  501 -0.00000000000E+00  0.00000000000E+00  0.56166896803E+03  0.56166896803E+03  0.00000000000E+00 0. -1.
          2   -1    0    0  501    0  0.00000000000E+00 -0.00000000000E+00 -0.22478966579E+04  0.22478966579E+04  0.00000000000E+00 0.  1.
         23    2    1    2    0    0  0.38796413183E+03 -0.52711206512E+03  0.13355288038E+03  0.67434146659E+03  0.92394506973E+02 0.  0.
        254    2    1    2    0    0 -0.38796413183E+03  0.52711206512E+03 -0.18197805703E+04  0.21352241594E+04  0.90510639706E+03 0.  0.
         23    2    4    4    0    0 -0.50799361293E+03  0.10016723291E+03 -0.44863268846E+03  0.69114509917E+03  0.91210052244E+02 0.  0.
         23    2    4    4    0    0  0.12002948110E+03  0.42694483221E+03 -0.13711478818E+04  0.14440790602E+04  0.92891615217E+02 0.  0.
          1    1    3    3  502    0  0.29300931100E+03 -0.42542292338E+03  0.13954981302E+03  0.53508248932E+03  0.00000000000E+00 0. -1.
         -1    1    3    3    0  502  0.94954820837E+02 -0.10168914174E+03 -0.59969326344E+01  0.13925897727E+03  0.00000000000E+00 0.  1.
         11    1    5    5    0    0 -0.42627245297E+03  0.92276930869E+02 -0.33022050288E+03  0.54705467428E+03  0.00000000000E+00 0. -1.
        -11    1    5    5    0    0 -0.81721159961E+02  0.78903020379E+01 -0.11841218558E+03  0.14409042489E+03  0.00000000000E+00 0.  1.
          1    1    6    6  503    0  0.94955953263E+02  0.28077339482E+03 -0.10363966002E+04  0.10779463091E+04  0.00000000000E+00 0. -1.
         -1    1    6    6    0  503  0.25073527837E+02  0.14617143739E+03 -0.33475128160E+03  0.36613275112E+03  0.00000000000E+00 0.  1.
<mgrwt>
<rscale>  0 0.22472862E+04</rscale>
<asrwt>0</asrwt>
<pdfrwt beam="1">  1        2 0.34583025E+00 0.22472862E+04</pdfrwt>
<pdfrwt beam="2">  1       -2 0.86410611E-01 0.22472862E+04</pdfrwt>
<totfact> 0.51264766E+00</totfact>
</mgrwt>
</event>
<event>
12    2  0.3623523E-008  0.1917156E+04  0.7818608E-02  0.8646364E-01
          2   -1    0    0  501    0  0.00000000000E+00  0.00000000000E+00  0.11688806204E+04  0.11688806204E+04  0.00000000000E+00 0. -1.
         -2   -1    0    0    0  501 -0.00000000000E+00 -0.00000000000E+00 -0.78611263764E+03  0.78611263764E+03  0.00000000000E+00 0.  1.
         23    2    1    2    0    0 -0.16130085767E+03 -0.27049520409E+03  0.82563777123E+03  0.88834777122E+03  0.91095615895E+02 0.  0.
        254    2    1    2    0    0  0.16130085767E+03  0.27049520409E+03 -0.44286978845E+03  0.10666454868E+04  0.91783077032E+03 0.  0.
         23    2    4    4    0    0 -0.29923065666E+03  0.22761337834E+03 -0.45164283220E+03  0.59486804937E+03  0.92411646475E+02 0.  0.
         23    2    4    4    0    0  0.46053151433E+03  0.42881825752E+02  0.87730437489E+01  0.47177743747E+03  0.92568123758E+02 0.  0.
          4    1    3    3  502    0 -0.16141096691E+03 -0.24314070888E+03  0.79696634690E+03  0.84872036775E+03  0.00000000000E+00 0. -1.
         -4    1    3    3    0  502  0.11010924244E+00 -0.27354495213E+02  0.28671424326E+02  0.39627403464E+02  0.00000000000E+00 0.  1.
         11    1    5    5    0    0 -0.18484803634E+01  0.22039759826E+02 -0.10410288030E+02  0.24444672011E+02  0.00000000000E+00 0. -1.
        -11    1    5    5    0    0 -0.29738217629E+03  0.20557361851E+03 -0.44123254417E+03  0.57042337736E+03  0.00000000000E+00 0.  1.
          4    1    6    6  503    0  0.17337743554E+03 -0.13160920536E+02 -0.30664815278E+02  0.17655955335E+03  0.00000000000E+00 0. -1.
         -4    1    6    6    0  503  0.28715407879E+03  0.56042746287E+02  0.39437859027E+02  0.29521788411E+03  0.00000000000E+00 0.  1.
<mgrwt>
<rscale>  0 0.19171560E+04</rscale>
<asrwt>0</asrwt>
<pdfrwt beam="1">  1        2 0.17982779E+00 0.19171560E+04</pdfrwt>
<pdfrwt beam="2">  1       -2 0.12094041E+00 0.19171560E+04</pdfrwt>
<totfact> 0.96331467E+00</totfact>
</mgrwt>
</event>
<event>
12    2  0.3623523E-008  0.1745766E+04  0.7818608E-02  0.8735684E-01
          2   -1    0    0  501    0  0.00000000000E+00  0.00000000000E+00  0.19616233088E+04  0.19616233088E+04  0.00000000000E+00 0. -1.
         -2   -1    0    0    0  501 -0.00000000000E+00 -0.00000000000E+00 -0.38841537440E+03  0.38841537440E+03  0.00000000000E+00 0.  1.
         23    2    1    2    0    0  0.28177652502E+03 -0.39412068497E+03  0.25075402155E+02  0.49301387555E+03  0.87776883753E+02 0.  0.
        254    2    1    2    0    0 -0.28177652502E+03  0.39412068497E+03  0.15481325323E+04  0.18570248077E+04  0.90393455207E+03 0.  0.
         23    2    4    4    0    0  0.15953310326E+03 -0.10212048859E+03  0.50002765522E+02  0.21551297866E+03  0.89811815415E+02 0.  0.
         23    2    4    4    0    0 -0.44130962828E+03  0.49624117356E+03  0.14981297668E+04  0.16415118290E+04  0.95701600733E+02 0.  0.
          2    1    3    3  502    0  0.13467161124E+02 -0.27993943743E+02  0.23739281345E+02  0.39097043288E+02  0.00000000000E+00 0. -1.
         -2    1    3    3    0  502  0.26830936389E+03 -0.36612674123E+03  0.13361208103E+01  0.45391683227E+03  0.00000000000E+00 0.  1.
         11    1    5    5    0    0  0.14149926435E+03 -0.85827897969E+02  0.74065499642E+02  0.18131234960E+03  0.00000000000E+00 0.  1.
        -11    1    5    5    0    0  0.18033838913E+02 -0.16292590617E+02 -0.24062734121E+02  0.34200629063E+02  0.00000000000E+00 0. -1.
          4    1    6    6  503    0 -0.63817762466E+02  0.29460333213E+02  0.17354220102E+03  0.18723651774E+03  0.00000000000E+00 0. -1.
         -4    1    6    6    0  503 -0.37749186581E+03  0.46678084034E+03  0.13245875657E+04  0.14542753113E+04  0.00000000000E+00 0.  1.
<mgrwt>
<rscale>  0 0.17457659E+04</rscale>
<asrwt>0</asrwt>
<pdfrwt beam="1">  1        2 0.30178820E+00 0.17457659E+04</pdfrwt>
<pdfrwt beam="2">  1       -2 0.59756213E-01 0.17457659E+04</pdfrwt>
<totfact> 0.17382406E+01</totfact>
</mgrwt>
</event>
<event>
12    2  0.3623523E-008  0.1033458E+04  0.7818608E-02  0.9272591E-01
          1   -1    0    0  501    0  0.00000000000E+00  0.00000000000E+00  0.21973964151E+04  0.21973964151E+04  0.00000000000E+00 0. -1.
         -1   -1    0    0    0  501 -0.00000000000E+00 -0.00000000000E+00 -0.12151147943E+03  0.12151147943E+03  0.00000000000E+00 0.  1.
         23    2    1    2    0    0 -0.48166047159E+02 -0.71671360844E+01  0.68894571751E+02  0.12367215160E+03  0.90426783236E+02 0.  0.
        254    2    1    2    0    0  0.48166047159E+02  0.71671360844E+01  0.20069903640E+04  0.21952357430E+04  0.88807562190E+03 0.  0.
         23    2    4    4    0    0  0.44683397616E+03 -0.88755410654E+02  0.11632595893E+04  0.12525604865E+04  0.90536042854E+02 0.  0.
         23    2    4    4    0    0 -0.39866792900E+03  0.95922546739E+02  0.84373077465E+03  0.94267525646E+03  0.92831925912E+02 0.  0.
          2    1    3    3  502    0 -0.12359077195E+02  0.16007626064E+02  0.77556020872E+02  0.80149405829E+02  0.00000000000E+00 0. -1.
         -2    1    3    3    0  502 -0.35806969964E+02 -0.23174762149E+02 -0.86614491210E+01  0.43522745772E+02  0.00000000000E+00 0.  1.
         11    1    5    5    0    0  0.39192595783E+03 -0.96402724933E+02  0.10757076750E+04  0.11489327412E+04  0.00000000000E+00 0. -1.
        -11    1    5    5    0    0  0.54908018327E+02  0.76473142790E+01  0.87551914289E+02  0.10362774526E+03  0.00000000000E+00 0.  1.
          3    1    6    6  503    0 -0.38810745648E+03  0.73436851739E+02  0.78097184586E+03  0.87517849208E+03  0.00000000000E+00 0. -1.
         -3    1    6    6    0  503 -0.10560472517E+02  0.22485695000E+02  0.62758928790E+02  0.67496764384E+02  0.00000000000E+00 0.  1.
<mgrwt>
<rscale>  0 0.10334581E+04</rscale>
<asrwt>0</asrwt>
<pdfrwt beam="1">  1        1 0.33806096E+00 0.10334581E+04</pdfrwt>
<pdfrwt beam="2">  1       -1 0.18694075E-01 0.10334581E+04</pdfrwt>
<totfact> 0.50448310E+01</totfact>
</mgrwt>
</event>
<event>
12    2  0.3623523E-008  0.1421149E+04  0.7818608E-02  0.8938650E-01
          2   -1    0    0  501    0  0.00000000000E+00  0.00000000000E+00  0.14121442239E+04  0.14121442239E+04  0.00000000000E+00 0. -1.
         -2   -1    0    0    0  501 -0.00000000000E+00 -0.00000000000E+00 -0.35755289755E+03  0.35755289755E+03  0.00000000000E+00 0.  1.
         23    2    1    2    0    0  0.51918960318E+02 -0.26447180269E+03 -0.77925340358E+02  0.29512255846E+03  0.91564474447E+02 0.  0.
        254    2    1    2    0    0 -0.51918960318E+02  0.26447180269E+03  0.11325166667E+04  0.14745745630E+04  0.90506089772E+03 0.  0.
         23    2    4    4    0    0  0.36708113622E+03  0.19882581376E+03  0.25967716668E+03  0.49995299598E+03  0.90777213611E+02 0.  0.
         23    2    4    4    0    0 -0.41900009654E+03  0.65645988934E+02  0.87283950003E+03  0.97462156701E+03  0.90376597170E+02 0.  0.
          4    1    3    3  502    0  0.69149204259E+02 -0.17869771857E+03 -0.25947223951E+02  0.19335911021E+03  0.00000000000E+00 0. -1.
         -4    1    3    3    0  502 -0.17230243941E+02 -0.85774084122E+02 -0.51978116407E+02  0.10176344824E+03  0.00000000000E+00 0.  1.
         11    1    5    5    0    0  0.24947570970E+02  0.12020351989E+01  0.41959249535E+02  0.48830367677E+02  0.00000000000E+00 0. -1.
        -11    1    5    5    0    0  0.34213356525E+03  0.19762377856E+03  0.21771791715E+03  0.45112262830E+03  0.00000000000E+00 0.  1.
          1    1    6    6  503    0 -0.43277743232E+02  0.36754046390E+02  0.11089325651E+03  0.12458385660E+03  0.00000000000E+00 0. -1.
         -1    1    6    6    0  503 -0.37572235330E+03  0.28891942545E+02  0.76194624351E+03  0.85003771041E+03  0.00000000000E+00 0.  1.
<mgrwt>
<rscale>  0 0.14211492E+04</rscale>
<asrwt>0</asrwt>
<pdfrwt beam="1">  1        2 0.21725296E+00 0.14211492E+04</pdfrwt>
<pdfrwt beam="2">  1       -2 0.55008139E-01 0.14211492E+04</pdfrwt>
<totfact> 0.43006371E+01</totfact>
</mgrwt>
</event>
<event>
12    2  0.3623523E-008  0.1304868E+04  0.7818608E-02  0.9025713E-01
          1   -1    0    0  501    0  0.00000000000E+00  0.00000000000E+00  0.84487412803E+03  0.84487412803E+03  0.00000000000E+00 0. -1.
         -1   -1    0    0    0  501 -0.00000000000E+00 -0.00000000000E+00 -0.50382693523E+03  0.50382693523E+03  0.00000000000E+00 0.  1.
         23    2    1    2    0    0  0.88377207525E+01 -0.22978561931E+03 -0.15815146238E+03  0.29122729430E+03  0.83198051323E+02 0.  0.
        254    2    1    2    0    0 -0.88377207525E+01  0.22978561931E+03  0.49919865517E+03  0.10574737690E+04  0.90342234783E+03 0.  0.
         23    2    4    4    0    0 -0.19602359595E+03 -0.29142515317E+03  0.12724004673E+03  0.38469658795E+03  0.91910637180E+02 0.  0.
         23    2    4    4    0    0  0.18718587519E+03  0.52121077248E+03  0.37195860845E+03  0.67277718100E+03  0.87044285639E+02 0.  0.
          3    1    3    3  502    0 -0.25756396002E+02 -0.42629357166E+02 -0.11924722984E+02  0.51213797415E+02  0.00000000000E+00 0. -1.
         -3    1    3    3    0  502  0.34594116755E+02 -0.18715626214E+03 -0.14622673939E+03  0.24001349689E+03  0.00000000000E+00 0.  1.
         11    1    5    5    0    0 -0.11635920567E+03 -0.24040322913E+03  0.79099274472E+02  0.27854958722E+03  0.00000000000E+00 0. -1.
        -11    1    5    5    0    0 -0.79664390281E+02 -0.51021924035E+02  0.48140772254E+02  0.10614700073E+03  0.00000000000E+00 0.  1.
          4    1    6    6  503    0  0.18819955086E+02  0.10328555456E+02  0.23670223245E+02  0.31955425763E+02  0.00000000000E+00 0.  1.
         -4    1    6    6    0  503  0.16836592011E+03  0.51088221702E+03  0.34828838520E+03  0.64082175524E+03  0.00000000000E+00 0. -1.
<mgrwt>
<rscale>  0 0.13048683E+04</rscale>
<asrwt>0</asrwt>
<pdfrwt beam="1">  1        1 0.12998063E+00 0.13048683E+04</pdfrwt>
<pdfrwt beam="2">  1       -1 0.77511837E-01 0.13048683E+04</pdfrwt>
<totfact> 0.33154876E+01</totfact>
</mgrwt>
</event>
<event>
12    2  0.3623523E-008  0.1215481E+04  0.7818608E-02  0.9099413E-01
          1   -1    0    0  501    0  0.00000000000E+00  0.00000000000E+00  0.76277688522E+03  0.76277688522E+03  0.00000000000E+00 0. -1.
         -1   -1    0    0    0  501 -0.00000000000E+00 -0.00000000000E+00 -0.48421530728E+03  0.48421530728E+03  0.00000000000E+00 0.  1.
         23    2    1    2    0    0  0.26569825447E+03  0.51334100625E+01  0.96203628327E+02  0.29768849961E+03  0.93495402944E+02 0.  0.
        254    2    1    2    0    0 -0.26569825447E+03 -0.51334100625E+01  0.18235794961E+03  0.94930369289E+03  0.89291722194E+03 0.  0.
         23    2    4    4    0    0  0.65429705417E+02  0.22993015338E+02 -0.32003674570E+03  0.34009266023E+03  0.91813799813E+02 0.  0.
         23    2    4    4    0    0 -0.33112795989E+03 -0.28126425400E+02  0.50239469531E+03  0.60921103267E+03  0.91108895408E+02 0.  0.
          1    1    3    3  502    0  0.19499283019E+03  0.27875956096E+02  0.10445652886E+03  0.22295837992E+03  0.00000000000E+00 0. -1.
         -1    1    3    3    0  502  0.70705424279E+02 -0.22742546034E+02 -0.82529005325E+01  0.74730119696E+02  0.00000000000E+00 0.  1.
         11    1    5    5    0    0  0.16802950788E+02 -0.35187961677E+02 -0.98439968183E+02  0.10588181684E+03  0.00000000000E+00 0. -1.
        -11    1    5    5    0    0  0.48626754629E+02  0.58180977015E+02 -0.22159677752E+03  0.23421084338E+03  0.00000000000E+00 0.  1.
          4    1    6    6  503    0 -0.96944170238E+02  0.33253992538E+02  0.14924277764E+03  0.18104531709E+03  0.00000000000E+00 0. -1.
         -4    1    6    6    0  503 -0.23418378965E+03 -0.61380417938E+02  0.35315191767E+03  0.42816571558E+03  0.00000000000E+00 0.  1.
<mgrwt>
<rscale>  0 0.12154806E+04</rscale>
<asrwt>0</asrwt>
<pdfrwt beam="1">  1        1 0.11735029E+00 0.12154806E+04</pdfrwt>
<pdfrwt beam="2">  1       -1 0.74494663E-01 0.12154806E+04</pdfrwt>
<totfact> 0.42777547E+01</totfact>
</mgrwt>
</event>
<event>
12    2  0.3623523E-008  0.2150495E+04  0.7818608E-02  0.8539320E-01
          1   -1    0    0  501    0  0.00000000000E+00  0.00000000000E+00  0.14162133951E+04  0.14162133951E+04  0.00000000000E+00 0. -1.
         -1   -1    0    0    0  501 -0.00000000000E+00 -0.00000000000E+00 -0.81637245640E+03  0.81637245640E+03  0.00000000000E+00 0.  1.
         23    2    1    2    0    0  0.10287497088E+03 -0.64118312088E+03  0.85437867580E+03  0.10772634037E+04  0.93991835395E+02 0.  0.
        254    2    1    2    0    0 -0.10287497088E+03  0.64118312088E+03 -0.25453773706E+03  0.11553224479E+04  0.92102195674E+03 0.  0.
         23    2    4    4    0    0  0.14110907388E+03  0.56643843074E+03 -0.51291004691E+03  0.78196204862E+03  0.87313588307E+02 0.  0.
         23    2    4    4    0    0 -0.24398404477E+03  0.74744690137E+02  0.25837230985E+03  0.37336039924E+03  0.86756869596E+02 0.  0.
          1    1    3    3  502    0  0.71835118028E+02 -0.39338257470E+03  0.45020632351E+03  0.60215933771E+03  0.00000000000E+00 0. -1.
         -1    1    3    3    0  502  0.31039852856E+02 -0.24780054618E+03  0.40417235229E+03  0.47510406597E+03  0.00000000000E+00 0.  1.
         11    1    5    5    0    0  0.17449101636E+02  0.46349878711E+02 -0.15864678436E+02  0.52004523133E+02  0.00000000000E+00 0. -1.
        -11    1    5    5    0    0  0.12365997225E+03  0.52008855203E+03 -0.49704536847E+03  0.72995752548E+03  0.00000000000E+00 0.  1.
          4    1    6    6  503    0 -0.53591191648E+02  0.56519284587E+02  0.83798026271E+02  0.11440522086E+03  0.00000000000E+00 0. -1.
         -4    1    6    6    0  503 -0.19039285312E+03  0.18225405550E+02  0.17457428358E+03  0.25895517839E+03  0.00000000000E+00 0.  1.
<mgrwt>
<rscale>  0 0.21504954E+04</rscale>
<asrwt>0</asrwt>
<pdfrwt beam="1">  1        1 0.21787898E+00 0.21504954E+04</pdfrwt>
<pdfrwt beam="2">  1       -1 0.12559576E+00 0.21504954E+04</pdfrwt>
<totfact> 0.37899266E+00</totfact>
</mgrwt>
</event>
<event>
12    2  0.3623523E-008  0.1223252E+04  0.7818608E-02  0.9092744E-01
         -1   -1    0    0    0  501 -0.00000000000E+00  0.00000000000E+00  0.48376576508E+03  0.48376576508E+03  0.00000000000E+00 0.  1.
          1   -1    0    0  501    0  0.00000000000E+00 -0.00000000000E+00 -0.77327946953E+03  0.77327946953E+03  0.00000000000E+00 0. -1.
         23    2    1    2    0    0 -0.18000321799E+01 -0.18289992020E+02 -0.35133742049E+03  0.36319127309E+03  0.90178455778E+02 0.  0.
        254    2    1    2    0    0  0.18000321799E+01  0.18289992020E+02  0.61823716045E+02  0.89385396152E+03  0.89152395859E+03 0.  0.
         23    2    4    4    0    0  0.18432810762E+03 -0.36108756551E+03  0.17340615728E+03  0.44986613104E+03  0.89155814480E+02 0.  0.
         23    2    4    4    0    0 -0.18252807544E+03  0.37937755753E+03 -0.11158244123E+03  0.44398783048E+03  0.86201641176E+02 0.  0.
          1    1    3    3  502    0  0.18602815738E+02 -0.38607953018E+02 -0.83933555058E+02  0.94241606811E+02  0.00000000000E+00 0.  1.
         -1    1    3    3    0  502 -0.20402847918E+02  0.20317960999E+02 -0.26740386543E+03  0.26894966628E+03  0.00000000000E+00 0. -1.
         11    1    5    5    0    0  0.85914079163E+02 -0.20643047511E+03  0.13920924657E+03  0.26338941585E+03  0.00000000000E+00 0. -1.
        -11    1    5    5    0    0  0.98414028455E+02 -0.15465709040E+03  0.34196910714E+02  0.18647671520E+03  0.00000000000E+00 0.  1.
          1    1    6    6  503    0 -0.22009493214E+02  0.13231664933E+03 -0.48871304265E+02  0.14276035116E+03  0.00000000000E+00 0. -1.
         -1    1    6    6    0  503 -0.16051858222E+03  0.24706090820E+03 -0.62711136970E+02  0.30122747932E+03  0.00000000000E+00 0.  1.
<mgrwt>
<rscale>  0 0.12232516E+04</rscale>
<asrwt>0</asrwt>
<pdfrwt beam="1">  1        1 0.11896607E+00 0.12232516E+04</pdfrwt>
<pdfrwt beam="2">  1       -1 0.74425503E-01 0.12232516E+04</pdfrwt>
<totfact> 0.41920955E+01</totfact>
</mgrwt>
</event>
<event>
12    2  0.3623523E-008  0.1826517E+04  0.7818608E-02  0.8692324E-01
          2   -1    0    0  501    0  0.00000000000E+00  0.00000000000E+00  0.37062409902E+04  0.37062409902E+04  0.00000000000E+00 0. -1.
         -2   -1    0    0    0  501 -0.00000000000E+00 -0.00000000000E+00 -0.22503694926E+03  0.22503694926E+03  0.00000000000E+00 0.  1.
         23    2    1    2    0    0 -0.34962725831E+03  0.28959785542E+03  0.21218099496E+03  0.50943287786E+03  0.91623931394E+02 0.  0.
        254    2    1    2    0    0  0.34962725831E+03 -0.28959785542E+03  0.32690230459E+04  0.34218450616E+04  0.90355177651E+03 0.  0.
         23    2    4    4    0    0  0.28088467638E+02  0.23406075504E+03  0.31911749929E+03  0.40723083665E+03  0.91801834955E+02 0.  0.
         23    2    4    4    0    0  0.32153879067E+03 -0.52365861046E+03  0.29499055466E+04  0.30146142249E+04  0.91381927549E+02 0.  0.
          3    1    3    3  502    0 -0.23630544396E+03  0.17356600248E+03  0.18011991805E+03  0.34410551425E+03  0.00000000000E+00 0. -1.
         -3    1    3    3    0  502 -0.11332181436E+03  0.11603185293E+03  0.32061076913E+02  0.16532736361E+03  0.00000000000E+00 0.  1.
         11    1    5    5    0    0  0.24084527047E+02  0.59158956044E+01  0.31942900152E+02  0.40440216790E+02  0.00000000000E+00 0.  1.
        -11    1    5    5    0    0  0.40039405909E+01  0.22814485943E+03  0.28717459914E+03  0.36679061986E+03  0.00000000000E+00 0. -1.
          3    1    6    6  503    0  0.19875453964E+03 -0.29859525814E+03  0.19246451431E+04  0.19577848252E+04  0.00000000000E+00 0. -1.
         -3    1    6    6    0  503  0.12278425103E+03 -0.22506335232E+03  0.10252604036E+04  0.10568293997E+04  0.00000000000E+00 0.  1.
<mgrwt>
<rscale>  0 0.18265171E+04</rscale>
<asrwt>0</asrwt>
<pdfrwt beam="1">  1        2 0.57019087E+00 0.18265171E+04</pdfrwt>
<pdfrwt beam="2">  1       -2 0.34621072E-01 0.18265171E+04</pdfrwt>
<totfact> 0.42990981E+00</totfact>
</mgrwt>
</event>
<event>
12    2  0.3623523E-008  0.1254069E+04  0.7818608E-02  0.9066804E-01
          2   -1    0    0  501    0  0.00000000000E+00  0.00000000000E+00  0.12917983544E+04  0.12917983544E+04  0.00000000000E+00 0.  1.
         -2   -1    0    0    0  501 -0.00000000000E+00 -0.00000000000E+00 -0.30436033678E+03  0.30436033678E+03  0.00000000000E+00 0. -1.
         23    2    1    2    0    0  0.32363522722E+02 -0.11472745898E+03  0.58880694539E+03  0.60759337137E+03  0.90919186842E+02 0.  0.
        254    2    1    2    0    0 -0.32363522722E+02  0.11472745898E+03  0.39863107226E+03  0.98856531986E+03  0.89674125165E+03 0.  0.
         23    2    4    4    0    0 -0.43251727824E+03 -0.81025360348E+02  0.18881743338E+03  0.48802791871E+03  0.94249250913E+02 0.  0.
         23    2    4    4    0    0  0.40015375552E+03  0.19575281933E+03  0.20981363888E+03  0.50053740114E+03  0.89853951223E+02 0.  0.
          2    1    3    3  502    0 -0.56501213469E+01 -0.61139864419E+01  0.24300072009E+03  0.24314328011E+03  0.00000000000E+00 0. -1.
         -2    1    3    3    0  502  0.38013644069E+02 -0.10861347254E+03  0.34580622531E+03  0.36445009125E+03  0.00000000000E+00 0.  1.
         11    1    5    5    0    0 -0.26441538412E+03 -0.62975957145E+02  0.67883359527E+02  0.28015998472E+03  0.00000000000E+00 0. -1.
        -11    1    5    5    0    0 -0.16810189412E+03 -0.18049403203E+02  0.12093407386E+03  0.20786793399E+03  0.00000000000E+00 0.  1.
          4    1    6    6  503    0  0.80348730650E+02  0.77358127107E+01  0.59421976337E+02  0.10023339058E+03  0.00000000000E+00 0.  1.
         -4    1    6    6    0  503  0.31980502487E+03  0.18801700662E+03  0.15039166254E+03  0.40030401056E+03  0.00000000000E+00 0. -1.
<mgrwt>
<rscale>  0 0.12540689E+04</rscale>
<asrwt>0</asrwt>
<pdfrwt beam="1">  1        2 0.19873821E+00 0.12540689E+04</pdfrwt>
<pdfrwt beam="2">  1       -2 0.46824668E-01 0.12540689E+04</pdfrwt>
<totfact> 0.71028481E+01</totfact>
</mgrwt>
</event>
<event>
12    2  0.3623523E-008  0.1727757E+04  0.7818608E-02  0.8745690E-01
         -2   -1    0    0    0  501 -0.00000000000E+00  0.00000000000E+00  0.16303162529E+03  0.16303162529E+03  0.00000000000E+00 0.  1.
          2   -1    0    0  501    0  0.00000000000E+00 -0.00000000000E+00 -0.45775561075E+04  0.45775561075E+04  0.00000000000E+00 0. -1.
         23    2    1    2    0    0  0.30263758129E+03  0.53918538876E+03 -0.13283215719E+04  0.14677427283E+04  0.86718678186E+02 0.  0.
        254    2    1    2    0    0 -0.30263758129E+03 -0.53918538876E+03 -0.30862029103E+04  0.32728450044E+04  0.89697025059E+03 0.  0.
         23    2    4    4    0    0 -0.17938941115E+03 -0.71098900983E+03 -0.28349867661E+04  0.29294606105E+04  0.83087735930E+02 0.  0.
         23    2    4    4    0    0 -0.12324817015E+03  0.17180362107E+03 -0.25121614418E+03  0.34338439387E+03  0.10048231287E+03 0.  0.
          4    1    3    3  502    0  0.19719928778E+03  0.41645381266E+03 -0.10298720066E+04  0.11282542653E+04  0.00000000000E+00 0. -1.
         -4    1    3    3    0  502  0.10543829351E+03  0.12273157611E+03 -0.29844956533E+03  0.33948846307E+03  0.00000000000E+00 0.  1.
         11    1    5    5    0    0 -0.38042787140E+02 -0.11856775929E+03 -0.61269190616E+03  0.62521751341E+03  0.00000000000E+00 0. -1.
        -11    1    5    5    0    0 -0.14134662401E+03 -0.59242125054E+03 -0.22222948599E+04  0.23042430971E+04  0.00000000000E+00 0.  1.
          4    1    6    6  503    0 -0.60239485457E+02  0.96639496113E+02 -0.60558320487E+02  0.12897789732E+03  0.00000000000E+00 0. -1.
         -4    1    6    6    0  503 -0.63008684690E+02  0.75164124953E+02 -0.19065782370E+03  0.21440649655E+03  0.00000000000E+00 0.  1.
<mgrwt>
<rscale>  0 0.17277574E+04</rscale>
<asrwt>0</asrwt>
<pdfrwt beam="1">  1        2 0.70423935E+00 0.17277574E+04</pdfrwt>
<pdfrwt beam="2">  1       -2 0.25081790E-01 0.17277574E+04</pdfrwt>
<totfact> 0.14329892E+00</totfact>
</mgrwt>
</event>
<event>
12    2  0.3623523E-008  0.1433396E+04  0.7818608E-02  0.8929993E-01
         -1   -1    0    0    0  501 -0.00000000000E+00  0.00000000000E+00  0.46848417367E+03  0.46848417367E+03  0.00000000000E+00 0.  1.
          1   -1    0    0  501    0  0.00000000000E+00 -0.00000000000E+00 -0.10964215425E+04  0.10964215425E+04  0.00000000000E+00 0. -1.
         23    2    1    2    0    0  0.12277872969E+03 -0.11141709753E+03  0.24421177759E+03  0.30797712903E+03  0.87875671300E+02 0.  0.
        254    2    1    2    0    0 -0.12277872969E+03  0.11141709753E+03 -0.87214914641E+03  0.12569285871E+04  0.88979601791E+03 0.  0.
         23    2    4    4    0    0  0.13075175497E+03  0.98471632712E+02  0.12403857243E+03  0.22466120823E+03  0.91073635925E+02 0.  0.
         23    2    4    4    0    0 -0.25353048465E+03  0.12945464815E+02 -0.99618771884E+03  0.10322673789E+04  0.93491596795E+02 0.  0.
          3    1    3    3  502    0  0.91360503853E+01 -0.10625370008E+02  0.91558818861E+02  0.92624960004E+02  0.00000000000E+00 0. -1.
         -3    1    3    3    0  502  0.11364267930E+03 -0.10079172752E+03  0.15265295873E+03  0.21535216902E+03  0.00000000000E+00 0.  1.
         11    1    5    5    0    0  0.28599443991E+02  0.69575971371E+02  0.79757289535E+02  0.10963562023E+03  0.00000000000E+00 0. -1.
        -11    1    5    5    0    0  0.10215231098E+03  0.28895661341E+02  0.44281282891E+02  0.11502558801E+03  0.00000000000E+00 0.  1.
          1    1    6    6  503    0 -0.19695028479E+03  0.27983901127E+02 -0.87950083253E+03  0.90171737691E+03  0.00000000000E+00 0. -1.
         -1    1    6    6    0  503 -0.56580199864E+02 -0.15038436312E+02 -0.11668688630E+03  0.13055000198E+03  0.00000000000E+00 0.  1.
<mgrwt>
<rscale>  0 0.14333962E+04</rscale>
<asrwt>0</asrwt>
<pdfrwt beam="1">  1        1 0.16868024E+00 0.14333962E+04</pdfrwt>
<pdfrwt beam="2">  1       -1 0.72074489E-01 0.14333962E+04</pdfrwt>
<totfact> 0.24103385E+01</totfact>
</mgrwt>
</event>
<event>
12    2  0.3623523E-008  0.1361496E+04  0.7818608E-02  0.8982171E-01
          2   -1    0    0  501    0  0.00000000000E+00  0.00000000000E+00  0.39631441938E+03  0.39631441938E+03  0.00000000000E+00 0.  1.
         -2   -1    0    0    0  501 -0.00000000000E+00 -0.00000000000E+00 -0.11693182752E+04  0.11693182752E+04  0.00000000000E+00 0. -1.
         23    2    1    2    0    0  0.18183882449E+03  0.17597450085E+03 -0.57036636824E+03  0.63090817946E+03  0.93246736441E+02 0.  0.
        254    2    1    2    0    0 -0.18183882449E+03 -0.17597450085E+03 -0.20263748760E+03  0.93472451514E+03  0.87670724006E+03 0.  0.
         23    2    4    4    0    0  0.26074109466E+03 -0.32263765709E+03 -0.18968407001E+02  0.42534705847E+03  0.92083350646E+02 0.  0.
         23    2    4    4    0    0 -0.44257991915E+03  0.14666315624E+03 -0.18366908060E+03  0.50937745667E+03  0.91345475898E+02 0.  0.
          3    1    3    3  502    0  0.10247623073E+03  0.15324664570E+03 -0.43352205969E+03  0.47109159249E+03  0.00000000000E+00 0. -1.
         -3    1    3    3    0  502  0.79362593759E+02  0.22727855147E+02 -0.13684430855E+03  0.15981658697E+03  0.00000000000E+00 0.  1.
         11    1    5    5    0    0  0.21671072902E+03 -0.20385339315E+03 -0.24614336569E+02  0.29853912899E+03  0.00000000000E+00 0.  1.
        -11    1    5    5    0    0  0.44030365635E+02 -0.11878426394E+03  0.56459295677E+01  0.12680792948E+03  0.00000000000E+00 0. -1.
          2    1    6    6  503    0 -0.18682270221E+03  0.10729488911E+03 -0.67863112741E+02  0.22587677473E+03  0.00000000000E+00 0. -1.
         -2    1    6    6    0  503 -0.25575721693E+03  0.39368267132E+02 -0.11580596786E+03  0.28350068194E+03  0.00000000000E+00 0.  1.
<mgrwt>
<rscale>  0 0.13614958E+04</rscale>
<asrwt>0</asrwt>
<pdfrwt beam="1">  1        2 0.60971450E-01 0.13614958E+04</pdfrwt>
<pdfrwt beam="2">  1       -2 0.17989512E+00 0.13614958E+04</pdfrwt>
<totfact> 0.14227632E+01</totfact>
</mgrwt>
</event>
<event>
12    2  0.3623523E-008  0.2668525E+04  0.7818608E-02  0.8345290E-01
          2   -1    0    0  501    0  0.00000000000E+00  0.00000000000E+00  0.31100363757E+04  0.31100363757E+04  0.00000000000E+00 0. -1.
         -2   -1    0    0    0  501 -0.00000000000E+00 -0.00000000000E+00 -0.57242299114E+03  0.57242299114E+03  0.00000000000E+00 0.  1.
         23    2    1    2    0    0  0.12689885191E+03  0.45188142212E+03 -0.37006521585E+03  0.60460306221E+03  0.91084908620E+02 0.  0.
        254    2    1    2    0    0 -0.12689885191E+03 -0.45188142212E+03  0.29076786004E+04  0.30778563046E+04  0.89347884717E+03 0.  0.
         23    2    4    4    0    0 -0.35198577554E+03  0.13967203215E+02  0.52877310023E+03  0.64140707690E+03  0.87823560785E+02 0.  0.
         23    2    4    4    0    0  0.22508692363E+03 -0.46584862534E+03  0.23789055002E+04  0.24364492277E+04  0.97027808020E+02 0.  0.
          2    1    3    3  502    0  0.98955645998E+02  0.19369377552E+03 -0.15011715158E+03  0.26428139879E+03  0.00000000000E+00 0. -1.
         -2    1    3    3    0  502  0.27943205908E+02  0.25818764661E+03 -0.21994806427E+03  0.34032166342E+03  0.00000000000E+00 0.  1.
         11    1    5    5    0    0 -0.10194580542E+03 -0.93694498453E+01  0.92270449719E+02  0.13782078843E+03  0.00000000000E+00 0. -1.
        -11    1    5    5    0    0 -0.25003997012E+03  0.23336653061E+02  0.43650265051E+03  0.50358628847E+03  0.00000000000E+00 0.  1.
          2    1    6    6  503    0  0.52211976091E+02 -0.20895503718E+03  0.10634873426E+04  0.10850777050E+04  0.00000000000E+00 0. -1.
         -2    1    6    6    0  503  0.17287494754E+03 -0.25689358816E+03  0.13154181576E+04  0.13513715227E+04  0.00000000000E+00 0.  1.
<mgrwt>
<rscale>  0 0.26685249E+04</rscale>
<asrwt>0</asrwt>
<pdfrwt beam="1">  1        2 0.47846713E+00 0.26685249E+04</pdfrwt>
<pdfrwt beam="2">  1       -2 0.88065077E-01 0.26685249E+04</pdfrwt>
<totfact> 0.14487985E+00</totfact>
</mgrwt>
</event>
<event>
12    2  0.3623523E-008  0.2234340E+04  0.7818608E-02  0.8504270E-01
         -4   -1    0    0    0  501 -0.00000000000E+00  0.00000000000E+00  0.26558177203E+04  0.26558177203E+04  0.00000000000E+00 0.  1.
          4   -1    0    0  501    0  0.00000000000E+00 -0.00000000000E+00 -0.46993748580E+03  0.46993748580E+03  0.00000000000E+00 0. -1.
         23    2    1    2    0    0 -0.91962701235E+03 -0.96152609857E+02  0.10333801726E+04  0.13896054952E+04  0.90386309698E+02 0.  0.
        254    2    1    2    0    0  0.91962701235E+03  0.96152609857E+02  0.11525000619E+04  0.17361497109E+04  0.91159215645E+03 0.  0.
         23    2    4    4    0    0  0.70235467322E+03 -0.25096443765E+03  0.10719283894E+04  0.13090963689E+04  0.91747451799E+02 0.  0.
         23    2    4    4    0    0  0.21727233913E+03  0.34711704750E+03  0.80571672451E+02  0.42705334202E+03  0.90472363252E+02 0.  0.
          3    1    3    3  502    0 -0.88817612095E+01  0.80455999986E+01  0.18242793835E+02  0.21826976163E+02  0.00000000000E+00 0. -1.
         -3    1    3    3    0  502 -0.91074525114E+03 -0.10419820986E+03  0.10151373788E+04  0.13677785191E+04  0.00000000000E+00 0.  1.
         11    1    5    5    0    0  0.67887149651E+02 -0.46881195376E+02  0.15429094540E+03  0.17496344590E+03  0.00000000000E+00 0. -1.
        -11    1    5    5    0    0  0.63446752357E+03 -0.20408324227E+03  0.91763744404E+03  0.11341329230E+04  0.00000000000E+00 0.  1.
          1    1    6    6  503    0  0.47063952525E+02  0.36966871812E+02  0.37576351836E+02  0.70665037014E+02  0.00000000000E+00 0. -1.
         -1    1    6    6    0  503  0.17020838660E+03  0.31015017569E+03  0.42995320615E+02  0.35638830501E+03  0.00000000000E+00 0.  1.
<mgrwt>
<rscale>  0 0.22343395E+04</rscale>
<asrwt>0</asrwt>
<pdfrwt beam="1">  1        4 0.72298076E-01 0.22343395E+04</pdfrwt>
<pdfrwt beam="2">  1       -4 0.40858733E+00 0.22343395E+04</pdfrwt>
<totfact> 0.18883550E-02</totfact>
</mgrwt>
</event>
<event>
12    2  0.3623523E-008  0.1211460E+04  0.7818608E-02  0.9102885E-01
         -1   -1    0    0    0  501 -0.00000000000E+00  0.00000000000E+00  0.50630537359E+03  0.50630537359E+03  0.00000000000E+00 0.  1.
          1   -1    0    0  501    0  0.00000000000E+00 -0.00000000000E+00 -0.72467862735E+03  0.72467862735E+03  0.00000000000E+00 0. -1.
         23    2    1    2    0    0  0.16448334978E+03  0.11989220107E+02 -0.24096492224E+03  0.30927824224E+03  0.10193342739E+03 0.  0.
        254    2    1    2    0    0 -0.16448334978E+03 -0.11989220107E+02  0.22591668476E+02  0.92170575871E+03  0.90654983779E+03 0.  0.
         23    2    4    4    0    0 -0.41044272675E+03 -0.18599652902E+03  0.25882876369E+03  0.52813222492E+03  0.94198605813E+02 0.  0.
         23    2    4    4    0    0  0.24595937697E+03  0.17400730891E+03 -0.23623709521E+03  0.39357353379E+03  0.91200891860E+02 0.  0.
          4    1    3    3  502    0  0.32363193246E+02  0.42520690408E+02 -0.39592893065E+02  0.66505507826E+02  0.00000000000E+00 0.  1.
         -4    1    3    3    0  502  0.13212015653E+03 -0.30531470301E+02 -0.20137202917E+03  0.24277273441E+03  0.00000000000E+00 0. -1.
         11    1    5    5    0    0 -0.33366719251E+03 -0.18869991081E+03  0.20962507085E+03  0.43690287482E+03  0.00000000000E+00 0. -1.
        -11    1    5    5    0    0 -0.76775534233E+02  0.27033817893E+01  0.49203692838E+02  0.91229350095E+02  0.00000000000E+00 0.  1.
          4    1    6    6  503    0  0.19889838260E+03  0.98440096814E+02 -0.13960042298E+03  0.26218180211E+03  0.00000000000E+00 0. -1.
         -4    1    6    6    0  503  0.47060994370E+02  0.75567212095E+02 -0.96636672231E+02  0.13139173168E+03  0.00000000000E+00 0.  1.
<mgrwt>
<rscale>  0 0.12114598E+04</rscale>
<asrwt>0</asrwt>
<pdfrwt beam="1">  1        1 0.11148902E+00 0.12114598E+04</pdfrwt>
<pdfrwt beam="2">  1       -1 0.77893135E-01 0.12114598E+04</pdfrwt>
<totfact> 0.42197259E+01</totfact>
</mgrwt>
</event>
<event>
12    2  0.3623523E-008  0.1863962E+04  0.7818608E-02  0.8673006E-01
          2   -1    0    0  501    0  0.00000000000E+00  0.00000000000E+00  0.12876655776E+04  0.12876655776E+04  0.00000000000E+00 0. -1.
         -2   -1    0    0    0  501 -0.00000000000E+00 -0.00000000000E+00 -0.67454537078E+03  0.67454537078E+03  0.00000000000E+00 0.  1.
         23    2    1    2    0    0 -0.58220766429E+03 -0.15926332906E+03 -0.16392066621E+03  0.63218538614E+03  0.91966327004E+02 0.  0.
        254    2    1    2    0    0  0.58220766429E+03  0.15926332906E+03  0.77704087305E+03  0.13300255623E+04  0.89489938293E+03 0.  0.
         23    2    4    4    0    0  0.67351625809E+03  0.41358371662E+03  0.55343110305E+03  0.96959751081E+03  0.95695906792E+02 0.  0.
         23    2    4    4    0    0 -0.91308593800E+02 -0.25432038756E+03  0.22360977000E+03  0.36042805147E+03  0.83011639027E+02 0.  0.
          1    1    3    3  502    0 -0.29302943525E+02 -0.28078043886E+02  0.62022356421E+00  0.40588467882E+02  0.00000000000E+00 0. -1.
         -1    1    3    3    0  502 -0.55290472076E+03 -0.13118528517E+03 -0.16454088977E+03  0.59159691826E+03  0.00000000000E+00 0.  1.
         11    1    5    5    0    0  0.37135492141E+03  0.24904221619E+03  0.36582996153E+03  0.57771797952E+03  0.00000000000E+00 0. -1.
        -11    1    5    5    0    0  0.30216133667E+03  0.16454150043E+03  0.18760114152E+03  0.39187953129E+03  0.00000000000E+00 0.  1.
          1    1    6    6  503    0 -0.99140741491E+02 -0.25609915771E+03  0.21639730108E+03  0.34963331809E+03  0.00000000000E+00 0. -1.
         -1    1    6    6    0  503  0.78321476911E+01  0.17787701535E+01  0.72124689171E+01  0.10794733373E+02  0.00000000000E+00 0.  1.
<mgrwt>
<rscale>  0 0.18639623E+04</rscale>
<asrwt>0</asrwt>
<pdfrwt beam="1">  1        2 0.19810240E+00 0.18639623E+04</pdfrwt>
<pdfrwt beam="2">  1       -2 0.10377621E+00 0.18639623E+04</pdfrwt>
<totfact> 0.11938180E+01</totfact>
</mgrwt>
</event>
<event>
12    2  0.3623523E-008  0.1700483E+04  0.7818608E-02  0.8761089E-01
         -2   -1    0    0    0  501 -0.00000000000E+00  0.00000000000E+00  0.36694941327E+03  0.36694941327E+03  0.00000000000E+00 0.  1.
          2   -1    0    0  501    0  0.00000000000E+00 -0.00000000000E+00 -0.19700557523E+04  0.19700557523E+04  0.00000000000E+00 0. -1.
         23    2    1    2    0    0  0.30162325949E+03 -0.44507226480E+03 -0.97207543789E+03  0.11145319926E+04  0.90470956713E+02 0.  0.
        254    2    1    2    0    0 -0.30162325949E+03  0.44507226480E+03 -0.63103090117E+03  0.12224731730E+04  0.89842904501E+03 0.  0.
         23    2    4    4    0    0 -0.45501485582E+03 -0.84409425473E+02 -0.18696728025E+03  0.50759425793E+03  0.92367183959E+02 0.  0.
         23    2    4    4    0    0  0.15339159633E+03  0.52948169027E+03 -0.44406362091E+03  0.71487891507E+03  0.99897555704E+02 0.  0.
          1    1    3    3  502    0  0.12419189390E+02 -0.48243545605E+02 -0.54536747186E+02  0.73864286033E+02  0.00000000000E+00 0.  1.
         -1    1    3    3    0  502  0.28920407010E+03 -0.39682871920E+03 -0.91753869070E+03  0.10406677066E+04  0.00000000000E+00 0. -1.
         11    1    5    5    0    0 -0.33036705499E+03 -0.60248963442E+02 -0.17858923477E+03  0.38035042184E+03  0.00000000000E+00 0.  1.
        -11    1    5    5    0    0 -0.12464780083E+03 -0.24160462031E+02 -0.83780454893E+01  0.12724383609E+03  0.00000000000E+00 0. -1.
          1    1    6    6  503    0  0.14162664869E+03  0.52908668724E+03 -0.43952455009E+03  0.70226252952E+03  0.00000000000E+00 0. -1.
         -1    1    6    6    0  503  0.11764947641E+02  0.39500303062E+00 -0.45390708158E+01  0.12616385546E+02  0.00000000000E+00 0.  1.
<mgrwt>
<rscale>  0 0.17004832E+04</rscale>
<asrwt>0</asrwt>
<pdfrwt beam="1">  1        2 0.30308550E+00 0.17004832E+04</pdfrwt>
<pdfrwt beam="2">  1       -2 0.56453755E-01 0.17004832E+04</pdfrwt>
<totfact> 0.19450340E+01</totfact>
</mgrwt>
</event>
<event>
12    2  0.3623523E-008  0.2408580E+04  0.7818608E-02  0.8436298E-01
          1   -1    0    0  501    0  0.00000000000E+00  0.00000000000E+00  0.15220239808E+04  0.15220239808E+04  0.00000000000E+00 0. -1.
         -1   -1    0    0    0  501 -0.00000000000E+00 -0.00000000000E+00 -0.95288560206E+03  0.95288560206E+03  0.00000000000E+00 0.  1.
         23    2    1    2    0    0 -0.88880655883E+03  0.22136515900E+03 -0.24320457564E+03  0.95184372066E+03  0.88760184282E+02 0.  0.
        254    2    1    2    0    0  0.88880655883E+03 -0.22136515900E+03  0.81234295434E+03  0.15230658622E+04  0.90600712601E+03 0.  0.
         23    2    4    4    0    0 -0.10632586520E+03 -0.12547880820E+03  0.39364146010E+03  0.43528439255E+03  0.86422117351E+02 0.  0.
         23    2    4    4    0    0  0.99513242402E+03 -0.95886350801E+02  0.41870149424E+03  0.10877814696E+04  0.92058952579E+02 0.  0.
          1    1    3    3  502    0 -0.71597229289E+03  0.18074773932E+03 -0.15906523029E+03  0.75537263450E+03  0.00000000000E+00 0. -1.
         -1    1    3    3    0  502 -0.17283426593E+03  0.40617419682E+02 -0.84139345344E+02  0.19647108616E+03  0.00000000000E+00 0.  1.
         11    1    5    5    0    0  0.10932959628E+02 -0.13910599074E+02  0.13938617768E+02  0.22523752754E+02  0.00000000000E+00 0. -1.
        -11    1    5    5    0    0 -0.11725882482E+03 -0.11156820913E+03  0.37970284233E+03  0.41276063979E+03  0.00000000000E+00 0.  1.
          2    1    6    6  503    0  0.72351856749E+03 -0.76765699766E+02  0.26010943386E+03  0.77267652207E+03  0.00000000000E+00 0.  1.
         -2    1    6    6    0  503  0.27161385653E+03 -0.19120651036E+02  0.15859206039E+03  0.31510494755E+03  0.00000000000E+00 0. -1.
<mgrwt>
<rscale>  0 0.24085803E+04</rscale>
<asrwt>0</asrwt>
<pdfrwt beam="1">  1        1 0.23415754E+00 0.24085803E+04</pdfrwt>
<pdfrwt beam="2">  1       -1 0.14659778E+00 0.24085803E+04</pdfrwt>
<totfact> 0.20986822E+00</totfact>
</mgrwt>
</event>
<event>
12    2  0.3623523E-008  0.1478958E+04  0.7818608E-02  0.8898567E-01
         -1   -1    0    0    0  501 -0.00000000000E+00  0.00000000000E+00  0.23755646743E+03  0.23755646743E+03  0.00000000000E+00 0.  1.
          1   -1    0    0  501    0  0.00000000000E+00 -0.00000000000E+00 -0.23018925498E+04  0.23018925498E+04  0.00000000000E+00 0. -1.
         23    2    1    2    0    0  0.38081158807E+03  0.43344585513E+02 -0.10265435164E+04  0.10995680938E+04  0.91444973056E+02 0.  0.
        254    2    1    2    0    0 -0.38081158807E+03 -0.43344585513E+02 -0.10377925660E+04  0.14398809235E+04  0.92160048017E+03 0.  0.
         23    2    4    4    0    0 -0.16474252324E+01 -0.32127484368E+03 -0.46066766838E+02  0.33872682628E+03  0.96919949653E+02 0.  0.
         23    2    4    4    0    0 -0.37916416284E+03  0.27793025817E+03 -0.99172579916E+03  0.11011540972E+04  0.89496336564E+02 0.  0.
          4    1    3    3  502    0  0.14871086001E+03  0.30923454594E+02 -0.52964094174E+03  0.55099065972E+03  0.00000000000E+00 0. -1.
         -4    1    3    3    0  502  0.23210072806E+03  0.12421130919E+02 -0.49690257464E+03  0.54857743404E+03  0.00000000000E+00 0.  1.
         11    1    5    5    0    0  0.30722738181E+01 -0.23574007153E+03 -0.76431084548E+02  0.24783972820E+03  0.00000000000E+00 0.  1.
        -11    1    5    5    0    0 -0.47196990505E+01 -0.85534772154E+02  0.30364317710E+02  0.90887098075E+02  0.00000000000E+00 0. -1.
          2    1    6    6  503    0 -0.20695148543E+03  0.11296889567E+03 -0.56682206446E+03  0.61390401649E+03  0.00000000000E+00 0. -1.
         -2    1    6    6    0  503 -0.17221267741E+03  0.16496136250E+03 -0.42490373471E+03  0.48725008071E+03  0.00000000000E+00 0.  1.
<mgrwt>
<rscale>  0 0.14789584E+04</rscale>
<asrwt>0</asrwt>
<pdfrwt beam="1">  1        1 0.35413733E+00 0.14789584E+04</pdfrwt>
<pdfrwt beam="2">  1       -1 0.36547148E-01 0.14789584E+04</pdfrwt>
<totfact> 0.12930092E+01</totfact>
</mgrwt>
</event>
<event>
12    2  0.3623523E-008  0.1647615E+04  0.7818608E-02  0.8791818E-01
          2   -1    0    0  501    0  0.00000000000E+00  0.00000000000E+00  0.18137535545E+04  0.18137535545E+04  0.00000000000E+00 0. -1.
         -2   -1    0    0    0  501 -0.00000000000E+00 -0.00000000000E+00 -0.37417381558E+03  0.37417381558E+03  0.00000000000E+00 0.  1.
         23    2    1    2    0    0 -0.26060689359E+02  0.39799263807E+03  0.10283722484E+04  0.11074731856E+04  0.99348256122E+02 0.  0.
        254    2    1    2    0    0  0.26060689359E+02 -0.39799263807E+03  0.41120749056E+03  0.10804541845E+04  0.91608533725E+03 0.  0.
         23    2    4    4    0    0  0.85219584231E+02 -0.38273718688E+03 -0.20659285995E+03  0.45259159371E+03  0.91697378155E+02 0.  0.
         23    2    4    4    0    0 -0.59158894872E+02 -0.15255451188E+02  0.61780035051E+03  0.62786259083E+03  0.93817142586E+02 0.  0.
          3    1    3    3  502    0 -0.13605036156E+01  0.21417715814E+03  0.67820916083E+03  0.71122526099E+03  0.00000000000E+00 0. -1.
         -3    1    3    3    0  502 -0.24700185743E+02  0.18381547993E+03  0.35016308757E+03  0.39624792458E+03  0.00000000000E+00 0.  1.
         11    1    5    5    0    0 -0.85184285711E+01 -0.20959463052E+02 -0.34239074465E+02  0.41038724846E+02  0.00000000000E+00 0.  1.
        -11    1    5    5    0    0  0.93738012802E+02 -0.36177772383E+03 -0.17235378548E+03  0.41155286887E+03  0.00000000000E+00 0. -1.
          2    1    6    6  503    0  0.15682782125E+01  0.35497310903E+01 -0.23006413577E+01  0.45114341425E+01  0.00000000000E+00 0.  1.
         -2    1    6    6    0  503 -0.60727173084E+02 -0.18805182278E+02  0.62010099186E+03  0.62335115669E+03  0.00000000000E+00 0. -1.
<mgrwt>
<rscale>  0 0.16476154E+04</rscale>
<asrwt>0</asrwt>
<pdfrwt beam="1">  1        2 0.27903900E+00 0.16476154E+04</pdfrwt>
<pdfrwt beam="2">  1       -2 0.57565203E-01 0.16476154E+04</pdfrwt>
<totfact> 0.22893277E+01</totfact>
</mgrwt>
</event>
<event>
12    2  0.3623523E-008  0.2027727E+04  0.7818608E-02  0.8593766E-01
         -1   -1    0    0    0  501 -0.00000000000E+00  0.00000000000E+00  0.91277212808E+03  0.91277212808E+03  0.00000000000E+00 0.  1.
          1   -1    0    0  501    0  0.00000000000E+00 -0.00000000000E+00 -0.11261512715E+04  0.11261512715E+04  0.00000000000E+00 0. -1.
         23    2    1    2    0    0 -0.36941756496E+03 -0.49863612403E+03  0.43570556377E+03  0.76373513595E+03  0.91349319133E+02 0.  0.
        254    2    1    2    0    0  0.36941756496E+03  0.49863612403E+03 -0.64908470715E+03  0.12751882636E+04  0.90536557756E+03 0.  0.
         23    2    4    4    0    0  0.10207307611E+03  0.30335457597E+03  0.17942522781E+03  0.37812115896E+03  0.91319695840E+02 0.  0.
         23    2    4    4    0    0  0.26734448886E+03  0.19528154805E+03 -0.82850993496E+03  0.89706710462E+03  0.93234752813E+02 0.  0.
          2    1    3    3  502    0 -0.13831410177E+03 -0.24241754549E+03  0.15728768560E+03  0.32036927623E+03  0.00000000000E+00 0. -1.
         -2    1    3    3    0  502 -0.23110346319E+03 -0.25621857854E+03  0.27841787817E+03  0.44336585973E+03  0.00000000000E+00 0.  1.
         11    1    5    5    0    0  0.70956251274E+02  0.17362876585E+03  0.15315589864E+03  0.24215380900E+03  0.00000000000E+00 0.  1.
        -11    1    5    5    0    0  0.31116824832E+02  0.12972581012E+03  0.26269329173E+02  0.13596734996E+03  0.00000000000E+00 0. -1.
          3    1    6    6  503    0  0.97962302024E+02  0.80363638123E+02 -0.44071612373E+03  0.45856911002E+03  0.00000000000E+00 0. -1.
         -3    1    6    6    0  503  0.16938218683E+03  0.11491790993E+03 -0.38779381123E+03  0.43849799460E+03  0.00000000000E+00 0.  1.
<mgrwt>
<rscale>  0 0.20277273E+04</rscale>
<asrwt>0</asrwt>
<pdfrwt beam="1">  1        1 0.17325404E+00 0.20277273E+04</pdfrwt>
<pdfrwt beam="2">  1       -1 0.14042648E+00 0.20277273E+04</pdfrwt>
<totfact> 0.46638508E+00</totfact>
</mgrwt>
</event>
<event>
12    2  0.3623523E-008  0.1369951E+04  0.7818608E-02  0.8975861E-01
         -1   -1    0    0    0  501 -0.00000000000E+00  0.00000000000E+00  0.18875072547E+03  0.18875072547E+03  0.00000000000E+00 0.  1.
          1   -1    0    0  501    0  0.00000000000E+00 -0.00000000000E+00 -0.24857733492E+04  0.24857733492E+04  0.00000000000E+00 0. -1.
         23    2    1    2    0    0  0.35742905964E+03  0.12246193284E+03 -0.60993819619E+03  0.72328580813E+03  0.91462010665E+02 0.  0.
        254    2    1    2    0    0 -0.35742905964E+03 -0.12246193284E+03 -0.16870844275E+04  0.19512382665E+04  0.90461287272E+03 0.  0.
         23    2    4    4    0    0  0.18340129392E+03  0.11549154005E+03 -0.10207233915E+03  0.25714563186E+03  0.93438659701E+02 0.  0.
         23    2    4    4    0    0 -0.54083035356E+03 -0.23795347290E+03 -0.15850120884E+04  0.16940926347E+04  0.92559213281E+02 0.  0.
          3    1    3    3  502    0  0.44718379130E+01  0.73724766330E+01 -0.54654100060E+02  0.55330112953E+02  0.00000000000E+00 0. -1.
         -3    1    3    3    0  502  0.35295722173E+03  0.11508945621E+03 -0.55528409613E+03  0.66795569517E+03  0.00000000000E+00 0.  1.
         11    1    5    5    0    0  0.16640041781E+03  0.13144057560E+03 -0.97491782597E+02  0.23338888499E+03  0.00000000000E+00 0. -1.
        -11    1    5    5    0    0  0.17000876108E+02 -0.15949035547E+02 -0.45805565554E+01  0.23756746867E+02  0.00000000000E+00 0.  1.
          4    1    6    6  503    0 -0.39490344902E+03 -0.18468893892E+03 -0.12723535844E+04  0.13449692867E+04  0.00000000000E+00 0. -1.
         -4    1    6    6    0  503 -0.14592690454E+03 -0.53264533980E+02 -0.31265850393E+03  0.34912334802E+03  0.00000000000E+00 0.  1.
<mgrwt>
<rscale>  0 0.13699511E+04</rscale>
<asrwt>0</asrwt>
<pdfrwt beam="1">  1        1 0.38242664E+00 0.13699511E+04</pdfrwt>
<pdfrwt beam="2">  1       -1 0.29038575E-01 0.13699511E+04</pdfrwt>
<totfact> 0.14688186E+01</totfact>
</mgrwt>
</event>
<event>
12    2  0.3623523E-008  0.2512594E+04  0.7818608E-02  0.8398513E-01
         -2   -1    0    0    0  501 -0.00000000000E+00  0.00000000000E+00  0.15417705571E+04  0.15417705571E+04  0.00000000000E+00 0.  1.
          2   -1    0    0  501    0  0.00000000000E+00 -0.00000000000E+00 -0.10236815152E+04  0.10236815152E+04  0.00000000000E+00 0. -1.
         23    2    1    2    0    0  0.63105809214E+03  0.82369918056E+03  0.57152162620E+03  0.11880327643E+04  0.89834426618E+02 0.  0.
        254    2    1    2    0    0 -0.63105809214E+03 -0.82369918056E+03 -0.53432584301E+02  0.13774193080E+04  0.90427554064E+03 0.  0.
         23    2    4    4    0    0 -0.19311836467E+03 -0.37583311401E+03  0.40828709140E+03  0.59410023901E+03  0.87815218616E+02 0.  0.
         23    2    4    4    0    0 -0.43793972746E+03 -0.44786606654E+03 -0.46171967571E+03  0.78331906903E+03  0.89601822107E+02 0.  0.
          4    1    3    3  502    0  0.48993552187E+03  0.60074520230E+03  0.46132984422E+03  0.90208471822E+03  0.00000000000E+00 0. -1.
         -4    1    3    3    0  502  0.14112257027E+03  0.22295397825E+03  0.11019178198E+03  0.28594804611E+03  0.00000000000E+00 0.  1.
         11    1    5    5    0    0 -0.15920733267E+03 -0.21871472782E+03  0.24506855530E+03  0.36502288112E+03  0.00000000000E+00 0.  1.
        -11    1    5    5    0    0 -0.33911032002E+02 -0.15711838619E+03  0.16321853610E+03  0.22907735789E+03  0.00000000000E+00 0. -1.
          1    1    6    6  503    0 -0.19403658260E+03 -0.13953178444E+03 -0.15761912497E+03  0.28629198873E+03  0.00000000000E+00 0. -1.
         -1    1    6    6    0  503 -0.24390314486E+03 -0.30833428210E+03 -0.30410055074E+03  0.49702708030E+03  0.00000000000E+00 0.  1.
<mgrwt>
<rscale>  0 0.25125939E+04</rscale>
<asrwt>0</asrwt>
<pdfrwt beam="1">  1        2 0.15748946E+00 0.25125939E+04</pdfrwt>
<pdfrwt beam="2">  1       -2 0.23719547E+00 0.25125939E+04</pdfrwt>
<totfact> 0.16707583E+00</totfact>
</mgrwt>
</event>
<event>
12    2  0.3623523E-008  0.2044134E+04  0.7818608E-02  0.8586260E-01
         -1   -1    0    0    0  501 -0.00000000000E+00  0.00000000000E+00  0.70417040785E+03  0.70417040785E+03  0.00000000000E+00 0.  1.
          1   -1    0    0  501    0  0.00000000000E+00 -0.00000000000E+00 -0.14834770282E+04  0.14834770282E+04  0.00000000000E+00 0. -1.
         23    2    1    2    0    0 -0.11559477714E+03 -0.27777872984E+03  0.49932814023E+03  0.59194560191E+03  0.10270262282E+03 0.  0.
        254    2    1    2    0    0  0.11559477714E+03  0.27777872984E+03 -0.12786347606E+04  0.15957018341E+04  0.90599907134E+03 0.  0.
         23    2    4    4    0    0  0.19457762607E+03 -0.45996257888E+02  0.47882045851E+02  0.22503364204E+03  0.91495035001E+02 0.  0.
         23    2    4    4    0    0 -0.78982848932E+02  0.32377498773E+03 -0.13265168064E+04  0.13706681921E+04  0.89531681401E+02 0.  0.
          2    1    3    3  502    0 -0.53442223343E+02 -0.35890561334E+02  0.68783411953E+02  0.94209136439E+02  0.00000000000E+00 0. -1.
         -2    1    3    3    0  502 -0.62152553794E+02 -0.24188816851E+03  0.43054472828E+03  0.49773646547E+03  0.00000000000E+00 0.  1.
         11    1    5    5    0    0  0.17952406238E+03 -0.14836595994E+02  0.57545238162E+02  0.18910438384E+03  0.00000000000E+00 0. -1.
        -11    1    5    5    0    0  0.15053563690E+02 -0.31159661894E+02 -0.96631923108E+01  0.35929258199E+02  0.00000000000E+00 0.  1.
          4    1    6    6  503    0 -0.49497861155E+02  0.54690018132E+02 -0.25152538765E+03  0.26211840258E+03  0.00000000000E+00 0.  1.
         -4    1    6    6    0  503 -0.29484987778E+02  0.26908496960E+03 -0.10749914188E+04  0.11085497895E+04  0.00000000000E+00 0. -1.
<mgrwt>
<rscale>  0 0.20441337E+04</rscale>
<asrwt>0</asrwt>
<pdfrwt beam="1">  1        1 0.22822723E+00 0.20441337E+04</pdfrwt>
<pdfrwt beam="2">  1       -1 0.10833391E+00 0.20441337E+04</pdfrwt>
<totfact> 0.49110508E+00</totfact>
</mgrwt>
</event>
<event>
12    2  0.3623523E-008  0.2971119E+04  0.7818608E-02  0.8252027E-01
          1   -1    0    0  501    0  0.00000000000E+00  0.00000000000E+00  0.18252646897E+04  0.18252646897E+04  0.00000000000E+00 0. -1.
         -1   -1    0    0    0  501 -0.00000000000E+00 -0.00000000000E+00 -0.12090775781E+04  0.12090775781E+04  0.00000000000E+00 0.  1.
         23    2    1    2    0    0  0.69457033996E+03  0.60272559065E+03  0.12915343637E+04  0.15881622054E+04  0.92152500389E+02 0.  0.
        254    2    1    2    0    0 -0.69457033996E+03 -0.60272559065E+03 -0.67534725205E+03  0.14461800624E+04  0.88861508384E+03 0.  0.
         23    2    4    4    0    0 -0.62855734422E+03 -0.80406455386E+03 -0.65363121609E+03  0.12153583445E+04  0.90873522344E+02 0.  0.
         23    2    4    4    0    0 -0.66012995740E+02  0.20133896322E+03 -0.21716035953E+02  0.23082171792E+03  0.88949342482E+02 0.  0.
          4    1    3    3  502    0  0.61738809573E+03  0.54649241677E+03  0.11994050105E+04  0.14554705087E+04  0.00000000000E+00 0. -1.
         -4    1    3    3    0  502  0.77182244231E+02  0.56233173876E+02  0.92129353154E+02  0.13269169673E+03  0.00000000000E+00 0.  1.
         11    1    5    5    0    0 -0.52945723923E+03 -0.66348548895E+03 -0.58108178904E+03  0.10286855728E+04  0.00000000000E+00 0.  1.
        -11    1    5    5    0    0 -0.99100104987E+02 -0.14057906491E+03 -0.72549427058E+02  0.18667277162E+03  0.00000000000E+00 0. -1.
          2    1    6    6  503    0 -0.17280478763E+02  0.21336865027E+01 -0.18934722457E+02  0.25723360568E+02  0.00000000000E+00 0. -1.
         -2    1    6    6    0  503 -0.48732516977E+02  0.19920527672E+03 -0.27813134960E+01  0.20509835735E+03  0.00000000000E+00 0.  1.
<mgrwt>
<rscale>  0 0.29711187E+04</rscale>
<asrwt>0</asrwt>
<pdfrwt beam="1">  1        1 0.28080995E+00 0.29711187E+04</pdfrwt>
<pdfrwt beam="2">  1       -1 0.18601193E+00 0.29711187E+04</pdfrwt>
<totfact> 0.62990066E-01</totfact>
</mgrwt>
</event>
<event>
12    2  0.3623523E-008  0.2324399E+04  0.7818608E-02  0.8468363E-01
         -2   -1    0    0    0  501 -0.00000000000E+00  0.00000000000E+00  0.97238703012E+03  0.97238703012E+03  0.00000000000E+00 0.  1.
          2   -1    0    0  501    0  0.00000000000E+00 -0.00000000000E+00 -0.13890636568E+04  0.13890636568E+04  0.00000000000E+00 0. -1.
         23    2    1    2    0    0 -0.14855843065E+03 -0.19738336639E+03 -0.11449329479E+04  0.11746822453E+04  0.89314733304E+02 0.  0.
        254    2    1    2    0    0  0.14855843065E+03  0.19738336639E+03  0.72825632127E+03  0.11867684416E+04  0.90389837028E+03 0.  0.
         23    2    4    4    0    0  0.32864094409E+03 -0.87043528133E+02  0.75855467955E+03  0.83638617027E+03  0.92494205372E+02 0.  0.
         23    2    4    4    0    0 -0.18008251344E+03  0.28442689452E+03 -0.30298358277E+02  0.35038227130E+03  0.92311296996E+02 0.  0.
          2    1    3    3  502    0 -0.14821084346E+03 -0.18401044323E+03 -0.93740398642E+03  0.96672257194E+03  0.00000000000E+00 0. -1.
         -2    1    3    3    0  502 -0.34758719264E+00 -0.13372923154E+02 -0.20752896150E+03  0.20795967338E+03  0.00000000000E+00 0.  1.
         11    1    5    5    0    0  0.23053911292E+03 -0.99827542863E+02  0.58403776981E+03  0.63577821405E+03  0.00000000000E+00 0.  1.
        -11    1    5    5    0    0  0.98101831177E+02  0.12784014730E+02  0.17451690974E+03  0.20060795622E+03  0.00000000000E+00 0. -1.
          1    1    6    6  503    0 -0.17317550247E+03  0.21021173756E+03 -0.75881692914E+01  0.27246340961E+03  0.00000000000E+00 0. -1.
         -1    1    6    6    0  503 -0.69070109724E+01  0.74215156960E+02 -0.22710188986E+02  0.77918861689E+02  0.00000000000E+00 0.  1.
<mgrwt>
<rscale>  0 0.23243988E+04</rscale>
<asrwt>0</asrwt>
<pdfrwt beam="1">  1        2 0.21370210E+00 0.23243988E+04</pdfrwt>
<pdfrwt beam="2">  1       -2 0.14959800E+00 0.23243988E+04</pdfrwt>
<totfact> 0.40090902E+00</totfact>
</mgrwt>
</event>
<event>
12    2  0.3623523E-008  0.1679737E+04  0.7818608E-02  0.8773006E-01
          2   -1    0    0  501    0  0.00000000000E+00  0.00000000000E+00  0.32883472843E+04  0.32883472843E+04  0.00000000000E+00 0. -1.
         -2   -1    0    0    0  501 -0.00000000000E+00 -0.00000000000E+00 -0.21450859268E+03  0.21450859268E+03  0.00000000000E+00 0.  1.
         23    2    1    2    0    0  0.12851628805E+03  0.20745232926E+03  0.23547037704E+04  0.23693382572E+04  0.97882712405E+02 0.  0.
        254    2    1    2    0    0 -0.12851628805E+03 -0.20745232926E+03  0.71913492121E+03  0.11335176198E+04  0.84151901597E+03 0.  0.
         23    2    4    4    0    0  0.42024253015E+02  0.30383835675E+03  0.35028743826E+03  0.47411881822E+03  0.89462726923E+02 0.  0.
         23    2    4    4    0    0 -0.17054054106E+03 -0.51129068602E+03  0.36884748295E+03  0.65939880156E+03  0.90862930145E+02 0.  0.
          3    1    3    3  502    0  0.13770133399E+03  0.19828740713E+03  0.23153308053E+04  0.23278823620E+04  0.00000000000E+00 0. -1.
         -3    1    3    3    0  502 -0.91850459404E+01  0.91649221315E+01  0.39372965078E+02  0.41455895186E+02  0.00000000000E+00 0.  1.
         11    1    5    5    0    0  0.57180250695E+02  0.12665326309E+03  0.12340151241E+03  0.18584553636E+03  0.00000000000E+00 0. -1.
        -11    1    5    5    0    0 -0.15155997680E+02  0.17718509366E+03  0.22688592585E+03  0.28827328185E+03  0.00000000000E+00 0.  1.
          4    1    6    6  503    0 -0.11472921908E+03 -0.20617254988E+03  0.17283305320E+03  0.29247423529E+03  0.00000000000E+00 0. -1.
         -4    1    6    6    0  503 -0.55811321985E+02 -0.30511813614E+03  0.19601442975E+03  0.36692456627E+03  0.00000000000E+00 0.  1.
<mgrwt>
<rscale>  0 0.16797366E+04</rscale>
<asrwt>0</asrwt>
<pdfrwt beam="1">  1        2 0.50589955E+00 0.16797366E+04</pdfrwt>
<pdfrwt beam="2">  1       -2 0.33001324E-01 0.16797366E+04</pdfrwt>
<totfact> 0.93342685E+00</totfact>
</mgrwt>
</event>
<event>
12    2  0.3623523E-008  0.2236529E+04  0.7818608E-02  0.8503376E-01
          2   -1    0    0  501    0  0.00000000000E+00  0.00000000000E+00  0.75065399188E+03  0.75065399188E+03  0.00000000000E+00 0. -1.
         -2   -1    0    0    0  501 -0.00000000000E+00 -0.00000000000E+00 -0.16659006448E+04  0.16659006448E+04  0.00000000000E+00 0.  1.
         23    2    1    2    0    0 -0.26324735246E+03  0.26544189095E+03  0.52955661158E+03  0.65353481436E+03  0.83180422398E+02 0.  0.
        254    2    1    2    0    0  0.26324735246E+03 -0.26544189095E+03 -0.14448032645E+04  0.17630198223E+04  0.93862870972E+03 0.  0.
         23    2    4    4    0    0 -0.24593011432E+03 -0.11175146486E+03 -0.81138355574E+02  0.29615563176E+03  0.90303457565E+02 0.  0.
         23    2    4    4    0    0  0.50917746678E+03 -0.15369042609E+03 -0.13636649089E+04  0.14668641905E+04  0.96052745644E+02 0.  0.
          3    1    3    3  502    0 -0.21615801209E+03  0.17186536956E+03  0.41299419392E+03  0.49681605817E+03  0.00000000000E+00 0. -1.
         -3    1    3    3    0  502 -0.47089340366E+02  0.93576521391E+02  0.11656241766E+03  0.15671875619E+03  0.00000000000E+00 0.  1.
         11    1    5    5    0    0 -0.18027718677E+03 -0.71893619867E+02 -0.14764225728E+02  0.19464464804E+03  0.00000000000E+00 0.  1.
        -11    1    5    5    0    0 -0.65652927552E+02 -0.39857844997E+02 -0.66374129846E+02  0.10151098372E+03  0.00000000000E+00 0. -1.
          4    1    6    6  503    0  0.34657695573E+03 -0.63636919464E+02 -0.82773073049E+03  0.89961292008E+03  0.00000000000E+00 0. -1.
         -4    1    6    6    0  503  0.16260051105E+03 -0.90053506621E+02 -0.53593417841E+03  0.56725127045E+03  0.00000000000E+00 0.  1.
<mgrwt>
<rscale>  0 0.22365285E+04</rscale>
<asrwt>0</asrwt>
<pdfrwt beam="1">  1        2 0.11548523E+00 0.22365285E+04</pdfrwt>
<pdfrwt beam="2">  1       -2 0.25629241E+00 0.22365285E+04</pdfrwt>
<totfact> 0.20065070E+00</totfact>
</mgrwt>
</event>
<event>
12    2  0.3623523E-008  0.2399700E+04  0.7818608E-02  0.8439616E-01
          2   -1    0    0  501    0  0.00000000000E+00  0.00000000000E+00  0.88080099144E+03  0.88080099144E+03  0.00000000000E+00 0.  1.
         -2   -1    0    0    0  501 -0.00000000000E+00 -0.00000000000E+00 -0.16344672878E+04  0.16344672878E+04  0.00000000000E+00 0. -1.
         23    2    1    2    0    0  0.31957448301E+03  0.91018728015E+02  0.69528833677E+03  0.77561179555E+03  0.87951845433E+02 0.  0.
        254    2    1    2    0    0 -0.31957448301E+03 -0.91018728015E+02 -0.14489546331E+04  0.17396564837E+04  0.90361656321E+03 0.  0.
         23    2    4    4    0    0  0.18613973851E+03  0.31085340321E+02 -0.12226241023E+02  0.20887781176E+03  0.88691367333E+02 0.  0.
         23    2    4    4    0    0 -0.50571422153E+03 -0.12210406834E+03 -0.14367283921E+04  0.15307786719E+04  0.91861811326E+02 0.  0.
          4    1    3    3  502    0  0.93154138833E+02  0.17021561934E+02  0.29480879548E+03  0.30964439772E+03  0.00000000000E+00 0. -1.
         -4    1    3    3    0  502  0.22642034418E+03  0.73997166081E+02  0.40047954129E+03  0.46596739783E+03  0.00000000000E+00 0.  1.
         11    1    5    5    0    0  0.18971751330E+03  0.15689928871E+02 -0.19723348976E+02  0.19138421883E+03  0.00000000000E+00 0.  1.
        -11    1    5    5    0    0 -0.35777747852E+01  0.15395411450E+02  0.74971079533E+01  0.17493592935E+02  0.00000000000E+00 0. -1.
          4    1    6    6  503    0 -0.92305436252E+02 -0.43036069965E+02 -0.37724403784E+03  0.39074987007E+03  0.00000000000E+00 0.  1.
         -4    1    6    6    0  503 -0.41340878528E+03 -0.79067998371E+02 -0.10594843542E+04  0.11400288018E+04  0.00000000000E+00 0. -1.
<mgrwt>
<rscale>  0 0.23997003E+04</rscale>
<asrwt>0</asrwt>
<pdfrwt beam="1">  1        2 0.13550785E+00 0.23997003E+04</pdfrwt>
<pdfrwt beam="2">  1       -2 0.25145650E+00 0.23997003E+04</pdfrwt>
<totfact> 0.17103365E+00</totfact>
</mgrwt>
</event>
<event>
12    2  0.3623523E-008  0.1368036E+04  0.7818608E-02  0.8977286E-01
         -3   -1    0    0    0  501 -0.00000000000E+00  0.00000000000E+00  0.85488085591E+03  0.85488085591E+03  0.00000000000E+00 0.  1.
          3   -1    0    0  501    0  0.00000000000E+00 -0.00000000000E+00 -0.54730499270E+03  0.54730499270E+03  0.00000000000E+00 0. -1.
         23    2    1    2    0    0 -0.67293081632E+02  0.40023807518E+02  0.48574366578E+03  0.49935115503E+03  0.85290111840E+02 0.  0.
        254    2    1    2    0    0  0.67293081632E+02 -0.40023807518E+02 -0.17816780256E+03  0.90283469359E+03  0.88161014857E+03 0.  0.
         23    2    4    4    0    0 -0.33599079903E+03  0.19799388352E+02  0.13980558883E+03  0.37820610135E+03  0.10105651698E+03 0.  0.
         23    2    4    4    0    0  0.40328388066E+03 -0.59823195871E+02 -0.31797339139E+03  0.52462859223E+03  0.88945932985E+02 0.  0.
          2    1    3    3  502    0 -0.38252906762E+02  0.49980716101E+02  0.43859967225E+03  0.44309257425E+03  0.00000000000E+00 0.  1.
         -2    1    3    3    0  502 -0.29040174870E+02 -0.99569085824E+01  0.47143993524E+02  0.56258580771E+02  0.00000000000E+00 0. -1.
         11    1    5    5    0    0 -0.24773449079E+03 -0.17980063546E+02  0.13351869996E+03  0.28199805647E+03  0.00000000000E+00 0. -1.
        -11    1    5    5    0    0 -0.88256308234E+02  0.37779451898E+02  0.62868888685E+01  0.96208044884E+02  0.00000000000E+00 0.  1.
          1    1    6    6  503    0  0.34012170507E+03 -0.27756610876E+02 -0.29216805047E+03  0.44923865976E+03  0.00000000000E+00 0. -1.
         -1    1    6    6    0  503  0.63162175592E+02 -0.32066584994E+02 -0.25805340915E+02  0.75389932474E+02  0.00000000000E+00 0.  1.
<mgrwt>
<rscale>  0 0.13680359E+04</rscale>
<asrwt>0</asrwt>
<pdfrwt beam="1">  1        3 0.84200768E-01 0.13680359E+04</pdfrwt>
<pdfrwt beam="2">  1       -3 0.13152013E+00 0.13680359E+04</pdfrwt>
<totfact> 0.14950631E+00</totfact>
</mgrwt>
</event>
<event>
12    2  0.3623523E-008  0.1706421E+04  0.7818608E-02  0.8757711E-01
         -2   -1    0    0    0  501 -0.00000000000E+00  0.00000000000E+00  0.22287414866E+03  0.22287414866E+03  0.00000000000E+00 0.  1.
          2   -1    0    0  501    0  0.00000000000E+00 -0.00000000000E+00 -0.32662749523E+04  0.32662749523E+04  0.00000000000E+00 0. -1.
         23    2    1    2    0    0 -0.19040829383E+02  0.30749776620E+03 -0.22943722785E+02  0.32213485430E+03  0.91252509787E+02 0.  0.
        254    2    1    2    0    0  0.19040829383E+02 -0.30749776620E+03 -0.30204570809E+04  0.31670142467E+04  0.90105539885E+03 0.  0.
         23    2    4    4    0    0 -0.16691986285E+03 -0.42903805015E+03 -0.75977777892E+03  0.89360528143E+03  0.96603501861E+02 0.  0.
         23    2    4    4    0    0  0.18596069223E+03  0.12154028395E+03 -0.22606793020E+04  0.22734089652E+04  0.91454891975E+02 0.  0.
          2    1    3    3  502    0 -0.22132069319E+02  0.20182233053E+02  0.12829284642E+02  0.32584376130E+02  0.00000000000E+00 0. -1.
         -2    1    3    3    0  502  0.30912399365E+01  0.28731553314E+03 -0.35773007427E+02  0.28955047817E+03  0.00000000000E+00 0.  1.
         11    1    5    5    0    0 -0.99634986502E+02 -0.35784696694E+03 -0.62372228854E+03  0.72595528479E+03  0.00000000000E+00 0. -1.
        -11    1    5    5    0    0 -0.67284876344E+02 -0.71191083204E+02 -0.13605549038E+03  0.16764999664E+03  0.00000000000E+00 0.  1.
          4    1    6    6  503    0  0.83717115089E+02  0.10835967018E+03 -0.12409599281E+04  0.12484918569E+04  0.00000000000E+00 0. -1.
         -4    1    6    6    0  503  0.10224357714E+03  0.13180613767E+02 -0.10197193738E+04  0.10249171084E+04  0.00000000000E+00 0.  1.
<mgrwt>
<rscale>  0 0.17064211E+04</rscale>
<asrwt>0</asrwt>
<pdfrwt beam="1">  1        2 0.50250381E+00 0.17064211E+04</pdfrwt>
<pdfrwt beam="2">  1       -2 0.34288333E-01 0.17064211E+04</pdfrwt>
<totfact> 0.89525902E+00</totfact>
</mgrwt>
</event>
<event>
12    2  0.3623523E-008  0.1932282E+04  0.7818608E-02  0.8638952E-01
         -1   -1    0    0    0  501 -0.00000000000E+00  0.00000000000E+00  0.25051586545E+04  0.25051586545E+04  0.00000000000E+00 0.  1.
          1   -1    0    0  501    0  0.00000000000E+00 -0.00000000000E+00 -0.37260242562E+03  0.37260242562E+03  0.00000000000E+00 0. -1.
         23    2    1    2    0    0 -0.20877198611E+03  0.36833535168E+03 -0.90808401117E+02  0.44275237771E+03  0.92340829408E+02 0.  0.
        254    2    1    2    0    0  0.20877198611E+03 -0.36833535168E+03  0.22233646300E+04  0.24350087024E+04  0.89814276670E+03 0.  0.
         23    2    4    4    0    0  0.23516969100E+03  0.21139821951E+03  0.39479868156E+03  0.51459143214E+03  0.94574585866E+02 0.  0.
         23    2    4    4    0    0 -0.26397704891E+02 -0.57973357119E+03  0.18285659484E+04  0.19204172702E+04  0.86955228539E+02 0.  0.
          1    1    3    3  502    0 -0.13448041873E+03  0.25700705308E+03 -0.10427030053E+03  0.30823676602E+03  0.00000000000E+00 0. -1.
         -1    1    3    3    0  502 -0.74291567378E+02  0.11132829860E+03  0.13461899415E+02  0.13451561169E+03  0.00000000000E+00 0.  1.
         11    1    5    5    0    0  0.23799964915E+03  0.17980167148E+03  0.35950315516E+03  0.46713487628E+03  0.00000000000E+00 0.  1.
        -11    1    5    5    0    0 -0.28299581509E+01  0.31596548028E+02  0.35295526399E+02  0.47456555861E+02  0.00000000000E+00 0. -1.
          2    1    6    6  503    0  0.13052761487E+02 -0.14794855912E+02  0.81667038874E+02  0.84016472089E+02  0.00000000000E+00 0. -1.
         -2    1    6    6    0  503 -0.39450466378E+02 -0.56493871527E+03  0.17468989095E+04  0.18364007982E+04  0.00000000000E+00 0.  1.
<mgrwt>
<rscale>  0 0.19322818E+04</rscale>
<asrwt>0</asrwt>
<pdfrwt beam="1">  1        1 0.57323452E-01 0.19322818E+04</pdfrwt>
<pdfrwt beam="2">  1       -1 0.38540901E+00 0.19322818E+04</pdfrwt>
<totfact> 0.55445709E-01</totfact>
</mgrwt>
</event>
<event>
12    2  0.3623523E-008  0.1671528E+04  0.7818608E-02  0.8777772E-01
          1   -1    0    0  501    0  0.00000000000E+00  0.00000000000E+00  0.79515998134E+03  0.79515998134E+03  0.00000000000E+00 0. -1.
         -1   -1    0    0    0  501 -0.00000000000E+00 -0.00000000000E+00 -0.87844158897E+03  0.87844158897E+03  0.00000000000E+00 0.  1.
         23    2    1    2    0    0 -0.44912421126E+03 -0.37370360627E+03 -0.80978939082E+01  0.59226550435E+03  0.96674243087E+02 0.  0.
        254    2    1    2    0    0  0.44912421126E+03  0.37370360627E+03 -0.75183713725E+02  0.10813360660E+04  0.90679002765E+03 0.  0.
         23    2    4    4    0    0 -0.20918487132E+03  0.21334849006E+02 -0.21851641136E+03  0.31549536300E+03  0.87031120115E+02 0.  0.
         23    2    4    4    0    0  0.65830908259E+03  0.35236875726E+03  0.14333269764E+03  0.76584070296E+03  0.91832079286E+02 0.  0.
          2    1    3    3  502    0 -0.43731060237E+03 -0.34294361046E+03 -0.22739113741E+02  0.55620854919E+03  0.00000000000E+00 0. -1.
         -2    1    3    3    0  502 -0.11813608897E+02 -0.30759995807E+02  0.14641219833E+02  0.36056955160E+02  0.00000000000E+00 0.  1.
         11    1    5    5    0    0 -0.21398202886E+03  0.31059175680E+02 -0.20313596387E+03  0.29667693016E+03  0.00000000000E+00 0. -1.
        -11    1    5    5    0    0  0.47971575391E+01 -0.97243266737E+01 -0.15380447488E+02  0.18818432842E+02  0.00000000000E+00 0.  1.
          4    1    6    6  503    0  0.17943113754E+02 -0.48520556945E+01 -0.54267876348E+00  0.18595490740E+02  0.00000000000E+00 0.  1.
         -4    1    6    6    0  503  0.64036596883E+03  0.35722081296E+03  0.14387537640E+03  0.74724521222E+03  0.00000000000E+00 0. -1.
<mgrwt>
<rscale>  0 0.16715282E+04</rscale>
<asrwt>0</asrwt>
<pdfrwt beam="1">  1        1 0.12233231E+00 0.16715282E+04</pdfrwt>
<pdfrwt beam="2">  1       -1 0.13514486E+00 0.16715282E+04</pdfrwt>
<totfact> 0.97846757E+00</totfact>
</mgrwt>
</event>
<event>
12    2  0.3623523E-008  0.1693934E+04  0.7818608E-02  0.8764831E-01
          2   -1    0    0  501    0  0.00000000000E+00  0.00000000000E+00  0.75259785171E+03  0.75259785171E+03  0.00000000000E+00 0. -1.
         -2   -1    0    0    0  501 -0.00000000000E+00 -0.00000000000E+00 -0.95316964623E+03  0.95316964623E+03  0.00000000000E+00 0.  1.
         23    2    1    2    0    0 -0.28164592882E+03 -0.86352301709E+02 -0.60129110169E+03  0.67980994247E+03  0.11751348722E+03 0.  0.
        254    2    1    2    0    0  0.28164592882E+03  0.86352301709E+02  0.40071930718E+03  0.10259575555E+04  0.89734708628E+03 0.  0.
         23    2    4    4    0    0  0.78092398886E+01  0.37834126387E+03  0.46867695206E+03  0.60907697875E+03  0.90075437744E+02 0.  0.
         23    2    4    4    0    0  0.27383668893E+03 -0.29198896216E+03 -0.67957644880E+02  0.41688057672E+03  0.94483265811E+02 0.  0.
          2    1    3    3  502    0  0.64803091679E+01 -0.20589219866E+02 -0.43685255217E+02  0.48726911507E+02  0.00000000000E+00 0. -1.
         -2    1    3    3    0  502 -0.28812623798E+03 -0.65763081843E+02 -0.55760584647E+03  0.63108303096E+03  0.00000000000E+00 0.  1.
         11    1    5    5    0    0  0.44097082271E+02  0.12401824140E+03  0.17314366969E+03  0.21749438434E+03  0.00000000000E+00 0. -1.
        -11    1    5    5    0    0 -0.36287842383E+02  0.25432302247E+03  0.29553328236E+03  0.39158259442E+03  0.00000000000E+00 0.  1.
          1    1    6    6  503    0  0.41777126905E+02 -0.75940790683E+02 -0.48268136035E+02  0.99207585285E+02  0.00000000000E+00 0. -1.
         -1    1    6    6    0  503  0.23205956202E+03 -0.21604817148E+03 -0.19689508845E+02  0.31767299143E+03  0.00000000000E+00 0.  1.
<mgrwt>
<rscale>  0 0.16939344E+04</rscale>
<asrwt>0</asrwt>
<pdfrwt beam="1">  1        2 0.11578429E+00 0.16939344E+04</pdfrwt>
<pdfrwt beam="2">  1       -2 0.14664148E+00 0.16939344E+04</pdfrwt>
<totfact> 0.11300687E+01</totfact>
</mgrwt>
</event>
<event>
12    2  0.3623523E-008  0.2498845E+04  0.7818608E-02  0.8403397E-01
         -1   -1    0    0    0  501 -0.00000000000E+00  0.00000000000E+00  0.13452066120E+04  0.13452066120E+04  0.00000000000E+00 0.  1.
          1   -1    0    0  501    0  0.00000000000E+00 -0.00000000000E+00 -0.11604586930E+04  0.11604586930E+04  0.00000000000E+00 0. -1.
         23    2    1    2    0    0  0.85847022371E+03  0.18535786069E+03  0.72839031784E+03  0.11446409995E+04  0.91224454031E+02 0.  0.
        254    2    1    2    0    0 -0.85847022371E+03 -0.18535786069E+03 -0.54364239884E+03  0.13610243056E+04  0.88629083328E+03 0.  0.
         23    2    4    4    0    0 -0.13847566389E+03 -0.21791498706E+03  0.18599751585E+03  0.33130998011E+03  0.92243026529E+02 0.  0.
         23    2    4    4    0    0 -0.71999455982E+03  0.32557126366E+02 -0.72963991469E+03  0.10297143255E+04  0.92114355122E+02 0.  0.
          2    1    3    3  502    0  0.50541654990E+03  0.77281264505E+02  0.38047598843E+03  0.63732272871E+03  0.00000000000E+00 0. -1.
         -2    1    3    3    0  502  0.35305367381E+03  0.10807659619E+03  0.34791432940E+03  0.50731827075E+03  0.00000000000E+00 0.  1.
         11    1    5    5    0    0 -0.66180266231E+02 -0.15807198087E+03  0.78150352442E+02  0.18834557696E+03  0.00000000000E+00 0. -1.
        -11    1    5    5    0    0 -0.72295397662E+02 -0.59843006192E+02  0.10784716341E+03  0.14296440315E+03  0.00000000000E+00 0.  1.
          4    1    6    6  503    0 -0.59033057979E+03  0.59265312981E+02 -0.61585259541E+03  0.85514734989E+03  0.00000000000E+00 0. -1.
         -4    1    6    6    0  503 -0.12966398003E+03 -0.26708186614E+02 -0.11378731928E+03  0.17456697562E+03  0.00000000000E+00 0.  1.
<mgrwt>
<rscale>  0 0.24988451E+04</rscale>
<asrwt>0</asrwt>
<pdfrwt beam="1">  1        1 0.17853211E+00 0.24988451E+04</pdfrwt>
<pdfrwt beam="2">  1       -1 0.20695486E+00 0.24988451E+04</pdfrwt>
<totfact> 0.13689719E+00</totfact>
</mgrwt>
</event>
<event>
12    2  0.3623523E-008  0.1431392E+04  0.7818608E-02  0.8931404E-01
          2   -1    0    0  501    0  0.00000000000E+00  0.00000000000E+00  0.29887736559E+04  0.29887736559E+04  0.00000000000E+00 0. -1.
         -2   -1    0    0    0  501 -0.00000000000E+00 -0.00000000000E+00 -0.17138158689E+03  0.17138158689E+03  0.00000000000E+00 0.  1.
         23    2    1    2    0    0  0.78093411076E+02  0.11455448530E+03 -0.18758337112E+02  0.18068148182E+03  0.11433552250E+03 0.  0.
        254    2    1    2    0    0 -0.78093411076E+02 -0.11455448530E+03  0.28361504061E+04  0.29794737610E+04  0.90238210046E+03 0.  0.
         23    2    4    4    0    0 -0.16404126343E+02 -0.48813928115E+03  0.19373043331E+04  0.20001336749E+04  0.94008432108E+02 0.  0.
         23    2    4    4    0    0 -0.61689284733E+02  0.37358479585E+03  0.89884607306E+03  0.97934008610E+03  0.88383107200E+02 0.  0.
          2    1    3    3  502    0  0.18797431996E+02  0.11748021683E+03 -0.19918713786E+01  0.11899122803E+03  0.00000000000E+00 0.  1.
         -2    1    3    3    0  502  0.59295979079E+02 -0.29257315293E+01 -0.16766465734E+02  0.61690253794E+02  0.00000000000E+00 0. -1.
         11    1    5    5    0    0 -0.19150195356E+02 -0.65472847130E+02  0.17439431985E+03  0.18726132139E+03  0.00000000000E+00 0.  1.
        -11    1    5    5    0    0  0.27460690128E+01 -0.42266643402E+03  0.17629100132E+04  0.18128723535E+04  0.00000000000E+00 0. -1.
          1    1    6    6  503    0 -0.67122592793E+02  0.25904606067E+03  0.54090279517E+03  0.60347836567E+03  0.00000000000E+00 0. -1.
         -1    1    6    6    0  503  0.54333080604E+01  0.11453873518E+03  0.35794327789E+03  0.37586172042E+03  0.00000000000E+00 0.  1.
<mgrwt>
<rscale>  0 0.14313920E+04</rscale>
<asrwt>0</asrwt>
<pdfrwt beam="1">  1        2 0.45981129E+00 0.14313920E+04</pdfrwt>
<pdfrwt beam="2">  1       -2 0.26366400E-01 0.14313920E+04</pdfrwt>
<totfact> 0.22562562E+01</totfact>
</mgrwt>
</event>
<event>
12    2  0.3623523E-008  0.1961898E+04  0.7818608E-02  0.8624645E-01
         -1   -1    0    0    0  501 -0.00000000000E+00  0.00000000000E+00  0.39101340535E+03  0.39101340535E+03  0.00000000000E+00 0.  1.
          1   -1    0    0  501    0  0.00000000000E+00 -0.00000000000E+00 -0.24609414930E+04  0.24609414930E+04  0.00000000000E+00 0. -1.
         23    2    1    2    0    0  0.10377818983E+03  0.75893883346E+03 -0.87707916908E+03  0.11692450794E+04  0.10539507176E+03 0.  0.
        254    2    1    2    0    0 -0.10377818983E+03 -0.75893883346E+03 -0.11928489185E+04  0.16827098190E+04  0.90656810378E+03 0.  0.
         23    2    4    4    0    0 -0.35209874762E+03 -0.59961499142E+03 -0.11808181007E+04  0.13734756415E+04  0.92694577805E+02 0.  0.
         23    2    4    4    0    0  0.24832055779E+03 -0.15932384204E+03 -0.12030817857E+02  0.30923417752E+03  0.91835994595E+02 0.  0.
          4    1    3    3  502    0  0.25820258210E+02  0.35031056305E+03 -0.47429343830E+03  0.59020203484E+03  0.00000000000E+00 0. -1.
         -4    1    3    3    0  502  0.77957931623E+02  0.40862827041E+03 -0.40278573078E+03  0.57904304452E+03  0.00000000000E+00 0.  1.
         11    1    5    5    0    0 -0.14843294844E+03 -0.32813760869E+03 -0.55640720310E+03  0.66279378851E+03  0.00000000000E+00 0. -1.
        -11    1    5    5    0    0 -0.20366579918E+03 -0.27147738273E+03 -0.62441089759E+03  0.71068185295E+03  0.00000000000E+00 0.  1.
          3    1    6    6  503    0  0.32698096328E+02  0.10703247067E+02 -0.12904213833E+01  0.34429495910E+02  0.00000000000E+00 0. -1.
         -3    1    6    6    0  503  0.21562246146E+03 -0.17002708911E+03 -0.10740396474E+02  0.27480468161E+03  0.00000000000E+00 0.  1.
<mgrwt>
<rscale>  0 0.19618982E+04</rscale>
<asrwt>0</asrwt>
<pdfrwt beam="1">  1        1 0.37860637E+00 0.19618982E+04</pdfrwt>
<pdfrwt beam="2">  1       -1 0.60155910E-01 0.19618982E+04</pdfrwt>
<totfact> 0.37621685E+00</totfact>
</mgrwt>
</event>
<event>
12    2  0.3623523E-008  0.2689837E+04  0.7818608E-02  0.8338310E-01
          2   -1    0    0  501    0  0.00000000000E+00  0.00000000000E+00  0.27879271343E+04  0.27879271343E+04  0.00000000000E+00 0.  1.
         -2   -1    0    0    0  501 -0.00000000000E+00 -0.00000000000E+00 -0.64879967930E+03  0.64879967930E+03  0.00000000000E+00 0. -1.
         23    2    1    2    0    0 -0.24931278525E+02 -0.55277443110E+03  0.22991036678E+04  0.23665868381E+04  0.93136710477E+02 0.  0.
        254    2    1    2    0    0  0.24931278525E+02  0.55277443110E+03 -0.15997621279E+03  0.10701399755E+04  0.90190134610E+03 0.  0.
         23    2    4    4    0    0  0.33522484244E+03  0.63426827942E+03 -0.13944287934E+03  0.73634255523E+03  0.89911605437E+02 0.  0.
         23    2    4    4    0    0 -0.31029356391E+03 -0.81493848314E+02 -0.20533333458E+02  0.33379742023E+03  0.89865214899E+02 0.  0.
          2    1    3    3  502    0  0.31470667633E+02 -0.28187236163E+03  0.12262562311E+04  0.12586289268E+04  0.00000000000E+00 0. -1.
         -2    1    3    3    0  502 -0.56401946158E+02 -0.27090206948E+03  0.10728474367E+04  0.11079579113E+04  0.00000000000E+00 0.  1.
         11    1    5    5    0    0  0.85232058616E+02  0.19820053399E+03 -0.80394136453E+02  0.23024155287E+03  0.00000000000E+00 0.  1.
        -11    1    5    5    0    0  0.24999278382E+03  0.43606774542E+03 -0.59048742882E+02  0.50610100237E+03  0.00000000000E+00 0. -1.
          3    1    6    6  503    0 -0.24996052015E+03 -0.27402597588E+02 -0.24643558164E+02  0.25266275734E+03  0.00000000000E+00 0. -1.
         -3    1    6    6    0  503 -0.60333043768E+02 -0.54091250726E+02  0.41102247051E+01  0.81134662892E+02  0.00000000000E+00 0.  1.
<mgrwt>
<rscale>  0 0.26898373E+04</rscale>
<asrwt>0</asrwt>
<pdfrwt beam="1">  1        2 0.42891186E+00 0.26898373E+04</pdfrwt>
<pdfrwt beam="2">  1       -2 0.99815337E-01 0.26898373E+04</pdfrwt>
<totfact> 0.17125164E+00</totfact>
</mgrwt>
</event>
<event>
12    2  0.3623523E-008  0.1785984E+04  0.7818608E-02  0.8713789E-01
         -1   -1    0    0    0  501 -0.00000000000E+00  0.00000000000E+00  0.10233770131E+04  0.10233770131E+04  0.00000000000E+00 0.  1.
          1   -1    0    0  501    0  0.00000000000E+00 -0.00000000000E+00 -0.77921853234E+03  0.77921853234E+03  0.00000000000E+00 0. -1.
         23    2    1    2    0    0  0.44000652714E+03 -0.15828393757E+03 -0.38382099711E+03  0.61213841993E+03  0.93463032881E+02 0.  0.
        254    2    1    2    0    0 -0.44000652714E+03  0.15828393757E+03  0.62797947785E+03  0.11904571255E+04  0.89675548184E+03 0.  0.
         23    2    4    4    0    0 -0.27709834891E+03 -0.13946041226E+01 -0.18124424687E+03  0.34427244252E+03  0.94279360245E+02 0.  0.
         23    2    4    4    0    0 -0.16290817823E+03  0.15967854169E+03  0.80922372472E+03  0.84618468297E+03  0.95651292889E+02 0.  0.
          1    1    3    3  502    0  0.35576569106E+03 -0.12283684439E+03 -0.35209934423E+03  0.51539505768E+03  0.00000000000E+00 0. -1.
         -1    1    3    3    0  502  0.84240836077E+02 -0.35447093181E+02 -0.31721652884E+02  0.96743362250E+02  0.00000000000E+00 0.  1.
         11    1    5    5    0    0 -0.23931448807E+03  0.24194090491E+02 -0.17660082593E+03  0.29840346837E+03  0.00000000000E+00 0. -1.
        -11    1    5    5    0    0 -0.37783860837E+02 -0.25588694613E+02 -0.46434209389E+01  0.45868974152E+02  0.00000000000E+00 0.  1.
          1    1    6    6  503    0 -0.85350407402E+01  0.43777429126E+02  0.26526834310E+03  0.26899182900E+03  0.00000000000E+00 0.  1.
         -1    1    6    6    0  503 -0.15437313749E+03  0.11590111257E+03  0.54395538163E+03  0.57719285397E+03  0.00000000000E+00 0. -1.
<mgrwt>
<rscale>  0 0.17859836E+04</rscale>
<asrwt>0</asrwt>
<pdfrwt beam="1">  1        1 0.11987977E+00 0.17859836E+04</pdfrwt>
<pdfrwt beam="2">  1       -1 0.15744262E+00 0.17859836E+04</pdfrwt>
<totfact> 0.66589254E+00</totfact>
</mgrwt>
</event>
<event>
12    2  0.3623523E-008  0.1930790E+04  0.7818608E-02  0.8639680E-01
          1   -1    0    0  501    0  0.00000000000E+00  0.00000000000E+00  0.12243857024E+04  0.12243857024E+04  0.00000000000E+00 0. -1.
         -1   -1    0    0    0  501 -0.00000000000E+00 -0.00000000000E+00 -0.76118801582E+03  0.76118801582E+03  0.00000000000E+00 0.  1.
         23    2    1    2    0    0  0.10210219747E+03 -0.34328954522E+02 -0.57163801666E+03  0.58926856440E+03  0.94149259441E+02 0.  0.
        254    2    1    2    0    0 -0.10210219747E+03  0.34328954522E+02  0.10348357033E+04  0.13963051538E+04  0.93122489982E+03 0.  0.
         23    2    4    4    0    0  0.29844469823E+03  0.20818137057E+03  0.81781720334E+03  0.89965034207E+03  0.90205537316E+02 0.  0.
         23    2    4    4    0    0 -0.40054689569E+03 -0.17385241605E+03  0.21701849994E+03  0.49665481177E+03  0.94374225985E+02 0.  0.
          1    1    3    3  502    0  0.63938007246E+02 -0.24664844385E+02 -0.14035089003E+03  0.15618833392E+03  0.00000000000E+00 0. -1.
         -1    1    3    3    0  502  0.38164190221E+02 -0.96641101374E+01 -0.43128712663E+03  0.43308023048E+03  0.00000000000E+00 0.  1.
         11    1    5    5    0    0  0.28060143964E+03  0.17025786875E+03  0.76338473067E+03  0.83095195819E+03  0.00000000000E+00 0.  1.
        -11    1    5    5    0    0  0.17843258586E+02  0.37923501820E+02  0.54432472670E+02  0.68698383884E+02  0.00000000000E+00 0. -1.
          2    1    6    6  503    0 -0.81040349896E+02 -0.45711294108E-01  0.22112672677E+02  0.84003039788E+02  0.00000000000E+00 0. -1.
         -2    1    6    6    0  503 -0.31950654580E+03 -0.17380670475E+03  0.19490582726E+03  0.41265177199E+03  0.00000000000E+00 0.  1.
<mgrwt>
<rscale>  0 0.19307902E+04</rscale>
<asrwt>0</asrwt>
<pdfrwt beam="1">  1        1 0.18836703E+00 0.19307902E+04</pdfrwt>
<pdfrwt beam="2">  1       -1 0.11710585E+00 0.19307902E+04</pdfrwt>
<totfact> 0.62889897E+00</totfact>
</mgrwt>
</event>
<event>
12    2  0.3623523E-008  0.1552031E+04  0.7818608E-02  0.8850572E-01
         -1   -1    0    0    0  501 -0.00000000000E+00  0.00000000000E+00  0.63573166354E+03  0.63573166354E+03  0.00000000000E+00 0.  1.
          1   -1    0    0  501    0  0.00000000000E+00 -0.00000000000E+00 -0.94725476024E+03  0.94725476024E+03  0.00000000000E+00 0. -1.
         23    2    1    2    0    0 -0.47570191073E+03 -0.60483935323E+02 -0.34026232549E+03  0.59372005600E+03  0.82306989064E+02 0.  0.
        254    2    1    2    0    0  0.47570191073E+03  0.60483935323E+02  0.28739228788E+02  0.98926636777E+03  0.86479557632E+03 0.  0.
         23    2    4    4    0    0 -0.20663151490E+03 -0.12846909388E+03 -0.68404519327E+02  0.26892986827E+03  0.91886912828E+02 0.  0.
         23    2    4    4    0    0  0.68233342563E+03  0.18895302920E+03  0.97143748115E+02  0.72033649950E+03  0.90363785574E+02 0.  0.
          2    1    3    3  502    0 -0.24268198311E+03 -0.43952133362E+02 -0.22225824535E+03  0.33200160026E+03  0.00000000000E+00 0. -1.
         -2    1    3    3    0  502 -0.23301992762E+03 -0.16531801962E+02 -0.11800408014E+03  0.26171845574E+03  0.00000000000E+00 0.  1.
         11    1    5    5    0    0 -0.21328073808E+03 -0.13322044446E+03 -0.68918129501E+02  0.26074138266E+03  0.00000000000E+00 0.  1.
        -11    1    5    5    0    0  0.66492231773E+01  0.47513505765E+01  0.51361017338E+00  0.81884856093E+01  0.00000000000E+00 0. -1.
          1    1    6    6  503    0  0.17341833686E+03  0.28951167338E+02  0.59186845173E+02  0.18551326715E+03  0.00000000000E+00 0. -1.
         -1    1    6    6    0  503  0.50891508877E+03  0.16000186186E+03  0.37956902942E+02  0.53482323235E+03  0.00000000000E+00 0.  1.
<mgrwt>
<rscale>  0 0.15520307E+04</rscale>
<asrwt>0</asrwt>
<pdfrwt beam="1">  1        1 0.14573150E+00 0.15520307E+04</pdfrwt>
<pdfrwt beam="2">  1       -1 0.97804871E-01 0.15520307E+04</pdfrwt>
<totfact> 0.16093608E+01</totfact>
</mgrwt>
</event>
<event>
12    2  0.3623523E-008  0.1961823E+04  0.7818608E-02  0.8624681E-01
          1   -1    0    0  501    0  0.00000000000E+00  0.00000000000E+00  0.31806943376E+04  0.31806943376E+04  0.00000000000E+00 0. -1.
         -1   -1    0    0    0  501 -0.00000000000E+00 -0.00000000000E+00 -0.30250855805E+03  0.30250855805E+03  0.00000000000E+00 0.  1.
         23    2    1    2    0    0 -0.11825016311E+03 -0.69135978272E+03  0.74022334623E+03  0.10238629297E+04  0.91669221724E+02 0.  0.
        254    2    1    2    0    0  0.11825016311E+03  0.69135978272E+03  0.21379624333E+04  0.24593399660E+04  0.99272768255E+03 0.  0.
         23    2    4    4    0    0 -0.27697187226E+03  0.61961022589E+03  0.18011687030E+04  0.19269372634E+04  0.90819989541E+02 0.  0.
         23    2    4    4    0    0  0.39522203537E+03  0.71749556824E+02  0.33679373035E+03  0.53240270256E+03  0.93135196065E+02 0.  0.
          1    1    3    3  502    0  0.86445438928E+01 -0.73332254349E+01  0.16167290285E+02  0.19745521253E+02  0.00000000000E+00 0. -1.
         -1    1    3    3    0  502 -0.12689470700E+03 -0.68402655728E+03  0.72405605595E+03  0.10041174084E+04  0.00000000000E+00 0.  1.
         11    1    5    5    0    0 -0.28229369930E+03  0.59266470783E+03  0.17454820006E+04  0.18648454635E+04  0.00000000000E+00 0. -1.
        -11    1    5    5    0    0  0.53218270422E+01  0.26945518062E+02  0.55686702405E+02  0.62091799873E+02  0.00000000000E+00 0.  1.
          3    1    6    6  503    0  0.25079437728E+03  0.76558801204E+02  0.17387179858E+03  0.31462751319E+03  0.00000000000E+00 0. -1.
         -3    1    6    6    0  503  0.14442765809E+03 -0.48092443795E+01  0.16292193177E+03  0.21777518937E+03  0.00000000000E+00 0.  1.
<mgrwt>
<rscale>  0 0.19618229E+04</rscale>
<asrwt>0</asrwt>
<pdfrwt beam="1">  1        1 0.48933757E+00 0.19618229E+04</pdfrwt>
<pdfrwt beam="2">  1       -1 0.46539780E-01 0.19618229E+04</pdfrwt>
<totfact> 0.18861514E+00</totfact>
</mgrwt>
</event>
<event>
12    2  0.3623523E-008  0.3679860E+04  0.7818608E-02  0.8072440E-01
          2   -1    0    0  501    0  0.00000000000E+00  0.00000000000E+00  0.19864458554E+04  0.19864458554E+04  0.00000000000E+00 0. -1.
         -2   -1    0    0    0  501 -0.00000000000E+00 -0.00000000000E+00 -0.17042210762E+04  0.17042210762E+04  0.00000000000E+00 0.  1.
         23    2    1    2    0    0  0.65787829613E+03  0.12606786797E+04 -0.85152088263E+03  0.16599666197E+04  0.91031747988E+02 0.  0.
        254    2    1    2    0    0 -0.65787829613E+03 -0.12606786797E+04  0.11337456619E+04  0.20307003119E+04  0.90346551947E+03 0.  0.
         23    2    4    4    0    0 -0.11717666037E+03 -0.92223340385E+03  0.30907625847E+03  0.98390880623E+03  0.91124006219E+02 0.  0.
         23    2    4    4    0    0 -0.54070163577E+03 -0.33844527580E+03  0.82466940343E+03  0.10467915056E+04  0.93751627618E+02 0.  0.
          2    1    3    3  502    0  0.26868458133E+02  0.29661263774E+02 -0.37864335579E+02  0.55094577955E+02  0.00000000000E+00 0. -1.
         -2    1    3    3    0  502  0.63100983800E+03  0.12310174159E+04 -0.81365654705E+03  0.16048720418E+04  0.00000000000E+00 0.  1.
         11    1    5    5    0    0 -0.12024159784E+02 -0.99014380157E+01  0.29034376576E+01  0.15844520931E+02  0.00000000000E+00 0. -1.
        -11    1    5    5    0    0 -0.10515250058E+03 -0.91233196584E+03  0.30617282081E+03  0.96806428530E+03  0.00000000000E+00 0.  1.
          2    1    6    6  503    0 -0.38552422278E+03 -0.28660016463E+03  0.63666253601E+03  0.79756364353E+03  0.00000000000E+00 0.  1.
         -2    1    6    6    0  503 -0.15517741298E+03 -0.51845111166E+02  0.18800686742E+03  0.24922786210E+03  0.00000000000E+00 0. -1.
<mgrwt>
<rscale>  0 0.36798603E+04</rscale>
<asrwt>0</asrwt>
<pdfrwt beam="1">  1        2 0.30560705E+00 0.36798603E+04</pdfrwt>
<pdfrwt beam="2">  1       -2 0.26218786E+00 0.36798603E+04</pdfrwt>
<totfact> 0.29782401E-01</totfact>
</mgrwt>
</event>
<event>
12    2  0.3623523E-008  0.1715528E+04  0.7818608E-02  0.8752557E-01
         -2   -1    0    0    0  501 -0.00000000000E+00  0.00000000000E+00  0.38666143417E+03  0.38666143417E+03  0.00000000000E+00 0.  1.
          2   -1    0    0  501    0  0.00000000000E+00 -0.00000000000E+00 -0.19028511624E+04  0.19028511624E+04  0.00000000000E+00 0. -1.
         23    2    1    2    0    0  0.35957704160E+02 -0.24023338124E+02 -0.13719637219E+04  0.13773675559E+04  0.11395987235E+03 0.  0.
        254    2    1    2    0    0 -0.35957704160E+02  0.24023338124E+02 -0.14422600629E+03  0.91214504065E+03  0.89963178969E+03 0.  0.
         23    2    4    4    0    0 -0.33834188178E+03 -0.28721387737E+03 -0.12319559025E+03  0.46915558154E+03  0.89234331466E+02 0.  0.
         23    2    4    4    0    0  0.30238417762E+03  0.31123721550E+03 -0.21030416037E+02  0.44298945911E+03  0.86559732534E+02 0.  0.
          1    1    3    3  502    0  0.27159758104E+02  0.27008864606E+02 -0.10909505836E+04  0.10916227860E+04  0.00000000000E+00 0. -1.
         -1    1    3    3    0  502  0.87979460567E+01 -0.51032202730E+02 -0.28101313837E+03  0.28574476986E+03  0.00000000000E+00 0.  1.
         11    1    5    5    0    0 -0.10090854696E+03 -0.12784446986E+03 -0.74412935351E+02  0.17906431322E+03  0.00000000000E+00 0.  1.
        -11    1    5    5    0    0 -0.23743333482E+03 -0.15936940752E+03 -0.48782654899E+02  0.29009126832E+03  0.00000000000E+00 0. -1.
          2    1    6    6  503    0  0.28982101139E+03  0.25942444021E+03 -0.14080579766E+02  0.38922425612E+03  0.00000000000E+00 0. -1.
         -2    1    6    6    0  503  0.12563166228E+02  0.51812775283E+02 -0.69498362706E+01  0.53765202989E+02  0.00000000000E+00 0.  1.
<mgrwt>
<rscale>  0 0.17155281E+04</rscale>
<asrwt>0</asrwt>
<pdfrwt beam="1">  1        2 0.29274634E+00 0.17155281E+04</pdfrwt>
<pdfrwt beam="2">  1       -2 0.59486373E-01 0.17155281E+04</pdfrwt>
<totfact> 0.18964319E+01</totfact>
</mgrwt>
</event>
<event>
12    2  0.3623523E-008  0.1212130E+04  0.7818608E-02  0.9102305E-01
          2   -1    0    0  501    0  0.00000000000E+00  0.00000000000E+00  0.14400958216E+04  0.14400958216E+04  0.00000000000E+00 0. -1.
         -2   -1    0    0    0  501 -0.00000000000E+00 -0.00000000000E+00 -0.25506277815E+03  0.25506277815E+03  0.00000000000E+00 0.  1.
         23    2    1    2    0    0 -0.11498460314E+01  0.10873300252E+03 -0.62152655584E+02  0.15444317491E+03  0.90363453336E+02 0.  0.
        254    2    1    2    0    0  0.11498460314E+01 -0.10873300252E+03  0.12471856991E+04  0.15407154249E+04  0.89805771779E+03 0.  0.
         23    2    4    4    0    0  0.90792815181E+02 -0.17457588002E+03 -0.59866609570E+02  0.22570646811E+03  0.92947972715E+02 0.  0.
         23    2    4    4    0    0 -0.89642969150E+02  0.65842877499E+02  0.13070523086E+04  0.13150089568E+04  0.92150270829E+02 0.  0.
          3    1    3    3  502    0  0.14320356086E+02  0.10474136734E+03 -0.17675193955E+02  0.10718320350E+03  0.00000000000E+00 0. -1.
         -3    1    3    3    0  502 -0.15470202117E+02  0.39916351740E+01 -0.44477461629E+02  0.47259971412E+02  0.00000000000E+00 0.  1.
         11    1    5    5    0    0 -0.14831703242E+02 -0.35770045692E+02 -0.29452513094E+02  0.48651064916E+02  0.00000000000E+00 0.  1.
        -11    1    5    5    0    0  0.10562451842E+03 -0.13880583432E+03 -0.30414096476E+02  0.17705540319E+03  0.00000000000E+00 0. -1.
          2    1    6    6  503    0 -0.22209735777E+02  0.12757665922E+02  0.63106982018E+02  0.68106692641E+02  0.00000000000E+00 0.  1.
         -2    1    6    6    0  503 -0.67433233373E+02  0.53085211576E+02  0.12439453266E+04  0.12469022641E+04  0.00000000000E+00 0. -1.
<mgrwt>
<rscale>  0 0.12121301E+04</rscale>
<asrwt>0</asrwt>
<pdfrwt beam="1">  1        2 0.22155320E+00 0.12121301E+04</pdfrwt>
<pdfrwt beam="2">  1       -2 0.39240428E-01 0.12121301E+04</pdfrwt>
<totfact> 0.83059559E+01</totfact>
</mgrwt>
</event>
<event>
12    2  0.3623523E-008  0.1221605E+04  0.7818608E-02  0.9094153E-01
         -1   -1    0    0    0  501 -0.00000000000E+00  0.00000000000E+00  0.26535900140E+03  0.26535900140E+03  0.00000000000E+00 0.  1.
          1   -1    0    0  501    0  0.00000000000E+00 -0.00000000000E+00 -0.14059425471E+04  0.14059425471E+04  0.00000000000E+00 0. -1.
         23    2    1    2    0    0 -0.25901824889E+03 -0.41764128571E+02 -0.15962948587E+03  0.31988102123E+03  0.89485190360E+02 0.  0.
        254    2    1    2    0    0  0.25901824889E+03  0.41764128571E+02 -0.98095405979E+03  0.13514205272E+04  0.89175774641E+03 0.  0.
         23    2    4    4    0    0  0.63174622496E+02 -0.20818605086E+03 -0.99316484412E+03  0.10207458626E+04  0.90626947596E+02 0.  0.
         23    2    4    4    0    0  0.19584362640E+03  0.24995017944E+03  0.12210784326E+02  0.33067466467E+03  0.91470281504E+02 0.  0.
          4    1    3    3  502    0 -0.28759111640E+02 -0.32467857720E+02 -0.44995664767E+02  0.62496865002E+02  0.00000000000E+00 0. -1.
         -4    1    3    3    0  502 -0.23025913725E+03 -0.92962708511E+01 -0.11463382110E+03  0.25738415623E+03  0.00000000000E+00 0.  1.
         11    1    5    5    0    0  0.27094328041E+02 -0.16235636244E+03 -0.56057432847E+03  0.58424076268E+03  0.00000000000E+00 0. -1.
        -11    1    5    5    0    0  0.36080294455E+02 -0.45829688424E+02 -0.43259051565E+03  0.43650509988E+03  0.00000000000E+00 0.  1.
          3    1    6    6  503    0 -0.86637909165E+01  0.23870428506E+02 -0.21401460687E+01  0.25484090239E+02  0.00000000000E+00 0. -1.
         -3    1    6    6    0  503  0.20450741731E+03  0.22607975093E+03  0.14350930395E+02  0.30519057443E+03  0.00000000000E+00 0.  1.
<mgrwt>
<rscale>  0 0.12216047E+04</rscale>
<asrwt>0</asrwt>
<pdfrwt beam="1">  1        1 0.21629885E+00 0.12216047E+04</pdfrwt>
<pdfrwt beam="2">  1       -1 0.40824462E-01 0.12216047E+04</pdfrwt>
<totfact> 0.44101838E+01</totfact>
</mgrwt>
</event>
<event>
12    2  0.3623523E-008  0.2126562E+04  0.7818608E-02  0.8549632E-01
          2   -1    0    0  501    0  0.00000000000E+00  0.00000000000E+00  0.36328041110E+04  0.36328041110E+04  0.00000000000E+00 0. -1.
         -2   -1    0    0    0  501 -0.00000000000E+00 -0.00000000000E+00 -0.31121032775E+03  0.31121032775E+03  0.00000000000E+00 0.  1.
         23    2    1    2    0    0 -0.18531042102E+03  0.23457696974E+03 -0.14608752568E+03  0.34508536420E+03  0.91520689198E+02 0.  0.
        254    2    1    2    0    0  0.18531042102E+03 -0.23457696974E+03  0.34676813089E+04  0.35989290745E+04  0.91548376093E+03 0.  0.
         23    2    4    4    0    0  0.17311762117E+03  0.32628180987E+03  0.10900395139E+04  0.11543167166E+04  0.88495254917E+02 0.  0.
         23    2    4    4    0    0  0.12192799850E+02 -0.56085877961E+03  0.23776417950E+04  0.24446123579E+04  0.90762548356E+02 0.  0.
          1    1    3    3  502    0 -0.41199057098E+01  0.62263000918E+02 -0.24364688878E+02  0.66987259763E+02  0.00000000000E+00 0. -1.
         -1    1    3    3    0  502 -0.18119051531E+03  0.17231396882E+03 -0.12172283680E+03  0.27809810444E+03  0.00000000000E+00 0.  1.
         11    1    5    5    0    0  0.94895071976E+02  0.24989076523E+03  0.70203230522E+03  0.75119892626E+03  0.00000000000E+00 0. -1.
        -11    1    5    5    0    0  0.78222549197E+02  0.76391044636E+02  0.38800720869E+03  0.40311779035E+03  0.00000000000E+00 0.  1.
          2    1    6    6  503    0 -0.26878998037E+02 -0.26611391021E+03  0.99158647453E+03  0.10270262072E+04  0.00000000000E+00 0.  1.
         -2    1    6    6    0  503  0.39071797887E+02 -0.29474486941E+03  0.13860553205E+04  0.14175861507E+04  0.00000000000E+00 0. -1.
<mgrwt>
<rscale>  0 0.21265617E+04</rscale>
<asrwt>0</asrwt>
<pdfrwt beam="1">  1        2 0.55889291E+00 0.21265617E+04</pdfrwt>
<pdfrwt beam="2">  1       -2 0.47878514E-01 0.21265617E+04</pdfrwt>
<totfact> 0.24976308E+00</totfact>
</mgrwt>
</event>
<event>
12    2  0.3623523E-008  0.1137923E+04  0.7818608E-02  0.9168998E-01
         -2   -1    0    0    0  501 -0.00000000000E+00  0.00000000000E+00  0.38626614709E+03  0.38626614709E+03  0.00000000000E+00 0.  1.
          2   -1    0    0  501    0  0.00000000000E+00 -0.00000000000E+00 -0.83806831627E+03  0.83806831627E+03  0.00000000000E+00 0. -1.
         23    2    1    2    0    0 -0.43358862517E+02  0.11315650378E+02  0.11942459616E+03  0.15818056816E+03  0.93545834077E+02 0.  0.
        254    2    1    2    0    0  0.43358862517E+02 -0.11315650378E+02 -0.57122676534E+03  0.10661538952E+04  0.89909736731E+03 0.  0.
         23    2    4    4    0    0  0.16443145254E+03 -0.38159389489E+03 -0.80542853513E+02  0.43311115728E+03  0.91904951491E+02 0.  0.
         23    2    4    4    0    0 -0.12107259003E+03  0.37027824451E+03 -0.49068391183E+03  0.63304273792E+03  0.90597220096E+02 0.  0.
          3    1    3    3  502    0  0.25846226596E+02  0.10513326172E+02  0.11959826927E+02  0.30357781813E+02  0.00000000000E+00 0. -1.
         -3    1    3    3    0  502 -0.69205089113E+02  0.80232420541E+00  0.10746476923E+03  0.12782278635E+03  0.00000000000E+00 0.  1.
         11    1    5    5    0    0  0.79467061964E+02 -0.20788588498E+03 -0.88661199769E+02  0.23956703333E+03  0.00000000000E+00 0. -1.
        -11    1    5    5    0    0  0.84964390580E+02 -0.17370800990E+03  0.81183462560E+01  0.19354412395E+03  0.00000000000E+00 0.  1.
          1    1    6    6  503    0 -0.95281955216E+02  0.35963997223E+03 -0.45485734078E+03  0.58763488756E+03  0.00000000000E+00 0. -1.
         -1    1    6    6    0  503 -0.25790634812E+02  0.10638272281E+02 -0.35826571046E+02  0.45407850357E+02  0.00000000000E+00 0.  1.
<mgrwt>
<rscale>  0 0.11379234E+04</rscale>
<asrwt>0</asrwt>
<pdfrwt beam="1">  1        2 0.12893359E+00 0.11379234E+04</pdfrwt>
<pdfrwt beam="2">  1       -2 0.59425561E-01 0.11379234E+04</pdfrwt>
<totfact> 0.84744248E+01</totfact>
</mgrwt>
</event>
<event>
12    2  0.3623523E-008  0.2666015E+04  0.7818608E-02  0.8346117E-01
          2   -1    0    0  501    0  0.00000000000E+00  0.00000000000E+00  0.24501456063E+04  0.24501456063E+04  0.00000000000E+00 0. -1.
         -2   -1    0    0    0  501 -0.00000000000E+00 -0.00000000000E+00 -0.72522589058E+03  0.72522589058E+03  0.00000000000E+00 0.  1.
         23    2    1    2    0    0  0.27616788437E+03 -0.37774423403E+03 -0.52496572007E+03  0.70916120548E+03  0.91439605309E+02 0.  0.
        254    2    1    2    0    0 -0.27616788437E+03  0.37774423403E+03  0.22498854358E+04  0.24662102914E+04  0.89512530995E+03 0.  0.
         23    2    4    4    0    0  0.30548395504E+02 -0.26889710529E+03  0.56204446906E+03  0.63034280080E+03  0.90549453991E+02 0.  0.
         23    2    4    4    0    0 -0.30671627987E+03  0.64664133932E+03  0.16878409667E+04  0.18358674906E+04  0.96862872168E+02 0.  0.
          3    1    3    3  502    0  0.10002155631E+03 -0.21425761920E+03 -0.26174335269E+03  0.35273250742E+03  0.00000000000E+00 0. -1.
         -3    1    3    3    0  502  0.17614632806E+03 -0.16348661482E+03 -0.26322236738E+03  0.35642869806E+03  0.00000000000E+00 0.  1.
         11    1    5    5    0    0  0.32988699186E+02 -0.26724196441E+03  0.56517479801E+03  0.62604239004E+03  0.00000000000E+00 0. -1.
        -11    1    5    5    0    0 -0.24403036820E+01 -0.16551408843E+01 -0.31303289511E+01  0.43004107652E+01  0.00000000000E+00 0.  1.
          4    1    6    6  503    0 -0.14267639043E+03  0.34255477905E+03  0.98788253664E+03  0.10552782738E+04  0.00000000000E+00 0.  1.
         -4    1    6    6    0  503 -0.16403988945E+03  0.30408656027E+03  0.69995843005E+03  0.78058921672E+03  0.00000000000E+00 0. -1.
<mgrwt>
<rscale>  0 0.26660150E+04</rscale>
<asrwt>0</asrwt>
<pdfrwt beam="1">  1        2 0.37694547E+00 0.26660150E+04</pdfrwt>
<pdfrwt beam="2">  1       -2 0.11157322E+00 0.26660150E+04</pdfrwt>
<totfact> 0.20769578E+00</totfact>
</mgrwt>
</event>
<event>
12    2  0.3623523E-008  0.1450476E+04  0.7818608E-02  0.8918070E-01
          2   -1    0    0  501    0  0.00000000000E+00  0.00000000000E+00  0.11141444646E+04  0.11141444646E+04  0.00000000000E+00 0.  1.
         -2   -1    0    0    0  501 -0.00000000000E+00 -0.00000000000E+00 -0.47208445801E+03  0.47208445801E+03  0.00000000000E+00 0. -1.
         23    2    1    2    0    0 -0.34660380696E+03 -0.94954736778E+01 -0.97524446181E+02  0.37143381113E+03  0.90706644885E+02 0.  0.
        254    2    1    2    0    0  0.34660380696E+03  0.94954736778E+01  0.73958445282E+03  0.12147951115E+04  0.89917608795E+03 0.  0.
         23    2    4    4    0    0 -0.14182419348E+03  0.26109059001E+03  0.54004788586E+03  0.62328831690E+03  0.92488966452E+02 0.  0.
         23    2    4    4    0    0  0.48842800044E+03 -0.25159511633E+03  0.19953656696E+03  0.59150679463E+03  0.90572801490E+02 0.  0.
          4    1    3    3  502    0 -0.23615043357E+03  0.34696138491E+02 -0.76340315884E+02  0.25059667422E+03  0.00000000000E+00 0. -1.
         -4    1    3    3    0  502 -0.11045337339E+03 -0.44191612169E+02 -0.21184130297E+02  0.12083713691E+03  0.00000000000E+00 0.  1.
         11    1    5    5    0    0  0.71958710751E+01  0.60601126899E+02  0.11819886020E+03  0.13302348550E+03  0.00000000000E+00 0.  1.
        -11    1    5    5    0    0 -0.14902006455E+03  0.20048946311E+03  0.42184902566E+03  0.49026483140E+03  0.00000000000E+00 0. -1.
          2    1    6    6  503    0  0.26447661454E+03 -0.18379702434E+03  0.10011497610E+03  0.33727175131E+03  0.00000000000E+00 0. -1.
         -2    1    6    6    0  503  0.22395138590E+03 -0.67798091995E+02  0.99421590852E+02  0.25423504332E+03  0.00000000000E+00 0.  1.
<mgrwt>
<rscale>  0 0.14504762E+04</rscale>
<asrwt>0</asrwt>
<pdfrwt beam="1">  1        2 0.17140684E+00 0.14504762E+04</pdfrwt>
<pdfrwt beam="2">  1       -2 0.72628378E-01 0.14504762E+04</pdfrwt>
<totfact> 0.35506336E+01</totfact>
</mgrwt>
</event>
<event>
12    2  0.3623523E-008  0.1873092E+04  0.7818608E-02  0.8668367E-01
         -1   -1    0    0    0  501 -0.00000000000E+00  0.00000000000E+00  0.44629882590E+03  0.44629882590E+03  0.00000000000E+00 0.  1.
          1   -1    0    0  501    0  0.00000000000E+00 -0.00000000000E+00 -0.19653165638E+04  0.19653165638E+04  0.00000000000E+00 0. -1.
         23    2    1    2    0    0 -0.23888472855E+03  0.63793875024E+03 -0.30528264959E+03  0.75206348729E+03  0.91488962060E+02 0.  0.
        254    2    1    2    0    0  0.23888472855E+03 -0.63793875024E+03 -0.12137350883E+04  0.16595519024E+04  0.90384063285E+03 0.  0.
         23    2    4    4    0    0  0.57920959070E+02  0.22091443518E+03 -0.32231582676E+03  0.40526979680E+03  0.90543309280E+02 0.  0.
         23    2    4    4    0    0  0.18096376948E+03 -0.85885318542E+03 -0.89141926154E+03  0.12542821056E+04  0.90656608104E+02 0.  0.
          1    1    3    3  502    0 -0.15716482130E+03  0.50435589362E+03 -0.26153319118E+03  0.58947032034E+03  0.00000000000E+00 0. -1.
         -1    1    3    3    0  502 -0.81719907256E+02  0.13358285663E+03 -0.43749458409E+02  0.16259316694E+03  0.00000000000E+00 0.  1.
         11    1    5    5    0    0  0.46403940760E+02  0.31903697688E+02 -0.73587707176E+02  0.92662410348E+02  0.00000000000E+00 0. -1.
        -11    1    5    5    0    0  0.11517018310E+02  0.18901073749E+03 -0.24872811958E+03  0.31260738646E+03  0.00000000000E+00 0.  1.
          3    1    6    6  503    0  0.27998288512E+02 -0.34769944596E+03 -0.35439338773E+03  0.49726600743E+03  0.00000000000E+00 0. -1.
         -3    1    6    6    0  503  0.15296548097E+03 -0.51115373946E+03 -0.53702587381E+03  0.75701609816E+03  0.00000000000E+00 0.  1.
<mgrwt>
<rscale>  0 0.18730921E+04</rscale>
<asrwt>0</asrwt>
<pdfrwt beam="1">  1        1 0.30235639E+00 0.18730921E+04</pdfrwt>
<pdfrwt beam="2">  1       -1 0.68661360E-01 0.18730921E+04</pdfrwt>
<totfact> 0.63329799E+00</totfact>
</mgrwt>
</event>
<event>
12    2  0.3623523E-008  0.1657426E+04  0.7818608E-02  0.8786025E-01
         -1   -1    0    0    0  501 -0.00000000000E+00  0.00000000000E+00  0.58213618845E+03  0.58213618845E+03  0.00000000000E+00 0.  1.
          1   -1    0    0  501    0  0.00000000000E+00 -0.00000000000E+00 -0.11797329632E+04  0.11797329632E+04  0.00000000000E+00 0. -1.
         23    2    1    2    0    0  0.41157956469E+03  0.22841134180E+03  0.14381168481E+03  0.50061787526E+03  0.91471182426E+02 0.  0.
        254    2    1    2    0    0 -0.41157956469E+03 -0.22841134180E+03 -0.74140845958E+03  0.12612512764E+04  0.90526172966E+03 0.  0.
         23    2    4    4    0    0 -0.39892899706E+03  0.28528060774E+03 -0.33700281485E+03  0.60121421989E+03  0.85780365638E+02 0.  0.
         23    2    4    4    0    0 -0.12650567627E+02 -0.51369194954E+03 -0.40440564473E+03  0.66003705652E+03  0.89808321471E+02 0.  0.
          4    1    3    3  502    0  0.70154759222E+02  0.41760608201E+02 -0.99053774487E+01  0.82242052146E+02  0.00000000000E+00 0. -1.
         -4    1    3    3    0  502  0.34142480546E+03  0.18665073360E+03  0.15371706225E+03  0.41837582312E+03  0.00000000000E+00 0.  1.
         11    1    5    5    0    0 -0.28744314573E+02  0.41850608307E+02 -0.13229261829E+02  0.52466393096E+02  0.00000000000E+00 0.  1.
        -11    1    5    5    0    0 -0.37018468249E+03  0.24342999944E+03 -0.32377355302E+03  0.54874782679E+03  0.00000000000E+00 0. -1.
          3    1    6    6  503    0  0.37898823733E+02 -0.19110964563E+03 -0.14059888103E+03  0.24026498464E+03  0.00000000000E+00 0. -1.
         -3    1    6    6    0  503 -0.50549391361E+02 -0.32258230391E+03 -0.26380676370E+03  0.41977207189E+03  0.00000000000E+00 0.  1.
<mgrwt>
<rscale>  0 0.16574260E+04</rscale>
<asrwt>0</asrwt>
<pdfrwt beam="1">  1        1 0.18149738E+00 0.16574260E+04</pdfrwt>
<pdfrwt beam="2">  1       -1 0.89559414E-01 0.16574260E+04</pdfrwt>
<totfact> 0.12897040E+01</totfact>
</mgrwt>
</event>
<event>
12    2  0.3623523E-008  0.2257275E+04  0.7818608E-02  0.8494960E-01
          1   -1    0    0  501    0  0.00000000000E+00  0.00000000000E+00  0.12564043225E+04  0.12564043225E+04  0.00000000000E+00 0. -1.
         -1   -1    0    0    0  501 -0.00000000000E+00 -0.00000000000E+00 -0.10138639408E+04  0.10138639408E+04  0.00000000000E+00 0.  1.
         23    2    1    2    0    0  0.40528074999E+03 -0.83698944899E+03 -0.54845311925E+02  0.93589578380E+03  0.89939345430E+02 0.  0.
        254    2    1    2    0    0 -0.40528074999E+03  0.83698944899E+03  0.29738569363E+03  0.13343724795E+04  0.90956464268E+03 0.  0.
         23    2    4    4    0    0  0.17362350857E+02  0.66067285601E+03 -0.15442000487E+03  0.68489124527E+03  0.91871682511E+02 0.  0.
         23    2    4    4    0    0 -0.42264310085E+03  0.17631659299E+03  0.45180569851E+03  0.64948123422E+03  0.89346252021E+02 0.  0.
          2    1    3    3  502    0  0.31377449382E+03 -0.71150651214E+03 -0.26827376551E+02  0.77808460846E+03  0.00000000000E+00 0. -1.
         -2    1    3    3    0  502  0.91506256170E+02 -0.12548293685E+03 -0.28017935374E+02  0.15781117534E+03  0.00000000000E+00 0.  1.
         11    1    5    5    0    0  0.40510104531E+02  0.14728839581E+03 -0.47585667688E+02  0.15999792461E+03  0.00000000000E+00 0.  1.
        -11    1    5    5    0    0 -0.23147753674E+02  0.51338446019E+03 -0.10683433719E+03  0.52489332066E+03  0.00000000000E+00 0. -1.
          4    1    6    6  503    0 -0.40441264520E+03  0.14539286720E+03  0.42719669681E+03  0.60595848966E+03  0.00000000000E+00 0. -1.
         -4    1    6    6    0  503 -0.18230455647E+02  0.30923725786E+02  0.24609001702E+02  0.43522744564E+02  0.00000000000E+00 0.  1.
<mgrwt>
<rscale>  0 0.22572754E+04</rscale>
<asrwt>0</asrwt>
<pdfrwt beam="1">  1        1 0.19329297E+00 0.22572754E+04</pdfrwt>
<pdfrwt beam="2">  1       -1 0.15597907E+00 0.22572754E+04</pdfrwt>
<totfact> 0.27666887E+00</totfact>
</mgrwt>
</event>
<event>
12    2  0.3623523E-008  0.2188807E+04  0.7818608E-02  0.8523101E-01
         -2   -1    0    0    0  501 -0.00000000000E+00  0.00000000000E+00  0.48223290124E+03  0.48223290124E+03  0.00000000000E+00 0.  1.
          2   -1    0    0  501    0  0.00000000000E+00 -0.00000000000E+00 -0.24836941828E+04  0.24836941828E+04  0.00000000000E+00 0. -1.
         23    2    1    2    0    0 -0.50600896629E+03  0.73150477957E+03 -0.10777204509E+04  0.14003301485E+04  0.91097958105E+02 0.  0.
        254    2    1    2    0    0  0.50600896629E+03 -0.73150477957E+03 -0.92374083067E+03  0.15655969356E+04  0.89813825544E+03 0.  0.
         23    2    4    4    0    0  0.44472346920E+03  0.19105447726E+02 -0.14253724868E+03  0.47651791956E+03  0.92781885151E+02 0.  0.
         23    2    4    4    0    0  0.61285497086E+02 -0.75061022730E+03 -0.78120358199E+03  0.10890790160E+04  0.92964730321E+02 0.  0.
          4    1    3    3  502    0 -0.50088211641E+03  0.72753723045E+03 -0.10512115129E+04  0.13730400435E+04  0.00000000000E+00 0. -1.
         -4    1    3    3    0  502 -0.51268498834E+01  0.39675491179E+01 -0.26508937995E+02  0.27290104971E+02  0.00000000000E+00 0.  1.
         11    1    5    5    0    0  0.29182698198E+03 -0.26223759462E+02 -0.11458964296E+03  0.31461318988E+03  0.00000000000E+00 0.  1.
        -11    1    5    5    0    0  0.15289648722E+03  0.45329207188E+02 -0.27947605722E+02  0.16190472969E+03  0.00000000000E+00 0. -1.
          2    1    6    6  503    0  0.78985914020E+02 -0.69868187408E+03 -0.73716254399E+03  0.10187265345E+04  0.00000000000E+00 0. -1.
         -2    1    6    6    0  503 -0.17700416935E+02 -0.51928353210E+02 -0.44041037999E+02  0.70352481512E+02  0.00000000000E+00 0.  1.
<mgrwt>
<rscale>  0 0.21888070E+04</rscale>
<asrwt>0</asrwt>
<pdfrwt beam="1">  1        2 0.38210680E+00 0.21888070E+04</pdfrwt>
<pdfrwt beam="2">  1       -2 0.74189678E-01 0.21888070E+04</pdfrwt>
<totfact> 0.53246170E+00</totfact>
</mgrwt>
</event>
<event>
12    2  0.3623523E-008  0.9859540E+03  0.7818608E-02  0.9324086E-01
          2   -1    0    0  501    0  0.00000000000E+00  0.00000000000E+00  0.50447212515E+03  0.50447212515E+03  0.00000000000E+00 0. -1.
         -2   -1    0    0    0  501 -0.00000000000E+00 -0.00000000000E+00 -0.48174382935E+03  0.48174382935E+03  0.00000000000E+00 0.  1.
         23    2    1    2    0    0  0.25320588721E+02 -0.27038528580E+02  0.46489356801E+01  0.96954894236E+02  0.89478626903E+02 0.  0.
        254    2    1    2    0    0 -0.25320588721E+02  0.27038528580E+02  0.18079360123E+02  0.88926106026E+03  0.88830521545E+03 0.  0.
         23    2    4    4    0    0  0.37884593072E+03  0.20238711965E+03  0.11504496911E+02  0.43911551614E+03  0.90583097966E+02 0.  0.
         23    2    4    4    0    0 -0.40416651944E+03 -0.17534859107E+03  0.65748632124E+01  0.45014554412E+03  0.92141620561E+02 0.  0.
          4    1    3    3  502    0 -0.21209952190E+02 -0.30216930765E+02  0.26506643560E+02  0.45448070691E+02  0.00000000000E+00 0. -1.
         -4    1    3    3    0  502  0.46530540911E+02  0.31784021849E+01 -0.21857707879E+02  0.51506823545E+02  0.00000000000E+00 0.  1.
         11    1    5    5    0    0  0.28498421586E+03  0.16220389989E+03 -0.29178315620E+02  0.32920735492E+03  0.00000000000E+00 0. -1.
        -11    1    5    5    0    0  0.93861714863E+02  0.40183219761E+02  0.40682812531E+02  0.10990816122E+03  0.00000000000E+00 0.  1.
          3    1    6    6  503    0 -0.19133331753E+03 -0.13092654126E+03  0.17105396651E+02  0.23247105669E+03  0.00000000000E+00 0. -1.
         -3    1    6    6    0  503 -0.21283320191E+03 -0.44422049812E+02 -0.10530533439E+02  0.21767448743E+03  0.00000000000E+00 0.  1.
<mgrwt>
<rscale>  0 0.98595402E+03</rscale>
<asrwt>0</asrwt>
<pdfrwt beam="1">  1        2 0.77611096E-01 0.98595402E+03</pdfrwt>
<pdfrwt beam="2">  1       -2 0.74114436E-01 0.98595402E+03</pdfrwt>
<totfact> 0.99902974E+01</totfact>
</mgrwt>
</event>
<event>
12    2  0.3623523E-008  0.1984286E+04  0.7818608E-02  0.8614003E-01
          1   -1    0    0  501    0  0.00000000000E+00  0.00000000000E+00  0.12167977073E+04  0.12167977073E+04  0.00000000000E+00 0.  1.
         -1   -1    0    0    0  501 -0.00000000000E+00 -0.00000000000E+00 -0.80896544727E+03  0.80896544727E+03  0.00000000000E+00 0. -1.
         23    2    1    2    0    0  0.25253633426E+03 -0.66849963142E+03 -0.14434384645E+03  0.73481875048E+03  0.91962452736E+02 0.  0.
        254    2    1    2    0    0 -0.25253633426E+03  0.66849963142E+03  0.55217610646E+03  0.12909444041E+04  0.92248178547E+03 0.  0.
         23    2    4    4    0    0 -0.43401090559E+03  0.79523305285E+03  0.34032165458E+03  0.97206998440E+03  0.91324429839E+02 0.  0.
         23    2    4    4    0    0  0.18147457133E+03 -0.12673342142E+03  0.21185445188E+03  0.31887441967E+03  0.88341420608E+02 0.  0.
          1    1    3    3  502    0  0.24984669640E+03 -0.60212387987E+03 -0.11403511235E+03  0.66180098614E+03  0.00000000000E+00 0. -1.
         -1    1    3    3    0  502  0.26896378653E+01 -0.66375751553E+02 -0.30308734101E+02  0.73017764338E+02  0.00000000000E+00 0.  1.
         11    1    5    5    0    0 -0.27853379425E+03  0.52080441243E+03  0.17517405751E+03  0.61603917162E+03  0.00000000000E+00 0.  1.
        -11    1    5    5    0    0 -0.15547711133E+03  0.27442864042E+03  0.16514759707E+03  0.35603081278E+03  0.00000000000E+00 0. -1.
          1    1    6    6  503    0  0.17444436555E+03 -0.13760161737E+03  0.18521584577E+03  0.28925758642E+03  0.00000000000E+00 0.  1.
         -1    1    6    6    0  503  0.70302057715E+01  0.10868195947E+02  0.26638606110E+02  0.29616833251E+02  0.00000000000E+00 0. -1.
<mgrwt>
<rscale>  0 0.19842856E+04</rscale>
<asrwt>0</asrwt>
<pdfrwt beam="1">  1        1 0.18719965E+00 0.19842856E+04</pdfrwt>
<pdfrwt beam="2">  1       -1 0.12445622E+00 0.19842856E+04</pdfrwt>
<totfact> 0.54594780E+00</totfact>
</mgrwt>
</event>
<event>
12    2  0.3623523E-008  0.1254425E+04  0.7818608E-02  0.9066509E-01
         -2   -1    0    0    0  501 -0.00000000000E+00  0.00000000000E+00  0.81305385776E+03  0.81305385776E+03  0.00000000000E+00 0.  1.
          2   -1    0    0  501    0  0.00000000000E+00 -0.00000000000E+00 -0.48384904093E+03  0.48384904093E+03  0.00000000000E+00 0. -1.
         23    2    1    2    0    0 -0.97050232563E+02  0.56298584530E+02  0.36023583932E+03  0.38839528094E+03  0.92156150464E+02 0.  0.
        254    2    1    2    0    0  0.97050232563E+02 -0.56298584530E+02 -0.31031022488E+02  0.90850761775E+03  0.90101880607E+03 0.  0.
         23    2    4    4    0    0 -0.65575398623E+02  0.33698342863E+03 -0.23621943651E+03  0.42745582320E+03  0.95188731136E+02 0.  0.
         23    2    4    4    0    0  0.16262563119E+03 -0.39328201316E+03  0.20518841402E+03  0.48105179455E+03  0.90502519317E+02 0.  0.
          3    1    3    3  502    0 -0.40207061434E+02 -0.22398609024E+02  0.86968657719E+02  0.98396406951E+02  0.00000000000E+00 0. -1.
         -3    1    3    3    0  502 -0.56843171129E+02  0.78697193554E+02  0.27326718160E+03  0.28999887399E+03  0.00000000000E+00 0.  1.
         11    1    5    5    0    0 -0.83275315438E+02  0.23570871503E+03 -0.19349079787E+03  0.31612033368E+03  0.00000000000E+00 0.  1.
        -11    1    5    5    0    0  0.17699916816E+02  0.10127471359E+03 -0.42728638636E+02  0.11133548953E+03  0.00000000000E+00 0. -1.
          3    1    6    6  503    0  0.80867956282E+02 -0.15037860282E+03  0.12797491602E+03  0.21337977802E+03  0.00000000000E+00 0. -1.
         -3    1    6    6    0  503  0.81757674903E+02 -0.24290341033E+03  0.77213497998E+02  0.26767201653E+03  0.00000000000E+00 0.  1.
<mgrwt>
<rscale>  0 0.12544247E+04</rscale>
<asrwt>0</asrwt>
<pdfrwt beam="1">  1        2 0.74438314E-01 0.12544247E+04</pdfrwt>
<pdfrwt beam="2">  1       -2 0.12508521E+00 0.12544247E+04</pdfrwt>
<totfact> 0.30094664E+01</totfact>
</mgrwt>
</event>
<event>
12    2  0.3623523E-008  0.1720067E+04  0.7818608E-02  0.8750002E-01
          2   -1    0    0  501    0  0.00000000000E+00  0.00000000000E+00  0.93990036764E+03  0.93990036764E+03  0.00000000000E+00 0.  1.
         -2   -1    0    0    0  501 -0.00000000000E+00 -0.00000000000E+00 -0.78695289692E+03  0.78695289692E+03  0.00000000000E+00 0. -1.
         23    2    1    2    0    0  0.41862341565E+03 -0.37102292627E+03  0.27777750728E+03  0.63119287680E+03  0.91326492432E+02 0.  0.
        254    2    1    2    0    0 -0.41862341565E+03  0.37102292627E+03 -0.12483003656E+03  0.10956603878E+04  0.93380167666E+03 0.  0.
         23    2    4    4    0    0 -0.39687398319E+03 -0.18075884463E+03 -0.26572114851E+03  0.51861083337E+03  0.90370068458E+02 0.  0.
         23    2    4    4    0    0 -0.21749432454E+02  0.55178177090E+03  0.14089111196E+03  0.57704955440E+03  0.90552317981E+02 0.  0.
          3    1    3    3  502    0  0.39255819146E+03 -0.32590697559E+03  0.27354682392E+03  0.57891722664E+03  0.00000000000E+00 0. -1.
         -3    1    3    3    0  502  0.26065224181E+02 -0.45115950684E+02  0.42306833649E+01  0.52275650158E+02  0.00000000000E+00 0.  1.
         11    1    5    5    0    0 -0.19937210631E+03 -0.10188745970E+03 -0.84872723577E+02  0.23944450385E+03  0.00000000000E+00 0.  1.
        -11    1    5    5    0    0 -0.19750187688E+03 -0.78871384930E+02 -0.18084842493E+03  0.27916632951E+03  0.00000000000E+00 0. -1.
          4    1    6    6  503    0 -0.37211069020E+02  0.49381646365E+03  0.14744537116E+03  0.51670059116E+03  0.00000000000E+00 0. -1.
         -4    1    6    6    0  503  0.15461636566E+02  0.57965307249E+02 -0.65542592059E+01  0.60348963235E+02  0.00000000000E+00 0.  1.
<mgrwt>
<rscale>  0 0.17200666E+04</rscale>
<asrwt>0</asrwt>
<pdfrwt beam="1">  1        2 0.14460006E+00 0.17200666E+04</pdfrwt>
<pdfrwt beam="2">  1       -2 0.12106968E+00 0.17200666E+04</pdfrwt>
<totfact> 0.13605061E+01</totfact>
</mgrwt>
</event>
<event>
12    2  0.3623523E-008  0.1579616E+04  0.7818608E-02  0.8833170E-01
          2   -1    0    0  501    0  0.00000000000E+00  0.00000000000E+00  0.82266584795E+03  0.82266584795E+03  0.00000000000E+00 0. -1.
         -2   -1    0    0    0  501 -0.00000000000E+00 -0.00000000000E+00 -0.75826221862E+03  0.75826221862E+03  0.00000000000E+00 0.  1.
         23    2    1    2    0    0  0.79449219420E+02 -0.14357197515E+03 -0.47641413238E+03  0.51225452890E+03  0.92245250978E+02 0.  0.
        254    2    1    2    0    0 -0.79449219420E+02  0.14357197515E+03  0.54081776171E+03  0.10686735377E+04  0.90700286010E+03 0.  0.
         23    2    4    4    0    0  0.13003995532E+03 -0.11178670217E+03 -0.18337897230E+03  0.26756725525E+03  0.92508009607E+02 0.  0.
         23    2    4    4    0    0 -0.20948917474E+03  0.25535867732E+03  0.72419673401E+03  0.80110628242E+03  0.90645450846E+02 0.  0.
          1    1    3    3  502    0 -0.20642335750E+02 -0.19140088540E+02 -0.60203512524E+02  0.66459852052E+02  0.00000000000E+00 0. -1.
         -1    1    3    3    0  502  0.10009155517E+03 -0.12443188661E+03 -0.41621061986E+03  0.44579467685E+03  0.00000000000E+00 0.  1.
         11    1    5    5    0    0  0.55208793303E+01  0.13996037627E+02 -0.39982339411E+01  0.15567756823E+02  0.00000000000E+00 0. -1.
        -11    1    5    5    0    0  0.12451907599E+03 -0.12578273980E+03 -0.17938073836E+03  0.25199949843E+03  0.00000000000E+00 0.  1.
          1    1    6    6  503    0 -0.31691455255E+02  0.41682045084E+02  0.52431698674E+02  0.74100096116E+02  0.00000000000E+00 0. -1.
         -1    1    6    6    0  503 -0.17779771948E+03  0.21367663224E+03  0.67176503534E+03  0.72700618630E+03  0.00000000000E+00 0.  1.
<mgrwt>
<rscale>  0 0.15796157E+04</rscale>
<asrwt>0</asrwt>
<pdfrwt beam="1">  1        2 0.12656398E+00 0.15796157E+04</pdfrwt>
<pdfrwt beam="2">  1       -2 0.11665573E+00 0.15796157E+04</pdfrwt>
<totfact> 0.18143988E+01</totfact>
</mgrwt>
</event>
<event>
12    2  0.3623523E-008  0.1415791E+04  0.7818608E-02  0.8942467E-01
         -1   -1    0    0    0  501 -0.00000000000E+00  0.00000000000E+00  0.51674386766E+03  0.51674386766E+03  0.00000000000E+00 0.  1.
          1   -1    0    0  501    0  0.00000000000E+00 -0.00000000000E+00 -0.96975668708E+03  0.96975668708E+03  0.00000000000E+00 0. -1.
         23    2    1    2    0    0  0.36480409447E+03 -0.18998929202E+03 -0.47036043700E+02  0.42225135924E+03  0.83101519554E+02 0.  0.
        254    2    1    2    0    0 -0.36480409447E+03  0.18998929202E+03 -0.40597677572E+03  0.10642491955E+04  0.89366170852E+03 0.  0.
         23    2    4    4    0    0 -0.18878687223E+03  0.65171104208E+02 -0.67378872212E+03  0.70857273456E+03  0.90533541639E+02 0.  0.
         23    2    4    4    0    0 -0.17601722224E+03  0.12481818781E+03  0.26781194639E+03  0.35567646094E+03  0.90668978740E+02 0.  0.
          2    1    3    3  502    0  0.13581665363E+03 -0.95727685270E+02 -0.53422808529E+02  0.17453924946E+03  0.00000000000E+00 0. -1.
         -2    1    3    3    0  502  0.22898744084E+03 -0.94261606749E+02  0.63867648287E+01  0.24771210978E+03  0.00000000000E+00 0.  1.
         11    1    5    5    0    0 -0.26334038380E+02  0.14876451072E+02 -0.25173500541E+03  0.25354546599E+03  0.00000000000E+00 0. -1.
        -11    1    5    5    0    0 -0.16245283385E+03  0.50294653136E+02 -0.42205371670E+03  0.45502726857E+03  0.00000000000E+00 0.  1.
          3    1    6    6  503    0 -0.13631762897E+03  0.56930977077E+02  0.21531643342E+03  0.26112219097E+03  0.00000000000E+00 0. -1.
         -3    1    6    6    0  503 -0.39699593271E+02  0.67887210734E+02  0.52495512970E+02  0.94554269968E+02  0.00000000000E+00 0.  1.
<mgrwt>
<rscale>  0 0.14157907E+04</rscale>
<asrwt>0</asrwt>
<pdfrwt beam="1">  1        1 0.14919333E+00 0.14157907E+04</pdfrwt>
<pdfrwt beam="2">  1       -1 0.79499057E-01 0.14157907E+04</pdfrwt>
<totfact> 0.24615999E+01</totfact>
</mgrwt>
</event>
<event>
12    2  0.3623523E-008  0.1325091E+04  0.7818608E-02  0.9009901E-01
          2   -1    0    0  501    0  0.00000000000E+00  0.00000000000E+00  0.10327154405E+04  0.10327154405E+04  0.00000000000E+00 0. -1.
         -2   -1    0    0    0  501 -0.00000000000E+00 -0.00000000000E+00 -0.42506020120E+03  0.42506020120E+03  0.00000000000E+00 0.  1.
         23    2    1    2    0    0  0.16617432139E+03  0.29330172176E+03  0.19217087263E+03  0.39931564708E+03  0.94252515269E+02 0.  0.
        254    2    1    2    0    0 -0.16617432139E+03 -0.29330172176E+03  0.41548436666E+03  0.10584599946E+04  0.91327460063E+03 0.  0.
         23    2    4    4    0    0 -0.13125695530E+03 -0.67428768684E+02  0.67756302342E+03  0.69918465880E+03  0.89400834656E+02 0.  0.
         23    2    4    4    0    0 -0.34917366097E+02 -0.22587295308E+03 -0.26207865676E+03  0.35927533580E+03  0.90309086998E+02 0.  0.
          3    1    3    3  502    0  0.13077063180E+03  0.23664354364E+03  0.19351965277E+03  0.33249207644E+03  0.00000000000E+00 0.  1.
         -3    1    3    3    0  502  0.35403689595E+02  0.56658178129E+02 -0.13487801360E+01  0.66823570645E+02  0.00000000000E+00 0. -1.
         11    1    5    5    0    0 -0.37213140020E+02 -0.44080829006E+02  0.42098191683E+03  0.42491612299E+03  0.00000000000E+00 0.  1.
        -11    1    5    5    0    0 -0.94043815277E+02 -0.23347939678E+02  0.25658110659E+03  0.27426853581E+03  0.00000000000E+00 0. -1.
          1    1    6    6  503    0 -0.72138418518E+01 -0.16542719667E+02  0.50773896837E+01  0.18747825854E+02  0.00000000000E+00 0. -1.
         -1    1    6    6    0  503 -0.27703524245E+02 -0.20933023341E+03 -0.26715604645E+03  0.34052750995E+03  0.00000000000E+00 0.  1.
<mgrwt>
<rscale>  0 0.13250905E+04</rscale>
<asrwt>0</asrwt>
<pdfrwt beam="1">  1        2 0.15887930E+00 0.13250905E+04</pdfrwt>
<pdfrwt beam="2">  1       -2 0.65393878E-01 0.13250905E+04</pdfrwt>
<totfact> 0.50624010E+01</totfact>
</mgrwt>
</event>
<event>
12    2  0.3623523E-008  0.1906698E+04  0.7818608E-02  0.8651529E-01
          3   -1    0    0  501    0  0.00000000000E+00  0.00000000000E+00  0.15652210693E+04  0.15652210693E+04  0.00000000000E+00 0. -1.
         -3   -1    0    0    0  501 -0.00000000000E+00 -0.00000000000E+00 -0.58066859705E+03  0.58066859705E+03  0.00000000000E+00 0.  1.
         23    2    1    2    0    0 -0.17327954588E+03  0.16188400051E+03 -0.39963848533E+03  0.47353521452E+03  0.91062889212E+02 0.  0.
        254    2    1    2    0    0  0.17327954588E+03 -0.16188400051E+03  0.13841909576E+04  0.16723544519E+04  0.90804877342E+03 0.  0.
         23    2    4    4    0    0  0.22327989172E+03  0.18534938972E+03  0.74991176594E+02  0.31394478342E+03  0.93430959277E+02 0.  0.
         23    2    4    4    0    0 -0.50000345841E+02 -0.34723339023E+03  0.13091997810E+04  0.13584096684E+04  0.90563231184E+02 0.  0.
          1    1    3    3  502    0 -0.55521228128E+02  0.45541777234E+02 -0.20933464200E+03  0.22130895280E+03  0.00000000000E+00 0. -1.
         -1    1    3    3    0  502 -0.11775831775E+03  0.11634222327E+03 -0.19030384333E+03  0.25222626172E+03  0.00000000000E+00 0.  1.
         11    1    5    5    0    0 -0.22135226356E+01 -0.36021333264E+01 -0.73199838627E+01  0.84532367002E+01  0.00000000000E+00 0. -1.
        -11    1    5    5    0    0  0.22549341436E+03  0.18895152305E+03  0.82311160457E+02  0.30549154672E+03  0.00000000000E+00 0.  1.
          3    1    6    6  503    0  0.21231994044E+02 -0.15287896731E+03  0.60893924009E+03  0.62819564973E+03  0.00000000000E+00 0. -1.
         -3    1    6    6    0  503 -0.71232339885E+02 -0.19435442292E+03  0.70026054092E+03  0.73021401871E+03  0.00000000000E+00 0.  1.
<mgrwt>
<rscale>  0 0.19066984E+04</rscale>
<asrwt>0</asrwt>
<pdfrwt beam="1">  1        3 0.24080324E+00 0.19066984E+04</pdfrwt>
<pdfrwt beam="2">  1       -3 0.89333631E-01 0.19066984E+04</pdfrwt>
<totfact> 0.23181777E-01</totfact>
</mgrwt>
</event>
<event>
12    2  0.3623523E-008  0.1671368E+04  0.7818608E-02  0.8777865E-01
         -2   -1    0    0    0  501 -0.00000000000E+00  0.00000000000E+00  0.32127694073E+03  0.32127694073E+03  0.00000000000E+00 0.  1.
          2   -1    0    0  501    0  0.00000000000E+00 -0.00000000000E+00 -0.21737256844E+04  0.21737256844E+04  0.00000000000E+00 0. -1.
         23    2    1    2    0    0 -0.24957576932E+03  0.32013508447E+03 -0.34970870454E+02  0.41752762098E+03  0.91278779355E+02 0.  0.
        254    2    1    2    0    0  0.24957576932E+03 -0.32013508447E+03 -0.18174778732E+04  0.20774750041E+04  0.92081596222E+03 0.  0.
         23    2    4    4    0    0  0.13526578082E+03  0.22870845435E+03 -0.12238523589E+04  0.12558063408E+04  0.92900918752E+02 0.  0.
         23    2    4    4    0    0  0.11430998850E+03 -0.54884353883E+03 -0.59362551430E+03  0.82166866331E+03  0.91935507071E+02 0.  0.
          3    1    3    3  502    0 -0.24769330287E+01  0.49517846332E+02 -0.27564830718E+01  0.49656323882E+02  0.00000000000E+00 0. -1.
         -3    1    3    3    0  502 -0.24709883629E+03  0.27061723814E+03 -0.32214387382E+02  0.36787129710E+03  0.00000000000E+00 0.  1.
         11    1    5    5    0    0  0.12589073570E+03  0.23735736318E+03 -0.11629732896E+04  0.11936054070E+04  0.00000000000E+00 0. -1.
        -11    1    5    5    0    0  0.93750451188E+01 -0.86489088236E+01 -0.60879069281E+02  0.62200933846E+02  0.00000000000E+00 0.  1.
          1    1    6    6  503    0  0.11513819802E+03 -0.34703210350E+03 -0.36331239674E+03  0.51544542207E+03  0.00000000000E+00 0. -1.
         -1    1    6    6    0  503 -0.82820952532E+00 -0.20181143533E+03 -0.23031311756E+03  0.30622324125E+03  0.00000000000E+00 0.  1.
<mgrwt>
<rscale>  0 0.16713682E+04</rscale>
<asrwt>0</asrwt>
<pdfrwt beam="1">  1        2 0.33441934E+00 0.16713682E+04</pdfrwt>
<pdfrwt beam="2">  1       -2 0.49427220E-01 0.16713682E+04</pdfrwt>
<totfact> 0.19749841E+01</totfact>
</mgrwt>
</event>
<event>
12    2  0.3623523E-008  0.1373708E+04  0.7818608E-02  0.8973073E-01
         -1   -1    0    0    0  501 -0.00000000000E+00  0.00000000000E+00  0.10580956267E+04  0.10580956267E+04  0.00000000000E+00 0.  1.
          1   -1    0    0  501    0  0.00000000000E+00 -0.00000000000E+00 -0.44586571827E+03  0.44586571827E+03  0.00000000000E+00 0. -1.
         23    2    1    2    0    0 -0.30233398725E+03  0.24033322615E+03  0.17344593248E+03  0.43289457412E+03  0.90268052901E+02 0.  0.
        254    2    1    2    0    0  0.30233398725E+03 -0.24033322615E+03  0.43878397597E+03  0.10710667709E+04  0.89748913680E+03 0.  0.
         23    2    4    4    0    0 -0.90321358772E+02 -0.17137290301E+03  0.59531977148E+03  0.63215719543E+03  0.87695323028E+02 0.  0.
         23    2    4    4    0    0  0.39265534602E+03 -0.68960323142E+02 -0.15653579552E+03  0.43890957544E+03  0.95939633157E+02 0.  0.
          1    1    3    3  502    0 -0.23116584767E+03  0.17629745138E+03  0.85850570231E+02  0.30313159008E+03  0.00000000000E+00 0. -1.
         -1    1    3    3    0  502 -0.71168139576E+02  0.64035774767E+02  0.87595362251E+02  0.12976298405E+03  0.00000000000E+00 0.  1.
         11    1    5    5    0    0 -0.57579204288E+02 -0.10108465906E+03  0.47483089639E+03  0.48887406684E+03  0.00000000000E+00 0. -1.
        -11    1    5    5    0    0 -0.32742154485E+02 -0.70288243944E+02  0.12048887509E+03  0.14328312859E+03  0.00000000000E+00 0.  1.
          4    1    6    6  503    0  0.20351596052E+03 -0.64513960057E+02 -0.12413914746E+03  0.24696421838E+03  0.00000000000E+00 0. -1.
         -4    1    6    6    0  503  0.18913938550E+03 -0.44463630854E+01 -0.32396648059E+02  0.19194535706E+03  0.00000000000E+00 0.  1.
<mgrwt>
<rscale>  0 0.13737082E+04</rscale>
<asrwt>0</asrwt>
<pdfrwt beam="1">  1        1 0.68594726E-01 0.13737082E+04</pdfrwt>
<pdfrwt beam="2">  1       -1 0.16278394E+00 0.13737082E+04</pdfrwt>
<totfact> 0.14104510E+01</totfact>
</mgrwt>
</event>
<event>
12    2  0.3623523E-008  0.2216940E+04  0.7818608E-02  0.8511410E-01
         -2   -1    0    0    0  501 -0.00000000000E+00  0.00000000000E+00  0.52624534435E+03  0.52624534435E+03  0.00000000000E+00 0.  1.
          2   -1    0    0  501    0  0.00000000000E+00 -0.00000000000E+00 -0.23348534120E+04  0.23348534120E+04  0.00000000000E+00 0. -1.
         23    2    1    2    0    0 -0.80169654126E+03  0.29781693833E+02 -0.13432648154E+04  0.15672824474E+04  0.91703938159E+02 0.  0.
        254    2    1    2    0    0  0.80169654126E+03 -0.29781693833E+02 -0.46534325231E+03  0.12938163089E+04  0.90211529488E+03 0.  0.
         23    2    4    4    0    0 -0.12511875784E+03  0.18707308529E+03 -0.38561023838E+02  0.24677416888E+03  0.93592174148E+02 0.  0.
         23    2    4    4    0    0  0.92681529910E+03 -0.21685477913E+03 -0.42678222847E+03  0.10470421401E+04  0.90230696917E+02 0.  0.
          3    1    3    3  502    0 -0.51036605520E+03  0.48754001917E+02 -0.91772290588E+03  0.10512210971E+04  0.00000000000E+00 0. -1.
         -3    1    3    3    0  502 -0.29133048606E+03 -0.18972308084E+02 -0.42554190949E+03  0.51606135034E+03  0.00000000000E+00 0.  1.
         11    1    5    5    0    0 -0.13604187305E+03  0.13922915332E+03 -0.29959645310E+02  0.19695108201E+03  0.00000000000E+00 0.  1.
        -11    1    5    5    0    0  0.10923115213E+02  0.47843931972E+02 -0.86013785279E+01  0.49823086868E+02  0.00000000000E+00 0. -1.
          3    1    6    6  503    0  0.31260224693E+03 -0.11574179556E+03 -0.16122813717E+03  0.37028480963E+03  0.00000000000E+00 0. -1.
         -3    1    6    6    0  503  0.61421305216E+03 -0.10111298357E+03 -0.26555409130E+03  0.67675733044E+03  0.00000000000E+00 0.  1.
<mgrwt>
<rscale>  0 0.22169400E+04</rscale>
<asrwt>0</asrwt>
<pdfrwt beam="1">  1        2 0.35920821E+00 0.22169400E+04</pdfrwt>
<pdfrwt beam="2">  1       -2 0.80960824E-01 0.22169400E+04</pdfrwt>
<totfact> 0.53194373E+00</totfact>
</mgrwt>
</event>
<event>
12    2  0.3623523E-008  0.2682349E+04  0.7818608E-02  0.8340755E-01
         -1   -1    0    0    0  501 -0.00000000000E+00  0.00000000000E+00  0.59825690195E+03  0.59825690195E+03  0.00000000000E+00 0.  1.
          1   -1    0    0  501    0  0.00000000000E+00 -0.00000000000E+00 -0.30066506124E+04  0.30066506124E+04  0.00000000000E+00 0. -1.
         23    2    1    2    0    0  0.54901731711E+03  0.10447579792E+04 -0.12546188593E+04  0.17248887630E+04  0.90738707561E+02 0.  0.
        254    2    1    2    0    0 -0.54901731711E+03 -0.10447579792E+04 -0.11537748511E+04  0.18800187513E+04  0.90018600791E+03 0.  0.
         23    2    4    4    0    0 -0.14045891873E+03 -0.10465264642E+04 -0.90384859033E+03  0.13928995977E+04  0.90998170183E+02 0.  0.
         23    2    4    4    0    0 -0.40855839838E+03  0.17684850764E+01 -0.24992626075E+03  0.48711915357E+03  0.88875427091E+02 0.  0.
          4    1    3    3  502    0  0.13246285086E+03  0.30947498918E+03 -0.40357004569E+03  0.52553777939E+03  0.00000000000E+00 0. -1.
         -4    1    3    3    0  502  0.41655446624E+03  0.73528298997E+03 -0.85104881364E+03  0.11993509836E+04  0.00000000000E+00 0.  1.
         11    1    5    5    0    0 -0.41731377484E+02 -0.12534762260E+03 -0.91150682078E+02  0.16050539306E+03  0.00000000000E+00 0. -1.
        -11    1    5    5    0    0 -0.98727541244E+02 -0.92117884163E+03 -0.81269790825E+03  0.12323942047E+04  0.00000000000E+00 0.  1.
          1    1    6    6  503    0 -0.70550983426E+02  0.81623695300E+01 -0.85607859626E+02  0.11123295900E+03  0.00000000000E+00 0. -1.
         -1    1    6    6    0  503 -0.33800741495E+03 -0.63938844537E+01 -0.16431840113E+03  0.37588619457E+03  0.00000000000E+00 0.  1.
<mgrwt>
<rscale>  0 0.26823493E+04</rscale>
<asrwt>0</asrwt>
<pdfrwt beam="1">  1        1 0.46256163E+00 0.26823493E+04</pdfrwt>
<pdfrwt beam="2">  1       -1 0.92039524E-01 0.26823493E+04</pdfrwt>
<totfact> 0.59384239E-01</totfact>
</mgrwt>
</event>
<event>
12    2  0.3623523E-008  0.2597801E+04  0.7818608E-02  0.8368948E-01
          1   -1    0    0  501    0  0.00000000000E+00  0.00000000000E+00  0.18450845999E+04  0.18450845999E+04  0.00000000000E+00 0. -1.
         -1   -1    0    0    0  501 -0.00000000000E+00 -0.00000000000E+00 -0.91439853668E+03  0.91439853668E+03  0.00000000000E+00 0.  1.
         23    2    1    2    0    0  0.94833853679E+03  0.63591096903E+03  0.46965842874E+03  0.12384217407E+04  0.96853638102E+02 0.  0.
        254    2    1    2    0    0 -0.94833853679E+03 -0.63591096903E+03  0.46102763444E+03  0.15210613959E+04  0.89294599464E+03 0.  0.
         23    2    4    4    0    0  0.11459446396E+03 -0.12689585862E+02  0.21565119733E+03  0.26136215397E+03  0.92259524468E+02 0.  0.
         23    2    4    4    0    0 -0.10629330008E+04 -0.62322138317E+03  0.24537643711E+03  0.12596992419E+04  0.91657665202E+02 0.  0.
          2    1    3    3  502    0  0.90110897823E+03  0.58649486804E+03  0.45981530539E+03  0.11693603961E+04  0.00000000000E+00 0. -1.
         -2    1    3    3    0  502  0.47229558569E+02  0.49416100991E+02  0.98431233460E+01  0.69061344593E+02  0.00000000000E+00 0.  1.
         11    1    5    5    0    0  0.94479758917E+02 -0.37610404916E+01  0.21951945967E+03  0.23901749610E+03  0.00000000000E+00 0.  1.
        -11    1    5    5    0    0  0.20114705047E+02 -0.89285453700E+01 -0.38682623362E+01  0.22344657864E+02  0.00000000000E+00 0. -1.
          3    1    6    6  503    0 -0.40069408463E+03 -0.28597893048E+03  0.10657068491E+03  0.50368344128E+03  0.00000000000E+00 0. -1.
         -3    1    6    6    0  503 -0.66223891613E+03 -0.33724245269E+03  0.13880575220E+03  0.75601580061E+03  0.00000000000E+00 0.  1.
<mgrwt>
<rscale>  0 0.25978011E+04</rscale>
<asrwt>0</asrwt>
<pdfrwt beam="1">  1        1 0.28385917E+00 0.25978011E+04</pdfrwt>
<pdfrwt beam="2">  1       -1 0.14067670E+00 0.25978011E+04</pdfrwt>
<totfact> 0.13841085E+00</totfact>
</mgrwt>
</event>
<event>
12    2  0.3623523E-008  0.1255629E+04  0.7818608E-02  0.9065511E-01
          2   -1    0    0  501    0  0.00000000000E+00  0.00000000000E+00  0.82034454584E+03  0.82034454584E+03  0.00000000000E+00 0. -1.
         -2   -1    0    0    0  501 -0.00000000000E+00 -0.00000000000E+00 -0.48046999932E+03  0.48046999932E+03  0.00000000000E+00 0.  1.
         23    2    1    2    0    0 -0.19741792853E+03  0.16468630903E+03  0.17334802407E+03  0.32346033108E+03  0.92095762394E+02 0.  0.
        254    2    1    2    0    0  0.19741792853E+03 -0.16468630903E+03  0.16652652245E+03  0.97735421408E+03  0.92811354813E+03 0.  0.
         23    2    4    4    0    0  0.28753202694E+03  0.32922693555E+03  0.13256983738E+03  0.46552321853E+03  0.89844663754E+02 0.  0.
         23    2    4    4    0    0 -0.90114098411E+02 -0.49391324458E+03  0.33956685065E+02  0.51183099555E+03  0.93525759243E+02 0.  0.
          2    1    3    3  502    0  0.86378262228E+01  0.18566981172E+02  0.13461912608E+02  0.24506487361E+02  0.00000000000E+00 0. -1.
         -2    1    3    3    0  502 -0.20605575475E+03  0.14611932785E+03  0.15988611146E+03  0.29895384372E+03  0.00000000000E+00 0.  1.
         11    1    5    5    0    0  0.26638649140E+03  0.30791580891E+03  0.14612787127E+03  0.43258208810E+03  0.00000000000E+00 0. -1.
        -11    1    5    5    0    0  0.21145535533E+02  0.21311126635E+02 -0.13558033888E+02  0.32941130435E+02  0.00000000000E+00 0.  1.
          4    1    6    6  503    0 -0.72025683658E+02 -0.48457097781E+03  0.28348378076E+02  0.49071413489E+03  0.00000000000E+00 0. -1.
         -4    1    6    6    0  503 -0.18088414753E+02 -0.93422667630E+01  0.56083069898E+01  0.21116860653E+02  0.00000000000E+00 0.  1.
<mgrwt>
<rscale>  0 0.12556288E+04</rscale>
<asrwt>0</asrwt>
<pdfrwt beam="1">  1        2 0.12620685E+00 0.12556288E+04</pdfrwt>
<pdfrwt beam="2">  1       -2 0.73918461E-01 0.12556288E+04</pdfrwt>
<totfact> 0.54019677E+01</totfact>
</mgrwt>
</event>
<event>
12    2  0.3623523E-008  0.1789010E+04  0.7818608E-02  0.8712166E-01
         -1   -1    0    0    0  501 -0.00000000000E+00  0.00000000000E+00  0.79474476431E+03  0.79474476431E+03  0.00000000000E+00 0.  1.
          1   -1    0    0  501    0  0.00000000000E+00 -0.00000000000E+00 -0.10067874794E+04  0.10067874794E+04  0.00000000000E+00 0. -1.
         23    2    1    2    0    0 -0.11247506213E+03  0.58869589589E+03  0.20133134843E+03  0.63887113500E+03  0.91697970737E+02 0.  0.
        254    2    1    2    0    0  0.11247506213E+03 -0.58869589589E+03 -0.41337406348E+03  0.11626611087E+04  0.90647076059E+03 0.  0.
         23    2    4    4    0    0 -0.29709783305E+03 -0.28198384127E+03  0.10110784954E+03  0.43155262087E+03  0.90735099037E+02 0.  0.
         23    2    4    4    0    0  0.40957289518E+03 -0.30671205462E+03 -0.51448191303E+03  0.73110848780E+03  0.89474807557E+02 0.  0.
          3    1    3    3  502    0 -0.56224611681E+02  0.42963751786E+03  0.11009064498E+03  0.44706772845E+03  0.00000000000E+00 0. -1.
         -3    1    3    3    0  502 -0.56250450450E+02  0.15905837803E+03  0.91240703452E+02  0.19180340655E+03  0.00000000000E+00 0.  1.
         11    1    5    5    0    0 -0.23601577866E+03 -0.23244653833E+03  0.11700217655E+03  0.35131801871E+03  0.00000000000E+00 0. -1.
        -11    1    5    5    0    0 -0.61082054391E+02 -0.49537302944E+02 -0.15894327006E+02  0.80234602153E+02  0.00000000000E+00 0.  1.
          2    1    6    6  503    0  0.33728961464E+03 -0.24198623641E+03 -0.46084895466E+03  0.62024461446E+03  0.00000000000E+00 0. -1.
         -2    1    6    6    0  503  0.72283280538E+02 -0.64725818216E+02 -0.53632958365E+02  0.11086387334E+03  0.00000000000E+00 0.  1.
<mgrwt>
<rscale>  0 0.17890099E+04</rscale>
<asrwt>0</asrwt>
<pdfrwt beam="1">  1        1 0.15489038E+00 0.17890099E+04</pdfrwt>
<pdfrwt beam="2">  1       -1 0.12226843E+00 0.17890099E+04</pdfrwt>
<totfact> 0.83473821E+00</totfact>
</mgrwt>
</event>
<event>
12    2  0.3623523E-008  0.2442512E+04  0.7818608E-02  0.8423757E-01
         -2   -1    0    0    0  501 -0.00000000000E+00  0.00000000000E+00  0.12023894608E+04  0.12023894608E+04  0.00000000000E+00 0. -1.
          2   -1    0    0  501    0  0.00000000000E+00 -0.00000000000E+00 -0.12404186160E+04  0.12404186160E+04  0.00000000000E+00 0.  1.
         23    2    1    2    0    0 -0.20787768292E+03  0.10120953741E+04  0.17878144709E+03  0.10524937856E+04  0.90720370991E+02 0.  0.
        254    2    1    2    0    0  0.20787768292E+03 -0.10120953741E+04 -0.21681060232E+03  0.13903142911E+04  0.90466392298E+03 0.  0.
         23    2    4    4    0    0  0.11538777294E+03  0.14317201937E+03 -0.79354214241E+02  0.21963066797E+03  0.90155275612E+02 0.  0.
         23    2    4    4    0    0  0.92489909983E+02 -0.11552673934E+04 -0.13745638808E+03  0.11706836231E+04  0.91699253606E+02 0.  0.
          2    1    3    3  502    0 -0.14673534331E+03  0.53833393394E+03  0.12482449060E+03  0.57176554536E+03  0.00000000000E+00 0. -1.
         -2    1    3    3    0  502 -0.61142339615E+02  0.47376144012E+03  0.53956956484E+02  0.48072824027E+03  0.00000000000E+00 0.  1.
         11    1    5    5    0    0  0.99000278007E+02  0.10028546051E+03 -0.16626508437E+02  0.14189668572E+03  0.00000000000E+00 0. -1.
        -11    1    5    5    0    0  0.16387494932E+02  0.42886558854E+02 -0.62727705804E+02  0.77733982246E+02  0.00000000000E+00 0.  1.
          2    1    6    6  503    0  0.84929219270E+02 -0.53279225335E+03 -0.45932363227E+02  0.54147053429E+03  0.00000000000E+00 0.  1.
         -2    1    6    6    0  503  0.75606907127E+01 -0.62247514008E+03 -0.91524024851E+02  0.62921308885E+03  0.00000000000E+00 0. -1.
<mgrwt>
<rscale>  0 0.24425120E+04</rscale>
<asrwt>0</asrwt>
<pdfrwt beam="1">  1        2 0.19083363E+00 0.24425120E+04</pdfrwt>
<pdfrwt beam="2">  1       -2 0.18498299E+00 0.24425120E+04</pdfrwt>
<totfact> 0.26913466E+00</totfact>
</mgrwt>
</event>
<event>
12    2  0.3623523E-008  0.1396512E+04  0.7818608E-02  0.8956347E-01
         -1   -1    0    0    0  501 -0.00000000000E+00  0.00000000000E+00  0.35751407338E+03  0.35751407338E+03  0.00000000000E+00 0.  1.
          1   -1    0    0  501    0  0.00000000000E+00 -0.00000000000E+00 -0.13637545813E+04  0.13637545813E+04  0.00000000000E+00 0. -1.
         23    2    1    2    0    0 -0.36685090821E+03 -0.73477945647E+02 -0.42504059293E+03  0.57356937499E+03  0.91343992349E+02 0.  0.
        254    2    1    2    0    0  0.36685090821E+03  0.73477945647E+02 -0.58119991496E+03  0.11476992797E+04  0.91621050968E+03 0.  0.
         23    2    4    4    0    0 -0.24047426406E+03 -0.76268108084E+02 -0.41149162075E+03  0.49327924619E+03  0.10175639922E+03 0.  0.
         23    2    4    4    0    0  0.60732517226E+03  0.14974605373E+03 -0.16970829421E+03  0.65442003348E+03  0.90536896481E+02 0.  0.
          1    1    3    3  502    0 -0.13234241169E+02  0.14827895243E+02 -0.14622824837E+02  0.24674655477E+02  0.00000000000E+00 0. -1.
         -1    1    3    3    0  502 -0.35361666704E+03 -0.88305840890E+02 -0.41041776809E+03  0.54889471951E+03  0.00000000000E+00 0.  1.
         11    1    5    5    0    0 -0.19816694646E+03 -0.10066496482E+03 -0.32085348678E+03  0.39032106501E+03  0.00000000000E+00 0. -1.
        -11    1    5    5    0    0 -0.42307317596E+02  0.24396856736E+02 -0.90638133977E+02  0.10295818118E+03  0.00000000000E+00 0.  1.
          2    1    6    6  503    0  0.38307203590E+03  0.11882335828E+03 -0.70352522642E+02  0.40720099779E+03  0.00000000000E+00 0. -1.
         -2    1    6    6    0  503  0.22425313636E+03  0.30922695454E+02 -0.99355771568E+02  0.24721903569E+03  0.00000000000E+00 0.  1.
<mgrwt>
<rscale>  0 0.13965120E+04</rscale>
<asrwt>0</asrwt>
<pdfrwt beam="1">  1        1 0.20980840E+00 0.13965120E+04</pdfrwt>
<pdfrwt beam="2">  1       -1 0.55002166E-01 0.13965120E+04</pdfrwt>
<totfact> 0.26548691E+01</totfact>
</mgrwt>
</event>
<event>
12    2  0.3623523E-008  0.2542873E+04  0.7818608E-02  0.8387869E-01
         -2   -1    0    0    0  501 -0.00000000000E+00  0.00000000000E+00  0.60004358802E+03  0.60004358802E+03  0.00000000000E+00 0. -1.
          2   -1    0    0  501    0  0.00000000000E+00 -0.00000000000E+00 -0.26940558386E+04  0.26940558386E+04  0.00000000000E+00 0.  1.
         23    2    1    2    0    0  0.43502069145E+03  0.32458182284E+03 -0.21578866611E+04  0.22269637470E+04  0.91084173850E+02 0.  0.
        254    2    1    2    0    0 -0.43502069145E+03 -0.32458182284E+03  0.63874410579E+02  0.10671356795E+04  0.91657092279E+03 0.  0.
         23    2    4    4    0    0 -0.27526946948E+02  0.23188931640E+03  0.24242634059E+03  0.34769492845E+03  0.87125454318E+02 0.  0.
         23    2    4    4    0    0 -0.40749374450E+03 -0.55647113924E+03 -0.17855193001E+03  0.71944075109E+03  0.10001460892E+03 0.  0.
          2    1    3    3  502    0  0.19428691537E+01  0.17225710011E+02 -0.41704166849E+02  0.45163451579E+02  0.00000000000E+00 0. -1.
         -2    1    3    3    0  502  0.43307782230E+03  0.30735611283E+03 -0.21161824943E+04  0.21818002955E+04  0.00000000000E+00 0.  1.
         11    1    5    5    0    0 -0.88048024287E+01  0.46895348200E+02  0.10855147811E+03  0.11857538374E+03  0.00000000000E+00 0. -1.
        -11    1    5    5    0    0 -0.18722144520E+02  0.18499396820E+03  0.13387486248E+03  0.22911954471E+03  0.00000000000E+00 0.  1.
          3    1    6    6  503    0 -0.17446295053E+02 -0.74518147484E+02 -0.12200402534E+02  0.77499531209E+02  0.00000000000E+00 0. -1.
         -3    1    6    6    0  503 -0.39004744945E+03 -0.48195299176E+03 -0.16635152748E+03  0.64194121988E+03  0.00000000000E+00 0.  1.
<mgrwt>
<rscale>  0 0.25428731E+04</rscale>
<asrwt>0</asrwt>
<pdfrwt beam="1">  1        2 0.41447013E+00 0.25428731E+04</pdfrwt>
<pdfrwt beam="2">  1       -2 0.92314398E-01 0.25428731E+04</pdfrwt>
<totfact> 0.23705245E+00</totfact>
</mgrwt>
</event>
<event>
12    2  0.3623523E-008  0.1019161E+04  0.7818608E-02  0.9287775E-01
         -2   -1    0    0    0  501 -0.00000000000E+00  0.00000000000E+00  0.12202191898E+03  0.12202191898E+03  0.00000000000E+00 0.  1.
          2   -1    0    0  501    0  0.00000000000E+00 -0.00000000000E+00 -0.21280798818E+04  0.21280798818E+04  0.00000000000E+00 0. -1.
         23    2    1    2    0    0 -0.26384969931E+02 -0.48179027007E+01 -0.31400033829E+03  0.32778567960E+03  0.90154647577E+02 0.  0.
        254    2    1    2    0    0  0.26384969931E+02  0.48179027007E+01 -0.16920576246E+04  0.19223161212E+04  0.91187767064E+03 0.  0.
         23    2    4    4    0    0  0.43935431365E+03 -0.12459586959E+03 -0.96324903497E+03  0.10696358989E+04  0.87840248057E+02 0.  0.
         23    2    4    4    0    0 -0.41296934372E+03  0.12941377229E+03 -0.72880858960E+03  0.85268022233E+03  0.92790074723E+02 0.  0.
          1    1    3    3  502    0  0.27098449956E+02 -0.22153916464E+01 -0.19995750933E+03  0.20179752101E+03  0.00000000000E+00 0. -1.
         -1    1    3    3    0  502 -0.53483419886E+02 -0.26025110543E+01 -0.11404282896E+03  0.12598815859E+03  0.00000000000E+00 0.  1.
         11    1    5    5    0    0  0.16536717063E+02  0.45279805364E+01 -0.12792262839E+02  0.21391764946E+02  0.00000000000E+00 0. -1.
        -11    1    5    5    0    0  0.42281759658E+03 -0.12912385013E+03 -0.95045677213E+03  0.10482441339E+04  0.00000000000E+00 0.  1.
          2    1    6    6  503    0 -0.20852834634E+03  0.38949773049E+02 -0.28012060127E+03  0.35138114250E+03  0.00000000000E+00 0. -1.
         -2    1    6    6    0  503 -0.20444099738E+03  0.90463999246E+02 -0.44868798833E+03  0.50129907983E+03  0.00000000000E+00 0.  1.
<mgrwt>
<rscale>  0 0.10191612E+04</rscale>
<asrwt>0</asrwt>
<pdfrwt beam="1">  1        2 0.32739690E+00 0.10191612E+04</pdfrwt>
<pdfrwt beam="2">  1       -2 0.18772603E-01 0.10191612E+04</pdfrwt>
<totfact> 0.13567539E+02</totfact>
</mgrwt>
</event>
<event>
12    2  0.3623523E-008  0.1277086E+04  0.7818608E-02  0.9047936E-01
          2   -1    0    0  501    0  0.00000000000E+00  0.00000000000E+00  0.22851998809E+04  0.22851998809E+04  0.00000000000E+00 0. -1.
         -2   -1    0    0    0  501 -0.00000000000E+00 -0.00000000000E+00 -0.17842511339E+03  0.17842511339E+03  0.00000000000E+00 0.  1.
         23    2    1    2    0    0 -0.34692896243E+02  0.16767893959E+03  0.27699426106E+02  0.19663195810E+03  0.92612336708E+02 0.  0.
        254    2    1    2    0    0  0.34692896243E+02 -0.16767893959E+03  0.20790753414E+04  0.22669930362E+04  0.88734622728E+03 0.  0.
         23    2    4    4    0    0  0.33507369686E+03  0.20980661307E+03  0.80426399060E+03  0.90086810828E+03  0.91812769924E+02 0.  0.
         23    2    4    4    0    0 -0.30038080061E+03 -0.37748555266E+03  0.12748113508E+04  0.13661249279E+04  0.91811604231E+02 0.  0.
          4    1    3    3  502    0  0.27354713754E+02  0.25224248569E+02 -0.58603533113E+01  0.37668114120E+02  0.00000000000E+00 0. -1.
         -4    1    3    3    0  502 -0.62047609998E+02  0.14245469102E+03  0.33559779418E+02  0.15896384398E+03  0.00000000000E+00 0.  1.
         11    1    5    5    0    0  0.31304147178E+02  0.37188458092E+02  0.50653945711E+02  0.70205080029E+02  0.00000000000E+00 0.  1.
        -11    1    5    5    0    0  0.30376954968E+03  0.17261815498E+03  0.75361004489E+03  0.83066302825E+03  0.00000000000E+00 0. -1.
          4    1    6    6  503    0 -0.26781574712E+03 -0.27647564815E+03  0.99378315305E+03  0.10657246425E+04  0.00000000000E+00 0. -1.
         -4    1    6    6    0  503 -0.32565053492E+02 -0.10100990451E+03  0.28102819780E+03  0.30040028541E+03  0.00000000000E+00 0.  1.
<mgrwt>
<rscale>  0 0.12770858E+04</rscale>
<asrwt>0</asrwt>
<pdfrwt beam="1">  1        2 0.35156919E+00 0.12770858E+04</pdfrwt>
<pdfrwt beam="2">  1       -2 0.27450019E-01 0.12770858E+04</pdfrwt>
<totfact> 0.55029524E+01</totfact>
</mgrwt>
</event>
<event>
12    2  0.3623523E-008  0.2236247E+04  0.7818608E-02  0.8503491E-01
         -2   -1    0    0    0  501 -0.00000000000E+00  0.00000000000E+00  0.10409993948E+04  0.10409993948E+04  0.00000000000E+00 0.  1.
          2   -1    0    0  501    0  0.00000000000E+00 -0.00000000000E+00 -0.12009615755E+04  0.12009615755E+04  0.00000000000E+00 0. -1.
         23    2    1    2    0    0 -0.49146787060E+03 -0.77773608372E+03 -0.22219448802E+03  0.95079939101E+03  0.90746943134E+02 0.  0.
        254    2    1    2    0    0  0.49146787060E+03  0.77773608372E+03  0.62232307334E+02  0.12911615793E+04  0.90377612273E+03 0.  0.
         23    2    4    4    0    0 -0.23308753498E+03  0.23773677266E+03  0.15394146627E+03  0.37813208852E+03  0.91854936119E+02 0.  0.
         23    2    4    4    0    0  0.72455540559E+03  0.53999931106E+03 -0.91709158940E+02  0.91302949078E+03  0.92911191410E+02 0.  0.
          4    1    3    3  502    0 -0.26909144380E+03 -0.43175545005E+03 -0.76462241535E+02  0.51446034653E+03  0.00000000000E+00 0. -1.
         -4    1    3    3    0  502 -0.22237642681E+03 -0.34598063367E+03 -0.14573224648E+03  0.43633904448E+03  0.00000000000E+00 0.  1.
         11    1    5    5    0    0 -0.29568857508E+02 -0.56560110124E+00  0.14268720933E+01  0.29608667699E+02  0.00000000000E+00 0. -1.
        -11    1    5    5    0    0 -0.20351867748E+03  0.23830237376E+03  0.15251459418E+03  0.34852342082E+03  0.00000000000E+00 0.  1.
          1    1    6    6  503    0  0.25860747275E+03  0.23872816311E+03 -0.92331458021E+01  0.35207131636E+03  0.00000000000E+00 0. -1.
         -1    1    6    6    0  503  0.46594793284E+03  0.30127114795E+03 -0.82476013138E+02  0.56095817442E+03  0.00000000000E+00 0.  1.
<mgrwt>
<rscale>  0 0.22362471E+04</rscale>
<asrwt>0</asrwt>
<pdfrwt beam="1">  1        2 0.18476332E+00 0.22362471E+04</pdfrwt>
<pdfrwt beam="2">  1       -2 0.16015375E+00 0.22362471E+04</pdfrwt>
<totfact> 0.43311394E+00</totfact>
</mgrwt>
</event>
<event>
12    2  0.3623523E-008  0.3592020E+04  0.7818608E-02  0.8092322E-01
         -2   -1    0    0    0  501 -0.00000000000E+00  0.00000000000E+00  0.21079098233E+04  0.21079098233E+04  0.00000000000E+00 0.  1.
          2   -1    0    0  501    0  0.00000000000E+00 -0.00000000000E+00 -0.15302608102E+04  0.15302608102E+04  0.00000000000E+00 0. -1.
         23    2    1    2    0    0 -0.35650229119E+03 -0.14831521985E+04 -0.44123251075E+03  0.15908443182E+04  0.96255849861E+02 0.  0.
        254    2    1    2    0    0  0.35650229119E+03  0.14831521985E+04  0.10188815238E+04  0.20473263154E+04  0.90917058601E+03 0.  0.
         23    2    4    4    0    0  0.16238893555E+03  0.75286251562E+03  0.10254434445E+04  0.12860135952E+04  0.95522642537E+02 0.  0.
         23    2    4    4    0    0  0.19411335564E+03  0.73028968287E+03 -0.65619206497E+01  0.76131272022E+03  0.92471527639E+02 0.  0.
          1    1    3    3  502    0 -0.32991400463E+03 -0.13851070577E+04 -0.43603806998E+03  0.14891252500E+04  0.00000000000E+00 0. -1.
         -1    1    3    3    0  502 -0.26588286556E+02 -0.98045140791E+02 -0.51944407704E+01  0.10171906817E+03  0.00000000000E+00 0.  1.
         11    1    5    5    0    0  0.89303067530E+02  0.34023732803E+03  0.54308200178E+03  0.64705064555E+03  0.00000000000E+00 0.  1.
        -11    1    5    5    0    0  0.73085868024E+02  0.41262518759E+03  0.48236144272E+03  0.63896294960E+03  0.00000000000E+00 0. -1.
          3    1    6    6  503    0  0.59122322265E+02  0.14771806887E+03 -0.33898823954E+02  0.16268130540E+03  0.00000000000E+00 0. -1.
         -3    1    6    6    0  503  0.13499103337E+03  0.58257161400E+03  0.27336903304E+02  0.59863141483E+03  0.00000000000E+00 0.  1.
<mgrwt>
<rscale>  0 0.35920199E+04</rscale>
<asrwt>0</asrwt>
<pdfrwt beam="1">  1        2 0.23542474E+00 0.35920199E+04</pdfrwt>
<pdfrwt beam="2">  1       -2 0.32429382E+00 0.35920199E+04</pdfrwt>
<totfact> 0.22413018E-01</totfact>
</mgrwt>
</event>
<event>
12    2  0.3623523E-008  0.1933130E+04  0.7818608E-02  0.8638539E-01
          1   -1    0    0  501    0  0.00000000000E+00  0.00000000000E+00  0.62254431218E+03  0.62254431218E+03  0.00000000000E+00 0. -1.
         -1   -1    0    0    0  501 -0.00000000000E+00 -0.00000000000E+00 -0.15006927569E+04  0.15006927569E+04  0.00000000000E+00 0.  1.
         23    2    1    2    0    0 -0.28043559665E+03  0.68433204940E+03 -0.23106520558E+03  0.78015548584E+03  0.91087733188E+02 0.  0.
        254    2    1    2    0    0  0.28043559665E+03 -0.68433204940E+03 -0.64708323910E+03  0.13430815832E+04  0.91553096240E+03 0.  0.
         23    2    4    4    0    0  0.83074085226E+02 -0.87437330098E+03 -0.43395935681E+03  0.98398068094E+03  0.92017846043E+02 0.  0.
         23    2    4    4    0    0  0.19736151143E+03  0.19004125157E+03 -0.21312388228E+03  0.35910090227E+03  0.92002311470E+02 0.  0.
          1    1    3    3  502    0 -0.15600544531E+03  0.43140422518E+03 -0.10107639150E+03  0.46974859381E+03  0.00000000000E+00 0. -1.
         -1    1    3    3    0  502 -0.12443015134E+03  0.25292782423E+03 -0.12998881408E+03  0.31040689203E+03  0.00000000000E+00 0.  1.
         11    1    5    5    0    0  0.25931123031E+02 -0.65698113432E+02 -0.52630104715E+02  0.88082876727E+02  0.00000000000E+00 0. -1.
        -11    1    5    5    0    0  0.57142962195E+02 -0.80867518755E+03 -0.38132925210E+03  0.89589780421E+03  0.00000000000E+00 0.  1.
          3    1    6    6  503    0  0.83529924725E+02  0.12599660564E+03 -0.74125045520E+02  0.16836542202E+03  0.00000000000E+00 0. -1.
         -3    1    6    6    0  503  0.11383158670E+03  0.64044645931E+02 -0.13899883676E+03  0.19073548025E+03  0.00000000000E+00 0.  1.
<mgrwt>
<rscale>  0 0.19331298E+04</rscale>
<asrwt>0</asrwt>
<pdfrwt beam="1">  1        1 0.95776049E-01 0.19331298E+04</pdfrwt>
<pdfrwt beam="2">  1       -1 0.23087581E+00 0.19331298E+04</pdfrwt>
<totfact> 0.28200717E+00</totfact>
</mgrwt>
</event>
<event>
12    2  0.3623523E-008  0.1662414E+04  0.7818608E-02  0.8783096E-01
         -2   -1    0    0    0  501 -0.00000000000E+00  0.00000000000E+00  0.10912666595E+04  0.10912666595E+04  0.00000000000E+00 0.  1.
          2   -1    0    0  501    0  0.00000000000E+00 -0.00000000000E+00 -0.63312215233E+03  0.63312215233E+03  0.00000000000E+00 0. -1.
         23    2    1    2    0    0 -0.28640216338E+03  0.44725943499E+03 -0.75752964157E+02  0.54401149455E+03  0.90237427101E+02 0.  0.
        254    2    1    2    0    0  0.28640216338E+03 -0.44725943499E+03  0.53389747137E+03  0.11803773173E+04  0.90894273745E+03 0.  0.
         23    2    4    4    0    0  0.30123617945E+03 -0.60894745892E+03  0.80489317108E+02  0.69031245144E+03  0.92154798645E+02 0.  0.
         23    2    4    4    0    0 -0.14834016070E+02  0.16168802394E+03  0.45340815426E+03  0.49006486589E+03  0.90672781526E+02 0.  0.
          2    1    3    3  502    0 -0.27865493762E+03  0.38196387209E+03 -0.62249684115E+02  0.47688572741E+03  0.00000000000E+00 0. -1.
         -2    1    3    3    0  502 -0.77472257580E+01  0.65295562901E+02 -0.13503280042E+02  0.67125767134E+02  0.00000000000E+00 0.  1.
         11    1    5    5    0    0  0.17131390730E+03 -0.44014598843E+03  0.64632199866E+02  0.47671193317E+03  0.00000000000E+00 0.  1.
        -11    1    5    5    0    0  0.12992227215E+03 -0.16880147049E+03  0.15857117242E+02  0.21360051828E+03  0.00000000000E+00 0. -1.
          4    1    6    6  503    0 -0.47564663237E+02  0.48158933284E+02  0.17398366694E+03  0.18668689404E+03  0.00000000000E+00 0. -1.
         -4    1    6    6    0  503  0.32730647168E+02  0.11352909065E+03  0.27942448731E+03  0.30337797184E+03  0.00000000000E+00 0.  1.
<mgrwt>
<rscale>  0 0.16624140E+04</rscale>
<asrwt>0</asrwt>
<pdfrwt beam="1">  1        2 0.97403408E-01 0.16624140E+04</pdfrwt>
<pdfrwt beam="2">  1       -2 0.16788718E+00 0.16624140E+04</pdfrwt>
<totfact> 0.97736689E+00</totfact>
</mgrwt>
</event>
<event>
12    2  0.3623523E-008  0.1611323E+04  0.7818608E-02  0.8813622E-01
         -2   -1    0    0    0  501 -0.00000000000E+00  0.00000000000E+00  0.65221380765E+03  0.65221380765E+03  0.00000000000E+00 0.  1.
          2   -1    0    0  501    0  0.00000000000E+00 -0.00000000000E+00 -0.99521091672E+03  0.99521091672E+03  0.00000000000E+00 0. -1.
         23    2    1    2    0    0 -0.15641198765E+03 -0.63289433251E+02 -0.63985885755E+03  0.66778803789E+03  0.89728722993E+02 0.  0.
        254    2    1    2    0    0  0.15641198765E+03  0.63289433251E+02  0.29686174847E+03  0.97963668648E+03  0.91819980263E+03 0.  0.
         23    2    4    4    0    0  0.23744393390E+03 -0.96394138268E+02 -0.26678566978E+03  0.38100250438E+03  0.91196837168E+02 0.  0.
         23    2    4    4    0    0 -0.81031946250E+02  0.15968357152E+03  0.56364741825E+03  0.59863418209E+03  0.92733233238E+02 0.  0.
          1    1    3    3  502    0 -0.38847143337E+02  0.24964225895E+01 -0.29486284489E+03  0.29742130046E+03  0.00000000000E+00 0. -1.
         -1    1    3    3    0  502 -0.11756484431E+03 -0.65785855841E+02 -0.34499601266E+03  0.37036673743E+03  0.00000000000E+00 0.  1.
         11    1    5    5    0    0  0.14205497439E+03 -0.19506035032E+02 -0.18340138184E+03  0.23280070449E+03  0.00000000000E+00 0. -1.
        -11    1    5    5    0    0  0.95388959514E+02 -0.76888103236E+02 -0.83384287934E+02  0.14820179989E+03  0.00000000000E+00 0.  1.
          4    1    6    6  503    0 -0.28641662420E+02  0.19247038683E+02  0.35011577514E+02  0.49158965452E+02  0.00000000000E+00 0.  1.
         -4    1    6    6    0  503 -0.52390283830E+02  0.14043653284E+03  0.52863584074E+03  0.54947521664E+03  0.00000000000E+00 0. -1.
<mgrwt>
<rscale>  0 0.16113228E+04</rscale>
<asrwt>0</asrwt>
<pdfrwt beam="1">  1        2 0.15310937E+00 0.16113228E+04</pdfrwt>
<pdfrwt beam="2">  1       -2 0.10034059E+00 0.16113228E+04</pdfrwt>
<totfact> 0.19918590E+01</totfact>
</mgrwt>
</event>
<event>
12    2  0.3623523E-008  0.2367135E+04  0.7818608E-02  0.8451911E-01
          1   -1    0    0  501    0  0.00000000000E+00  0.00000000000E+00  0.10923487329E+04  0.10923487329E+04  0.00000000000E+00 0. -1.
         -1   -1    0    0    0  501 -0.00000000000E+00 -0.00000000000E+00 -0.12824039297E+04  0.12824039297E+04  0.00000000000E+00 0.  1.
         23    2    1    2    0    0 -0.37166444859E+03  0.85906756202E+03  0.30042254746E+03  0.98725863333E+03  0.91073396824E+02 0.  0.
        254    2    1    2    0    0  0.37166444859E+03 -0.85906756202E+03 -0.49047774424E+03  0.13874940292E+04  0.89913276271E+03 0.  0.
         23    2    4    4    0    0  0.58995873518E+03 -0.53882445827E+03 -0.68353398719E+02  0.80712798783E+03  0.91653126408E+02 0.  0.
         23    2    4    4    0    0 -0.21829428659E+03 -0.32024310375E+03 -0.42212434552E+03  0.58036604136E+03  0.91802711424E+02 0.  0.
          3    1    3    3  502    0 -0.30829523470E+03  0.78046588939E+03  0.27610844024E+03  0.88340750903E+03  0.00000000000E+00 0. -1.
         -3    1    3    3    0  502 -0.63369213886E+02  0.78601672631E+02  0.24314107215E+02  0.10385112430E+03  0.00000000000E+00 0.  1.
         11    1    5    5    0    0  0.21108239061E+03 -0.23747175212E+03 -0.57583025665E+02  0.32290000546E+03  0.00000000000E+00 0.  1.
        -11    1    5    5    0    0  0.37887634456E+03 -0.30135270616E+03 -0.10770373054E+02  0.48422798237E+03  0.00000000000E+00 0. -1.
          2    1    6    6  503    0 -0.16600389510E+03 -0.24630838172E+03 -0.37468312275E+03  0.47813445240E+03  0.00000000000E+00 0. -1.
         -2    1    6    6    0  503 -0.52290391488E+02 -0.73934722034E+02 -0.47441222768E+02  0.10223158896E+03  0.00000000000E+00 0.  1.
<mgrwt>
<rscale>  0 0.23671352E+04</rscale>
<asrwt>0</asrwt>
<pdfrwt beam="1">  1        1 0.16805365E+00 0.23671352E+04</pdfrwt>
<pdfrwt beam="2">  1       -1 0.19729291E+00 0.23671352E+04</pdfrwt>
<totfact> 0.18144363E+00</totfact>
</mgrwt>
</event>
<event>
12    2  0.3623523E-008  0.1226178E+04  0.7818608E-02  0.9090246E-01
         -1   -1    0    0    0  501 -0.00000000000E+00  0.00000000000E+00  0.30099263721E+03  0.30099263721E+03  0.00000000000E+00 0.  1.
          1   -1    0    0  501    0  0.00000000000E+00 -0.00000000000E+00 -0.12487957913E+04  0.12487957913E+04  0.00000000000E+00 0. -1.
         23    2    1    2    0    0 -0.14478999769E+02 -0.25418094117E+03 -0.40450597726E+03  0.48657243944E+03  0.91159535451E+02 0.  0.
        254    2    1    2    0    0  0.14478999769E+02  0.25418094117E+03 -0.54329717685E+03  0.10632159891E+04  0.87774644675E+03 0.  0.
         23    2    4    4    0    0 -0.19783268180E+03  0.25402502264E+03  0.12461335978E+03  0.35672853602E+03  0.89779044647E+02 0.  0.
         23    2    4    4    0    0  0.21231168157E+03  0.15591852476E+00 -0.66791053663E+03  0.70648745306E+03  0.89127784383E+02 0.  0.
          4    1    3    3  502    0 -0.10580206414E+02 -0.24468538168E+03 -0.32783370567E+03  0.40921609859E+03  0.00000000000E+00 0. -1.
         -4    1    3    3    0  502 -0.38987933548E+01 -0.94955594888E+01 -0.76672271585E+02  0.77356340850E+02  0.00000000000E+00 0.  1.
         11    1    5    5    0    0  0.19601871589E+01  0.23247934905E+02  0.28238540278E+02  0.36629550476E+02  0.00000000000E+00 0. -1.
        -11    1    5    5    0    0 -0.19979286896E+03  0.23077708774E+03  0.96374819501E+02  0.32009898554E+03  0.00000000000E+00 0.  1.
          3    1    6    6  503    0  0.16279379521E+03 -0.13567740930E+02 -0.59680528518E+03  0.61875879935E+03  0.00000000000E+00 0.  1.
         -3    1    6    6    0  503  0.49517886360E+02  0.13723659455E+02 -0.71105251451E+02  0.87728653713E+02  0.00000000000E+00 0. -1.
<mgrwt>
<rscale>  0 0.12261784E+04</rscale>
<asrwt>0</asrwt>
<pdfrwt beam="1">  1        1 0.19212243E+00 0.12261784E+04</pdfrwt>
<pdfrwt beam="2">  1       -1 0.46306560E-01 0.12261784E+04</pdfrwt>
<totfact> 0.45133133E+01</totfact>
</mgrwt>
</event>
<event>
12    2  0.3623523E-008  0.1237242E+04  0.7818608E-02  0.9080869E-01
          2   -1    0    0  501    0  0.00000000000E+00  0.00000000000E+00  0.10403721596E+04  0.10403721596E+04  0.00000000000E+00 0. -1.
         -2   -1    0    0    0  501 -0.00000000000E+00 -0.00000000000E+00 -0.36784149665E+03  0.36784149665E+03  0.00000000000E+00 0.  1.
         23    2    1    2    0    0 -0.10492958516E+03 -0.30841711171E+02 -0.14102112784E+03  0.20094372668E+03  0.92357965580E+02 0.  0.
        254    2    1    2    0    0  0.10492958516E+03  0.30841711171E+02  0.81355179082E+03  0.12072699296E+04  0.88525292294E+03 0.  0.
         23    2    4    4    0    0 -0.73184243080E+02 -0.27018376157E+03 -0.23827367627E+02  0.29534084769E+03  0.91122304724E+02 0.  0.
         23    2    4    4    0    0  0.17811382824E+03  0.30102547274E+03  0.83737915844E+03  0.91192908190E+03  0.89832757785E+02 0.  0.
          4    1    3    3  502    0 -0.66608526370E+02 -0.53557518889E+02 -0.12909952359E+03  0.15482826165E+03  0.00000000000E+00 0.  1.
         -4    1    3    3    0  502 -0.38321058788E+02  0.22715807718E+02 -0.11921604246E+02  0.46115465028E+02  0.00000000000E+00 0. -1.
         11    1    5    5    0    0 -0.94521189871E+02 -0.22539644184E+03 -0.25221562971E+02  0.24571108760E+03  0.00000000000E+00 0.  1.
        -11    1    5    5    0    0  0.21336946791E+02 -0.44787319725E+02  0.13941953433E+01  0.49629760095E+02  0.00000000000E+00 0. -1.
          3    1    6    6  503    0  0.10999549783E+03  0.25669402435E+03  0.62622695479E+03  0.68567560157E+03  0.00000000000E+00 0. -1.
         -3    1    6    6    0  503  0.68118330411E+02  0.44331448383E+02  0.21115220365E+03  0.22625348033E+03  0.00000000000E+00 0.  1.
<mgrwt>
<rscale>  0 0.12372422E+04</rscale>
<asrwt>0</asrwt>
<pdfrwt beam="1">  1        2 0.16005725E+00 0.12372422E+04</pdfrwt>
<pdfrwt beam="2">  1       -2 0.56591000E-01 0.12372422E+04</pdfrwt>
<totfact> 0.68447955E+01</totfact>
</mgrwt>
</event>
<event>
12    2  0.3623523E-008  0.2606953E+04  0.7818608E-02  0.8365843E-01
         -2   -1    0    0    0  501 -0.00000000000E+00  0.00000000000E+00  0.71922805805E+03  0.71922805805E+03  0.00000000000E+00 0.  1.
          2   -1    0    0  501    0  0.00000000000E+00 -0.00000000000E+00 -0.23623253984E+04  0.23623253984E+04  0.00000000000E+00 0. -1.
         23    2    1    2    0    0  0.21984570096E+03  0.46442508891E+03 -0.19353232687E+04  0.20041688051E+04  0.84815386558E+02 0.  0.
        254    2    1    2    0    0 -0.21984570096E+03 -0.46442508891E+03  0.29222592829E+03  0.10773846513E+04  0.90074352529E+03 0.  0.
         23    2    4    4    0    0 -0.45464058123E+03 -0.16408557159E+03  0.44049750364E+03  0.66018362981E+03  0.90455743001E+02 0.  0.
         23    2    4    4    0    0  0.23479488027E+03 -0.30033951733E+03 -0.14827157535E+03  0.41720102154E+03  0.82096107367E+02 0.  0.
          2    1    3    3  502    0  0.76218121258E+02  0.15705588272E+03 -0.51103080261E+03  0.54002614151E+03  0.00000000000E+00 0.  1.
         -2    1    3    3    0  502  0.14362757970E+03  0.30736920620E+03 -0.14242924661E+04  0.14641426636E+04  0.00000000000E+00 0. -1.
         11    1    5    5    0    0 -0.45570191983E+03 -0.15526133408E+03  0.42434267672E+03  0.64174529907E+03  0.00000000000E+00 0. -1.
        -11    1    5    5    0    0  0.10613386011E+01 -0.88242375031E+01  0.16154826926E+02  0.18438330731E+02  0.00000000000E+00 0.  1.
          3    1    6    6  503    0  0.20062966256E+03 -0.28256138581E+03 -0.11173138645E+03  0.36411138539E+03  0.00000000000E+00 0. -1.
         -3    1    6    6    0  503  0.34165217716E+02 -0.17778131515E+02 -0.36540188903E+02  0.53089636152E+02  0.00000000000E+00 0.  1.
<mgrwt>
<rscale>  0 0.26069528E+04</rscale>
<asrwt>0</asrwt>
<pdfrwt beam="1">  1        2 0.36343467E+00 0.26069528E+04</pdfrwt>
<pdfrwt beam="2">  1       -2 0.11065047E+00 0.26069528E+04</pdfrwt>
<totfact> 0.23917799E+00</totfact>
</mgrwt>
</event>
<event>
12    2  0.3623523E-008  0.1916057E+04  0.7818608E-02  0.8646905E-01
          1   -1    0    0  501    0  0.00000000000E+00  0.00000000000E+00  0.13861786357E+04  0.13861786357E+04  0.00000000000E+00 0. -1.
         -1   -1    0    0    0  501 -0.00000000000E+00 -0.00000000000E+00 -0.66212157237E+03  0.66212157237E+03  0.00000000000E+00 0.  1.
         23    2    1    2    0    0 -0.35804601819E+03 -0.38644506325E+03 -0.27651547465E+03  0.60167214369E+03  0.89508785698E+02 0.  0.
        254    2    1    2    0    0  0.35804601819E+03  0.38644506325E+03  0.10005725380E+04  0.14466280644E+04  0.90224753523E+03 0.  0.
         23    2    4    4    0    0 -0.11352358520E+03  0.12012723242E+03 -0.10161880101E+03  0.21523145613E+03  0.93166746342E+02 0.  0.
         23    2    4    4    0    0  0.47156960339E+03  0.26631783084E+03  0.11021913390E+04  0.12313966083E+04  0.90602324482E+02 0.  0.
          4    1    3    3  502    0 -0.12399304532E+03 -0.81905940769E+02 -0.56157339275E+02  0.15886001755E+03  0.00000000000E+00 0. -1.
         -4    1    3    3    0  502 -0.23405297287E+03 -0.30453912248E+03 -0.22035813538E+03  0.44281212614E+03  0.00000000000E+00 0.  1.
         11    1    5    5    0    0 -0.47292426780E+02  0.44422528343E+01  0.18462739808E+00  0.47500961340E+02  0.00000000000E+00 0. -1.
        -11    1    5    5    0    0 -0.66231158420E+02  0.11568497958E+03 -0.10180342840E+03  0.16773049479E+03  0.00000000000E+00 0.  1.
          4    1    6    6  503    0  0.83681516581E+02  0.45328705682E+02  0.12539348126E+03  0.15741922665E+03  0.00000000000E+00 0. -1.
         -4    1    6    6    0  503  0.38788808681E+03  0.22098912515E+03  0.97679785775E+03  0.10739773816E+04  0.00000000000E+00 0.  1.
<mgrwt>
<rscale>  0 0.19160572E+04</rscale>
<asrwt>0</asrwt>
<pdfrwt beam="1">  1        1 0.21325825E+00 0.19160572E+04</pdfrwt>
<pdfrwt beam="2">  1       -1 0.10186486E+00 0.19160572E+04</pdfrwt>
<totfact> 0.67055805E+00</totfact>
</mgrwt>
</event>
<event>
12    2  0.3623523E-008  0.1533900E+04  0.7818608E-02  0.8862217E-01
         -2   -1    0    0    0  501 -0.00000000000E+00  0.00000000000E+00  0.21958800122E+03  0.21958800122E+03  0.00000000000E+00 0.  1.
          2   -1    0    0  501    0  0.00000000000E+00 -0.00000000000E+00 -0.26787095917E+04  0.26787095917E+04  0.00000000000E+00 0. -1.
         23    2    1    2    0    0  0.15140167542E+03  0.23641305031E+03 -0.18654599909E+04  0.18889853317E+04  0.97524397398E+02 0.  0.
        254    2    1    2    0    0 -0.15140167542E+03 -0.23641305031E+03 -0.59366159958E+03  0.10093122612E+04  0.76646170690E+03 0.  0.
         23    2    4    4    0    0 -0.38954630449E+03  0.63096662633E+02 -0.40609471557E+03  0.57330003318E+03  0.89624203517E+02 0.  0.
         23    2    4    4    0    0  0.23814462908E+03 -0.29950971294E+03 -0.18756688402E+03  0.43601222803E+03  0.92230117149E+02 0.  0.
          1    1    3    3  502    0  0.53887081194E+02  0.16596500915E+03 -0.98364376245E+03  0.99900112772E+03  0.00000000000E+00 0. -1.
         -1    1    3    3    0  502  0.97514594222E+02  0.70448041158E+02 -0.88181622847E+03  0.88998420401E+03  0.00000000000E+00 0.  1.
         11    1    5    5    0    0 -0.35483121012E+03  0.58222999443E+02 -0.32392670526E+03  0.48396654401E+03  0.00000000000E+00 0. -1.
        -11    1    5    5    0    0 -0.34715094372E+02  0.48736631903E+01 -0.82168010303E+02  0.89333489170E+02  0.00000000000E+00 0.  1.
          1    1    6    6  503    0  0.18454460388E+03 -0.25149379964E+03 -0.11141658129E+03  0.33123933442E+03  0.00000000000E+00 0. -1.
         -1    1    6    6    0  503  0.53600025198E+02 -0.48015913301E+02 -0.76150302724E+02  0.10477289361E+03  0.00000000000E+00 0.  1.
<mgrwt>
<rscale>  0 0.15339002E+04</rscale>
<asrwt>0</asrwt>
<pdfrwt beam="1">  1        2 0.41210916E+00 0.15339002E+04</pdfrwt>
<pdfrwt beam="2">  1       -2 0.33782770E-01 0.15339002E+04</pdfrwt>
<totfact> 0.21681123E+01</totfact>
</mgrwt>
</event>
<event>
12    2  0.3623523E-008  0.2477962E+04  0.7818608E-02  0.8410879E-01
         -2   -1    0    0    0  501 -0.00000000000E+00  0.00000000000E+00  0.15506002542E+04  0.15506002542E+04  0.00000000000E+00 0.  1.
          2   -1    0    0  501    0  0.00000000000E+00 -0.00000000000E+00 -0.98998665200E+03  0.98998665200E+03  0.00000000000E+00 0. -1.
         23    2    1    2    0    0  0.48728596769E+03 -0.33266286850E+02 -0.73652275394E+03  0.88857483080E+03  0.92440265686E+02 0.  0.
        254    2    1    2    0    0 -0.48728596769E+03  0.33266286850E+02  0.12971363562E+04  0.16520120754E+04  0.89890317094E+03 0.  0.
         23    2    4    4    0    0 -0.41951640875E+03 -0.35750929637E+03  0.47029056687E+03  0.73016218106E+03  0.90314335255E+02 0.  0.
         23    2    4    4    0    0 -0.67769558945E+02  0.39077558322E+03  0.82684578928E+03  0.92184989436E+03  0.93994675020E+02 0.  0.
          2    1    3    3  502    0  0.27101600823E+03  0.11274094985E+02 -0.34252239732E+03  0.43691918543E+03  0.00000000000E+00 0. -1.
         -2    1    3    3    0  502  0.21626995946E+03 -0.44540381835E+02 -0.39400035662E+03  0.45165564537E+03  0.00000000000E+00 0.  1.
         11    1    5    5    0    0 -0.53152529278E+02 -0.48937052199E+02  0.25849024961E+02  0.76734598051E+02  0.00000000000E+00 0.  1.
        -11    1    5    5    0    0 -0.36636387947E+03 -0.30857224417E+03  0.44444154191E+03  0.65342758300E+03  0.00000000000E+00 0. -1.
          4    1    6    6  503    0  0.32992572995E+01  0.97952475783E+02  0.13135131769E+03  0.16388636694E+03  0.00000000000E+00 0. -1.
         -4    1    6    6    0  503 -0.71068816244E+02  0.29282310744E+03  0.69549447159E+03  0.75796352743E+03  0.00000000000E+00 0.  1.
<mgrwt>
<rscale>  0 0.24779617E+04</rscale>
<asrwt>0</asrwt>
<pdfrwt beam="1">  1        2 0.15230564E+00 0.24779617E+04</pdfrwt>
<pdfrwt beam="2">  1       -2 0.23855389E+00 0.24779617E+04</pdfrwt>
<totfact> 0.17271452E+00</totfact>
</mgrwt>
</event>
<event>
12    2  0.3623523E-008  0.3888633E+04  0.7818608E-02  0.8027398E-01
         -2   -1    0    0    0  501 -0.00000000000E+00  0.00000000000E+00  0.27109885104E+04  0.27109885104E+04  0.00000000000E+00 0.  1.
          2   -1    0    0  501    0  0.00000000000E+00 -0.00000000000E+00 -0.13944603319E+04  0.13944603319E+04  0.00000000000E+00 0. -1.
         23    2    1    2    0    0 -0.13676368976E+04  0.85198767023E+03 -0.31094936222E+03  0.16437607178E+04  0.94583918113E+02 0.  0.
        254    2    1    2    0    0  0.13676368976E+04 -0.85198767023E+03  0.16274775407E+04  0.24616881245E+04  0.90272454439E+03 0.  0.
         23    2    4    4    0    0  0.14629897685E+04 -0.77143571107E+03  0.13197888910E+04  0.21179055762E+04  0.90714906245E+02 0.  0.
         23    2    4    4    0    0 -0.95352870869E+02 -0.80551959166E+02  0.30768864972E+03  0.34378254828E+03  0.89069339414E+02 0.  0.
          3    1    3    3  502    0 -0.94520728357E+03  0.62487269868E+03 -0.24947924809E+03  0.11602252340E+04  0.00000000000E+00 0. -1.
         -3    1    3    3    0  502 -0.42242961401E+03  0.22711497155E+03 -0.61470114122E+02  0.48353548373E+03  0.00000000000E+00 0.  1.
         11    1    5    5    0    0  0.13023848654E+04 -0.66314331837E+03  0.11385763190E+04  0.18526525396E+04  0.00000000000E+00 0.  1.
        -11    1    5    5    0    0  0.16060490307E+03 -0.10829239270E+03  0.18121257201E+03  0.26525303667E+03  0.00000000000E+00 0. -1.
          1    1    6    6  503    0 -0.32675847802E+02  0.15728585797E+02  0.51216669433E+02  0.62755451305E+02  0.00000000000E+00 0. -1.
         -1    1    6    6    0  503 -0.62677023067E+02 -0.96280544963E+02  0.25647198029E+03  0.28102709697E+03  0.00000000000E+00 0.  1.
<mgrwt>
<rscale>  0 0.38886326E+04</rscale>
<asrwt>0</asrwt>
<pdfrwt beam="1">  1        2 0.21453236E+00 0.38886326E+04</pdfrwt>
<pdfrwt beam="2">  1       -2 0.41707516E+00 0.38886326E+04</pdfrwt>
<totfact> 0.66475108E-02</totfact>
</mgrwt>
</event>
<event>
12    2  0.3623523E-008  0.1586547E+04  0.7818608E-02  0.8828855E-01
         -4   -1    0    0    0  501 -0.00000000000E+00  0.00000000000E+00  0.10325131920E+04  0.10325131920E+04  0.00000000000E+00 0.  1.
          4   -1    0    0  501    0  0.00000000000E+00 -0.00000000000E+00 -0.60946729204E+03  0.60946729204E+03  0.00000000000E+00 0. -1.
         23    2    1    2    0    0 -0.16008580371E+03 -0.44019524850E+03  0.40933339505E+03  0.63042086398E+03  0.10235876166E+03 0.  0.
        254    2    1    2    0    0  0.16008580371E+03  0.44019524850E+03  0.13712504879E+02  0.10115596200E+04  0.89647393198E+03 0.  0.
         23    2    4    4    0    0  0.19431111813E+03  0.67155960872E+03 -0.13752068469E+03  0.71844772861E+03  0.92228419366E+02 0.  0.
         23    2    4    4    0    0 -0.34225314416E+02 -0.23136436022E+03  0.15123318957E+03  0.29311189141E+03  0.91335994730E+02 0.  0.
          4    1    3    3  502    0  0.98893435028E+01 -0.64438510214E+02  0.37950761701E+02  0.75434614251E+02  0.00000000000E+00 0. -1.
         -4    1    3    3    0  502 -0.16997514722E+03 -0.37575673829E+03  0.37138263334E+03  0.55498624973E+03  0.00000000000E+00 0.  1.
         11    1    5    5    0    0  0.63380218144E+02  0.36154262630E+03 -0.47751228255E+02  0.37014902739E+03  0.00000000000E+00 0. -1.
        -11    1    5    5    0    0  0.13093089999E+03  0.31001698243E+03 -0.89769456431E+02  0.34829870122E+03  0.00000000000E+00 0.  1.
          4    1    6    6  503    0 -0.73254781983E+01 -0.89842807682E+02  0.88641683889E+01  0.90575748433E+02  0.00000000000E+00 0. -1.
         -4    1    6    6    0  503 -0.26899836218E+02 -0.14152155254E+03  0.14236902118E+03  0.20253614298E+03  0.00000000000E+00 0.  1.
<mgrwt>
<rscale>  0 0.15865472E+04</rscale>
<asrwt>0</asrwt>
<pdfrwt beam="1">  1        4 0.93764199E-01 0.15865472E+04</pdfrwt>
<pdfrwt beam="2">  1       -4 0.15884818E+00 0.15865472E+04</pdfrwt>
<totfact> 0.47112986E-01</totfact>
</mgrwt>
</event>
<event>
12    2  0.3623523E-008  0.1113453E+04  0.7818608E-02  0.9192178E-01
          1   -1    0    0  501    0  0.00000000000E+00  0.00000000000E+00  0.17859793184E+04  0.17859793184E+04  0.00000000000E+00 0. -1.
         -1   -1    0    0    0  501 -0.00000000000E+00 -0.00000000000E+00 -0.17354300735E+03  0.17354300735E+03  0.00000000000E+00 0.  1.
         23    2    1    2    0    0  0.10547714600E+03  0.82215962908E+02  0.48661619184E+03  0.51263261802E+03  0.90066586554E+02 0.  0.
        254    2    1    2    0    0 -0.10547714600E+03 -0.82215962908E+02  0.11258201192E+04  0.14468897078E+04  0.89896273152E+03 0.  0.
         23    2    4    4    0    0 -0.35871504302E+03  0.15996208653E+03  0.97352013233E+03  0.10545148612E+04  0.99978963774E+02 0.  0.
         23    2    4    4    0    0  0.25323789702E+03 -0.24217804944E+03  0.15229998691E+03  0.39237484658E+03  0.89348162242E+02 0.  0.
          1    1    3    3  502    0  0.89741073212E+02  0.58654821369E+02  0.46443910547E+03  0.47665242156E+03  0.00000000000E+00 0. -1.
         -1    1    3    3    0  502  0.15736072784E+02  0.23561141539E+02  0.22177086367E+02  0.35980196456E+02  0.00000000000E+00 0.  1.
         11    1    5    5    0    0 -0.20291604577E+03  0.10418829136E+03  0.43549048414E+03  0.49161172023E+03  0.00000000000E+00 0.  1.
        -11    1    5    5    0    0 -0.15579899724E+03  0.55773795176E+02  0.53802964819E+03  0.56290314096E+03  0.00000000000E+00 0. -1.
          3    1    6    6  503    0  0.30450489026E+02 -0.39029016149E+02  0.58466651941E+02  0.76608392313E+02  0.00000000000E+00 0. -1.
         -3    1    6    6    0  503  0.22278740799E+03 -0.20314903329E+03  0.93833334970E+02  0.31576645427E+03  0.00000000000E+00 0.  1.
<mgrwt>
<rscale>  0 0.11134527E+04</rscale>
<asrwt>0</asrwt>
<pdfrwt beam="1">  1        1 0.27476604E+00 0.11134527E+04</pdfrwt>
<pdfrwt beam="2">  1       -1 0.26698925E-01 0.11134527E+04</pdfrwt>
<totfact> 0.51908343E+01</totfact>
</mgrwt>
</event>
<event>
12    2  0.3623523E-008  0.1953149E+04  0.7818608E-02  0.8628844E-01
          1   -1    0    0  501    0  0.00000000000E+00  0.00000000000E+00  0.59506282212E+03  0.59506282212E+03  0.00000000000E+00 0. -1.
         -1   -1    0    0    0  501 -0.00000000000E+00 -0.00000000000E+00 -0.16026835071E+04  0.16026835071E+04  0.00000000000E+00 0.  1.
         23    2    1    2    0    0  0.56257084214E+03  0.40769248691E+03 -0.76704934021E+03  0.10388731050E+04  0.90518073344E+02 0.  0.
        254    2    1    2    0    0 -0.56257084214E+03 -0.40769248691E+03 -0.24057134478E+03  0.11588732243E+04  0.89577534107E+03 0.  0.
         23    2    4    4    0    0 -0.56891769637E+03 -0.26152658590E+03 -0.52649700723E+03  0.82358600571E+03  0.95033203714E+02 0.  0.
         23    2    4    4    0    0  0.63468542268E+01 -0.14616590101E+03  0.28592566245E+03  0.33528721855E+03  0.96225159375E+02 0.  0.
          3    1    3    3  502    0  0.20580313504E+02  0.48098173036E+01 -0.72866054497E+01  0.22355721088E+02  0.00000000000E+00 0. -1.
         -3    1    3    3    0  502  0.54199052864E+03  0.40288266961E+03 -0.75976273476E+03  0.10165173839E+04  0.00000000000E+00 0.  1.
         11    1    5    5    0    0 -0.21273883114E+03 -0.72922505867E+02 -0.24131824560E+03  0.32986360484E+03  0.00000000000E+00 0. -1.
        -11    1    5    5    0    0 -0.35617886523E+03 -0.18860408003E+03 -0.28517876163E+03  0.49372240088E+03  0.00000000000E+00 0.  1.
          2    1    6    6  503    0 -0.43442512483E+02 -0.63571755268E+02  0.15021926374E+03  0.16880298326E+03  0.00000000000E+00 0. -1.
         -2    1    6    6    0  503  0.49789366710E+02 -0.82594145745E+02  0.13570639871E+03  0.16648423529E+03  0.00000000000E+00 0.  1.
<mgrwt>
<rscale>  0 0.19531486E+04</rscale>
<asrwt>0</asrwt>
<pdfrwt beam="1">  1        1 0.91548127E-01 0.19531486E+04</pdfrwt>
<pdfrwt beam="2">  1       -1 0.24656669E+00 0.19531486E+04</pdfrwt>
<totfact> 0.23701198E+00</totfact>
</mgrwt>
</event>
<event>
12    2  0.3623523E-008  0.1788400E+04  0.7818608E-02  0.8712493E-01
          1   -1    0    0  501    0  0.00000000000E+00  0.00000000000E+00  0.29496171616E+04  0.29496171616E+04  0.00000000000E+00 0. -1.
         -1   -1    0    0    0  501 -0.00000000000E+00 -0.00000000000E+00 -0.27108375575E+03  0.27108375575E+03  0.00000000000E+00 0.  1.
         23    2    1    2    0    0 -0.59458851135E+02 -0.49027318001E+03  0.17887954900E+04  0.18584853850E+04  0.10136801967E+03 0.  0.
        254    2    1    2    0    0  0.59458851135E+02  0.49027318001E+03  0.88973791590E+03  0.13622155323E+04  0.90559066444E+03 0.  0.
         23    2    4    4    0    0 -0.29879245935E+03 -0.10469574052E+03  0.31717336460E+03  0.45728684421E+03  0.90962535280E+02 0.  0.
         23    2    4    4    0    0  0.35825131049E+03  0.59496892054E+03  0.57256455130E+03  0.90492868812E+03  0.93454520010E+02 0.  0.
          2    1    3    3  502    0 -0.71545207714E+02 -0.29709312707E+03  0.12186617058E+04  0.12563914183E+04  0.00000000000E+00 0. -1.
         -2    1    3    3    0  502  0.12086356580E+02 -0.19318005294E+03  0.57013378418E+03  0.60209396670E+03  0.00000000000E+00 0.  1.
         11    1    5    5    0    0 -0.24763684765E+03 -0.96756868339E+02  0.21192940581E+03  0.33999996020E+03  0.00000000000E+00 0. -1.
        -11    1    5    5    0    0 -0.51155611704E+02 -0.79388721851E+01  0.10524395879E+03  0.11728688402E+03  0.00000000000E+00 0.  1.
          2    1    6    6  503    0  0.36184761262E+03  0.57469196778E+03  0.54645510220E+03  0.87167524417E+03  0.00000000000E+00 0. -1.
         -2    1    6    6    0  503 -0.35963021277E+01  0.20276952761E+02  0.26109449099E+02  0.33253443950E+02  0.00000000000E+00 0.  1.
<mgrwt>
<rscale>  0 0.17883996E+04</rscale>
<asrwt>0</asrwt>
<pdfrwt beam="1">  1        1 0.45378723E+00 0.17883996E+04</pdfrwt>
<pdfrwt beam="2">  1       -1 0.41705195E-01 0.17883996E+04</pdfrwt>
<totfact> 0.34756616E+00</totfact>
</mgrwt>
</event>
<event>
12    2  0.3623523E-008  0.2249808E+04  0.7818608E-02  0.8497978E-01
         -1   -1    0    0    0  501 -0.00000000000E+00  0.00000000000E+00  0.82461650179E+03  0.82461650179E+03  0.00000000000E+00 0.  1.
          1   -1    0    0  501    0  0.00000000000E+00 -0.00000000000E+00 -0.15345424962E+04  0.15345424962E+04  0.00000000000E+00 0. -1.
         23    2    1    2    0    0 -0.77127532539E+03  0.36397781710E+03 -0.71465878539E+03  0.11164258430E+04  0.91235982328E+02 0.  0.
        254    2    1    2    0    0  0.77127532539E+03 -0.36397781710E+03  0.47327910059E+01  0.12427331550E+04  0.90389037846E+03 0.  0.
         23    2    4    4    0    0  0.50525117869E+03 -0.63701520290E+03 -0.12968471357E+03  0.82830635895E+03  0.90587951966E+02 0.  0.
         23    2    4    4    0    0  0.26602414670E+03  0.27303738581E+03  0.13441750457E+03  0.41442679603E+03  0.91450768484E+02 0.  0.
          3    1    3    3  502    0 -0.41951012439E+03  0.15816286022E+03 -0.33793059939E+03  0.56142793378E+03  0.00000000000E+00 0. -1.
         -3    1    3    3    0  502 -0.35176520100E+03  0.20581495687E+03 -0.37672818600E+03  0.55499790921E+03  0.00000000000E+00 0.  1.
         11    1    5    5    0    0  0.28623279807E+03 -0.38099117653E+03 -0.11922336042E+03  0.49122062350E+03  0.00000000000E+00 0.  1.
        -11    1    5    5    0    0  0.21901838062E+03 -0.25602402638E+03 -0.10461353145E+02  0.33708573545E+03  0.00000000000E+00 0. -1.
          1    1    6    6  503    0  0.27753519491E+02 -0.22432678658E+01  0.71619276469E+01  0.28750361780E+02  0.00000000000E+00 0. -1.
         -1    1    6    6    0  503  0.23827062721E+03  0.27528065367E+03  0.12725557693E+03  0.38567643425E+03  0.00000000000E+00 0.  1.
<mgrwt>
<rscale>  0 0.22498080E+04</rscale>
<asrwt>0</asrwt>
<pdfrwt beam="1">  1        1 0.23608346E+00 0.22498080E+04</pdfrwt>
<pdfrwt beam="2">  1       -1 0.12686408E+00 0.22498080E+04</pdfrwt>
<totfact> 0.30309859E+00</totfact>
</mgrwt>
</event>
<event>
12    2  0.3623523E-008  0.1220610E+04  0.7818608E-02  0.9095006E-01
          2   -1    0    0  501    0  0.00000000000E+00  0.00000000000E+00  0.10731381566E+04  0.10731381566E+04  0.00000000000E+00 0. -1.
         -2   -1    0    0    0  501 -0.00000000000E+00 -0.00000000000E+00 -0.34708674326E+03  0.34708674326E+03  0.00000000000E+00 0.  1.
         23    2    1    2    0    0  0.26989479274E+03 -0.30157039568E+02  0.16712874955E+03  0.33000837779E+03  0.84975668893E+02 0.  0.
        254    2    1    2    0    0 -0.26989479274E+03  0.30157039568E+02  0.55892266383E+03  0.10902165221E+04  0.89578171156E+03 0.  0.
         23    2    4    4    0    0 -0.43294828896E+01  0.19138079903E+03  0.70374908907E+03  0.73560501046E+03  0.95951010374E+02 0.  0.
         23    2    4    4    0    0 -0.26556530985E+03 -0.16122375946E+03 -0.14482642524E+03  0.35461151165E+03  0.90865815018E+02 0.  0.
          4    1    3    3  502    0  0.95035208863E+02 -0.26435710239E+02  0.10584092720E+03  0.14468185639E+03  0.00000000000E+00 0. -1.
         -4    1    3    3    0  502  0.17485958387E+03 -0.37213293283E+01  0.61287822351E+02  0.18532652140E+03  0.00000000000E+00 0.  1.
         11    1    5    5    0    0  0.45701969051E+02  0.86141178633E+02  0.31003533853E+03  0.32500905182E+03  0.00000000000E+00 0.  1.
        -11    1    5    5    0    0 -0.50031451941E+02  0.10523962040E+03  0.39371375054E+03  0.41059595864E+03  0.00000000000E+00 0. -1.
          3    1    6    6  503    0 -0.11050057695E+03 -0.44993882170E+02 -0.12521918906E+02  0.11996510073E+03  0.00000000000E+00 0.  1.
         -3    1    6    6    0  503 -0.15506473289E+03 -0.11622987729E+03 -0.13230450633E+03  0.23464641092E+03  0.00000000000E+00 0. -1.
<mgrwt>
<rscale>  0 0.12206097E+04</rscale>
<asrwt>0</asrwt>
<pdfrwt beam="1">  1        2 0.16509818E+00 0.12206097E+04</pdfrwt>
<pdfrwt beam="2">  1       -2 0.53397961E-01 0.12206097E+04</pdfrwt>
<totfact> 0.73740102E+01</totfact>
</mgrwt>
</event>
<event>
12    2  0.3623523E-008  0.1307340E+04  0.7818608E-02  0.9023765E-01
          2   -1    0    0  501    0  0.00000000000E+00  0.00000000000E+00  0.74897602828E+03  0.74897602828E+03  0.00000000000E+00 0.  1.
         -2   -1    0    0    0  501 -0.00000000000E+00 -0.00000000000E+00 -0.57049148189E+03  0.57049148189E+03  0.00000000000E+00 0. -1.
         23    2    1    2    0    0 -0.29206151745E+03  0.50692486016E+02 -0.96605332860E+02  0.32502261359E+03  0.91855598055E+02 0.  0.
        254    2    1    2    0    0  0.29206151745E+03 -0.50692486016E+02  0.27508987925E+03  0.99444489658E+03  0.90850236794E+03 0.  0.
         23    2    4    4    0    0 -0.30483763492E+03  0.57426669054E+02  0.43056276978E+01  0.32420630848E+03  0.94166799075E+02 0.  0.
         23    2    4    4    0    0  0.59689915237E+03 -0.10811915507E+03  0.27078425156E+03  0.67023858810E+03  0.88979235201E+02 0.  0.
          2    1    3    3  502    0 -0.21058065724E+03  0.45249909413E+02 -0.11067268041E+03  0.24215740686E+03  0.00000000000E+00 0. -1.
         -2    1    3    3    0  502 -0.81480860208E+02  0.54425766024E+01  0.14067347545E+02  0.82865206735E+02  0.00000000000E+00 0.  1.
         11    1    5    5    0    0 -0.27564117776E+02 -0.21481678075E+02  0.82061363859E+01  0.35896848832E+02  0.00000000000E+00 0. -1.
        -11    1    5    5    0    0 -0.27727351714E+03  0.78908347129E+02 -0.39005086882E+01  0.28830945965E+03  0.00000000000E+00 0.  1.
          4    1    6    6  503    0  0.46432805331E+03 -0.91707713412E+02  0.17000570522E+03  0.50290435035E+03  0.00000000000E+00 0.  1.
         -4    1    6    6    0  503  0.13257109905E+03 -0.16411441658E+02  0.10077854634E+03  0.16733423775E+03  0.00000000000E+00 0. -1.
<mgrwt>
<rscale>  0 0.13073400E+04</rscale>
<asrwt>0</asrwt>
<pdfrwt beam="1">  1        2 0.11522708E+00 0.13073400E+04</pdfrwt>
<pdfrwt beam="2">  1       -2 0.87767921E-01 0.13073400E+04</pdfrwt>
<totfact> 0.41226031E+01</totfact>
</mgrwt>
</event>
<event>
12    2  0.3623523E-008  0.1365176E+04  0.7818608E-02  0.8979419E-01
          1   -1    0    0  501    0  0.00000000000E+00  0.00000000000E+00  0.99127249016E+03  0.99127249016E+03  0.00000000000E+00 0. -1.
         -1   -1    0    0    0  501 -0.00000000000E+00 -0.00000000000E+00 -0.47002858110E+03  0.47002858110E+03  0.00000000000E+00 0.  1.
         23    2    1    2    0    0 -0.32153132012E+03  0.30665131876E+02  0.36697435245E+03  0.49684867422E+03  0.88688723010E+02 0.  0.
        254    2    1    2    0    0  0.32153132012E+03 -0.30665131876E+02  0.15426955661E+03  0.96445239704E+03  0.89557053878E+03 0.  0.
         23    2    4    4    0    0  0.38306985969E+03  0.36707788294E+03  0.64114779810E+02  0.54192550744E+03  0.89910294615E+02 0.  0.
         23    2    4    4    0    0 -0.61538539568E+02 -0.39774301482E+03  0.90154776799E+02  0.42252688960E+03  0.91731079594E+02 0.  0.
          2    1    3    3  502    0 -0.80730597925E+02  0.73936411479E+01  0.40818712986E+02  0.90764875919E+02  0.00000000000E+00 0.  1.
         -2    1    3    3    0  502 -0.24080072220E+03  0.23271490728E+02  0.32615563946E+03  0.40608379830E+03  0.00000000000E+00 0. -1.
         11    1    5    5    0    0  0.33041357835E+03  0.33793007399E+03  0.80783453198E+02  0.47947453945E+03  0.00000000000E+00 0. -1.
        -11    1    5    5    0    0  0.52656281340E+02  0.29147808952E+02 -0.16668673388E+02  0.62450967997E+02  0.00000000000E+00 0.  1.
          4    1    6    6  503    0 -0.11906648313E+02 -0.13164903030E+01  0.86519653396E+01  0.14776938959E+02  0.00000000000E+00 0.  1.
         -4    1    6    6    0  503 -0.49631891255E+02 -0.39642652451E+03  0.81502811460E+02  0.40774995064E+03  0.00000000000E+00 0. -1.
<mgrwt>
<rscale>  0 0.13651760E+04</rscale>
<asrwt>0</asrwt>
<pdfrwt beam="1">  1        1 0.15250346E+00 0.13651760E+04</pdfrwt>
<pdfrwt beam="2">  1       -1 0.72312090E-01 0.13651760E+04</pdfrwt>
<totfact> 0.28999472E+01</totfact>
</mgrwt>
</event>
<event>
12    2  0.3623523E-008  0.1237652E+04  0.7818608E-02  0.9080523E-01
          1   -1    0    0  501    0  0.00000000000E+00  0.00000000000E+00  0.13848949968E+04  0.13848949968E+04  0.00000000000E+00 0. -1.
         -1   -1    0    0    0  501 -0.00000000000E+00 -0.00000000000E+00 -0.27651620755E+03  0.27651620755E+03  0.00000000000E+00 0.  1.
         23    2    1    2    0    0 -0.10527931589E+03 -0.13554056989E+03 -0.23866391945E+02  0.19583140663E+03  0.91243381763E+02 0.  0.
        254    2    1    2    0    0  0.10527931589E+03  0.13554056989E+03  0.11322451812E+04  0.14655797977E+04  0.91459827942E+03 0.  0.
         23    2    4    4    0    0  0.46320945868E+03 -0.91037124779E+02  0.45912128706E+03  0.66505903850E+03  0.93061311831E+02 0.  0.
         23    2    4    4    0    0 -0.35793014278E+03  0.22657769467E+03  0.67312389413E+03  0.80052075922E+03  0.91028952861E+02 0.  0.
          1    1    3    3  502    0  0.23431042154E+01  0.11179605522E+02  0.32172748056E+01  0.11866953028E+02  0.00000000000E+00 0. -1.
         -1    1    3    3    0  502 -0.10762242011E+03 -0.14672017541E+03 -0.27083666751E+02  0.18396445360E+03  0.00000000000E+00 0.  1.
         11    1    5    5    0    0  0.44678399016E+03 -0.93210241256E+02  0.46059806976E+03  0.64842475648E+03  0.00000000000E+00 0. -1.
        -11    1    5    5    0    0  0.16425468515E+02  0.21731164771E+01 -0.14767827066E+01  0.16634282020E+02  0.00000000000E+00 0.  1.
          2    1    6    6  503    0 -0.28569678943E+03  0.13544450153E+03  0.46966877540E+03  0.56617720465E+03  0.00000000000E+00 0. -1.
         -2    1    6    6    0  503 -0.72233353351E+02  0.91133193140E+02  0.20345511873E+03  0.23434355456E+03  0.00000000000E+00 0.  1.
<mgrwt>
<rscale>  0 0.12376525E+04</rscale>
<asrwt>0</asrwt>
<pdfrwt beam="1">  1        1 0.21306077E+00 0.12376525E+04</pdfrwt>
<pdfrwt beam="2">  1       -1 0.42540955E-01 0.12376525E+04</pdfrwt>
<totfact> 0.42242594E+01</totfact>
</mgrwt>
</event>
<event>
12    2  0.3623523E-008  0.3462624E+04  0.7818608E-02  0.8122705E-01
         -1   -1    0    0    0  501 -0.00000000000E+00  0.00000000000E+00  0.12710202488E+04  0.12710202488E+04  0.00000000000E+00 0.  1.
          1   -1    0    0  501    0  0.00000000000E+00 -0.00000000000E+00 -0.23582947801E+04  0.23582947801E+04  0.00000000000E+00 0. -1.
         23    2    1    2    0    0 -0.64263683548E+03  0.86541078971E+03  0.74809877627E+03  0.13152779959E+04  0.91577781968E+02 0.  0.
        254    2    1    2    0    0  0.64263683548E+03 -0.86541078971E+03 -0.18353733076E+04  0.23140370331E+04  0.90788450528E+03 0.  0.
         23    2    4    4    0    0 -0.46736549908E+02 -0.31868520989E+03 -0.73474178201E+02  0.34261740906E+03  0.90794636559E+02 0.  0.
         23    2    4    4    0    0  0.68937338539E+03 -0.54672557982E+03 -0.17618991294E+04  0.19714196240E+04  0.89790131234E+02 0.  0.
          1    1    3    3  502    0 -0.47835622441E+02  0.59570244041E+02  0.26652302971E+02  0.80914807070E+02  0.00000000000E+00 0. -1.
         -1    1    3    3    0  502 -0.59480121304E+03  0.80584054567E+03  0.72144647330E+03  0.12343631888E+04  0.00000000000E+00 0.  1.
         11    1    5    5    0    0  0.15592841178E+02 -0.27595287929E+02  0.10366229649E+02  0.33348093334E+02  0.00000000000E+00 0.  1.
        -11    1    5    5    0    0 -0.62329391086E+02 -0.29108992196E+03 -0.83840407850E+02  0.30926931573E+03  0.00000000000E+00 0. -1.
          2    1    6    6  503    0  0.47017160296E+03 -0.39419119913E+03 -0.13088008240E+04  0.14454783411E+04  0.00000000000E+00 0. -1.
         -2    1    6    6    0  503  0.21920178243E+03 -0.15253438069E+03 -0.45309830535E+03  0.52594128287E+03  0.00000000000E+00 0.  1.
<mgrwt>
<rscale>  0 0.34626235E+04</rscale>
<asrwt>0</asrwt>
<pdfrwt beam="1">  1        1 0.36281458E+00 0.34626235E+04</pdfrwt>
<pdfrwt beam="2">  1       -1 0.19554158E+00 0.34626235E+04</pdfrwt>
<totfact> 0.22446903E-01</totfact>
</mgrwt>
</event>
<event>
12    2  0.3623523E-008  0.1982535E+04  0.7818608E-02  0.8614830E-01
         -2   -1    0    0    0  501 -0.00000000000E+00  0.00000000000E+00  0.29226969943E+03  0.29226969943E+03  0.00000000000E+00 0.  1.
          2   -1    0    0  501    0  0.00000000000E+00 -0.00000000000E+00 -0.33620028038E+04  0.33620028038E+04  0.00000000000E+00 0. -1.
         23    2    1    2    0    0  0.66581129647E+03  0.29038170544E+03 -0.17684164518E+04  0.19138728977E+04  0.89367243532E+02 0.  0.
        254    2    1    2    0    0 -0.66581129647E+03 -0.29038170544E+03 -0.13013166525E+04  0.17403996055E+04  0.89885457070E+03 0.  0.
         23    2    4    4    0    0  0.18051790057E+03  0.67516912954E+02 -0.38408624833E+03  0.43902245252E+03  0.89851108521E+02 0.  0.
         23    2    4    4    0    0 -0.84632919704E+03 -0.35789861839E+03 -0.91723040419E+03  0.13013771530E+04  0.88917653251E+02 0.  0.
          2    1    3    3  502    0  0.43038556830E+03  0.21192574585E+03 -0.10680820718E+04  0.11708729953E+04  0.00000000000E+00 0. -1.
         -2    1    3    3    0  502  0.23542572817E+03  0.78455959587E+02 -0.70033438006E+03  0.74299990240E+03  0.00000000000E+00 0.  1.
         11    1    5    5    0    0  0.11666716140E+03  0.35016121338E+01 -0.26445558422E+03  0.28906788798E+03  0.00000000000E+00 0. -1.
        -11    1    5    5    0    0  0.63850739167E+02  0.64015300820E+02 -0.11963066411E+03  0.14995456454E+03  0.00000000000E+00 0.  1.
          2    1    6    6  503    0 -0.11240656251E+02 -0.16174894701E+02 -0.30393449405E+02  0.36217969825E+02  0.00000000000E+00 0.  1.
         -2    1    6    6    0  503 -0.83508854079E+03 -0.34172372369E+03 -0.88683695478E+03  0.12651591831E+04  0.00000000000E+00 0. -1.
<mgrwt>
<rscale>  0 0.19825353E+04</rscale>
<asrwt>0</asrwt>
<pdfrwt beam="1">  1        2 0.51723118E+00 0.19825353E+04</pdfrwt>
<pdfrwt beam="2">  1       -2 0.44964571E-01 0.19825353E+04</pdfrwt>
<totfact> 0.44369495E+00</totfact>
</mgrwt>
</event>
<event>
12    2  0.3623523E-008  0.1221642E+04  0.7818608E-02  0.9094121E-01
         -2   -1    0    0    0  501 -0.00000000000E+00  0.00000000000E+00  0.32787291290E+03  0.32787291290E+03  0.00000000000E+00 0.  1.
          2   -1    0    0  501    0  0.00000000000E+00 -0.00000000000E+00 -0.11379483554E+04  0.11379483554E+04  0.00000000000E+00 0. -1.
         23    2    1    2    0    0  0.95175727661E+02  0.54316967505E+02 -0.48196572695E+03  0.50235335935E+03  0.89772955854E+02 0.  0.
        254    2    1    2    0    0 -0.95175727661E+02 -0.54316967505E+02 -0.32810971551E+03  0.96346790892E+03  0.89922504081E+03 0.  0.
         23    2    4    4    0    0  0.35723321325E+03  0.15443639175E+03 -0.15699765267E+03  0.42985204415E+03  0.93050250791E+02 0.  0.
         23    2    4    4    0    0 -0.45240894091E+03 -0.20875335926E+03 -0.17111206285E+03  0.53361586477E+03  0.84939615434E+02 0.  0.
          1    1    3    3  502    0  0.94432743909E+02  0.50597849880E+02 -0.48549352872E+03  0.49717366379E+03  0.00000000000E+00 0. -1.
         -1    1    3    3    0  502  0.74298375202E+00  0.37191176247E+01  0.35278017729E+01  0.51796955616E+01  0.00000000000E+00 0.  1.
         11    1    5    5    0    0 -0.56080107075E+01  0.15598069426E+01  0.37778524227E+00  0.58331383905E+01  0.00000000000E+00 0. -1.
        -11    1    5    5    0    0  0.36284122396E+03  0.15287658481E+03 -0.15737543791E+03  0.42401890576E+03  0.00000000000E+00 0.  1.
          1    1    6    6  503    0 -0.13055575863E+02  0.27685538403E+00 -0.20477911577E+02  0.24287230648E+02  0.00000000000E+00 0. -1.
         -1    1    6    6    0  503 -0.43935336505E+03 -0.20903021464E+03 -0.15063415127E+03  0.50932863412E+03  0.00000000000E+00 0.  1.
<mgrwt>
<rscale>  0 0.12216422E+04</rscale>
<asrwt>0</asrwt>
<pdfrwt beam="1">  1        2 0.17506898E+00 0.12216422E+04</pdfrwt>
<pdfrwt beam="2">  1       -2 0.50441987E-01 0.12216422E+04</pdfrwt>
<totfact> 0.75602901E+01</totfact>
</mgrwt>
</event>
<event>
12    2  0.3623523E-008  0.2100884E+04  0.7818608E-02  0.8560854E-01
          2   -1    0    0  501    0  0.00000000000E+00  0.00000000000E+00  0.18125703027E+04  0.18125703027E+04  0.00000000000E+00 0.  1.
         -2   -1    0    0    0  501 -0.00000000000E+00 -0.00000000000E+00 -0.60876441233E+03  0.60876441233E+03  0.00000000000E+00 0. -1.
         23    2    1    2    0    0  0.37565885032E+03  0.67233621141E+03  0.64911939015E+02  0.77831520472E+03  0.91681214345E+02 0.  0.
        254    2    1    2    0    0 -0.37565885032E+03 -0.67233621141E+03  0.11388939513E+04  0.16430195103E+04  0.89959886941E+03 0.  0.
         23    2    4    4    0    0  0.92348615373E+02 -0.64501540494E+03  0.88303032732E+03  0.11012062621E+04  0.91321044881E+02 0.  0.
         23    2    4    4    0    0 -0.46800746570E+03 -0.27320806470E+02  0.25586362401E+03  0.54181324825E+03  0.91203001455E+02 0.  0.
          3    1    3    3  502    0  0.18529431545E+03  0.37388575973E+03  0.76006403999E+02  0.42414799082E+03  0.00000000000E+00 0. -1.
         -3    1    3    3    0  502  0.19036453487E+03  0.29845045169E+03 -0.11094464984E+02  0.35416721390E+03  0.00000000000E+00 0.  1.
         11    1    5    5    0    0  0.61092051765E+02 -0.31976229580E+03  0.51280059789E+03  0.60740811470E+03  0.00000000000E+00 0. -1.
        -11    1    5    5    0    0  0.31256563607E+02 -0.32525310914E+03  0.37022972943E+03  0.49379814735E+03  0.00000000000E+00 0.  1.
          1    1    6    6  503    0 -0.10575706277E+03 -0.17909913045E+02  0.19101416538E+02  0.10895038056E+03  0.00000000000E+00 0. -1.
         -1    1    6    6    0  503 -0.36225040293E+03 -0.94108934252E+01  0.23676220748E+03  0.43286286769E+03  0.00000000000E+00 0.  1.
<mgrwt>
<rscale>  0 0.21008839E+04</rscale>
<asrwt>0</asrwt>
<pdfrwt beam="1">  1        2 0.27885697E+00 0.21008839E+04</pdfrwt>
<pdfrwt beam="2">  1       -2 0.93656064E-01 0.21008839E+04</pdfrwt>
<totfact> 0.75390691E+00</totfact>
</mgrwt>
</event>
<event>
12    2  0.3623523E-008  0.1766483E+04  0.7818608E-02  0.8724329E-01
          1   -1    0    0  501    0  0.00000000000E+00  0.00000000000E+00  0.19372329481E+04  0.19372329481E+04  0.00000000000E+00 0. -1.
         -1   -1    0    0    0  501 -0.00000000000E+00 -0.00000000000E+00 -0.40269563835E+03  0.40269563835E+03  0.00000000000E+00 0.  1.
         23    2    1    2    0    0 -0.55238828878E+03  0.34179367727E+03  0.52675195775E+03  0.84206355035E+03  0.98222494559E+02 0.  0.
        254    2    1    2    0    0  0.55238828878E+03 -0.34179367727E+03  0.10077853520E+04  0.14978650361E+04  0.89778205112E+03 0.  0.
         23    2    4    4    0    0  0.14945447065E+03  0.13752663480E+03  0.80135236020E+03  0.83190637311E+03  0.93018247453E+02 0.  0.
         23    2    4    4    0    0  0.40293381814E+03 -0.47932031207E+03  0.20643299184E+03  0.66595866303E+03  0.93716259976E+02 0.  0.
          3    1    3    3  502    0 -0.12082402967E+03  0.92077922629E+02  0.75756928363E+02  0.16975247325E+03  0.00000000000E+00 0.  1.
         -3    1    3    3    0  502 -0.43156425912E+03  0.24971575464E+03  0.45099502939E+03  0.67231107710E+03  0.00000000000E+00 0. -1.
         11    1    5    5    0    0  0.48919008846E+02  0.54858010960E+01  0.29422538554E+03  0.29831483526E+03  0.00000000000E+00 0.  1.
        -11    1    5    5    0    0  0.10053546180E+03  0.13204083371E+03  0.50712697466E+03  0.53359153786E+03  0.00000000000E+00 0. -1.
          2    1    6    6  503    0  0.20867120147E+03 -0.18673050191E+03  0.65853016603E+02  0.28766051252E+03  0.00000000000E+00 0. -1.
         -2    1    6    6    0  503  0.19426261667E+03 -0.29258981016E+03  0.14057997524E+03  0.37829815051E+03  0.00000000000E+00 0.  1.
<mgrwt>
<rscale>  0 0.17664827E+04</rscale>
<asrwt>0</asrwt>
<pdfrwt beam="1">  1        1 0.29803583E+00 0.17664827E+04</pdfrwt>
<pdfrwt beam="2">  1       -1 0.61953176E-01 0.17664827E+04</pdfrwt>
<totfact> 0.82208834E+00</totfact>
</mgrwt>
</event>
<event>
12    2  0.3623523E-008  0.1784115E+04  0.7818608E-02  0.8714793E-01
          1   -1    0    0  501    0  0.00000000000E+00  0.00000000000E+00  0.12116036400E+04  0.12116036400E+04  0.00000000000E+00 0. -1.
         -1   -1    0    0    0  501 -0.00000000000E+00 -0.00000000000E+00 -0.65678774763E+03  0.65678774763E+03  0.00000000000E+00 0.  1.
         23    2    1    2    0    0  0.26489116657E+03 -0.56997019388E+03 -0.57555861710E+02  0.63771379091E+03  0.91284444832E+02 0.  0.
        254    2    1    2    0    0 -0.26489116657E+03  0.56997019388E+03  0.61237175404E+03  0.12306775967E+04  0.86286431714E+03 0.  0.
         23    2    4    4    0    0  0.85176516231E+02 -0.13833489570E+03  0.34647483964E+03  0.39214575408E+03  0.85684862477E+02 0.  0.
         23    2    4    4    0    0 -0.35006768280E+03  0.70830508958E+03  0.26589691440E+03  0.83853184260E+03  0.90504140770E+02 0.  0.
          1    1    3    3  502    0  0.52324289672E+02 -0.10593508091E+03  0.24744656734E+02  0.12071607471E+03  0.00000000000E+00 0. -1.
         -1    1    3    3    0  502  0.21256687689E+03 -0.46403511297E+03 -0.82300518444E+02  0.51699771620E+03  0.00000000000E+00 0.  1.
         11    1    5    5    0    0  0.67935695412E+02 -0.31532093354E+02  0.15731075073E+03  0.17423031860E+03  0.00000000000E+00 0. -1.
        -11    1    5    5    0    0  0.17240820819E+02 -0.10680280235E+03  0.18916408891E+03  0.21791543549E+03  0.00000000000E+00 0.  1.
          1    1    6    6  503    0 -0.15074013942E+03  0.39824446894E+03  0.16166101234E+03  0.45547286372E+03  0.00000000000E+00 0. -1.
         -1    1    6    6    0  503 -0.19932754337E+03  0.31006062064E+03  0.10423590206E+03  0.38305897888E+03  0.00000000000E+00 0.  1.
<mgrwt>
<rscale>  0 0.17841148E+04</rscale>
<asrwt>0</asrwt>
<pdfrwt beam="1">  1        1 0.18640056E+00 0.17841148E+04</pdfrwt>
<pdfrwt beam="2">  1       -1 0.10104427E+00 0.17841148E+04</pdfrwt>
<totfact> 0.92154524E+00</totfact>
</mgrwt>
</event>
<event>
12    2  0.3623523E-008  0.1773690E+04  0.7818608E-02  0.8720417E-01
         -1   -1    0    0    0  501 -0.00000000000E+00  0.00000000000E+00  0.42681802213E+03  0.42681802213E+03  0.00000000000E+00 0.  1.
          1   -1    0    0  501    0  0.00000000000E+00 -0.00000000000E+00 -0.18426916000E+04  0.18426916000E+04  0.00000000000E+00 0. -1.
         23    2    1    2    0    0  0.18962797677E+03 -0.52606331401E+03 -0.95244913998E+03  0.11088522153E+04  0.98450450288E+02 0.  0.
        254    2    1    2    0    0 -0.18962797677E+03  0.52606331401E+03 -0.46342443793E+03  0.11606574069E+04  0.90535187999E+03 0.  0.
         23    2    4    4    0    0 -0.13822851039E+03  0.23396839805E+03 -0.70936558622E+03  0.76515706891E+03  0.91746786375E+02 0.  0.
         23    2    4    4    0    0 -0.51399466377E+02  0.29209491595E+03  0.24594114829E+03  0.39550033799E+03  0.89286750743E+02 0.  0.
          2    1    3    3  502    0  0.17709326820E+03 -0.50721757673E+03 -0.86282759428E+03  0.10164168206E+04  0.00000000000E+00 0. -1.
         -2    1    3    3    0  502  0.12534708566E+02 -0.18845737277E+02 -0.89621545691E+02  0.92435394652E+02  0.00000000000E+00 0.  1.
         11    1    5    5    0    0 -0.67211269941E+02  0.15302710790E+03 -0.53227206083E+03  0.55789622449E+03  0.00000000000E+00 0. -1.
        -11    1    5    5    0    0 -0.71017240450E+02  0.80941290154E+02 -0.17709352539E+03  0.20726084441E+03  0.00000000000E+00 0.  1.
          2    1    6    6  503    0 -0.26282288763E+02  0.12834489380E+03  0.53334690442E+02  0.14144878816E+03  0.00000000000E+00 0. -1.
         -2    1    6    6    0  503 -0.25117177614E+02  0.16375002215E+03  0.19260645785E+03  0.25405154983E+03  0.00000000000E+00 0.  1.
<mgrwt>
<rscale>  0 0.17736899E+04</rscale>
<asrwt>0</asrwt>
<pdfrwt beam="1">  1        1 0.28349101E+00 0.17736899E+04</pdfrwt>
<pdfrwt beam="2">  1       -1 0.65664312E-01 0.17736899E+04</pdfrwt>
<totfact> 0.84721799E+00</totfact>
</mgrwt>
</event>
<event>
12    2  0.3623523E-008  0.1765238E+04  0.7818608E-02  0.8725007E-01
          1   -1    0    0  501    0  0.00000000000E+00  0.00000000000E+00  0.26076848684E+04  0.26076848684E+04  0.00000000000E+00 0. -1.
         -1   -1    0    0    0  501 -0.00000000000E+00 -0.00000000000E+00 -0.29873852364E+03  0.29873852364E+03  0.00000000000E+00 0.  1.
         23    2    1    2    0    0  0.73066855141E+02  0.35546352676E+02  0.18897152364E+04  0.18935801011E+04  0.89552310281E+02 0.  0.
        254    2    1    2    0    0 -0.73066855141E+02 -0.35546352676E+02  0.41923110836E+03  0.10128432909E+04  0.91841956707E+03 0.  0.
         23    2    4    4    0    0  0.24848303050E+03  0.19852573813E+03 -0.10702150389E+03  0.34702560167E+03  0.88413125582E+02 0.  0.
         23    2    4    4    0    0 -0.32154988564E+03 -0.23407209081E+03  0.52625261225E+03  0.66581768921E+03  0.90483759435E+02 0.  0.
          4    1    3    3  502    0  0.82753630961E+02  0.22051351336E+02  0.18159165302E+04  0.18179348917E+04  0.00000000000E+00 0. -1.
         -4    1    3    3    0  502 -0.96867758197E+01  0.13495001339E+02  0.73798706126E+02  0.75645209450E+02  0.00000000000E+00 0.  1.
         11    1    5    5    0    0  0.20701990795E+03  0.13042835779E+03 -0.51972296047E+02  0.25013979763E+03  0.00000000000E+00 0.  1.
        -11    1    5    5    0    0  0.41463122553E+02  0.68097380340E+02 -0.55049207839E+02  0.96885804042E+02  0.00000000000E+00 0. -1.
          4    1    6    6  503    0 -0.71593807580E+02 -0.48463061908E+02  0.18306850631E+03  0.20245596967E+03  0.00000000000E+00 0. -1.
         -4    1    6    6    0  503 -0.24995607806E+03 -0.18560902890E+03  0.34318410594E+03  0.46336171955E+03  0.00000000000E+00 0.  1.
<mgrwt>
<rscale>  0 0.17652376E+04</rscale>
<asrwt>0</asrwt>
<pdfrwt beam="1">  1        1 0.40118227E+00 0.17652376E+04</pdfrwt>
<pdfrwt beam="2">  1       -1 0.45959775E-01 0.17652376E+04</pdfrwt>
<totfact> 0.50855159E+00</totfact>
</mgrwt>
</event>
<event>
12    2  0.3623523E-008  0.1305686E+04  0.7818608E-02  0.9025068E-01
         -1   -1    0    0    0  501 -0.00000000000E+00  0.00000000000E+00  0.65055408401E+03  0.65055408401E+03  0.00000000000E+00 0.  1.
          1   -1    0    0  501    0  0.00000000000E+00 -0.00000000000E+00 -0.65514002486E+03  0.65514002486E+03  0.00000000000E+00 0. -1.
         23    2    1    2    0    0  0.30539380622E+03 -0.42600702911E+02 -0.12521283316E+03  0.34506781175E+03  0.91177543013E+02 0.  0.
        254    2    1    2    0    0 -0.30539380622E+03  0.42600702911E+02  0.12062689231E+03  0.96062629712E+03  0.90176041097E+03 0.  0.
         23    2    4    4    0    0 -0.11539869696E+03  0.31471622621E+03 -0.26951840068E+03  0.43954392460E+03  0.90529172396E+02 0.  0.
         23    2    4    4    0    0 -0.18999510926E+03 -0.27211552329E+03  0.39014529299E+03  0.52108237252E+03  0.95752230998E+02 0.  0.
          1    1    3    3  502    0  0.18843505428E+03 -0.66152489392E+02 -0.99063109028E+02  0.22292918406E+03  0.00000000000E+00 0. -1.
         -1    1    3    3    0  502  0.11695875194E+03  0.23551786481E+02 -0.26149724135E+02  0.12213862769E+03  0.00000000000E+00 0.  1.
         11    1    5    5    0    0  0.11525112992E+02  0.15249175832E+02 -0.36649665317E+01  0.19462722644E+02  0.00000000000E+00 0. -1.
        -11    1    5    5    0    0 -0.12692380995E+03  0.29946705037E+03 -0.26585343415E+03  0.42008120196E+03  0.00000000000E+00 0.  1.
          1    1    6    6  503    0 -0.11286671497E+03 -0.98321338728E+02  0.12622795499E+03  0.19580469253E+03  0.00000000000E+00 0. -1.
         -1    1    6    6    0  503 -0.77128394291E+02 -0.17379418457E+03  0.26391733800E+03  0.32527767998E+03  0.00000000000E+00 0.  1.
<mgrwt>
<rscale>  0 0.13056861E+04</rscale>
<asrwt>0</asrwt>
<pdfrwt beam="1">  1        1 0.10079077E+00 0.13056861E+04</pdfrwt>
<pdfrwt beam="2">  1       -1 0.10008524E+00 0.13056861E+04</pdfrwt>
<totfact> 0.28136797E+01</totfact>
</mgrwt>
</event>
<event>
12    2  0.3623523E-008  0.2099090E+04  0.7818608E-02  0.8561644E-01
          1   -1    0    0  501    0  0.00000000000E+00  0.00000000000E+00  0.19735747988E+04  0.19735747988E+04  0.00000000000E+00 0. -1.
         -1   -1    0    0    0  501 -0.00000000000E+00 -0.00000000000E+00 -0.55814697733E+03  0.55814697733E+03  0.00000000000E+00 0.  1.
         23    2    1    2    0    0  0.13836377018E+03 -0.75207345423E+03  0.11939528458E+03  0.77947071380E+03  0.92522139123E+02 0.  0.
        254    2    1    2    0    0 -0.13836377018E+03  0.75207345423E+03  0.12960325369E+04  0.17522510623E+04  0.89773294206E+03 0.  0.
         23    2    4    4    0    0  0.23588925639E+03  0.28213716333E+03  0.72073787169E+02  0.38579641610E+03  0.91646732957E+02 0.  0.
         23    2    4    4    0    0 -0.37425302657E+03  0.46993629090E+03  0.12239587497E+04  0.13664546462E+04  0.90652268492E+02 0.  0.
          4    1    3    3  502    0  0.82107214706E+02 -0.21474350026E+03  0.41402698637E+02  0.23360340123E+03  0.00000000000E+00 0. -1.
         -4    1    3    3    0  502  0.56256555473E+02 -0.53732995397E+03  0.77992585942E+02  0.54586731257E+03  0.00000000000E+00 0.  1.
         11    1    5    5    0    0 -0.23600903282E+01 -0.51435603331E+01 -0.11029115268E+00  0.56602476444E+01  0.00000000000E+00 0.  1.
        -11    1    5    5    0    0  0.23824934672E+03  0.28728072367E+03  0.72184078322E+02  0.38013616845E+03  0.00000000000E+00 0. -1.
          1    1    6    6  503    0 -0.21569689938E+03  0.30524979900E+03  0.84339016407E+03  0.92250179460E+03  0.00000000000E+00 0. -1.
         -1    1    6    6    0  503 -0.15855612719E+03  0.16468649190E+03  0.38056858562E+03  0.44395285160E+03  0.00000000000E+00 0.  1.
<mgrwt>
<rscale>  0 0.20990901E+04</rscale>
<asrwt>0</asrwt>
<pdfrwt beam="1">  1        1 0.30362689E+00 0.20990901E+04</pdfrwt>
<pdfrwt beam="2">  1       -1 0.85868767E-01 0.20990901E+04</pdfrwt>
<totfact> 0.38246566E+00</totfact>
</mgrwt>
</event>
<event>
12    2  0.3623523E-008  0.2575734E+04  0.7818608E-02  0.8376491E-01
          2   -1    0    0  501    0  0.00000000000E+00  0.00000000000E+00  0.12433134968E+04  0.12433134968E+04  0.00000000000E+00 0. -1.
         -2   -1    0    0    0  501 -0.00000000000E+00 -0.00000000000E+00 -0.13340166539E+04  0.13340166539E+04  0.00000000000E+00 0.  1.
         23    2    1    2    0    0 -0.54058801334E+03 -0.23569393325E+03  0.87957497732E+03  0.10630344282E+04  0.92752490686E+02 0.  0.
        254    2    1    2    0    0  0.54058801334E+03  0.23569393325E+03 -0.97027813447E+03  0.15142957225E+04  0.10019305598E+04 0.  0.
         23    2    4    4    0    0 -0.87288052187E+01  0.20696072784E+03 -0.92751572947E+03  0.95462735974E+03  0.90105674857E+02 0.  0.
         23    2    4    4    0    0  0.54931681855E+03  0.28733205401E+02 -0.42762405001E+02  0.55966836277E+03  0.93944072528E+02 0.  0.
          3    1    3    3  502    0 -0.92052929893E+02 -0.80708965754E+02  0.18179684021E+03  0.21917520427E+03  0.00000000000E+00 0.  1.
         -3    1    3    3    0  502 -0.44853508344E+03 -0.15498496749E+03  0.69777813710E+03  0.84385922395E+03  0.00000000000E+00 0. -1.
         11    1    5    5    0    0  0.39869882877E+02  0.72283546642E+02 -0.35701589386E+03  0.36643535193E+03  0.00000000000E+00 0. -1.
        -11    1    5    5    0    0 -0.48598688095E+02  0.13467718120E+03 -0.57049983562E+03  0.58819200782E+03  0.00000000000E+00 0.  1.
          1    1    6    6  503    0  0.12632693557E+02 -0.24219253755E+01  0.14095487482E+02  0.19082280691E+02  0.00000000000E+00 0. -1.
         -1    1    6    6    0  503  0.53668412500E+03  0.31155130777E+02 -0.56857892483E+02  0.54058608208E+03  0.00000000000E+00 0.  1.
<mgrwt>
<rscale>  0 0.25757336E+04</rscale>
<asrwt>0</asrwt>
<pdfrwt beam="1">  1        2 0.19127900E+00 0.25757336E+04</pdfrwt>
<pdfrwt beam="2">  1       -2 0.20523333E+00 0.25757336E+04</pdfrwt>
<totfact> 0.19448187E+00</totfact>
</mgrwt>
</event>
<event>
12    2  0.3623523E-008  0.1317478E+04  0.7818608E-02  0.9015818E-01
          1   -1    0    0  501    0  0.00000000000E+00  0.00000000000E+00  0.31485496160E+04  0.31485496160E+04  0.00000000000E+00 0. -1.
         -1   -1    0    0    0  501 -0.00000000000E+00 -0.00000000000E+00 -0.13782132451E+03  0.13782132451E+03  0.00000000000E+00 0.  1.
         23    2    1    2    0    0 -0.21112305356E+03  0.73459772104E+02  0.14604789827E+04  0.14803749313E+04  0.92421839729E+02 0.  0.
        254    2    1    2    0    0  0.21112305356E+03 -0.73459772104E+02  0.15502493088E+04  0.18059960092E+04  0.89909920700E+03 0.  0.
         23    2    4    4    0    0  0.51835676394E+01 -0.14604062116E+03  0.15586452267E+04  0.15679839429E+04  0.88566191619E+02 0.  0.
         23    2    4    4    0    0  0.20593948592E+03  0.72580849056E+02 -0.83959178961E+01  0.23801206626E+03  0.94340875218E+02 0.  0.
          3    1    3    3  502    0 -0.11758453335E+03  0.28896399590E+02  0.10526139694E+04  0.10595552335E+04  0.00000000000E+00 0. -1.
         -3    1    3    3    0  502 -0.93538520210E+02  0.44563372514E+02  0.40786501333E+03  0.42081969777E+03  0.00000000000E+00 0.  1.
         11    1    5    5    0    0 -0.13096635297E+02 -0.43131442982E+02  0.18675193108E+03  0.19211487968E+03  0.00000000000E+00 0. -1.
        -11    1    5    5    0    0  0.18280202936E+02 -0.10290917818E+03  0.13718932956E+04  0.13758690633E+04  0.00000000000E+00 0.  1.
          4    1    6    6  503    0  0.74847413857E+02  0.75517497823E+02  0.32179109206E+01  0.10637378807E+03  0.00000000000E+00 0. -1.
         -4    1    6    6    0  503  0.13109207206E+03 -0.29366487669E+01 -0.11613828817E+02  0.13163827819E+03  0.00000000000E+00 0.  1.
<mgrwt>
<rscale>  0 0.13174783E+04</rscale>
<asrwt>0</asrwt>
<pdfrwt beam="1">  1        1 0.48439219E+00 0.13174783E+04</pdfrwt>
<pdfrwt beam="2">  1       -1 0.21203283E-01 0.13174783E+04</pdfrwt>
<totfact> 0.85490275E+00</totfact>
</mgrwt>
</event>
<event>
12    2  0.3623523E-008  0.1725284E+04  0.7818608E-02  0.8747074E-01
          2   -1    0    0  501    0  0.00000000000E+00  0.00000000000E+00  0.31075161362E+04  0.31075161362E+04  0.00000000000E+00 0. -1.
         -2   -1    0    0    0  501 -0.00000000000E+00 -0.00000000000E+00 -0.23946829252E+03  0.23946829252E+03  0.00000000000E+00 0.  1.
         23    2    1    2    0    0 -0.53086068102E+03  0.30629327995E+03  0.90366609889E+03  0.10982183268E+04  0.11765389534E+03 0.  0.
        254    2    1    2    0    0  0.53086068102E+03 -0.30629327995E+03  0.19643817448E+04  0.22487661019E+04  0.90693147798E+03 0.  0.
         23    2    4    4    0    0  0.70215205404E+03 -0.19500006198E+02  0.15789340868E+04  0.17306256631E+04  0.92922429648E+02 0.  0.
         23    2    4    4    0    0 -0.17129137301E+03 -0.28679327376E+03  0.38544765798E+03  0.51814043883E+03  0.91150978965E+02 0.  0.
          4    1    3    3  502    0 -0.58808193214E+02  0.82835711885E+02  0.15806231721E+03  0.18789320072E+03  0.00000000000E+00 0. -1.
         -4    1    3    3    0  502 -0.47205248781E+03  0.22345756807E+03  0.74560378168E+03  0.91032512611E+03  0.00000000000E+00 0.  1.
         11    1    5    5    0    0  0.28750386042E+03  0.33808536650E+02  0.69152523876E+03  0.74967235693E+03  0.00000000000E+00 0.  1.
        -11    1    5    5    0    0  0.41464819362E+03 -0.53308542847E+02  0.88740884804E+03  0.98095330612E+03  0.00000000000E+00 0. -1.
          1    1    6    6  503    0 -0.98737822066E+01 -0.90587965002E+02  0.12026460710E+03  0.15088819271E+03  0.00000000000E+00 0. -1.
         -1    1    6    6    0  503 -0.16141759081E+03 -0.19620530875E+03  0.26518305088E+03  0.36725224612E+03  0.00000000000E+00 0.  1.
<mgrwt>
<rscale>  0 0.17252844E+04</rscale>
<asrwt>0</asrwt>
<pdfrwt beam="1">  1        2 0.47807938E+00 0.17252844E+04</pdfrwt>
<pdfrwt beam="2">  1       -2 0.36841278E-01 0.17252844E+04</pdfrwt>
<totfact> 0.98642990E+00</totfact>
</mgrwt>
</event>
<event>
12    2  0.3623523E-008  0.1425707E+04  0.7818608E-02  0.8935418E-01
         -2   -1    0    0    0  501 -0.00000000000E+00  0.00000000000E+00  0.64513793031E+03  0.64513793031E+03  0.00000000000E+00 0.  1.
          2   -1    0    0  501    0  0.00000000000E+00 -0.00000000000E+00 -0.78767694604E+03  0.78767694604E+03  0.00000000000E+00 0. -1.
         23    2    1    2    0    0  0.84336209708E+01 -0.22156200130E+03  0.33047251027E+03  0.40939293300E+03  0.96071052684E+02 0.  0.
        254    2    1    2    0    0 -0.84336209708E+01  0.22156200130E+03 -0.47301152601E+03  0.10234219433E+04  0.88005211437E+03 0.  0.
         23    2    4    4    0    0  0.24222565620E+01  0.51833598077E+03 -0.95496570158E+02  0.53464539262E+03  0.89710894823E+02 0.  0.
         23    2    4    4    0    0 -0.10855877533E+02 -0.29677397947E+03 -0.37751495585E+03  0.48877655073E+03  0.90511489200E+02 0.  0.
          3    1    3    3  502    0 -0.18325263715E+02 -0.19497602700E+00  0.31230045081E+02  0.36210067960E+02  0.00000000000E+00 0. -1.
         -3    1    3    3    0  502  0.26758884686E+02 -0.22136702527E+03  0.29924246519E+03  0.37318286504E+03  0.00000000000E+00 0.  1.
         11    1    5    5    0    0  0.34627294579E+02  0.40352304851E+03 -0.92135345988E+02  0.41535385179E+03  0.00000000000E+00 0.  1.
        -11    1    5    5    0    0 -0.32205038017E+02  0.11481293226E+03 -0.33612241695E+01  0.11929154084E+03  0.00000000000E+00 0. -1.
          4    1    6    6  503    0 -0.11260631950E+01  0.48958078377E+01 -0.21299266869E+02  0.21883686204E+02  0.00000000000E+00 0. -1.
         -4    1    6    6    0  503 -0.97298143378E+01 -0.30166978731E+03 -0.35621568899E+03  0.46689286452E+03  0.00000000000E+00 0.  1.
<mgrwt>
<rscale>  0 0.14257072E+04</rscale>
<asrwt>0</asrwt>
<pdfrwt beam="1">  1        2 0.12118107E+00 0.14257072E+04</pdfrwt>
<pdfrwt beam="2">  1       -2 0.99251989E-01 0.14257072E+04</pdfrwt>
<totfact> 0.28730909E+01</totfact>
</mgrwt>
</event>
<event>
12    2  0.3623523E-008  0.1409953E+04  0.7818608E-02  0.8946646E-01
          2   -1    0    0  501    0  0.00000000000E+00  0.00000000000E+00  0.12501987992E+04  0.12501987992E+04  0.00000000000E+00 0. -1.
         -2   -1    0    0    0  501 -0.00000000000E+00 -0.00000000000E+00 -0.39753007041E+03  0.39753007041E+03  0.00000000000E+00 0.  1.
         23    2    1    2    0    0  0.27643855766E+03  0.16013658145E+03 -0.40305628847E+02  0.33482629453E+03  0.91772015955E+02 0.  0.
        254    2    1    2    0    0 -0.27643855766E+03 -0.16013658145E+03  0.89297435761E+03  0.13129025751E+04  0.90788103151E+03 0.  0.
         23    2    4    4    0    0  0.65600338007E+02 -0.42512139695E+03  0.18229879673E+03  0.47526101295E+03  0.87227132530E+02 0.  0.
         23    2    4    4    0    0 -0.34203889567E+03  0.26498481551E+03  0.71067556088E+03  0.83764156210E+03  0.96830135508E+02 0.  0.
          1    1    3    3  502    0  0.98691216436E+02  0.71744976580E+02  0.27461174481E+02  0.12506563865E+03  0.00000000000E+00 0. -1.
         -1    1    3    3    0  502  0.17774734122E+03  0.88391604867E+02 -0.67766803328E+02  0.20976065588E+03  0.00000000000E+00 0.  1.
         11    1    5    5    0    0  0.39105970535E+02 -0.14027602858E+03  0.10309486522E+03  0.17842419219E+03  0.00000000000E+00 0. -1.
        -11    1    5    5    0    0  0.26494367472E+02 -0.28484536838E+03  0.79203931516E+02  0.29683682076E+03  0.00000000000E+00 0.  1.
          1    1    6    6  503    0 -0.52447733202E+02  0.13459409577E+02  0.50056054251E+02  0.73739602598E+02  0.00000000000E+00 0. -1.
         -1    1    6    6    0  503 -0.28959116246E+03  0.25152540593E+03  0.66061950663E+03  0.76390195951E+03  0.00000000000E+00 0.  1.
<mgrwt>
<rscale>  0 0.14099526E+04</rscale>
<asrwt>0</asrwt>
<pdfrwt beam="1">  1        2 0.19233827E+00 0.14099526E+04</pdfrwt>
<pdfrwt beam="2">  1       -2 0.61158473E-01 0.14099526E+04</pdfrwt>
<totfact> 0.42771371E+01</totfact>
</mgrwt>
</event>
<event>
12    2  0.3623523E-008  0.2743488E+04  0.7818608E-02  0.8321031E-01
          2   -1    0    0  501    0  0.00000000000E+00  0.00000000000E+00  0.14037995332E+04  0.14037995332E+04  0.00000000000E+00 0.  1.
         -2   -1    0    0    0  501 -0.00000000000E+00 -0.00000000000E+00 -0.13404200974E+04  0.13404200974E+04  0.00000000000E+00 0. -1.
         23    2    1    2    0    0  0.47803179528E+03  0.25397097152E+03 -0.10680922282E+04  0.12019467551E+04  0.10411216339E+03 0.  0.
        254    2    1    2    0    0 -0.47803179528E+03 -0.25397097152E+03  0.11314716640E+04  0.15422728754E+04  0.89741954748E+03 0.  0.
         23    2    4    4    0    0 -0.28650524937E+03  0.12232816462E+03  0.10553444522E+04  0.11042439847E+04  0.92484740454E+02 0.  0.
         23    2    4    4    0    0 -0.19152654591E+03 -0.37629913613E+03  0.76127211747E+02  0.43802889067E+03  0.88263803759E+02 0.  0.
          2    1    3    3  502    0  0.34733843997E+03  0.13302199586E+03 -0.75885991477E+03  0.84510781177E+03  0.00000000000E+00 0. -1.
         -2    1    3    3    0  502  0.13069335532E+03  0.12094897566E+03 -0.30923231342E+03  0.35683894337E+03  0.00000000000E+00 0.  1.
         11    1    5    5    0    0 -0.16892764285E+03  0.69739881513E+02  0.45689672072E+03  0.49209228098E+03  0.00000000000E+00 0. -1.
        -11    1    5    5    0    0 -0.11757760651E+03  0.52588283102E+02  0.59844773151E+03  0.61215170377E+03  0.00000000000E+00 0.  1.
          2    1    6    6  503    0 -0.10059169923E+03 -0.21334018456E+03  0.86249043281E+02  0.25114064141E+03  0.00000000000E+00 0. -1.
         -2    1    6    6    0  503 -0.90934846685E+02 -0.16295895157E+03 -0.10121831534E+02  0.18688824926E+03  0.00000000000E+00 0.  1.
<mgrwt>
<rscale>  0 0.27434876E+04</rscale>
<asrwt>0</asrwt>
<pdfrwt beam="1">  1        2 0.21596916E+00 0.27434876E+04</pdfrwt>
<pdfrwt beam="2">  1       -2 0.20621848E+00 0.27434876E+04</pdfrwt>
<totfact> 0.15247964E+00</totfact>
</mgrwt>
</event>
<event>
12    2  0.3623523E-008  0.3154538E+04  0.7818608E-02  0.8200928E-01
          2   -1    0    0  501    0  0.00000000000E+00  0.00000000000E+00  0.18280020565E+04  0.18280020565E+04  0.00000000000E+00 0. -1.
         -2   -1    0    0    0  501 -0.00000000000E+00 -0.00000000000E+00 -0.13609271186E+04  0.13609271186E+04  0.00000000000E+00 0.  1.
         23    2    1    2    0    0 -0.10737672926E+04 -0.59657606010E+02 -0.77048472704E+03  0.13258786748E+04  0.88160745919E+02 0.  0.
        254    2    1    2    0    0  0.10737672926E+04  0.59657606010E+02  0.12375596649E+04  0.18630505003E+04  0.88479828988E+03 0.  0.
         23    2    4    4    0    0  0.35300851920E+03  0.23867719714E+03  0.22378855025E+02  0.43596863026E+03  0.89364502803E+02 0.  0.
         23    2    4    4    0    0  0.72075877340E+03 -0.17901959113E+03  0.12151808099E+04  0.14270818700E+04  0.91416845235E+02 0.  0.
          3    1    3    3  502    0 -0.19903897062E+03 -0.80122091431E+01 -0.10231058225E+03  0.22393785424E+03  0.00000000000E+00 0. -1.
         -3    1    3    3    0  502 -0.87472832197E+03 -0.51645396867E+02 -0.66817414478E+03  0.11019408206E+04  0.00000000000E+00 0.  1.
         11    1    5    5    0    0  0.79439003437E+02  0.26668625853E+02  0.32085182734E+02  0.89728645499E+02  0.00000000000E+00 0. -1.
        -11    1    5    5    0    0  0.27356951576E+03  0.21200857129E+03 -0.97063277089E+01  0.34623998476E+03  0.00000000000E+00 0.  1.
          2    1    6    6  503    0  0.19423425276E+02  0.87407176338E+01  0.24103283394E+02  0.32165787175E+02  0.00000000000E+00 0. -1.
         -2    1    6    6    0  503  0.70133534812E+03 -0.18776030876E+03  0.11910775265E+04  0.13949160828E+04  0.00000000000E+00 0.  1.
<mgrwt>
<rscale>  0 0.31545380E+04</rscale>
<asrwt>0</asrwt>
<pdfrwt beam="1">  1        2 0.28123109E+00 0.31545380E+04</pdfrwt>
<pdfrwt beam="2">  1       -2 0.20937340E+00 0.31545380E+04</pdfrwt>
<totfact> 0.81337572E-01</totfact>
</mgrwt>
</event>
<event>
12    2  0.3623523E-008  0.1306981E+04  0.7818608E-02  0.9024048E-01
          2   -1    0    0  501    0  0.00000000000E+00  0.00000000000E+00  0.10751773479E+04  0.10751773479E+04  0.00000000000E+00 0. -1.
         -2   -1    0    0    0  501 -0.00000000000E+00 -0.00000000000E+00 -0.39718987842E+03  0.39718987842E+03  0.00000000000E+00 0.  1.
         23    2    1    2    0    0 -0.30660677263E+03 -0.77708999615E+02  0.60049514188E+02  0.33493603884E+03  0.92356939705E+02 0.  0.
        254    2    1    2    0    0  0.30660677263E+03  0.77708999615E+02  0.61793795532E+03  0.11374311875E+04  0.90103051450E+03 0.  0.
         23    2    4    4    0    0  0.39607577914E+03  0.36307669431E+03  0.13291510494E+03  0.56145438517E+03  0.94148248659E+02 0.  0.
         23    2    4    4    0    0 -0.89469006511E+02 -0.28536769470E+03  0.48502285038E+03  0.57597680235E+03  0.84039795020E+02 0.  0.
          4    1    3    3  502    0 -0.30266052733E+03 -0.89876258342E+02  0.52428712892E+02  0.32004672558E+03  0.00000000000E+00 0.  1.
         -4    1    3    3    0  502 -0.39462453023E+01  0.12167258727E+02  0.76208012954E+01  0.14889313258E+02  0.00000000000E+00 0. -1.
         11    1    5    5    0    0  0.90509147055E+02  0.44745821965E+02  0.49253727426E+02  0.11233887995E+03  0.00000000000E+00 0.  1.
        -11    1    5    5    0    0  0.30556663209E+03  0.31833087235E+03  0.83661377510E+02  0.44911550521E+03  0.00000000000E+00 0. -1.
          1    1    6    6  503    0 -0.10596132563E+02 -0.96473018896E+02  0.96700085483E+02  0.13700448143E+03  0.00000000000E+00 0. -1.
         -1    1    6    6    0  503 -0.78872873948E+02 -0.18889467580E+03  0.38832276490E+03  0.43897232091E+03  0.00000000000E+00 0.  1.
<mgrwt>
<rscale>  0 0.13069806E+04</rscale>
<asrwt>0</asrwt>
<pdfrwt beam="1">  1        2 0.16541190E+00 0.13069806E+04</pdfrwt>
<pdfrwt beam="2">  1       -2 0.61106135E-01 0.13069806E+04</pdfrwt>
<totfact> 0.55104125E+01</totfact>
</mgrwt>
</event>
<event>
12    2  0.3623523E-008  0.1858080E+04  0.7818608E-02  0.8676009E-01
          2   -1    0    0  501    0  0.00000000000E+00  0.00000000000E+00  0.17768362831E+04  0.17768362831E+04  0.00000000000E+00 0. -1.
         -2   -1    0    0    0  501 -0.00000000000E+00 -0.00000000000E+00 -0.48575963159E+03  0.48575963159E+03  0.00000000000E+00 0.  1.
         23    2    1    2    0    0 -0.27927268722E+03  0.48859938650E+03  0.10375095186E+04  0.11840301445E+04  0.93695184592E+02 0.  0.
        254    2    1    2    0    0  0.27927268722E+03 -0.48859938650E+03  0.25356713295E+03  0.10785657702E+04  0.88446890023E+03 0.  0.
         23    2    4    4    0    0  0.14936939788E+03 -0.72439259279E+03  0.88171664949E+02  0.75042031895E+03  0.91107447962E+02 0.  0.
         23    2    4    4    0    0  0.12990328934E+03  0.23579320629E+03  0.16539546800E+03  0.32814545128E+03  0.88602909903E+02 0.  0.
          4    1    3    3  502    0 -0.11453064700E+03  0.12461919309E+03  0.35236069136E+03  0.39090314555E+03  0.00000000000E+00 0.  1.
         -4    1    3    3    0  502 -0.16474204022E+03  0.36398019340E+03  0.68514882725E+03  0.79312699896E+03  0.00000000000E+00 0. -1.
         11    1    5    5    0    0  0.44851682478E+02 -0.32430415276E+03  0.79075237014E+02  0.33680521081E+03  0.00000000000E+00 0.  1.
        -11    1    5    5    0    0  0.10451771540E+03 -0.40008844003E+03  0.90964279352E+01  0.41361510814E+03  0.00000000000E+00 0. -1.
          1    1    6    6  503    0  0.91128383437E+02  0.22278118062E+03  0.12747193544E+03  0.27236910807E+03  0.00000000000E+00 0. -1.
         -1    1    6    6    0  503  0.38774905902E+02  0.13012025676E+02  0.37923532556E+02  0.55776343206E+02  0.00000000000E+00 0.  1.
<mgrwt>
<rscale>  0 0.18580800E+04</rscale>
<asrwt>0</asrwt>
<pdfrwt beam="1">  1        2 0.27335943E+00 0.18580800E+04</pdfrwt>
<pdfrwt beam="2">  1       -2 0.74732252E-01 0.18580800E+04</pdfrwt>
<totfact> 0.13441833E+01</totfact>
</mgrwt>
</event>
<event>
12    2  0.3623523E-008  0.1541082E+04  0.7818608E-02  0.8857585E-01
         -1   -1    0    0    0  501 -0.00000000000E+00  0.00000000000E+00  0.12124596989E+04  0.12124596989E+04  0.00000000000E+00 0.  1.
          1   -1    0    0  501    0  0.00000000000E+00 -0.00000000000E+00 -0.48969308020E+03  0.48969308020E+03  0.00000000000E+00 0. -1.
         23    2    1    2    0    0 -0.13773545512E+03  0.47136705343E+03  0.15641213834E+03  0.52440352594E+03  0.96831535892E+02 0.  0.
        254    2    1    2    0    0  0.13773545512E+03 -0.47136705343E+03  0.56635448036E+03  0.11777492532E+04  0.90839305988E+03 0.  0.
         23    2    4    4    0    0 -0.37106591191E+03 -0.12265645786E+03  0.29412983159E+03  0.49725628344E+03  0.89537343891E+02 0.  0.
         23    2    4    4    0    0  0.50880136703E+03 -0.34871059557E+03  0.27222464877E+03  0.68049296972E+03  0.92122265963E+02 0.  0.
          1    1    3    3  502    0 -0.10229385567E+03  0.25849530826E+03  0.45265814200E+02  0.28166087985E+03  0.00000000000E+00 0. -1.
         -1    1    3    3    0  502 -0.35441599446E+02  0.21287174517E+03  0.11114632414E+03  0.24274264609E+03  0.00000000000E+00 0.  1.
         11    1    5    5    0    0 -0.14485618767E+03 -0.32065751032E+02  0.62277439454E+02  0.16090371954E+03  0.00000000000E+00 0. -1.
        -11    1    5    5    0    0 -0.22620972424E+03 -0.90590706824E+02  0.23185239213E+03  0.33635256390E+03  0.00000000000E+00 0.  1.
          3    1    6    6  503    0  0.28791081238E+03 -0.23253535378E+03  0.20000943797E+03  0.42067695672E+03  0.00000000000E+00 0. -1.
         -3    1    6    6    0  503  0.22089055465E+03 -0.11617524180E+03  0.72215210806E+02  0.25981601300E+03  0.00000000000E+00 0.  1.
<mgrwt>
<rscale>  0 0.15410816E+04</rscale>
<asrwt>0</asrwt>
<pdfrwt beam="1">  1        1 0.75337397E-01 0.15410816E+04</pdfrwt>
<pdfrwt beam="2">  1       -1 0.18653226E+00 0.15410816E+04</pdfrwt>
<totfact> 0.82199922E+00</totfact>
</mgrwt>
</event>
<event>
12    2  0.3623523E-008  0.1957096E+04  0.7818608E-02  0.8626947E-01
         -3   -1    0    0    0  501 -0.00000000000E+00  0.00000000000E+00  0.92598338599E+03  0.92598338599E+03  0.00000000000E+00 0.  1.
          3   -1    0    0  501    0  0.00000000000E+00 -0.00000000000E+00 -0.10340961475E+04  0.10340961475E+04  0.00000000000E+00 0. -1.
         23    2    1    2    0    0  0.43734999299E+03 -0.30994058576E+02  0.58170627590E+03  0.73416793411E+03  0.91568095038E+02 0.  0.
        254    2    1    2    0    0 -0.43734999299E+03  0.30994058576E+02 -0.68981903741E+03  0.12259115994E+04  0.91365928939E+03 0.  0.
         23    2    4    4    0    0  0.34642827186E+02 -0.49415438898E+02  0.19055736476E+03  0.21957023611E+03  0.90867861451E+02 0.  0.
         23    2    4    4    0    0 -0.47199282018E+03  0.80409497474E+02 -0.88037640217E+03  0.10063413633E+04  0.91746500454E+02 0.  0.
          4    1    3    3  502    0  0.43453165104E+03 -0.41880844595E+02  0.56957206157E+03  0.71762392255E+03  0.00000000000E+00 0.  1.
         -4    1    3    3    0  502  0.28183419481E+01  0.10886786020E+02  0.12134214330E+02  0.16544011562E+02  0.00000000000E+00 0. -1.
         11    1    5    5    0    0 -0.23352516624E+02 -0.44575955363E+02  0.99547031797E+02  0.11154356713E+03  0.00000000000E+00 0. -1.
        -11    1    5    5    0    0  0.57995343809E+02 -0.48394835344E+01  0.91010332964E+02  0.10802666898E+03  0.00000000000E+00 0.  1.
          4    1    6    6  503    0 -0.12823451024E+03  0.34052428946E+02 -0.16861755060E+03  0.21455893340E+03  0.00000000000E+00 0. -1.
         -4    1    6    6    0  503 -0.34375830994E+03  0.46357068527E+02 -0.71175885157E+03  0.79178242987E+03  0.00000000000E+00 0.  1.
<mgrwt>
<rscale>  0 0.19570957E+04</rscale>
<asrwt>0</asrwt>
<pdfrwt beam="1">  1        3 0.15909171E+00 0.19570957E+04</pdfrwt>
<pdfrwt beam="2">  1       -3 0.14245898E+00 0.19570957E+04</pdfrwt>
<totfact> 0.24897098E-01</totfact>
</mgrwt>
</event>
<event>
12    2  0.3623523E-008  0.1124899E+04  0.7818608E-02  0.9181258E-01
         -2   -1    0    0    0  501 -0.00000000000E+00  0.00000000000E+00  0.38114622847E+03  0.38114622847E+03  0.00000000000E+00 0.  1.
          2   -1    0    0  501    0  0.00000000000E+00 -0.00000000000E+00 -0.82999479764E+03  0.82999479764E+03  0.00000000000E+00 0. -1.
         23    2    1    2    0    0  0.14582572783E+03  0.96779893378E+02 -0.61744769605E+01  0.19621212009E+03  0.88484921003E+02 0.  0.
        254    2    1    2    0    0 -0.14582572783E+03 -0.96779893378E+02 -0.44267409221E+03  0.10149289060E+04  0.89637539105E+03 0.  0.
         23    2    4    4    0    0 -0.94120378991E+02 -0.27043722716E+03 -0.65546337058E+03  0.72110863537E+03  0.91490405281E+02 0.  0.
         23    2    4    4    0    0 -0.51705348842E+02  0.17365733378E+03  0.21278927837E+03  0.29382027064E+03  0.90668416643E+02 0.  0.
          4    1    3    3  502    0  0.34102092970E+02  0.56096070603E+02  0.29647465432E+02  0.72032590461E+02  0.00000000000E+00 0.  1.
         -4    1    3    3    0  502  0.11172363486E+03  0.40683822775E+02 -0.35821942392E+02  0.12417952963E+03  0.00000000000E+00 0. -1.
         11    1    5    5    0    0  0.69380278640E+01 -0.81050028979E+02 -0.12830011342E+03  0.15191498455E+03  0.00000000000E+00 0. -1.
        -11    1    5    5    0    0 -0.10105840685E+03 -0.18938719818E+03 -0.52716325717E+03  0.56919365082E+03  0.00000000000E+00 0.  1.
          3    1    6    6  503    0 -0.20349341844E+02  0.15904477999E+03  0.13851971124E+03  0.21188923559E+03  0.00000000000E+00 0. -1.
         -3    1    6    6    0  503 -0.31356006998E+02  0.14612553786E+02  0.74269567133E+02  0.81931035055E+02  0.00000000000E+00 0.  1.
<mgrwt>
<rscale>  0 0.11248989E+04</rscale>
<asrwt>0</asrwt>
<pdfrwt beam="1">  1        2 0.12769150E+00 0.11248989E+04</pdfrwt>
<pdfrwt beam="2">  1       -2 0.58637882E-01 0.11248989E+04</pdfrwt>
<totfact> 0.88385958E+01</totfact>
</mgrwt>
</event>
<event>
12    2  0.3623523E-008  0.1398181E+04  0.7818608E-02  0.8955136E-01
         -2   -1    0    0    0  501 -0.00000000000E+00  0.00000000000E+00  0.21403233329E+03  0.21403233329E+03  0.00000000000E+00 0.  1.
          2   -1    0    0  501    0  0.00000000000E+00 -0.00000000000E+00 -0.22834300797E+04  0.22834300797E+04  0.00000000000E+00 0. -1.
         23    2    1    2    0    0 -0.38440354376E+03  0.10378010061E+03 -0.56228052644E+03  0.69512252030E+03  0.92192917682E+02 0.  0.
        254    2    1    2    0    0  0.38440354376E+03 -0.10378010061E+03 -0.15071172200E+04  0.18023398927E+04  0.90470458179E+03 0.  0.
         23    2    4    4    0    0  0.22569241659E+02  0.36538363680E+03 -0.72173501554E+03  0.81444065030E+03  0.91638242480E+02 0.  0.
         23    2    4    4    0    0  0.36183430210E+03 -0.46916373741E+03 -0.78538220441E+03  0.98789924238E+03  0.89894557180E+02 0.  0.
          1    1    3    3  502    0 -0.28633914098E+03  0.90299707213E+02 -0.48112513140E+03  0.56712038655E+03  0.00000000000E+00 0. -1.
         -1    1    3    3    0  502 -0.98064402777E+02  0.13480393394E+02 -0.81155395044E+02  0.12800213374E+03  0.00000000000E+00 0.  1.
         11    1    5    5    0    0 -0.27304547119E+02  0.45462066392E+02 -0.86918131486E+02  0.10181895381E+03  0.00000000000E+00 0.  1.
        -11    1    5    5    0    0  0.49873788779E+02  0.31992157041E+03 -0.63481688406E+03  0.71262169649E+03  0.00000000000E+00 0. -1.
          1    1    6    6  503    0  0.30086238251E+03 -0.38546048984E+03 -0.69895618308E+03  0.85301682767E+03  0.00000000000E+00 0. -1.
         -1    1    6    6    0  503  0.60971919587E+02 -0.83703247573E+02 -0.86426021333E+02  0.13488241470E+03  0.00000000000E+00 0.  1.
<mgrwt>
<rscale>  0 0.13981815E+04</rscale>
<asrwt>0</asrwt>
<pdfrwt beam="1">  1        2 0.35129693E+00 0.13981815E+04</pdfrwt>
<pdfrwt beam="2">  1       -2 0.32928051E-01 0.13981815E+04</pdfrwt>
<totfact> 0.38889588E+01</totfact>
</mgrwt>
</event>
<event>
12    2  0.3623523E-008  0.2285712E+04  0.7818608E-02  0.8483576E-01
         -2   -1    0    0    0  501 -0.00000000000E+00  0.00000000000E+00  0.50273827359E+03  0.50273827359E+03  0.00000000000E+00 0.  1.
          2   -1    0    0  501    0  0.00000000000E+00 -0.00000000000E+00 -0.25980119777E+04  0.25980119777E+04  0.00000000000E+00 0. -1.
         23    2    1    2    0    0  0.35285226148E+03  0.42863984927E+02  0.33271984861E+03  0.49087142233E+03  0.62531719709E+02 0.  0.
        254    2    1    2    0    0 -0.35285226148E+03 -0.42863984927E+02 -0.24279935527E+04  0.26098788290E+04  0.88880412359E+03 0.  0.
         23    2    4    4    0    0  0.20198717490E+03  0.18478282977E+03 -0.40368426044E+03  0.49660240873E+03  0.93324472808E+02 0.  0.
         23    2    4    4    0    0 -0.55483943637E+03 -0.22764681470E+03 -0.20243092923E+04  0.21132764202E+04  0.91865363779E+02 0.  0.
          3    1    3    3  502    0  0.83688544742E+02 -0.16059049804E+02  0.84712025569E+02  0.12015736714E+03  0.00000000000E+00 0. -1.
         -3    1    3    3    0  502  0.26916371673E+03  0.58923034731E+02  0.24800782304E+03  0.37071405519E+03  0.00000000000E+00 0.  1.
         11    1    5    5    0    0  0.13878767886E+03  0.14785607176E+03 -0.22173972407E+03  0.30048617771E+03  0.00000000000E+00 0. -1.
        -11    1    5    5    0    0  0.63199496034E+02  0.36926758014E+02 -0.18194453637E+03  0.19611623102E+03  0.00000000000E+00 0.  1.
          4    1    6    6  503    0 -0.51592295477E+03 -0.22280063485E+03 -0.18040694326E+04  0.18895722097E+04  0.00000000000E+00 0. -1.
         -4    1    6    6    0  503 -0.38916481602E+02 -0.48461798484E+01 -0.22023985970E+03  0.22370421051E+03  0.00000000000E+00 0.  1.
<mgrwt>
<rscale>  0 0.22857122E+04</rscale>
<asrwt>0</asrwt>
<pdfrwt beam="1">  1        2 0.39969415E+00 0.22857122E+04</pdfrwt>
<pdfrwt beam="2">  1       -2 0.77344351E-01 0.22857122E+04</pdfrwt>
<totfact> 0.41300393E+00</totfact>
</mgrwt>
</event>
<event>
12    2  0.3623523E-008  0.1729093E+04  0.7818608E-02  0.8744943E-01
          2   -1    0    0  501    0  0.00000000000E+00  0.00000000000E+00  0.10603618444E+04  0.10603618444E+04  0.00000000000E+00 0. -1.
         -2   -1    0    0    0  501 -0.00000000000E+00 -0.00000000000E+00 -0.70489208197E+03  0.70489208197E+03  0.00000000000E+00 0.  1.
         23    2    1    2    0    0 -0.55484390156E+03 -0.26756013232E+03  0.27336120087E+03  0.67979023700E+03  0.89152906182E+02 0.  0.
        254    2    1    2    0    0  0.55484390156E+03  0.26756013232E+03  0.82108561572E+02  0.10854636894E+04  0.88997158694E+03 0.  0.
         23    2    4    4    0    0  0.12217801680E+03 -0.65025465798E+02 -0.34772680714E+03  0.38526912902E+03  0.91447199961E+02 0.  0.
         23    2    4    4    0    0  0.43266588476E+03  0.33258559811E+03  0.42983536871E+03  0.70019456035E+03  0.87755514028E+02 0.  0.
          1    1    3    3  502    0 -0.51285370796E+03 -0.22039299236E+03  0.25717905388E+03  0.61459992077E+03  0.00000000000E+00 0. -1.
         -1    1    3    3    0  502 -0.41990193598E+02 -0.47167139953E+02  0.16182146991E+02  0.65190316236E+02  0.00000000000E+00 0.  1.
         11    1    5    5    0    0  0.47551640734E+02 -0.21596978116E+01 -0.39150366385E+02  0.61632572713E+02  0.00000000000E+00 0.  1.
        -11    1    5    5    0    0  0.74626376067E+02 -0.62865767987E+02 -0.30857644076E+03  0.32363655631E+03  0.00000000000E+00 0. -1.
          3    1    6    6  503    0  0.29389109925E+03  0.18432675000E+03  0.30422411673E+03  0.46141157570E+03  0.00000000000E+00 0. -1.
         -3    1    6    6    0  503  0.13877478551E+03  0.14825884812E+03  0.12561125198E+03  0.23878298466E+03  0.00000000000E+00 0.  1.
<mgrwt>
<rscale>  0 0.17290930E+04</rscale>
<asrwt>0</asrwt>
<pdfrwt beam="1">  1        2 0.16313259E+00 0.17290930E+04</pdfrwt>
<pdfrwt beam="2">  1       -2 0.10844494E+00 0.17290930E+04</pdfrwt>
<totfact> 0.14890613E+01</totfact>
</mgrwt>
</event>
<event>
12    2  0.3623523E-008  0.2144292E+04  0.7818608E-02  0.8541980E-01
         -1   -1    0    0    0  501 -0.00000000000E+00  0.00000000000E+00  0.10339867655E+04  0.10339867655E+04  0.00000000000E+00 0.  1.
          1   -1    0    0  501    0  0.00000000000E+00 -0.00000000000E+00 -0.11117133020E+04  0.11117133020E+04  0.00000000000E+00 0. -1.
         23    2    1    2    0    0 -0.36038319362E+03  0.30964381337E+02 -0.83704292706E+03  0.91638038576E+03  0.90979725835E+02 0.  0.
        254    2    1    2    0    0  0.36038319362E+03 -0.30964381337E+02  0.75931639057E+03  0.12293196818E+04  0.89656603761E+03 0.  0.
         23    2    4    4    0    0  0.43303820382E+02  0.79189659761E+02 -0.18380431573E+03  0.22418428439E+03  0.91259760093E+02 0.  0.
         23    2    4    4    0    0  0.31707937324E+03 -0.11015404110E+03  0.94312070630E+03  0.10051353974E+04  0.90262166365E+02 0.  0.
          4    1    3    3  502    0 -0.31622465219E+03  0.19907738864E+02 -0.78876090060E+03  0.85002241560E+03  0.00000000000E+00 0. -1.
         -4    1    3    3    0  502 -0.44158541433E+02  0.11056642473E+02 -0.48282026464E+02  0.66357970159E+02  0.00000000000E+00 0.  1.
         11    1    5    5    0    0 -0.10157227044E+02  0.39191763098E+01 -0.96519786699E+02  0.97131861037E+02  0.00000000000E+00 0. -1.
        -11    1    5    5    0    0  0.53461047426E+02  0.75270483451E+02 -0.87284529033E+02  0.12705242335E+03  0.00000000000E+00 0.  1.
          1    1    6    6  503    0  0.23543840811E+03 -0.42516987468E+02  0.70471384149E+03  0.74421807061E+03  0.00000000000E+00 0. -1.
         -1    1    6    6    0  503  0.81640965128E+02 -0.67637053630E+02  0.23840686481E+03  0.26091732676E+03  0.00000000000E+00 0.  1.
<mgrwt>
<rscale>  0 0.21442918E+04</rscale>
<asrwt>0</asrwt>
<pdfrwt beam="1">  1        1 0.17103282E+00 0.21442918E+04</pdfrwt>
<pdfrwt beam="2">  1       -1 0.15907489E+00 0.21442918E+04</pdfrwt>
<totfact> 0.33808357E+00</totfact>
</mgrwt>
</event>
<event>
12    2  0.3623523E-008  0.2192502E+04  0.7818608E-02  0.8521555E-01
         -2   -1    0    0    0  501 -0.00000000000E+00  0.00000000000E+00  0.37349250341E+03  0.37349250341E+03  0.00000000000E+00 0.  1.
          2   -1    0    0  501    0  0.00000000000E+00 -0.00000000000E+00 -0.32176462840E+04  0.32176462840E+04  0.00000000000E+00 0. -1.
         23    2    1    2    0    0 -0.81911218974E+03 -0.85267369417E+00 -0.52685892005E+03  0.97779939601E+03  0.86981784125E+02 0.  0.
        254    2    1    2    0    0  0.81911218974E+03  0.85267369417E+00 -0.23172948606E+04  0.26133393914E+04  0.88811136552E+03 0.  0.
         23    2    4    4    0    0  0.82688743097E+03  0.25964754053E+02 -0.23647245048E+04  0.25068589869E+04  0.89459514645E+02 0.  0.
         23    2    4    4    0    0 -0.77752412298E+01 -0.25112080359E+02  0.47429644191E+02  0.10648040455E+03  0.91637516599E+02 0.  0.
          3    1    3    3  502    0 -0.85368204134E+02 -0.26694720034E+02 -0.61343511430E+02  0.10845904642E+03  0.00000000000E+00 0. -1.
         -3    1    3    3    0  502 -0.73374398560E+03  0.25842046340E+02 -0.46551540862E+03  0.86934034959E+03  0.00000000000E+00 0.  1.
         11    1    5    5    0    0  0.54256087534E+03 -0.24750240094E+01 -0.14317141081E+04  0.15310727339E+04  0.00000000000E+00 0. -1.
        -11    1    5    5    0    0  0.28432655562E+03  0.28439778062E+02 -0.93301039672E+03  0.97578625303E+03  0.00000000000E+00 0.  1.
          4    1    6    6  503    0 -0.39647551776E+02  0.11674385530E+02  0.44904488432E+01  0.41573835163E+02  0.00000000000E+00 0. -1.
         -4    1    6    6    0  503  0.31872310546E+02 -0.36786465889E+02  0.42939195348E+02  0.64906569385E+02  0.00000000000E+00 0.  1.
<mgrwt>
<rscale>  0 0.21925025E+04</rscale>
<asrwt>0</asrwt>
<pdfrwt beam="1">  1        2 0.49502251E+00 0.21925025E+04</pdfrwt>
<pdfrwt beam="2">  1       -2 0.57460385E-01 0.21925025E+04</pdfrwt>
<totfact> 0.32836301E+00</totfact>
</mgrwt>
</event>
<event>
12    2  0.3623523E-008  0.1434843E+04  0.7818608E-02  0.8928977E-01
          2   -1    0    0  501    0  0.00000000000E+00  0.00000000000E+00  0.52544831318E+03  0.52544831318E+03  0.00000000000E+00 0. -1.
         -2   -1    0    0    0  501 -0.00000000000E+00 -0.00000000000E+00 -0.97953210622E+03  0.97953210622E+03  0.00000000000E+00 0.  1.
         23    2    1    2    0    0  0.24835632517E+03  0.89622157652E+02 -0.48002908332E+03  0.55561568881E+03  0.92562829610E+02 0.  0.
        254    2    1    2    0    0 -0.24835632517E+03 -0.89622157652E+02  0.25945290287E+02  0.94936473059E+03  0.91154113358E+03 0.  0.
         23    2    4    4    0    0 -0.44800073709E+03  0.15127541266E+03  0.26182736857E+03  0.54724084068E+03  0.85615745483E+02 0.  0.
         23    2    4    4    0    0  0.19964441192E+03 -0.24089757031E+03 -0.23588207828E+03  0.40212388990E+03  0.90408724048E+02 0.  0.
          2    1    3    3  502    0  0.96691988346E+01  0.23561036477E+02 -0.90558816050E+02  0.94071860885E+02  0.00000000000E+00 0. -1.
         -2    1    3    3    0  502  0.23868712633E+03  0.66061121175E+02 -0.38947026727E+03  0.46154382793E+03  0.00000000000E+00 0.  1.
         11    1    5    5    0    0 -0.31253138608E+03  0.10262566348E+03  0.22539530858E+03  0.39876175747E+03  0.00000000000E+00 0.  1.
        -11    1    5    5    0    0 -0.13546935101E+03  0.48649749184E+02  0.36432059991E+02  0.14847908322E+03  0.00000000000E+00 0. -1.
          3    1    6    6  503    0  0.92859297011E+02 -0.15659875553E+03 -0.91567244281E+02  0.20379052848E+03  0.00000000000E+00 0. -1.
         -3    1    6    6    0  503  0.10678511491E+03 -0.84298814786E+02 -0.14431483400E+03  0.19833336142E+03  0.00000000000E+00 0.  1.
<mgrwt>
<rscale>  0 0.14348428E+04</rscale>
<asrwt>0</asrwt>
<pdfrwt beam="1">  1        2 0.80838203E-01 0.14348428E+04</pdfrwt>
<pdfrwt beam="2">  1       -2 0.15069725E+00 0.14348428E+04</pdfrwt>
<totfact> 0.16680256E+01</totfact>
</mgrwt>
</event>
<event>
12    2  0.3623523E-008  0.3070618E+04  0.7818608E-02  0.8223848E-01
          1   -1    0    0  501    0  0.00000000000E+00  0.00000000000E+00  0.13922951019E+04  0.13922951019E+04  0.00000000000E+00 0. -1.
         -1   -1    0    0    0  501 -0.00000000000E+00 -0.00000000000E+00 -0.16930132594E+04  0.16930132594E+04  0.00000000000E+00 0.  1.
         23    2    1    2    0    0  0.11473356600E+04 -0.78796478411E+03  0.36619704632E+02  0.13952495921E+04  0.90071104154E+02 0.  0.
        254    2    1    2    0    0 -0.11473356600E+04  0.78796478411E+03 -0.33733786218E+03  0.16900587693E+04  0.89734842322E+03 0.  0.
         23    2    4    4    0    0 -0.71782401007E+03  0.41690104897E+03  0.24632860028E+03  0.87083750256E+03  0.92749029545E+02 0.  0.
         23    2    4    4    0    0 -0.42951164990E+03  0.37106373514E+03 -0.58366646246E+03  0.81922126670E+03  0.91040603514E+02 0.  0.
          1    1    3    3  502    0  0.76001991150E+03 -0.51244667962E+03  0.66100814939E+02  0.91902186213E+03  0.00000000000E+00 0. -1.
         -1    1    3    3    0  502  0.38731574846E+03 -0.27551810449E+03 -0.29481110307E+02  0.47622772995E+03  0.00000000000E+00 0.  1.
         11    1    5    5    0    0 -0.51186301497E+03  0.31236626141E+03  0.13603291215E+03  0.61488322514E+03  0.00000000000E+00 0.  1.
        -11    1    5    5    0    0 -0.20596099509E+03  0.10453478756E+03  0.11029568813E+03  0.25595427742E+03  0.00000000000E+00 0. -1.
          2    1    6    6  503    0 -0.77450275796E+02  0.11320779879E+03 -0.16375033708E+03  0.21360881026E+03  0.00000000000E+00 0. -1.
         -2    1    6    6    0  503 -0.35206137410E+03  0.25785593635E+03 -0.41991612538E+03  0.60561245644E+03  0.00000000000E+00 0.  1.
<mgrwt>
<rscale>  0 0.30706182E+04</rscale>
<asrwt>0</asrwt>
<pdfrwt beam="1">  1        1 0.21419925E+00 0.30706182E+04</pdfrwt>
<pdfrwt beam="2">  1       -1 0.26046358E+00 0.30706182E+04</pdfrwt>
<totfact> 0.39211984E-01</totfact>
</mgrwt>
</event>
<event>
12    2  0.3623523E-008  0.1216483E+04  0.7818608E-02  0.9098550E-01
         -2   -1    0    0    0  501 -0.00000000000E+00  0.00000000000E+00  0.19804258316E+03  0.19804258316E+03  0.00000000000E+00 0.  1.
          2   -1    0    0  501    0  0.00000000000E+00 -0.00000000000E+00 -0.18680705321E+04  0.18680705321E+04  0.00000000000E+00 0. -1.
         23    2    1    2    0    0 -0.10691531308E+03 -0.48087708769E+02  0.23209145558E+02  0.14887813895E+03  0.88784705400E+02 0.  0.
        254    2    1    2    0    0  0.10691531308E+03  0.48087708769E+02 -0.16932370945E+04  0.19172349763E+04  0.89162480018E+03 0.  0.
         23    2    4    4    0    0 -0.31461603000E+03  0.20114764457E+03 -0.44253860470E+03  0.58595956111E+03  0.89802947396E+02 0.  0.
         23    2    4    4    0    0  0.42153134308E+03 -0.15305993580E+03 -0.12506984898E+04  0.13312754152E+04  0.83255639892E+02 0.  0.
          1    1    3    3  502    0  0.22647128788E+01 -0.26369133148E+02  0.26577900922E+02  0.37507931492E+02  0.00000000000E+00 0. -1.
         -1    1    3    3    0  502 -0.10918002596E+03 -0.21718575621E+02 -0.33687553643E+01  0.11137020746E+03  0.00000000000E+00 0.  1.
         11    1    5    5    0    0 -0.31143668042E+03  0.20391823247E+03 -0.44568473173E+03  0.58069814150E+03  0.00000000000E+00 0. -1.
        -11    1    5    5    0    0 -0.31793495768E+01 -0.27705878982E+01  0.31461270305E+01  0.52614196112E+01  0.00000000000E+00 0.  1.
          3    1    6    6  503    0  0.35013057705E+03 -0.12574922431E+03 -0.11162538983E+04  0.11766167829E+04  0.00000000000E+00 0. -1.
         -3    1    6    6    0  503  0.71400766035E+02 -0.27310711490E+02 -0.13444459152E+03  0.15465863229E+03  0.00000000000E+00 0.  1.
<mgrwt>
<rscale>  0 0.12164827E+04</rscale>
<asrwt>0</asrwt>
<pdfrwt beam="1">  1        2 0.28739547E+00 0.12164827E+04</pdfrwt>
<pdfrwt beam="2">  1       -2 0.30468090E-01 0.12164827E+04</pdfrwt>
<totfact> 0.77706886E+01</totfact>
</mgrwt>
</event>
<event>
12    2  0.3623523E-008  0.1838866E+04  0.7818608E-02  0.8685900E-01
          1   -1    0    0  501    0  0.00000000000E+00  0.00000000000E+00  0.85753417184E+03  0.85753417184E+03  0.00000000000E+00 0. -1.
         -1   -1    0    0    0  501 -0.00000000000E+00 -0.00000000000E+00 -0.98580016200E+03  0.98580016200E+03  0.00000000000E+00 0.  1.
         23    2    1    2    0    0 -0.58987394611E+03  0.35750534127E+03 -0.41069009054E+02  0.69708469528E+03  0.92081852434E+02 0.  0.
        254    2    1    2    0    0  0.58987394611E+03 -0.35750534127E+03 -0.87196981114E+02  0.11462496386E+04  0.91133066395E+03 0.  0.
         23    2    4    4    0    0 -0.22478242179E+03 -0.16113605228E+03  0.40344660398E+02  0.29384328943E+03  0.90687499868E+02 0.  0.
         23    2    4    4    0    0  0.81465636789E+03 -0.19636928900E+03 -0.12754164151E+03  0.85240634913E+03  0.90021210341E+02 0.  0.
          3    1    3    3  502    0 -0.18862922278E+03  0.11410470049E+03 -0.56326914758E+02  0.22753810162E+03  0.00000000000E+00 0. -1.
         -3    1    3    3    0  502 -0.40124472332E+03  0.24340064078E+03  0.15257905704E+02  0.46954659366E+03  0.00000000000E+00 0.  1.
         11    1    5    5    0    0  0.23829826521E+01  0.28636608648E+01  0.11612362698E+02  0.12195332193E+02  0.00000000000E+00 0. -1.
        -11    1    5    5    0    0 -0.22716540444E+03 -0.16399971314E+03  0.28732297701E+02  0.28164795724E+03  0.00000000000E+00 0.  1.
          4    1    6    6  503    0  0.80146371375E+03 -0.20472039112E+03 -0.12524428557E+03  0.83662455980E+03  0.00000000000E+00 0.  1.
         -4    1    6    6    0  503  0.13192654145E+02  0.83511021269E+01 -0.22973559419E+01  0.15781789330E+02  0.00000000000E+00 0. -1.
<mgrwt>
<rscale>  0 0.18388663E+04</rscale>
<asrwt>0</asrwt>
<pdfrwt beam="1">  1        1 0.13192834E+00 0.18388663E+04</pdfrwt>
<pdfrwt beam="2">  1       -1 0.15166156E+00 0.18388663E+04</pdfrwt>
<totfact> 0.62866048E+00</totfact>
</mgrwt>
</event>
<event>
12    2  0.3623523E-008  0.1258109E+04  0.7818608E-02  0.9063461E-01
          2   -1    0    0  501    0  0.00000000000E+00  0.00000000000E+00  0.18421876397E+04  0.18421876397E+04  0.00000000000E+00 0. -1.
         -2   -1    0    0    0  501 -0.00000000000E+00 -0.00000000000E+00 -0.21480409162E+03  0.21480409162E+03  0.00000000000E+00 0.  1.
         23    2    1    2    0    0  0.28241672218E+03  0.58156725529E+02  0.28631543194E+03  0.41664070388E+03  0.92040968439E+02 0.  0.
        254    2    1    2    0    0 -0.28241672218E+03 -0.58156725529E+02  0.13410681162E+04  0.16403510274E+04  0.89952564799E+03 0.  0.
         23    2    4    4    0    0 -0.55296420049E+03 -0.47961639702E+02  0.50423371561E+03  0.75598545131E+03  0.95878239053E+02 0.  0.
         23    2    4    4    0    0  0.27054747832E+03 -0.10195085827E+02  0.83683440055E+03  0.88436557614E+03  0.92253891622E+02 0.  0.
          3    1    3    3  502    0  0.87565859130E+02  0.19889101338E+02  0.15320314175E+03  0.17757972486E+03  0.00000000000E+00 0. -1.
         -3    1    3    3    0  502  0.19485086305E+03  0.38267624191E+02  0.13311229018E+03  0.23906097902E+03  0.00000000000E+00 0.  1.
         11    1    5    5    0    0 -0.44082791806E+03 -0.52722290570E+02  0.44693537832E+03  0.62996835290E+03  0.00000000000E+00 0. -1.
        -11    1    5    5    0    0 -0.11213628244E+03  0.47606508674E+01  0.57298337287E+02  0.12601709841E+03  0.00000000000E+00 0.  1.
          3    1    6    6  503    0  0.20874296346E+03  0.19834787472E+02  0.70740293795E+03  0.73782515558E+03  0.00000000000E+00 0. -1.
         -3    1    6    6    0  503  0.61804514854E+02 -0.30029873299E+02  0.12943146261E+03  0.14654042056E+03  0.00000000000E+00 0.  1.
<mgrwt>
<rscale>  0 0.12581088E+04</rscale>
<asrwt>0</asrwt>
<pdfrwt beam="1">  1        2 0.28341347E+00 0.12581088E+04</pdfrwt>
<pdfrwt beam="2">  1       -2 0.33046785E-01 0.12581088E+04</pdfrwt>
<totfact> 0.68709081E+01</totfact>
</mgrwt>
</event>
<event>
12    2  0.3623523E-008  0.2723966E+04  0.7818608E-02  0.8327271E-01
         -2   -1    0    0    0  501 -0.00000000000E+00  0.00000000000E+00  0.47988141206E+03  0.47988141206E+03  0.00000000000E+00 0.  1.
          2   -1    0    0  501    0  0.00000000000E+00 -0.00000000000E+00 -0.38655323182E+04  0.38655323182E+04  0.00000000000E+00 0. -1.
         23    2    1    2    0    0  0.62857725864E+03 -0.15902355174E+02 -0.31099280445E+04  0.31740453865E+04  0.86887389613E+02 0.  0.
        254    2    1    2    0    0 -0.62857725864E+03  0.15902355174E+02 -0.27572286156E+03  0.11713683437E+04  0.94906187642E+03 0.  0.
         23    2    4    4    0    0 -0.43279269261E+03 -0.26940440364E+03  0.21732133487E+03  0.56179604791E+03  0.92184539817E+02 0.  0.
         23    2    4    4    0    0 -0.19578456603E+03  0.28530675881E+03 -0.49304419643E+03  0.60957229580E+03  0.93564209244E+02 0.  0.
          4    1    3    3  502    0  0.38443538059E+03 -0.42133662675E+02 -0.20358275444E+04  0.20722354109E+04  0.00000000000E+00 0. -1.
         -4    1    3    3    0  502  0.24414187806E+03  0.26231307501E+02 -0.10741005001E+04  0.11018099757E+04  0.00000000000E+00 0.  1.
         11    1    5    5    0    0 -0.11159962298E+03 -0.10110394014E+03  0.99620014373E+02  0.18055644498E+03  0.00000000000E+00 0.  1.
        -11    1    5    5    0    0 -0.32119306964E+03 -0.16830046349E+03  0.11770132050E+03  0.38123960293E+03  0.00000000000E+00 0. -1.
          4    1    6    6  503    0 -0.12655162372E+03  0.24906418323E+03 -0.36637343186E+03  0.46073612015E+03  0.00000000000E+00 0. -1.
         -4    1    6    6    0  503 -0.69232942306E+02  0.36242575577E+02 -0.12667076457E+03  0.14883617565E+03  0.00000000000E+00 0.  1.
<mgrwt>
<rscale>  0 0.27239656E+04</rscale>
<asrwt>0</asrwt>
<pdfrwt beam="1">  1        2 0.59469730E+00 0.27239656E+04</pdfrwt>
<pdfrwt beam="2">  1       -2 0.73827908E-01 0.27239656E+04</pdfrwt>
<totfact> 0.63374552E-01</totfact>
</mgrwt>
</event>
<event>
12    2  0.3623523E-008  0.2123573E+04  0.7818608E-02  0.8550930E-01
         -1   -1    0    0    0  501 -0.00000000000E+00  0.00000000000E+00  0.12278262257E+04  0.12278262257E+04  0.00000000000E+00 0.  1.
          1   -1    0    0  501    0  0.00000000000E+00 -0.00000000000E+00 -0.91820047442E+03  0.91820047442E+03  0.00000000000E+00 0. -1.
         23    2    1    2    0    0  0.61237907442E+03 -0.44527663840E+03 -0.30166334902E+03  0.82017869187E+03  0.91721834643E+02 0.  0.
        254    2    1    2    0    0 -0.61237907442E+03  0.44527663840E+03  0.61128910033E+03  0.13258480083E+04  0.90051050044E+03 0.  0.
         23    2    4    4    0    0 -0.64531712618E+03  0.55359251348E+01  0.58226219863E+03  0.87473716536E+03  0.98341246174E+02 0.  0.
         23    2    4    4    0    0  0.32938051762E+02  0.43974071327E+03  0.29026901699E+02  0.45111084292E+03  0.90562803740E+02 0.  0.
          1    1    3    3  502    0  0.36874471239E+03 -0.22655428275E+03 -0.20443858425E+03  0.47863831928E+03  0.00000000000E+00 0. -1.
         -1    1    3    3    0  502  0.24363436203E+03 -0.21872235565E+03 -0.97224764772E+02  0.34154037259E+03  0.00000000000E+00 0.  1.
         11    1    5    5    0    0 -0.77731468009E+02  0.16107200583E+02  0.11362365083E+03  0.13860720420E+03  0.00000000000E+00 0.  1.
        -11    1    5    5    0    0 -0.56758565817E+03 -0.10571275449E+02  0.46863854780E+03  0.73612996116E+03  0.00000000000E+00 0. -1.
          3    1    6    6  503    0 -0.13669753789E+02  0.26850118835E+03 -0.11418685406E+02  0.26909131664E+03  0.00000000000E+00 0. -1.
         -3    1    6    6    0  503  0.46607805551E+02  0.17123952492E+03  0.40445587106E+02  0.18201952628E+03  0.00000000000E+00 0.  1.
<mgrwt>
<rscale>  0 0.21235730E+04</rscale>
<asrwt>0</asrwt>
<pdfrwt beam="1">  1        1 0.14126161E+00 0.21235730E+04</pdfrwt>
<pdfrwt beam="2">  1       -1 0.18889634E+00 0.21235730E+04</pdfrwt>
<totfact> 0.29029682E+00</totfact>
</mgrwt>
</event>
<event>
12    2  0.3623523E-008  0.1368287E+04  0.7818608E-02  0.8977100E-01
         -2   -1    0    0    0  501 -0.00000000000E+00  0.00000000000E+00  0.33553892970E+03  0.33553892970E+03  0.00000000000E+00 0.  1.
          2   -1    0    0  501    0  0.00000000000E+00 -0.00000000000E+00 -0.13949266005E+04  0.13949266005E+04  0.00000000000E+00 0. -1.
         23    2    1    2    0    0 -0.39813070932E+02 -0.29419354325E+03 -0.11765451454E+03  0.33352185101E+03  0.96225354273E+02 0.  0.
        254    2    1    2    0    0  0.39813070932E+02  0.29419354325E+03 -0.94173315625E+03  0.13969436792E+04  0.98815757028E+03 0.  0.
         23    2    4    4    0    0 -0.45802986966E+03  0.48547995136E+02 -0.45653018638E+03  0.65527881209E+03  0.93926786175E+02 0.  0.
         23    2    4    4    0    0  0.49784294060E+03  0.24564554811E+03 -0.48520296987E+03  0.74166486709E+03  0.80346277414E+02 0.  0.
          3    1    3    3  502    0 -0.22957226454E+02 -0.20388610908E+03 -0.12680983812E+03  0.24119974040E+03  0.00000000000E+00 0. -1.
         -3    1    3    3    0  502 -0.16855844478E+02 -0.90307434165E+02  0.91553235802E+01  0.92322110615E+02  0.00000000000E+00 0.  1.
         11    1    5    5    0    0 -0.16351742664E+03 -0.27476231688E+02 -0.15467802698E+03  0.22675578086E+03  0.00000000000E+00 0.  1.
        -11    1    5    5    0    0 -0.29451244303E+03  0.76024226824E+02 -0.30185215940E+03  0.42852303123E+03  0.00000000000E+00 0. -1.
          3    1    6    6  503    0  0.23557364820E+03  0.88679101596E+02 -0.26098288296E+03  0.36258928830E+03  0.00000000000E+00 0. -1.
         -3    1    6    6    0  503  0.26226929239E+03  0.15696644652E+03 -0.22422008691E+03  0.37907557880E+03  0.00000000000E+00 0.  1.
<mgrwt>
<rscale>  0 0.13682868E+04</rscale>
<asrwt>0</asrwt>
<pdfrwt beam="1">  1        2 0.21460410E+00 0.13682868E+04</pdfrwt>
<pdfrwt beam="2">  1       -2 0.51621372E-01 0.13682868E+04</pdfrwt>
<totfact> 0.50362560E+01</totfact>
</mgrwt>
</event>
<event>
12    2  0.3623523E-008  0.1525074E+04  0.7818608E-02  0.8867948E-01
          3   -1    0    0  501    0  0.00000000000E+00  0.00000000000E+00  0.54400147702E+03  0.54400147702E+03  0.00000000000E+00 0. -1.
         -3   -1    0    0    0  501 -0.00000000000E+00 -0.00000000000E+00 -0.10688618055E+04  0.10688618055E+04  0.00000000000E+00 0.  1.
         23    2    1    2    0    0 -0.45186622273E+03 -0.77275823184E+02  0.97183352503E+01  0.46766583047E+03  0.91990471542E+02 0.  0.
        254    2    1    2    0    0  0.45186622273E+03  0.77275823184E+02 -0.53457866377E+03  0.11451974521E+04  0.90307708443E+03 0.  0.
         23    2    4    4    0    0  0.24608298192E+03 -0.31987568330E+03 -0.54816942389E+03  0.68669849655E+03  0.90486579806E+02 0.  0.
         23    2    4    4    0    0  0.20578324080E+03  0.39715150648E+03  0.13590760120E+02  0.45849895553E+03  0.99802415629E+02 0.  0.
          3    1    3    3  502    0 -0.18348329789E+03  0.76530108461E+01 -0.19395451027E+02  0.18466421608E+03  0.00000000000E+00 0. -1.
         -3    1    3    3    0  502 -0.26838292484E+03 -0.84928834030E+02  0.29113786277E+02  0.28300161439E+03  0.00000000000E+00 0.  1.
         11    1    5    5    0    0  0.21988909085E+03 -0.24281107239E+03 -0.47655132172E+03  0.57828158485E+03  0.00000000000E+00 0. -1.
        -11    1    5    5    0    0  0.26193891074E+02 -0.77064610907E+02 -0.71618102167E+02  0.10841691170E+03  0.00000000000E+00 0.  1.
          3    1    6    6  503    0  0.21589779064E+03  0.37020477373E+03  0.19944403360E+02  0.42902355381E+03  0.00000000000E+00 0. -1.
         -3    1    6    6    0  503 -0.10114549836E+02  0.26946732752E+02 -0.63536432398E+01  0.29475401724E+02  0.00000000000E+00 0.  1.
<mgrwt>
<rscale>  0 0.15250736E+04</rscale>
<asrwt>0</asrwt>
<pdfrwt beam="1">  1        3 0.83692535E-01 0.15250736E+04</pdfrwt>
<pdfrwt beam="2">  1       -3 0.16444028E+00 0.15250736E+04</pdfrwt>
<totfact> 0.84045811E-01</totfact>
</mgrwt>
</event>
<event>
12    2  0.3623523E-008  0.1570913E+04  0.7818608E-02  0.8838619E-01
          2   -1    0    0  501    0  0.00000000000E+00  0.00000000000E+00  0.98357683446E+03  0.98357683446E+03  0.00000000000E+00 0.  1.
         -2   -1    0    0    0  501 -0.00000000000E+00 -0.00000000000E+00 -0.62724318291E+03  0.62724318291E+03  0.00000000000E+00 0. -1.
         23    2    1    2    0    0  0.28932579307E+03  0.21405690243E+03  0.51032598693E+03  0.63108921249E+03  0.91165833333E+02 0.  0.
        254    2    1    2    0    0 -0.28932579307E+03 -0.21405690243E+03 -0.15399233538E+03  0.97973080488E+03  0.89812529118E+03 0.  0.
         23    2    4    4    0    0  0.41387740385E+02 -0.50671013356E+03 -0.10055235942E+03  0.52557281211E+03  0.87452268916E+02 0.  0.
         23    2    4    4    0    0 -0.33071353346E+03  0.29265323113E+03 -0.53439975966E+02  0.45415799277E+03  0.91576724482E+02 0.  0.
          1    1    3    3  502    0  0.40501845635E+02  0.64461696492E+02  0.15120268853E+03  0.16928662922E+03  0.00000000000E+00 0. -1.
         -1    1    3    3    0  502  0.24882394743E+03  0.14959520594E+03  0.35912329840E+03  0.46180258327E+03  0.00000000000E+00 0.  1.
         11    1    5    5    0    0 -0.21185069155E+02 -0.80561955757E+02 -0.32956676646E+02  0.89583360095E+02  0.00000000000E+00 0.  1.
        -11    1    5    5    0    0  0.62572809541E+02 -0.42614817780E+03 -0.67595682772E+02  0.43598945201E+03  0.00000000000E+00 0. -1.
          1    1    6    6  503    0 -0.23037047021E+03  0.19333261072E+03 -0.78368338099E+02  0.31078875193E+03  0.00000000000E+00 0. -1.
         -1    1    6    6    0  503 -0.10034306325E+03  0.99320620406E+02  0.24928362133E+02  0.14336924084E+03  0.00000000000E+00 0.  1.
<mgrwt>
<rscale>  0 0.15709129E+04</rscale>
<asrwt>0</asrwt>
<pdfrwt beam="1">  1        2 0.15131951E+00 0.15709129E+04</pdfrwt>
<pdfrwt beam="2">  1       -2 0.96498951E-01 0.15709129E+04</pdfrwt>
<totfact> 0.22291483E+01</totfact>
</mgrwt>
</event>
<event>
12    2  0.3623523E-008  0.1915246E+04  0.7818608E-02  0.8647305E-01
          1   -1    0    0  501    0  0.00000000000E+00  0.00000000000E+00  0.16482670985E+04  0.16482670985E+04  0.00000000000E+00 0. -1.
         -1   -1    0    0    0  501 -0.00000000000E+00 -0.00000000000E+00 -0.55636710284E+03  0.55636710284E+03  0.00000000000E+00 0.  1.
         23    2    1    2    0    0 -0.89933269491E+02  0.72061697063E+03  0.64171897967E+03  0.97336419162E+03  0.90872379372E+02 0.  0.
        254    2    1    2    0    0  0.89933269491E+02 -0.72061697063E+03  0.45018101602E+03  0.12312700097E+04  0.88655855892E+03 0.  0.
         23    2    4    4    0    0 -0.15360577894E+03  0.25873209912E+01  0.42665489640E+03  0.46244235248E+03  0.90648216694E+02 0.  0.
         23    2    4    4    0    0  0.24353904843E+03 -0.72320429162E+03  0.23526119614E+02  0.76882765726E+03  0.90591239856E+02 0.  0.
          2    1    3    3  502    0 -0.32005092792E+02  0.17706404372E+03  0.11063454448E+03  0.21122500793E+03  0.00000000000E+00 0.  1.
         -2    1    3    3    0  502 -0.57928176699E+02  0.54355292691E+03  0.53108443520E+03  0.76213918369E+03  0.00000000000E+00 0. -1.
         11    1    5    5    0    0 -0.16270208327E+03  0.14111457149E+02  0.38232525888E+03  0.41574475908E+03  0.00000000000E+00 0.  1.
        -11    1    5    5    0    0  0.90963043312E+01 -0.11524136157E+02  0.44329637522E+02  0.46697593402E+02  0.00000000000E+00 0. -1.
          3    1    6    6  503    0  0.24750783715E+03 -0.65622673426E+03  0.23086534959E+02  0.70173117667E+03  0.00000000000E+00 0.  1.
         -3    1    6    6    0  503 -0.39687887175E+01 -0.66977557362E+02  0.43958465473E+00  0.67096480599E+02  0.00000000000E+00 0. -1.
<mgrwt>
<rscale>  0 0.19152458E+04</rscale>
<asrwt>0</asrwt>
<pdfrwt beam="1">  1        1 0.25357955E+00 0.19152458E+04</pdfrwt>
<pdfrwt beam="2">  1       -1 0.85594940E-01 0.19152458E+04</pdfrwt>
<totfact> 0.65143646E+00</totfact>
</mgrwt>
</event>
<event>
12    2  0.3623523E-008  0.1077255E+04  0.7818608E-02  0.9227648E-01
         -2   -1    0    0    0  501 -0.00000000000E+00  0.00000000000E+00  0.28132623440E+03  0.28132623440E+03  0.00000000000E+00 0.  1.
          2   -1    0    0  501    0  0.00000000000E+00 -0.00000000000E+00 -0.10312572081E+04  0.10312572081E+04  0.00000000000E+00 0. -1.
         23    2    1    2    0    0  0.31937624839E+02  0.29574818710E+02  0.40095591159E+02  0.10778754955E+03  0.90087832835E+02 0.  0.
        254    2    1    2    0    0 -0.31937624839E+02 -0.29574818710E+02 -0.79002656481E+03  0.12047958929E+04  0.90856837315E+03 0.  0.
         23    2    4    4    0    0  0.12452037899E+03 -0.42637536987E+03 -0.27406026027E+03  0.52958971412E+03  0.89749419056E+02 0.  0.
         23    2    4    4    0    0 -0.15645800383E+03  0.39680055116E+03 -0.51596630455E+03  0.67520617879E+03  0.88047555832E+02 0.  0.
          4    1    3    3  502    0  0.53590170533E+02  0.36142840941E-01  0.14603677507E+00  0.53590381701E+02  0.00000000000E+00 0. -1.
         -4    1    3    3    0  502 -0.21652545694E+02  0.29538675869E+02  0.39949554384E+02  0.54197167847E+02  0.00000000000E+00 0.  1.
         11    1    5    5    0    0  0.41857582762E+01 -0.55117640967E+02 -0.48832326886E+01  0.55491628915E+02  0.00000000000E+00 0.  1.
        -11    1    5    5    0    0  0.12033462072E+03 -0.37125772891E+03 -0.26917702758E+03  0.47409808520E+03  0.00000000000E+00 0. -1.
          1    1    6    6  503    0 -0.14459827436E+03  0.26513354414E+03 -0.38248466693E+03  0.48733866829E+03  0.00000000000E+00 0. -1.
         -1    1    6    6    0  503 -0.11859729476E+02  0.13166700703E+03 -0.13348163762E+03  0.18786751050E+03  0.00000000000E+00 0.  1.
<mgrwt>
<rscale>  0 0.10772552E+04</rscale>
<asrwt>0</asrwt>
<pdfrwt beam="1">  1        2 0.15865496E+00 0.10772552E+04</pdfrwt>
<pdfrwt beam="2">  1       -2 0.43280959E-01 0.10772552E+04</pdfrwt>
<totfact> 0.12098482E+02</totfact>
</mgrwt>
</event>
<event>
12    2  0.3623523E-008  0.1480356E+04  0.7818608E-02  0.8897622E-01
          1   -1    0    0  501    0  0.00000000000E+00  0.00000000000E+00  0.65629990302E+03  0.65629990302E+03  0.00000000000E+00 0. -1.
         -1   -1    0    0    0  501 -0.00000000000E+00 -0.00000000000E+00 -0.83477664105E+03  0.83477664105E+03  0.00000000000E+00 0.  1.
         23    2    1    2    0    0 -0.17395921827E+03  0.37047583658E+03 -0.26846722063E+03  0.49759317514E+03  0.89499521152E+02 0.  0.
        254    2    1    2    0    0  0.17395921827E+03 -0.37047583658E+03  0.89990482591E+02  0.99348336893E+03  0.90077564480E+03 0.  0.
         23    2    4    4    0    0  0.91562436591E+02 -0.13661417855E+03  0.48382138430E+03  0.51907019472E+03  0.91124209548E+02 0.  0.
         23    2    4    4    0    0  0.82396781677E+02 -0.23386165803E+03 -0.39383090171E+03  0.47441317421E+03  0.92111758171E+02 0.  0.
          2    1    3    3  502    0 -0.86004999900E+02  0.17805629574E+03 -0.76847204907E+02  0.21214711255E+03  0.00000000000E+00 0. -1.
         -2    1    3    3    0  502 -0.87954218368E+02  0.19241954084E+03 -0.19162001572E+03  0.28544606259E+03  0.00000000000E+00 0.  1.
         11    1    5    5    0    0  0.81779226697E+01 -0.67979211910E+02  0.10661465837E+03  0.12670728886E+03  0.00000000000E+00 0. -1.
        -11    1    5    5    0    0  0.83384513922E+02 -0.68634966639E+02  0.37720672593E+03  0.39236290586E+03  0.00000000000E+00 0.  1.
          1    1    6    6  503    0  0.80040971108E+02 -0.12876731864E+03 -0.28670185507E+03  0.32432319237E+03  0.00000000000E+00 0. -1.
         -1    1    6    6    0  503  0.23558105691E+01 -0.10509433939E+03 -0.10712904664E+03  0.15008998184E+03  0.00000000000E+00 0.  1.
<mgrwt>
<rscale>  0 0.14803565E+04</rscale>
<asrwt>0</asrwt>
<pdfrwt beam="1">  1        1 0.10096922E+00 0.14803565E+04</pdfrwt>
<pdfrwt beam="2">  1       -1 0.12842718E+00 0.14803565E+04</pdfrwt>
<totfact> 0.15216291E+01</totfact>
</mgrwt>
</event>
<event>
12    2  0.3623523E-008  0.1905745E+04  0.7818608E-02  0.8652002E-01
         -1   -1    0    0    0  501 -0.00000000000E+00  0.00000000000E+00  0.15910504068E+04  0.15910504068E+04  0.00000000000E+00 0.  1.
          1   -1    0    0  501    0  0.00000000000E+00 -0.00000000000E+00 -0.57067092597E+03  0.57067092597E+03  0.00000000000E+00 0. -1.
         23    2    1    2    0    0 -0.53612151502E+03 -0.37497886815E+03 -0.48362958657E+00  0.66031425394E+03  0.89326645768E+02 0.  0.
        254    2    1    2    0    0  0.53612151502E+03  0.37497886815E+03  0.10208631104E+04  0.15014070788E+04  0.88545259372E+03 0.  0.
         23    2    4    4    0    0  0.66834795663E+03  0.40299336874E+03  0.10731488731E+04  0.13301459123E+04  0.92449974768E+02 0.  0.
         23    2    4    4    0    0 -0.13222644162E+03 -0.28014500594E+02 -0.52285762674E+02  0.17126116652E+03  0.91257558984E+02 0.  0.
          3    1    3    3  502    0 -0.49993272863E+03 -0.31863457521E+03 -0.82638844019E+01  0.59289882565E+03  0.00000000000E+00 0. -1.
         -3    1    3    3    0  502 -0.36188786387E+02 -0.56344292940E+02  0.77802548154E+01  0.67415428294E+02  0.00000000000E+00 0.  1.
         11    1    5    5    0    0  0.45487249906E+03  0.22279869603E+03  0.68565846137E+03  0.85245279928E+03  0.00000000000E+00 0.  1.
        -11    1    5    5    0    0  0.21347545757E+03  0.18019467272E+03  0.38749041171E+03  0.47769311302E+03  0.00000000000E+00 0. -1.
          3    1    6    6  503    0 -0.81673761080E+02 -0.54801524998E+02 -0.75663668854E+01  0.98646136766E+02  0.00000000000E+00 0. -1.
         -3    1    6    6    0  503 -0.50552680538E+02  0.26787024403E+02 -0.44719395789E+02  0.72615029750E+02  0.00000000000E+00 0.  1.
<mgrwt>
<rscale>  0 0.19057452E+04</rscale>
<asrwt>0</asrwt>
<pdfrwt beam="1">  1        1 0.87795528E-01 0.19057452E+04</pdfrwt>
<pdfrwt beam="2">  1       -1 0.24477698E+00 0.19057452E+04</pdfrwt>
<totfact> 0.25963273E+00</totfact>
</mgrwt>
</event>
<event>
12    2  0.3623523E-008  0.1905222E+04  0.7818608E-02  0.8652262E-01
          1   -1    0    0  501    0  0.00000000000E+00  0.00000000000E+00  0.10071892141E+04  0.10071892141E+04  0.00000000000E+00 0. -1.
         -1   -1    0    0    0  501 -0.00000000000E+00 -0.00000000000E+00 -0.90099008109E+03  0.90099008109E+03  0.00000000000E+00 0.  1.
         23    2    1    2    0    0 -0.58470058324E+03 -0.24170977200E+03  0.43867369991E+03  0.77461379717E+03  0.85402188760E+02 0.  0.
        254    2    1    2    0    0  0.58470058324E+03  0.24170977200E+03 -0.33247456690E+03  0.11335654980E+04  0.87984829076E+03 0.  0.
         23    2    4    4    0    0  0.33592908975E+03 -0.91720150198E+02 -0.54826841549E+03  0.65562409025E+03  0.89351849414E+02 0.  0.
         23    2    4    4    0    0  0.24877149349E+03  0.33342992220E+03  0.21579384859E+03  0.47794140778E+03  0.93798908232E+02 0.  0.
          1    1    3    3  502    0 -0.41440553763E+03 -0.12855896832E+03  0.30392582208E+03  0.52974547028E+03  0.00000000000E+00 0. -1.
         -1    1    3    3    0  502 -0.17029504562E+03 -0.11315080368E+03  0.13474787783E+03  0.24486832689E+03  0.00000000000E+00 0.  1.
         11    1    5    5    0    0  0.26834794776E+03 -0.10682989547E+03 -0.41781432986E+03  0.50792918982E+03  0.00000000000E+00 0. -1.
        -11    1    5    5    0    0  0.67581141991E+02  0.15109745269E+02 -0.13045408564E+03  0.14769490043E+03  0.00000000000E+00 0.  1.
          4    1    6    6  503    0  0.19770815860E+03  0.31531205549E+03  0.18488850585E+03  0.41556463747E+03  0.00000000000E+00 0. -1.
         -4    1    6    6    0  503  0.51063334891E+02  0.18117866702E+02  0.30905342747E+02  0.62376770310E+02  0.00000000000E+00 0.  1.
<mgrwt>
<rscale>  0 0.19052218E+04</rscale>
<asrwt>0</asrwt>
<pdfrwt beam="1">  1        1 0.15495219E+00 0.19052218E+04</pdfrwt>
<pdfrwt beam="2">  1       -1 0.13861386E+00 0.19052218E+04</pdfrwt>
<totfact> 0.60100529E+00</totfact>
</mgrwt>
</event>
<event>
12    2  0.3623523E-008  0.1878788E+04  0.7818608E-02  0.8665488E-01
          2   -1    0    0  501    0  0.00000000000E+00  0.00000000000E+00  0.88238224246E+03  0.88238224246E+03  0.00000000000E+00 0. -1.
         -2   -1    0    0    0  501 -0.00000000000E+00 -0.00000000000E+00 -0.10000889547E+04  0.10000889547E+04  0.00000000000E+00 0.  1.
         23    2    1    2    0    0  0.39147675748E+03 -0.29685816040E+03 -0.52794507656E+03  0.72697364403E+03  0.91574320695E+02 0.  0.
        254    2    1    2    0    0 -0.39147675748E+03  0.29685816040E+03  0.41023836435E+03  0.11554975531E+04  0.96202924102E+03 0.  0.
         23    2    4    4    0    0  0.11015398881E+03  0.35876033981E+02  0.54714245038E+03  0.56668878230E+03  0.91380106794E+02 0.  0.
         23    2    4    4    0    0 -0.50163074629E+03  0.26098212642E+03 -0.13690408603E+03  0.58880877080E+03  0.90597813787E+02 0.  0.
          1    1    3    3  502    0 -0.10295357578E+01 -0.18236124754E+02 -0.22870192264E+02  0.29268786857E+02  0.00000000000E+00 0. -1.
         -1    1    3    3    0  502  0.39250629324E+03 -0.27862203565E+03 -0.50507488429E+03  0.69770485718E+03  0.00000000000E+00 0.  1.
         11    1    5    5    0    0  0.83449794178E+02 -0.10116403382E+02  0.42856135984E+03  0.43672765989E+03  0.00000000000E+00 0.  1.
        -11    1    5    5    0    0  0.26704194628E+02  0.45992437363E+02  0.11858109054E+03  0.12996112241E+03  0.00000000000E+00 0. -1.
          1    1    6    6  503    0 -0.34993509051E+02  0.34336472260E+02 -0.34717899465E+02  0.60073884062E+02  0.00000000000E+00 0. -1.
         -1    1    6    6    0  503 -0.46663723724E+03  0.22664565416E+03 -0.10218618656E+03  0.52873488673E+03  0.00000000000E+00 0.  1.
<mgrwt>
<rscale>  0 0.18787876E+04</rscale>
<asrwt>0</asrwt>
<pdfrwt beam="1">  1        2 0.13575111E+00 0.18787876E+04</pdfrwt>
<pdfrwt beam="2">  1       -2 0.15385984E+00 0.18787876E+04</pdfrwt>
<totfact> 0.79160423E+00</totfact>
</mgrwt>
</event>
<event>
12    2  0.3623523E-008  0.2289004E+04  0.7818608E-02  0.8482269E-01
          1   -1    0    0  501    0  0.00000000000E+00  0.00000000000E+00  0.17061838755E+04  0.17061838755E+04  0.00000000000E+00 0. -1.
         -1   -1    0    0    0  501 -0.00000000000E+00 -0.00000000000E+00 -0.76772765719E+03  0.76772765719E+03  0.00000000000E+00 0.  1.
         23    2    1    2    0    0  0.16664484477E+03  0.16794116149E+03 -0.60508872432E+03  0.65611259902E+03  0.91523987439E+02 0.  0.
        254    2    1    2    0    0 -0.16664484477E+03 -0.16794116149E+03  0.15435449426E+04  0.18177989337E+04  0.93053062030E+03 0.  0.
         23    2    4    4    0    0  0.17969850098E+03 -0.44916013242E+03  0.94986607050E+03  0.10698718068E+04  0.91344158747E+02 0.  0.
         23    2    4    4    0    0 -0.34634334575E+03  0.28121897092E+03  0.59367887212E+03  0.74792712684E+03  0.88896350350E+02 0.  0.
          4    1    3    3  502    0 -0.75513931263E+01  0.28806983685E+02 -0.91470248211E+02  0.96196009039E+02  0.00000000000E+00 0. -1.
         -4    1    3    3    0  502  0.17419623790E+03  0.13913417781E+03 -0.51361847611E+03  0.55991658998E+03  0.00000000000E+00 0.  1.
         11    1    5    5    0    0  0.90751527947E+02 -0.27292462824E+03  0.65085506753E+03  0.71157291366E+03  0.00000000000E+00 0. -1.
        -11    1    5    5    0    0  0.88946973031E+02 -0.17623550417E+03  0.29901100297E+03  0.35829889316E+03  0.00000000000E+00 0.  1.
          4    1    6    6  503    0 -0.27374402331E+02  0.24090263276E+02  0.16265763657E+02  0.39928357780E+02  0.00000000000E+00 0. -1.
         -4    1    6    6    0  503 -0.31896894342E+03  0.25712870765E+03  0.57741310846E+03  0.70799876906E+03  0.00000000000E+00 0.  1.
<mgrwt>
<rscale>  0 0.22890038E+04</rscale>
<asrwt>0</asrwt>
<pdfrwt beam="1">  1        1 0.26248983E+00 0.22890038E+04</pdfrwt>
<pdfrwt beam="2">  1       -1 0.11811195E+00 0.22890038E+04</pdfrwt>
<totfact> 0.27479707E+00</totfact>
</mgrwt>
</event>
<event>
12    2  0.3623523E-008  0.3478050E+04  0.7818608E-02  0.8119012E-01
         -2   -1    0    0    0  501 -0.00000000000E+00  0.00000000000E+00  0.18698900231E+04  0.18698900231E+04  0.00000000000E+00 0.  1.
          2   -1    0    0  501    0  0.00000000000E+00 -0.00000000000E+00 -0.16173188159E+04  0.16173188159E+04  0.00000000000E+00 0. -1.
         23    2    1    2    0    0  0.96142178082E+03  0.46877836178E+03  0.13346282791E+04  0.17131260919E+04  0.97382597122E+02 0.  0.
        254    2    1    2    0    0 -0.96142178082E+03 -0.46877836178E+03 -0.10820570719E+04  0.17740827470E+04  0.91237990624E+03 0.  0.
         23    2    4    4    0    0 -0.86853055602E+02 -0.22600235660E+02  0.14944306281E+03  0.19643698355E+03  0.90554047758E+02 0.  0.
         23    2    4    4    0    0 -0.87456872522E+03 -0.44617812612E+03 -0.12315001347E+04  0.15776457635E+04  0.91805216731E+02 0.  0.
          1    1    3    3  502    0  0.11085031286E+03  0.66749669523E+02  0.11751297567E+03  0.17479304818E+03  0.00000000000E+00 0. -1.
         -1    1    3    3    0  502  0.85057146797E+03  0.40202869226E+03  0.12171153034E+04  0.15383330437E+04  0.00000000000E+00 0.  1.
         11    1    5    5    0    0 -0.96012514940E+02 -0.21637705037E+02  0.81250719294E+02  0.12762551739E+03  0.00000000000E+00 0. -1.
        -11    1    5    5    0    0  0.91594593379E+01 -0.96253062282E+00  0.68192343514E+02  0.68811466156E+02  0.00000000000E+00 0.  1.
          2    1    6    6  503    0 -0.77489870581E+03 -0.36557882187E+03 -0.10450824202E+04  0.13514115377E+04  0.00000000000E+00 0. -1.
         -2    1    6    6    0  503 -0.99670019407E+02 -0.80599304251E+02 -0.18641771452E+03  0.22623422575E+03  0.00000000000E+00 0.  1.
<mgrwt>
<rscale>  0 0.34780502E+04</rscale>
<asrwt>0</asrwt>
<pdfrwt beam="1">  1        2 0.24881828E+00 0.34780502E+04</pdfrwt>
<pdfrwt beam="2">  1       -2 0.28767539E+00 0.34780502E+04</pdfrwt>
<totfact> 0.33938786E-01</totfact>
</mgrwt>
</event>
<event>
12    2  0.3623523E-008  0.1526405E+04  0.7818608E-02  0.8867081E-01
         -2   -1    0    0    0  501 -0.00000000000E+00  0.00000000000E+00  0.93274052349E+03  0.93274052349E+03  0.00000000000E+00 0.  1.
          2   -1    0    0  501    0  0.00000000000E+00 -0.00000000000E+00 -0.62448055349E+03  0.62448055349E+03  0.00000000000E+00 0. -1.
         23    2    1    2    0    0  0.23965432782E+03  0.19066225765E+03 -0.27769275958E+03  0.42297868972E+03  0.89506479638E+02 0.  0.
        254    2    1    2    0    0 -0.23965432782E+03 -0.19066225765E+03  0.58595272958E+03  0.11342423873E+04  0.92161754454E+03 0.  0.
         23    2    4    4    0    0  0.15548085259E+03  0.26993580390E+03  0.34773031205E+03  0.47564724017E+03  0.91018093875E+02 0.  0.
         23    2    4    4    0    0 -0.39513518042E+03 -0.46059806155E+03  0.23822241753E+03  0.65859514708E+03  0.93355569960E+02 0.  0.
          1    1    3    3  502    0  0.18038721037E+03  0.98793851673E+02 -0.21230572455E+03  0.29559007336E+03  0.00000000000E+00 0. -1.
         -1    1    3    3    0  502  0.59267117454E+02  0.91868405974E+02 -0.65387035034E+02  0.12738861636E+03  0.00000000000E+00 0.  1.
         11    1    5    5    0    0  0.15629126473E+02  0.10183106950E+03  0.83115252775E+02  0.13237062194E+03  0.00000000000E+00 0.  1.
        -11    1    5    5    0    0  0.13985172612E+03  0.16810473440E+03  0.26461505928E+03  0.34327661823E+03  0.00000000000E+00 0. -1.
          2    1    6    6  503    0 -0.38816533773E+03 -0.42772264764E+03  0.23872089531E+03  0.62498532669E+03  0.00000000000E+00 0. -1.
         -2    1    6    6    0  503 -0.69698426825E+01 -0.32875413911E+02 -0.49847777713E+00  0.33609820394E+02  0.00000000000E+00 0.  1.
<mgrwt>
<rscale>  0 0.15264053E+04</rscale>
<asrwt>0</asrwt>
<pdfrwt beam="1">  1        2 0.96073932E-01 0.15264053E+04</pdfrwt>
<pdfrwt beam="2">  1       -2 0.14349854E+00 0.15264053E+04</pdfrwt>
<totfact> 0.15329707E+01</totfact>
</mgrwt>
</event>
<event>
12    2  0.3623523E-008  0.2127681E+04  0.7818608E-02  0.8549147E-01
         -2   -1    0    0    0  501 -0.00000000000E+00  0.00000000000E+00  0.61397312584E+03  0.61397312584E+03  0.00000000000E+00 0.  1.
          2   -1    0    0  501    0  0.00000000000E+00 -0.00000000000E+00 -0.18433329831E+04  0.18433329831E+04  0.00000000000E+00 0. -1.
         23    2    1    2    0    0 -0.84339177790E+03 -0.56521748239E+02 -0.26793224918E+03  0.89155979163E+03  0.92664841540E+02 0.  0.
        254    2    1    2    0    0  0.84339177790E+03  0.56521748239E+02 -0.96142760806E+03  0.15657463173E+04  0.90150656432E+03 0.  0.
         23    2    4    4    0    0  0.36006699353E+03 -0.12963939478E+02  0.10695639736E+03  0.38753113815E+03  0.94469087748E+02 0.  0.
         23    2    4    4    0    0  0.48332478437E+03  0.69485687717E+02 -0.10683840054E+04  0.11782151791E+04  0.91189458509E+02 0.  0.
          3    1    3    3  502    0 -0.29949341744E+03  0.23355698337E+02 -0.85169796911E+02  0.31224299839E+03  0.00000000000E+00 0. -1.
         -3    1    3    3    0  502 -0.54389836045E+03 -0.79877446576E+02 -0.18276245227E+03  0.57931679325E+03  0.00000000000E+00 0.  1.
         11    1    5    5    0    0  0.30497465794E+01 -0.15144085740E+02  0.39599226106E+01  0.15947578945E+02  0.00000000000E+00 0. -1.
        -11    1    5    5    0    0  0.35701724695E+03  0.21801462621E+01  0.10299647475E+03  0.37158355920E+03  0.00000000000E+00 0.  1.
          4    1    6    6  503    0  0.23214421931E+03  0.47703396947E+02 -0.41544395377E+03  0.47828885766E+03  0.00000000000E+00 0. -1.
         -4    1    6    6    0  503  0.25118056506E+03  0.21782290771E+02 -0.65294005165E+03  0.69992632148E+03  0.00000000000E+00 0.  1.
<mgrwt>
<rscale>  0 0.21276813E+04</rscale>
<asrwt>0</asrwt>
<pdfrwt beam="1">  1        2 0.28358969E+00 0.21276813E+04</pdfrwt>
<pdfrwt beam="2">  1       -2 0.94457405E-01 0.21276813E+04</pdfrwt>
<totfact> 0.70901257E+00</totfact>
</mgrwt>
</event>
<event>
12    2  0.3623523E-008  0.4879351E+04  0.7818608E-02  0.7847393E-01
          2   -1    0    0  501    0  0.00000000000E+00  0.00000000000E+00  0.35147388049E+04  0.35147388049E+04  0.00000000000E+00 0. -1.
         -2   -1    0    0    0  501 -0.00000000000E+00 -0.00000000000E+00 -0.16934446384E+04  0.16934446384E+04  0.00000000000E+00 0.  1.
         23    2    1    2    0    0  0.25141398156E+03 -0.15997494724E+04  0.27090264662E+04  0.31574128828E+04  0.89578752399E+02 0.  0.
        254    2    1    2    0    0 -0.25141398156E+03  0.15997494724E+04 -0.88773229973E+03  0.20507705606E+04  0.89173084025E+03 0.  0.
         23    2    4    4    0    0 -0.11284210547E+03  0.10388273321E+04 -0.10071739334E+04  0.14538187005E+04  0.85404421234E+02 0.  0.
         23    2    4    4    0    0 -0.13857187608E+03  0.56092214033E+03  0.11944163369E+03  0.59695186004E+03  0.90826246169E+02 0.  0.
          1    1    3    3  502    0  0.17620155782E+03 -0.91063838470E+03  0.16083422473E+04  0.18566297534E+04  0.00000000000E+00 0. -1.
         -1    1    3    3    0  502  0.75212423737E+02 -0.68911108774E+03  0.11006842190E+04  0.13007831294E+04  0.00000000000E+00 0.  1.
         11    1    5    5    0    0 -0.99945668886E+02  0.58709270024E+03 -0.60338705713E+03  0.84778707003E+03  0.00000000000E+00 0. -1.
        -11    1    5    5    0    0 -0.12896436586E+02  0.45173463187E+03 -0.40378687629E+03  0.60603163051E+03  0.00000000000E+00 0.  1.
          1    1    6    6  503    0 -0.47982928197E+02  0.29695160130E+03  0.23020944503E+02  0.30168291102E+03  0.00000000000E+00 0. -1.
         -1    1    6    6    0  503 -0.90588947888E+02  0.26397053903E+03  0.96420689185E+02  0.29526894903E+03  0.00000000000E+00 0.  1.
<mgrwt>
<rscale>  0 0.48793506E+04</rscale>
<asrwt>0</asrwt>
<pdfrwt beam="1">  1        2 0.54072905E+00 0.48793506E+04</pdfrwt>
<pdfrwt beam="2">  1       -2 0.26052994E+00 0.48793506E+04</pdfrwt>
<totfact> 0.32246868E-02</totfact>
</mgrwt>
</event>
<event>
12    2  0.3623523E-008  0.1147930E+04  0.7818608E-02  0.9159695E-01
         -2   -1    0    0    0  501 -0.00000000000E+00  0.00000000000E+00  0.33942705681E+03  0.33942705681E+03  0.00000000000E+00 0.  1.
          2   -1    0    0  501    0  0.00000000000E+00 -0.00000000000E+00 -0.97056467681E+03  0.97056467681E+03  0.00000000000E+00 0. -1.
         23    2    1    2    0    0 -0.87292848809E+02  0.19623998593E+03 -0.97402554016E+01  0.23160934169E+03  0.86126889260E+02 0.  0.
        254    2    1    2    0    0  0.87292848809E+02 -0.19623998593E+03 -0.62139736460E+03  0.10783823919E+04  0.85477700306E+03 0.  0.
         23    2    4    4    0    0  0.38133448477E+03  0.17215280697E+02 -0.50058382148E+02  0.39527548170E+03  0.89579627434E+02 0.  0.
         23    2    4    4    0    0 -0.29404163596E+03 -0.21345526662E+03 -0.57133898245E+03  0.68310691022E+03  0.90460949590E+02 0.  0.
          2    1    3    3  502    0 -0.11014683608E+02  0.46213003813E+01 -0.21966889745E+02  0.25004477944E+02  0.00000000000E+00 0. -1.
         -2    1    3    3    0  502 -0.76278165202E+02  0.19161868554E+03  0.12226634343E+02  0.20660486375E+03  0.00000000000E+00 0.  1.
         11    1    5    5    0    0  0.13954973860E+03  0.43057476765E+02 -0.42079516554E+02  0.15198276732E+03  0.00000000000E+00 0. -1.
        -11    1    5    5    0    0  0.24178474616E+03 -0.25842196068E+02 -0.79788655941E+01  0.24329271438E+03  0.00000000000E+00 0.  1.
          1    1    6    6  503    0 -0.25467839669E+03 -0.17269661721E+03 -0.41367453338E+03  0.51556942006E+03  0.00000000000E+00 0. -1.
         -1    1    6    6    0  503 -0.39363239263E+02 -0.40758649409E+02 -0.15766444908E+03  0.16753749016E+03  0.00000000000E+00 0.  1.
<mgrwt>
<rscale>  0 0.11479302E+04</rscale>
<asrwt>0</asrwt>
<pdfrwt beam="1">  1        2 0.14931764E+00 0.11479302E+04</pdfrwt>
<pdfrwt beam="2">  1       -2 0.52219548E-01 0.11479302E+04</pdfrwt>
<totfact> 0.90189077E+01</totfact>
</mgrwt>
</event>
<event>
12    2  0.3623523E-008  0.1853428E+04  0.7818608E-02  0.8678392E-01
         -2   -1    0    0    0  501 -0.00000000000E+00  0.00000000000E+00  0.36089871565E+03  0.36089871565E+03  0.00000000000E+00 0.  1.
          2   -1    0    0  501    0  0.00000000000E+00 -0.00000000000E+00 -0.23796130195E+04  0.23796130195E+04  0.00000000000E+00 0. -1.
         23    2    1    2    0    0  0.46004968703E+03  0.11213717662E+03 -0.11186157902E+01  0.48202594674E+03  0.90151545263E+02 0.  0.
        254    2    1    2    0    0 -0.46004968703E+03 -0.11213717662E+03 -0.20175956881E+04  0.22584857885E+04  0.89768882977E+03 0.  0.
         23    2    4    4    0    0 -0.30780935871E+03 -0.47621837630E+03 -0.87545905982E+03  0.10466738635E+04  0.86988894979E+02 0.  0.
         23    2    4    4    0    0 -0.15224032832E+03  0.36408119968E+03 -0.11421366283E+04  0.12118119250E+04  0.90993550908E+02 0.  0.
          4    1    3    3  502    0  0.12047382533E+02  0.21935293716E+02 -0.58741718494E+00  0.25032810374E+02  0.00000000000E+00 0. -1.
         -4    1    3    3    0  502  0.44800230450E+03  0.90201882902E+02 -0.53119860531E+00  0.45699313636E+03  0.00000000000E+00 0.  1.
         11    1    5    5    0    0 -0.37827487395E+01 -0.29029167513E+02 -0.23260343789E+02  0.37390444605E+02  0.00000000000E+00 0.  1.
        -11    1    5    5    0    0 -0.30402660997E+03 -0.44718920878E+03 -0.85219871603E+03  0.10092834189E+04  0.00000000000E+00 0. -1.
          3    1    6    6  503    0 -0.89514015909E+02  0.13829449330E+03 -0.57595274086E+03  0.59904898433E+03  0.00000000000E+00 0. -1.
         -3    1    6    6    0  503 -0.62726312414E+02  0.22578670638E+03 -0.56618388742E+03  0.61276294064E+03  0.00000000000E+00 0.  1.
<mgrwt>
<rscale>  0 0.18534285E+04</rscale>
<asrwt>0</asrwt>
<pdfrwt beam="1">  1        2 0.36609431E+00 0.18534285E+04</pdfrwt>
<pdfrwt beam="2">  1       -2 0.55522880E-01 0.18534285E+04</pdfrwt>
<totfact> 0.11709442E+01</totfact>
</mgrwt>
</event>
<event>
12    2  0.3623523E-008  0.2157460E+04  0.7818608E-02  0.8536346E-01
          2   -1    0    0  501    0  0.00000000000E+00  0.00000000000E+00  0.36547427689E+04  0.36547427689E+04  0.00000000000E+00 0. -1.
         -2   -1    0    0    0  501 -0.00000000000E+00 -0.00000000000E+00 -0.31839666996E+03  0.31839666996E+03  0.00000000000E+00 0.  1.
         23    2    1    2    0    0 -0.65964882126E+03 -0.28318934299E+02  0.28501626128E+03  0.72489352546E+03  0.91092396087E+02 0.  0.
        254    2    1    2    0    0  0.65964882126E+03  0.28318934299E+02  0.30513298377E+04  0.32482459134E+04  0.89696666958E+03 0.  0.
         23    2    4    4    0    0 -0.20171641301E+03  0.81718218241E+02  0.48586043865E+03  0.54000428340E+03  0.90426112233E+02 0.  0.
         23    2    4    4    0    0  0.86136523427E+03 -0.53399283942E+02  0.25654693990E+04  0.27082416300E+04  0.90210525561E+02 0.  0.
          2    1    3    3  502    0 -0.71204948743E+02 -0.27261780077E+02  0.50422092077E+02  0.91409719111E+02  0.00000000000E+00 0. -1.
         -2    1    3    3    0  502 -0.58844387252E+03 -0.10571542221E+01  0.23459416920E+03  0.63348380635E+03  0.00000000000E+00 0.  1.
         11    1    5    5    0    0 -0.77961358228E+02  0.71908397650E+02  0.16703594549E+03  0.19786307921E+03  0.00000000000E+00 0.  1.
        -11    1    5    5    0    0 -0.12375505478E+03  0.98098205917E+01  0.31882449316E+03  0.34214120418E+03  0.00000000000E+00 0. -1.
          1    1    6    6  503    0  0.43885287856E+02 -0.19381578483E+02  0.10882400265E+03  0.11892950697E+03  0.00000000000E+00 0. -1.
         -1    1    6    6    0  503  0.81747994642E+03 -0.34017705460E+02  0.24566453964E+04  0.25893121231E+04  0.00000000000E+00 0.  1.
<mgrwt>
<rscale>  0 0.21574595E+04</rscale>
<asrwt>0</asrwt>
<pdfrwt beam="1">  1        2 0.56226809E+00 0.21574595E+04</pdfrwt>
<pdfrwt beam="2">  1       -2 0.48984106E-01 0.21574595E+04</pdfrwt>
<totfact> 0.22921450E+00</totfact>
</mgrwt>
</event>
<event>
12    2  0.3623523E-008  0.1834644E+04  0.7818608E-02  0.8688090E-01
          1   -1    0    0  501    0  0.00000000000E+00  0.00000000000E+00  0.61038319525E+03  0.61038319525E+03  0.00000000000E+00 0. -1.
         -1   -1    0    0    0  501 -0.00000000000E+00 -0.00000000000E+00 -0.13786093199E+04  0.13786093199E+04  0.00000000000E+00 0.  1.
         23    2    1    2    0    0 -0.21451822760E+03  0.64646335474E+03 -0.20121987711E+03  0.71594395379E+03  0.90295996804E+02 0.  0.
        254    2    1    2    0    0  0.21451822760E+03 -0.64646335474E+03 -0.56700624753E+03  0.12730485614E+04  0.91390569308E+03 0.  0.
         23    2    4    4    0    0 -0.23913587765E+03 -0.11331025999E+03  0.10481125810E+03  0.29858713540E+03  0.90242421293E+02 0.  0.
         23    2    4    4    0    0  0.45365410525E+03 -0.53315309474E+03 -0.67181750563E+03  0.97446142596E+03  0.90454630372E+02 0.  0.
          3    1    3    3  502    0 -0.42461378008E+02  0.18078887477E+03 -0.93626789956E+02  0.20797490632E+03  0.00000000000E+00 0. -1.
         -3    1    3    3    0  502 -0.17205684959E+03  0.46567447997E+03 -0.10759308716E+03  0.50796904747E+03  0.00000000000E+00 0.  1.
         11    1    5    5    0    0 -0.14141607055E+03 -0.74465930131E+02  0.15413561108E+02  0.16056543098E+03  0.00000000000E+00 0. -1.
        -11    1    5    5    0    0 -0.97719807097E+02 -0.38844329863E+02  0.89397696995E+02  0.13802170441E+03  0.00000000000E+00 0.  1.
          3    1    6    6  503    0  0.15835269904E+03 -0.12678145680E+03 -0.17429471919E+03  0.26744675025E+03  0.00000000000E+00 0. -1.
         -3    1    6    6    0  503  0.29530140621E+03 -0.40637163794E+03 -0.49752278644E+03  0.70701467570E+03  0.00000000000E+00 0.  1.
<mgrwt>
<rscale>  0 0.18346443E+04</rscale>
<asrwt>0</asrwt>
<pdfrwt beam="1">  1        1 0.93905107E-01 0.18346443E+04</pdfrwt>
<pdfrwt beam="2">  1       -1 0.21209374E+00 0.18346443E+04</pdfrwt>
<totfact> 0.39097099E+00</totfact>
</mgrwt>
</event>
<event>
12    2  0.3623523E-008  0.1815043E+04  0.7818608E-02  0.8698340E-01
         -2   -1    0    0    0  501 -0.00000000000E+00  0.00000000000E+00  0.63025412429E+03  0.63025412429E+03  0.00000000000E+00 0.  1.
          2   -1    0    0  501    0  0.00000000000E+00 -0.00000000000E+00 -0.13067674402E+04  0.13067674402E+04  0.00000000000E+00 0. -1.
         23    2    1    2    0    0 -0.56189507564E+03  0.21908653766E+03 -0.61394683459E+03  0.86816680578E+03  0.11427116852E+03 0.  0.
        254    2    1    2    0    0  0.56189507564E+03 -0.21908653766E+03 -0.62566481310E+02  0.10688547587E+04  0.88023345971E+03 0.  0.
         23    2    4    4    0    0  0.54255572634E+03  0.22100128584E+03 -0.14672650946E+03  0.61157072758E+03  0.96342107739E+02 0.  0.
         23    2    4    4    0    0  0.19339349293E+02 -0.44008782350E+03  0.84160028149E+02  0.45728403112E+03  0.89299898960E+02 0.  0.
          3    1    3    3  502    0 -0.56358832964E+03  0.22539093362E+03 -0.60998093420E+03  0.86052868538E+03  0.00000000000E+00 0. -1.
         -3    1    3    3    0  502  0.16932540058E+01 -0.63043959542E+01 -0.39659003841E+01  0.76381204057E+01  0.00000000000E+00 0.  1.
         11    1    5    5    0    0  0.28602939496E+03  0.11348181694E+03 -0.12644349931E+03  0.33268437907E+03  0.00000000000E+00 0. -1.
        -11    1    5    5    0    0  0.25652633138E+03  0.10751946890E+03 -0.20283010144E+02  0.27888634851E+03  0.00000000000E+00 0.  1.
          3    1    6    6  503    0  0.37550071631E+02 -0.74746021647E+02  0.17704748742E+02  0.85501074610E+02  0.00000000000E+00 0. -1.
         -3    1    6    6    0  503 -0.18210722337E+02 -0.36534180185E+03  0.66455279407E+02  0.37178295651E+03  0.00000000000E+00 0.  1.
<mgrwt>
<rscale>  0 0.18150433E+04</rscale>
<asrwt>0</asrwt>
<pdfrwt beam="1">  1        2 0.20104114E+00 0.18150433E+04</pdfrwt>
<pdfrwt beam="2">  1       -2 0.96962174E-01 0.18150433E+04</pdfrwt>
<totfact> 0.13724852E+01</totfact>
</mgrwt>
</event>
<event>
12    2  0.3623523E-008  0.1579082E+04  0.7818608E-02  0.8833503E-01
          2   -1    0    0  501    0  0.00000000000E+00  0.00000000000E+00  0.75859547639E+03  0.75859547639E+03  0.00000000000E+00 0. -1.
         -2   -1    0    0    0  501 -0.00000000000E+00 -0.00000000000E+00 -0.82174851927E+03  0.82174851927E+03  0.00000000000E+00 0.  1.
         23    2    1    2    0    0  0.37466611090E+03  0.36433667880E+03  0.73823256733E+02  0.53551492009E+03  0.90611512671E+02 0.  0.
        254    2    1    2    0    0 -0.37466611090E+03 -0.36433667880E+03 -0.13697629961E+03  0.10448290756E+04  0.89430944327E+03 0.  0.
         23    2    4    4    0    0 -0.43154872487E+03 -0.55127343034E+03  0.11252774393E+03  0.71486818225E+03  0.90759726199E+02 0.  0.
         23    2    4    4    0    0  0.56882613971E+02  0.18693675154E+03 -0.24950404354E+03  0.32996089332E+03  0.91874602210E+02 0.  0.
          1    1    3    3  502    0  0.29479835130E+03  0.24295765505E+03  0.27464158663E+02  0.38299969985E+03  0.00000000000E+00 0. -1.
         -1    1    3    3    0  502  0.79867759600E+02  0.12137902375E+03  0.46359098070E+02  0.15251522024E+03  0.00000000000E+00 0.  1.
         11    1    5    5    0    0 -0.36894107002E+03 -0.44762103452E+03  0.61005115855E+02  0.58326985851E+03  0.00000000000E+00 0.  1.
        -11    1    5    5    0    0 -0.62607654845E+02 -0.10365239583E+03  0.51522628075E+02  0.13159832373E+03  0.00000000000E+00 0. -1.
          4    1    6    6  503    0  0.64215673579E+02  0.19257036154E+03 -0.22140042926E+03  0.30037501053E+03  0.00000000000E+00 0.  1.
         -4    1    6    6    0  503 -0.73330596079E+01 -0.56336099994E+01 -0.28103614280E+02  0.29585882790E+02  0.00000000000E+00 0. -1.
<mgrwt>
<rscale>  0 0.15790816E+04</rscale>
<asrwt>0</asrwt>
<pdfrwt beam="1">  1        2 0.11670700E+00 0.15790816E+04</pdfrwt>
<pdfrwt beam="2">  1       -2 0.12642285E+00 0.15790816E+04</pdfrwt>
<totfact> 0.16534622E+01</totfact>
</mgrwt>
</event>
<event>
12    2  0.3623523E-008  0.2900998E+04  0.7818608E-02  0.8272580E-01
         -2   -1    0    0    0  501 -0.00000000000E+00  0.00000000000E+00  0.14597134719E+04  0.14597134719E+04  0.00000000000E+00 0.  1.
          2   -1    0    0  501    0  0.00000000000E+00 -0.00000000000E+00 -0.14413431478E+04  0.14413431478E+04  0.00000000000E+00 0. -1.
         23    2    1    2    0    0  0.93985515045E+03  0.65549904172E+03  0.63908753574E+03  0.13151941760E+04  0.91083174283E+02 0.  0.
        254    2    1    2    0    0 -0.93985515045E+03 -0.65549904172E+03 -0.62071721160E+03  0.15858624438E+04  0.90369416083E+03 0.  0.
         23    2    4    4    0    0 -0.17406878655E+03 -0.43417111068E+03 -0.62114838142E+03  0.78370914431E+03  0.97827477401E+02 0.  0.
         23    2    4    4    0    0 -0.76578636390E+03 -0.22132793104E+03  0.43116981602E+00  0.80215329948E+03  0.89637725100E+02 0.  0.
          4    1    3    3  502    0  0.17224863274E+03  0.14849841801E+03  0.15930553374E+03  0.27766819175E+03  0.00000000000E+00 0. -1.
         -4    1    3    3    0  502  0.76760651771E+03  0.50700062371E+03  0.47978200200E+03  0.10375259842E+04  0.00000000000E+00 0.  1.
         11    1    5    5    0    0 -0.99923535559E+02 -0.16387563104E+03 -0.31297654658E+03  0.36714336997E+03  0.00000000000E+00 0.  1.
        -11    1    5    5    0    0 -0.74145250986E+02 -0.27029547964E+03 -0.30817183484E+03  0.41656577433E+03  0.00000000000E+00 0. -1.
          4    1    6    6  503    0 -0.74817604905E+03 -0.20354931322E+03 -0.89672551796E+01  0.77542255252E+03  0.00000000000E+00 0. -1.
         -4    1    6    6    0  503 -0.17610314849E+02 -0.17778617820E+02  0.93984249956E+01  0.26730746960E+02  0.00000000000E+00 0.  1.
<mgrwt>
<rscale>  0 0.29009985E+04</rscale>
<asrwt>0</asrwt>
<pdfrwt beam="1">  1        2 0.22174510E+00 0.29009985E+04</pdfrwt>
<pdfrwt beam="2">  1       -2 0.22457130E+00 0.29009985E+04</pdfrwt>
<totfact> 0.10937889E+00</totfact>
</mgrwt>
</event>
<event>
12    2  0.3623523E-008  0.1366407E+04  0.7818608E-02  0.8978500E-01
         -2   -1    0    0    0  501 -0.00000000000E+00  0.00000000000E+00  0.32087985641E+03  0.32087985641E+03  0.00000000000E+00 0.  1.
          2   -1    0    0  501    0  0.00000000000E+00 -0.00000000000E+00 -0.14546481659E+04  0.14546481659E+04  0.00000000000E+00 0. -1.
         23    2    1    2    0    0 -0.90865811283E+02 -0.20204103917E+03 -0.71188866849E+03  0.75148204402E+03  0.94141430851E+02 0.  0.
        254    2    1    2    0    0  0.90865811283E+02  0.20204103917E+03 -0.42187964100E+03  0.10240459783E+04  0.90642735892E+03 0.  0.
         23    2    4    4    0    0 -0.24061294213E+03  0.37689184443E+02 -0.56095964583E+03  0.61841814822E+03  0.91925074130E+02 0.  0.
         23    2    4    4    0    0  0.33147875341E+03  0.16435185473E+03  0.13908000482E+03  0.40562783008E+03  0.91109783631E+02 0.  0.
          4    1    3    3  502    0 -0.11009634511E+03 -0.18316872753E+03 -0.62709790788E+03  0.66251322554E+03  0.00000000000E+00 0. -1.
         -4    1    3    3    0  502  0.19230533825E+02 -0.18872311639E+02 -0.84790760607E+02  0.88968818482E+02  0.00000000000E+00 0.  1.
         11    1    5    5    0    0 -0.90648401381E+00  0.19829931344E+02 -0.47433865579E+02  0.51420030087E+02  0.00000000000E+00 0. -1.
        -11    1    5    5    0    0 -0.23970645812E+03  0.17859253098E+02 -0.51352578025E+03  0.56699811813E+03  0.00000000000E+00 0.  1.
          1    1    6    6  503    0  0.51152214557E+02  0.53589378159E+02  0.56308880019E+02  0.93054072853E+02  0.00000000000E+00 0. -1.
         -1    1    6    6    0  503  0.28032653886E+03  0.11076247657E+03  0.82771124804E+02  0.31257375722E+03  0.00000000000E+00 0.  1.
<mgrwt>
<rscale>  0 0.13664074E+04</rscale>
<asrwt>0</asrwt>
<pdfrwt beam="1">  1        2 0.22379202E+00 0.13664074E+04</pdfrwt>
<pdfrwt beam="2">  1       -2 0.49366132E-01 0.13664074E+04</pdfrwt>
<totfact> 0.51023061E+01</totfact>
</mgrwt>
</event>
<event>
12    2  0.3623523E-008  0.1485691E+04  0.7818608E-02  0.8894025E-01
          1   -1    0    0  501    0  0.00000000000E+00  0.00000000000E+00  0.94766658984E+03  0.94766658984E+03  0.00000000000E+00 0. -1.
         -1   -1    0    0    0  501 -0.00000000000E+00 -0.00000000000E+00 -0.58229263433E+03  0.58229263433E+03  0.00000000000E+00 0.  1.
         23    2    1    2    0    0 -0.11364956747E+03  0.24023348336E+03  0.58534781173E+03  0.64928464875E+03  0.91159989508E+02 0.  0.
        254    2    1    2    0    0  0.11364956747E+03 -0.24023348336E+03 -0.21997385622E+03  0.88067457543E+03  0.81029060199E+03 0.  0.
         23    2    4    4    0    0  0.32049187399E+03 -0.75419932300E+02  0.18349426010E+03  0.38968716833E+03  0.98907725663E+02 0.  0.
         23    2    4    4    0    0 -0.20684230652E+03 -0.16481355106E+03 -0.40346811632E+03  0.49098740709E+03  0.91295490888E+02 0.  0.
          3    1    3    3  502    0 -0.39165004602E+02  0.12252937703E+03  0.37974316219E+03  0.40093916628E+03  0.00000000000E+00 0. -1.
         -3    1    3    3    0  502 -0.74484562867E+02  0.11770410633E+03  0.20560464954E+03  0.24834548247E+03  0.00000000000E+00 0.  1.
         11    1    5    5    0    0  0.13651402417E+03  0.86217237285E+00  0.11676350812E+03  0.17964002606E+03  0.00000000000E+00 0. -1.
        -11    1    5    5    0    0  0.18397784981E+03 -0.76282104672E+02  0.66730751981E+02  0.21004714227E+03  0.00000000000E+00 0.  1.
          3    1    6    6  503    0 -0.75413357607E+01 -0.47174605009E+02 -0.57611797788E+02  0.74842730757E+02  0.00000000000E+00 0. -1.
         -3    1    6    6    0  503 -0.19930097076E+03 -0.11763894605E+03 -0.34585631853E+03  0.41614467634E+03  0.00000000000E+00 0.  1.
<mgrwt>
<rscale>  0 0.14856908E+04</rscale>
<asrwt>0</asrwt>
<pdfrwt beam="1">  1        1 0.14579486E+00 0.14856908E+04</pdfrwt>
<pdfrwt beam="2">  1       -1 0.89583483E-01 0.14856908E+04</pdfrwt>
<totfact> 0.19679930E+01</totfact>
</mgrwt>
</event>
<event>
12    2  0.3623523E-008  0.1402129E+04  0.7818608E-02  0.8952279E-01
          1   -1    0    0  501    0  0.00000000000E+00  0.00000000000E+00  0.35117578778E+03  0.35117578778E+03  0.00000000000E+00 0. -1.
         -1   -1    0    0    0  501 -0.00000000000E+00 -0.00000000000E+00 -0.13995600408E+04  0.13995600408E+04  0.00000000000E+00 0.  1.
         23    2    1    2    0    0 -0.41230514075E+02 -0.11874747530E+03 -0.79414488906E+03  0.80904385464E+03  0.89916270601E+02 0.  0.
        254    2    1    2    0    0  0.41230514075E+02  0.11874747530E+03 -0.25423936392E+03  0.94169197391E+03  0.89796726075E+03 0.  0.
         23    2    4    4    0    0  0.38374690685E+03  0.25660873864E+03 -0.30140715432E+03  0.55887499622E+03  0.91571040546E+02 0.  0.
         23    2    4    4    0    0 -0.34251639278E+03 -0.13786126334E+03  0.47167790391E+02  0.38281697769E+03  0.89447362767E+02 0.  0.
          1    1    3    3  502    0 -0.38101307553E+02 -0.12362557261E+03 -0.79254254123E+03  0.80303092811E+03  0.00000000000E+00 0.  1.
         -1    1    3    3    0  502 -0.31292065221E+01  0.48780973088E+01 -0.16023478290E+01  0.60129265235E+01  0.00000000000E+00 0. -1.
         11    1    5    5    0    0  0.44232038473E+02  0.39421591268E+02 -0.67939071915E+01  0.59638010199E+02  0.00000000000E+00 0. -1.
        -11    1    5    5    0    0  0.33951486838E+03  0.21718714737E+03 -0.29461324712E+03  0.49923698602E+03  0.00000000000E+00 0.  1.
          4    1    6    6  503    0 -0.11832481215E+03 -0.60922034963E+02 -0.24220645208E+02  0.13527340895E+03  0.00000000000E+00 0. -1.
         -4    1    6    6    0  503 -0.22419158063E+03 -0.76939228374E+02  0.71388435599E+02  0.24754356874E+03  0.00000000000E+00 0.  1.
<mgrwt>
<rscale>  0 0.14021292E+04</rscale>
<asrwt>0</asrwt>
<pdfrwt beam="1">  1        1 0.54027044E-01 0.14021292E+04</pdfrwt>
<pdfrwt beam="2">  1       -1 0.21531693E+00 0.14021292E+04</pdfrwt>
<totfact> 0.82262836E+00</totfact>
</mgrwt>
</event>
<event>
12    2  0.3623523E-008  0.1822247E+04  0.7818608E-02  0.8694557E-01
         -2   -1    0    0    0  501 -0.00000000000E+00  0.00000000000E+00  0.60198835144E+03  0.60198835144E+03  0.00000000000E+00 0.  1.
          2   -1    0    0  501    0  0.00000000000E+00 -0.00000000000E+00 -0.13790068535E+04  0.13790068535E+04  0.00000000000E+00 0. -1.
         23    2    1    2    0    0 -0.74714945834E+01  0.68073636798E+03 -0.44633948781E+03  0.81933864710E+03  0.92946513351E+02 0.  0.
        254    2    1    2    0    0  0.74714945834E+01 -0.68073636798E+03 -0.33067901428E+03  0.11616565579E+04  0.88127153707E+03 0.  0.
         23    2    4    4    0    0  0.10316731916E+02  0.19689108503E+03 -0.14152551132E+03  0.25881882168E+03  0.89917616639E+02 0.  0.
         23    2    4    4    0    0 -0.28452373323E+01 -0.87762745300E+03 -0.18915350296E+03  0.90283773619E+03  0.95388094460E+02 0.  0.
          2    1    3    3  502    0 -0.10242038102E+02  0.68192903699E+03 -0.44790953077E+03  0.81593814630E+03  0.00000000000E+00 0. -1.
         -2    1    3    3    0  502  0.27705435184E+01 -0.11926690161E+01  0.15700429654E+01  0.34005007988E+01  0.00000000000E+00 0.  1.
         11    1    5    5    0    0  0.28923622453E+02  0.12887359889E+02 -0.18089332473E+02  0.36467573679E+02  0.00000000000E+00 0. -1.
        -11    1    5    5    0    0 -0.18606890537E+02  0.18400372514E+03 -0.12343617885E+03  0.22235124800E+03  0.00000000000E+00 0.  1.
          3    1    6    6  503    0 -0.23284068800E+02 -0.74050209124E+03 -0.18733420719E+03  0.76418557967E+03  0.00000000000E+00 0. -1.
         -3    1    6    6    0  503  0.20438831467E+02 -0.13712536177E+03 -0.18192957686E+01  0.13865215652E+03  0.00000000000E+00 0.  1.
<mgrwt>
<rscale>  0 0.18222470E+04</rscale>
<asrwt>0</asrwt>
<pdfrwt beam="1">  1        2 0.21215490E+00 0.18222470E+04</pdfrwt>
<pdfrwt beam="2">  1       -2 0.92613594E-01 0.18222470E+04</pdfrwt>
<totfact> 0.13867708E+01</totfact>
</mgrwt>
</event>
<event>
12    2  0.3623523E-008  0.1578124E+04  0.7818608E-02  0.8834101E-01
          1   -1    0    0  501    0  0.00000000000E+00  0.00000000000E+00  0.53232710280E+03  0.53232710280E+03  0.00000000000E+00 0. -1.
         -1   -1    0    0    0  501 -0.00000000000E+00 -0.00000000000E+00 -0.11696164922E+04  0.11696164922E+04  0.00000000000E+00 0.  1.
         23    2    1    2    0    0 -0.30953224035E+03 -0.10571876902E+03 -0.72581134379E+03  0.80124561259E+03  0.90585644436E+02 0.  0.
        254    2    1    2    0    0  0.30953224035E+03  0.10571876902E+03  0.88521954383E+02  0.90069798241E+03  0.83452624475E+03 0.  0.
         23    2    4    4    0    0  0.16242807217E+03  0.25505291010E+03  0.40290664386E+03  0.51186983539E+03  0.90786007342E+02 0.  0.
         23    2    4    4    0    0  0.14710416818E+03 -0.14933414108E+03 -0.31438468948E+03  0.38882814703E+03  0.91702088056E+02 0.  0.
          4    1    3    3  502    0 -0.28780383700E+03 -0.11855311167E+03 -0.63800317056E+03  0.70988304285E+03  0.00000000000E+00 0.  1.
         -4    1    3    3    0  502 -0.21728403349E+02  0.12834342652E+02 -0.87808173222E+02  0.91362569732E+02  0.00000000000E+00 0. -1.
         11    1    5    5    0    0  0.74268793883E+02  0.19347715373E+03  0.28361276334E+03  0.35126266851E+03  0.00000000000E+00 0.  1.
        -11    1    5    5    0    0  0.88159278289E+02  0.61575756363E+02  0.11929388052E+03  0.16060716687E+03  0.00000000000E+00 0. -1.
          1    1    6    6  503    0  0.11070969832E+03 -0.49119731871E+02 -0.14841119043E+03  0.19156008667E+03  0.00000000000E+00 0. -1.
         -1    1    6    6    0  503  0.36394469860E+02 -0.10021440921E+03 -0.16597349905E+03  0.19726806036E+03  0.00000000000E+00 0.  1.
<mgrwt>
<rscale>  0 0.15781236E+04</rscale>
<asrwt>0</asrwt>
<pdfrwt beam="1">  1        1 0.81896477E-01 0.15781236E+04</pdfrwt>
<pdfrwt beam="2">  1       -1 0.17994100E+00 0.15781236E+04</pdfrwt>
<totfact> 0.81322323E+00</totfact>
</mgrwt>
</event>
<event>
12    2  0.3623523E-008  0.1456236E+04  0.7818608E-02  0.8914089E-01
          1   -1    0    0  501    0  0.00000000000E+00  0.00000000000E+00  0.15489678602E+04  0.15489678602E+04  0.00000000000E+00 0. -1.
         -1   -1    0    0    0  501 -0.00000000000E+00 -0.00000000000E+00 -0.34226375088E+03  0.34226375088E+03  0.00000000000E+00 0.  1.
         23    2    1    2    0    0  0.48786229801E+02 -0.40707741327E+03  0.51507269902E+03  0.66488051767E+03  0.93134853226E+02 0.  0.
        254    2    1    2    0    0 -0.48786229801E+02  0.40707741327E+03  0.69163141028E+03  0.12263510934E+04  0.92600803449E+03 0.  0.
         23    2    4    4    0    0 -0.42578142715E+03  0.40416852779E+03  0.26605525196E+03  0.65080120373E+03  0.90082113184E+02 0.  0.
         23    2    4    4    0    0  0.37699519735E+03  0.29088854790E+01  0.42557615832E+03  0.57554988965E+03  0.89491723146E+02 0.  0.
          4    1    3    3  502    0  0.27469582297E+02 -0.59259100355E+02  0.13036331492E+03  0.14581088026E+03  0.00000000000E+00 0. -1.
         -4    1    3    3    0  502  0.21316647504E+02 -0.34781831292E+03  0.38470938410E+03  0.51906963741E+03  0.00000000000E+00 0.  1.
         11    1    5    5    0    0 -0.37823063368E+03  0.32957411430E+03  0.19859756815E+03  0.53955398539E+03  0.00000000000E+00 0. -1.
        -11    1    5    5    0    0 -0.47550793465E+02  0.74594413498E+02  0.67457683807E+02  0.11124721834E+03  0.00000000000E+00 0.  1.
          1    1    6    6  503    0  0.30648748178E+03  0.19671665468E+02  0.38500341731E+03  0.49249282457E+03  0.00000000000E+00 0. -1.
         -1    1    6    6    0  503  0.70507715566E+02 -0.16762779989E+02  0.40572741007E+02  0.83057065083E+02  0.00000000000E+00 0.  1.
<mgrwt>
<rscale>  0 0.14562356E+04</rscale>
<asrwt>0</asrwt>
<pdfrwt beam="1">  1        1 0.23830274E+00 0.14562356E+04</pdfrwt>
<pdfrwt beam="2">  1       -1 0.52655962E-01 0.14562356E+04</pdfrwt>
<totfact> 0.21348666E+01</totfact>
</mgrwt>
</event>
<event>
12    2  0.3623523E-008  0.1464799E+04  0.7818608E-02  0.8908204E-01
         -3   -1    0    0    0  501 -0.00000000000E+00  0.00000000000E+00  0.11211531578E+04  0.11211531578E+04  0.00000000000E+00 0.  1.
          3   -1    0    0  501    0  0.00000000000E+00 -0.00000000000E+00 -0.47844433823E+03  0.47844433823E+03  0.00000000000E+00 0. -1.
         23    2    1    2    0    0  0.28655593217E+03 -0.21009188214E+03 -0.10839005990E+03  0.38338498306E+03  0.94777312426E+02 0.  0.
        254    2    1    2    0    0 -0.28655593217E+03  0.21009188214E+03  0.75109887948E+03  0.12162125130E+04  0.88812749578E+03 0.  0.
         23    2    4    4    0    0 -0.47151906303E+03  0.96771850886E+02  0.66640128252E+02  0.49235693196E+03  0.79242815662E+02 0.  0.
         23    2    4    4    0    0  0.18496313086E+03  0.11332003125E+03  0.68445875123E+03  0.72385558101E+03  0.91816832706E+02 0.  0.
          2    1    3    3  502    0  0.20268277968E+03 -0.19595172377E+03 -0.93617582273E+02  0.29705494262E+03  0.00000000000E+00 0. -1.
         -2    1    3    3    0  502  0.83873152487E+02 -0.14140158374E+02 -0.14772477626E+02  0.86330040439E+02  0.00000000000E+00 0.  1.
         11    1    5    5    0    0 -0.65811035513E+01  0.19428347864E+01  0.13161328239E+02  0.14842711746E+02  0.00000000000E+00 0.  1.
        -11    1    5    5    0    0 -0.46493795948E+03  0.94829016099E+02  0.53478800013E+02  0.47751422022E+03  0.00000000000E+00 0. -1.
          3    1    6    6  503    0  0.15634815127E+03  0.57791626458E+02  0.56464941047E+03  0.58873896867E+03  0.00000000000E+00 0. -1.
         -3    1    6    6    0  503  0.28614979591E+02  0.55528404796E+02  0.11980934076E+03  0.13511661234E+03  0.00000000000E+00 0.  1.
<mgrwt>
<rscale>  0 0.14647995E+04</rscale>
<asrwt>0</asrwt>
<pdfrwt beam="1">  1        3 0.73606821E-01 0.14647995E+04</pdfrwt>
<pdfrwt beam="2">  1       -3 0.17248510E+00 0.14647995E+04</pdfrwt>
<totfact> 0.98687873E-01</totfact>
</mgrwt>
</event>
<event>
12    2  0.3623523E-008  0.2021288E+04  0.7818608E-02  0.8596732E-01
          1   -1    0    0  501    0  0.00000000000E+00  0.00000000000E+00  0.36876761459E+04  0.36876761459E+04  0.00000000000E+00 0. -1.
         -1   -1    0    0    0  501 -0.00000000000E+00 -0.00000000000E+00 -0.27697703810E+03  0.27697703810E+03  0.00000000000E+00 0.  1.
         23    2    1    2    0    0 -0.61473662050E+01 -0.27782726685E+03  0.28480355755E+04  0.28629703345E+04  0.89814904320E+02 0.  0.
        254    2    1    2    0    0  0.61473662050E+01  0.27782726685E+03  0.56266353236E+03  0.11016828495E+04  0.90547726082E+03 0.  0.
         23    2    4    4    0    0  0.32645455812E+03 -0.13974544627E+03  0.39795907978E+03  0.54105608404E+03  0.90933429675E+02 0.  0.
         23    2    4    4    0    0 -0.32030719191E+03  0.41757271312E+03  0.16470445258E+03  0.56062676543E+03  0.10105021269E+03 0.  0.
          4    1    3    3  502    0  0.22843049163E+02 -0.24126559365E+03  0.25212376410E+04  0.25328580959E+04  0.00000000000E+00 0. -1.
         -4    1    3    3    0  502 -0.28990415368E+02 -0.36561673198E+02  0.32679793448E+03  0.33011223865E+03  0.00000000000E+00 0.  1.
         11    1    5    5    0    0  0.11238157047E+03 -0.81828817036E+01  0.94410104018E+02  0.14700287301E+03  0.00000000000E+00 0. -1.
        -11    1    5    5    0    0  0.21407298765E+03 -0.13156256456E+03  0.30354897576E+03  0.39405321103E+03  0.00000000000E+00 0.  1.
          1    1    6    6  503    0 -0.19467708069E+03  0.23876792079E+03  0.14710261502E+03  0.34139195229E+03  0.00000000000E+00 0. -1.
         -1    1    6    6    0  503 -0.12563011122E+03  0.17880479233E+03  0.17601837556E+02  0.21923481313E+03  0.00000000000E+00 0.  1.
<mgrwt>
<rscale>  0 0.20212883E+04</rscale>
<asrwt>0</asrwt>
<pdfrwt beam="1">  1        1 0.56733475E+00 0.20212883E+04</pdfrwt>
<pdfrwt beam="2">  1       -1 0.42611855E-01 0.20212883E+04</pdfrwt>
<totfact> 0.89121767E-01</totfact>
</mgrwt>
</event>
<event>
12    2  0.3623523E-008  0.1412496E+04  0.7818608E-02  0.8944823E-01
         -2   -1    0    0    0  501 -0.00000000000E+00  0.00000000000E+00  0.26420035492E+03  0.26420035492E+03  0.00000000000E+00 0.  1.
          2   -1    0    0  501    0  0.00000000000E+00 -0.00000000000E+00 -0.18879082977E+04  0.18879082977E+04  0.00000000000E+00 0. -1.
         23    2    1    2    0    0  0.27567350702E+03  0.15948257715E+03 -0.82386193952E+02  0.34120581457E+03  0.90572336063E+02 0.  0.
        254    2    1    2    0    0 -0.27567350702E+03 -0.15948257715E+03 -0.15413217488E+04  0.18109028380E+04  0.89569290524E+03 0.  0.
         23    2    4    4    0    0 -0.50853531475E+03 -0.30408109482E+03 -0.70465759544E+03  0.92535346818E+03  0.93076504433E+02 0.  0.
         23    2    4    4    0    0  0.23286180774E+03  0.14459851767E+03 -0.83666415337E+03  0.88554936984E+03  0.95170521049E+02 0.  0.
          3    1    3    3  502    0  0.41694085271E+02  0.64121193012E+02 -0.35094746946E+02  0.84152037427E+02  0.00000000000E+00 0. -1.
         -3    1    3    3    0  502  0.23397942175E+03  0.95361384133E+02 -0.47291447005E+02  0.25705377715E+03  0.00000000000E+00 0.  1.
         11    1    5    5    0    0 -0.32835549115E+03 -0.20779622823E+03 -0.39272227538E+03  0.55247387867E+03  0.00000000000E+00 0. -1.
        -11    1    5    5    0    0 -0.18017982360E+03 -0.96284866590E+02 -0.31193532006E+03  0.37287958951E+03  0.00000000000E+00 0.  1.
          3    1    6    6  503    0  0.81319347912E+02  0.36953843306E+02 -0.41859162076E+03  0.42801561636E+03  0.00000000000E+00 0. -1.
         -3    1    6    6    0  503  0.15154245982E+03  0.10764467437E+03 -0.41807253261E+03  0.45753375347E+03  0.00000000000E+00 0.  1.
<mgrwt>
<rscale>  0 0.14124957E+04</rscale>
<asrwt>0</asrwt>
<pdfrwt beam="1">  1        2 0.29044742E+00 0.14124957E+04</pdfrwt>
<pdfrwt beam="2">  1       -2 0.40646210E-01 0.14124957E+04</pdfrwt>
<totfact> 0.42987875E+01</totfact>
</mgrwt>
</event>
<event>
12    2  0.3623523E-008  0.1911606E+04  0.7818608E-02  0.8649101E-01
         -2   -1    0    0    0  501 -0.00000000000E+00  0.00000000000E+00  0.20535208001E+04  0.20535208001E+04  0.00000000000E+00 0. -1.
          2   -1    0    0  501    0  0.00000000000E+00 -0.00000000000E+00 -0.44487446059E+03  0.44487446059E+03  0.00000000000E+00 0.  1.
         23    2    1    2    0    0  0.50387321053E+03  0.96176060950E+01  0.13341808697E+04  0.14289397064E+04  0.88596731368E+02 0.  0.
        254    2    1    2    0    0 -0.50387321053E+03 -0.96176060950E+01  0.27446546984E+03  0.10694555543E+04  0.90245397550E+03 0.  0.
         23    2    4    4    0    0 -0.32710977671E+02 -0.24243893010E+03  0.43956482808E+03  0.51130548519E+03  0.91484524467E+02 0.  0.
         23    2    4    4    0    0 -0.47116223286E+03  0.23282132400E+03 -0.16509935824E+03  0.55815006913E+03  0.89855901273E+02 0.  0.
          2    1    3    3  502    0  0.17385497370E+03  0.44069780407E+02  0.43755842662E+03  0.47289012903E+03  0.00000000000E+00 0. -1.
         -2    1    3    3    0  502  0.33001823684E+03 -0.34452174312E+02  0.89662244306E+03  0.95604957736E+03  0.00000000000E+00 0.  1.
         11    1    5    5    0    0  0.56158541323E+01  0.54761403871E+01  0.30100020054E+02  0.31105259016E+02  0.00000000000E+00 0.  1.
        -11    1    5    5    0    0 -0.38326831803E+02 -0.24791507049E+03  0.40946480803E+03  0.48020022618E+03  0.00000000000E+00 0. -1.
          3    1    6    6  503    0 -0.36968645378E+03  0.21316436589E+03 -0.15610951109E+03  0.45439773376E+03  0.00000000000E+00 0. -1.
         -3    1    6    6    0  503 -0.10147577909E+03  0.19656958110E+02 -0.89898471454E+01  0.10375233537E+03  0.00000000000E+00 0.  1.
<mgrwt>
<rscale>  0 0.19116056E+04</rscale>
<asrwt>0</asrwt>
<pdfrwt beam="1">  1        2 0.68442226E-01 0.19116056E+04</pdfrwt>
<pdfrwt beam="2">  1       -2 0.31592627E+00 0.19116056E+04</pdfrwt>
<totfact> 0.16759247E+00</totfact>
</mgrwt>
</event>
<event>
12    2  0.3623523E-008  0.1807354E+04  0.7818608E-02  0.8702398E-01
         -1   -1    0    0    0  501 -0.00000000000E+00  0.00000000000E+00  0.60624482608E+03  0.60624482608E+03  0.00000000000E+00 0.  1.
          1   -1    0    0  501    0  0.00000000000E+00 -0.00000000000E+00 -0.13470337790E+04  0.13470337790E+04  0.00000000000E+00 0. -1.
         23    2    1    2    0    0 -0.32460899914E+02 -0.66999830837E+03 -0.15668292982E+03  0.69475010522E+03  0.90425245155E+02 0.  0.
        254    2    1    2    0    0  0.32460899914E+02  0.66999830837E+03 -0.58410602310E+03  0.12585284999E+04  0.89037222300E+03 0.  0.
         23    2    4    4    0    0  0.40372511146E+03  0.42581095096E+03 -0.11375845216E+03  0.60487616371E+03  0.92872258537E+02 0.  0.
         23    2    4    4    0    0 -0.37126421155E+03  0.24418735741E+03 -0.47034757094E+03  0.65365233615E+03  0.92574071784E+02 0.  0.
          2    1    3    3  502    0 -0.41831933326E+02 -0.59079356040E+03 -0.16427446201E+03  0.61463244344E+03  0.00000000000E+00 0. -1.
         -2    1    3    3    0  502  0.93710334127E+01 -0.79204747967E+02  0.75915321921E+01  0.80117661778E+02  0.00000000000E+00 0.  1.
         11    1    5    5    0    0  0.16993223544E+03  0.11882541634E+03 -0.55256801844E+02  0.21459207431E+03  0.00000000000E+00 0. -1.
        -11    1    5    5    0    0  0.23379287603E+03  0.30698553462E+03 -0.58501650321E+02  0.39028408940E+03  0.00000000000E+00 0.  1.
          3    1    6    6  503    0 -0.53487437881E+02  0.50660823758E+02 -0.36835711710E+02  0.82366830291E+02  0.00000000000E+00 0. -1.
         -3    1    6    6    0  503 -0.31777677367E+03  0.19352653366E+03 -0.43351185923E+03  0.57128550586E+03  0.00000000000E+00 0.  1.
<mgrwt>
<rscale>  0 0.18073542E+04</rscale>
<asrwt>0</asrwt>
<pdfrwt beam="1">  1        1 0.20723597E+00 0.18073542E+04</pdfrwt>
<pdfrwt beam="2">  1       -1 0.93268435E-01 0.18073542E+04</pdfrwt>
<totfact> 0.88118461E+00</totfact>
</mgrwt>
</event>
<event>
12    2  0.3623523E-008  0.1518028E+04  0.7818608E-02  0.8872552E-01
          2   -1    0    0  501    0  0.00000000000E+00  0.00000000000E+00  0.27547408606E+04  0.27547408606E+04  0.00000000000E+00 0.  1.
         -2   -1    0    0    0  501 -0.00000000000E+00 -0.00000000000E+00 -0.20913129616E+03  0.20913129616E+03  0.00000000000E+00 0. -1.
         23    2    1    2    0    0 -0.48172188710E+03 -0.73219424140E+01  0.77412693532E+03  0.91627101780E+03  0.90390700317E+02 0.  0.
        254    2    1    2    0    0  0.48172188710E+03  0.73219424140E+01  0.17714826292E+04  0.20476011390E+04  0.90686831002E+03 0.  0.
         23    2    4    4    0    0  0.24613133804E+02  0.24775323765E+03  0.13475778591E+04  0.13729995595E+04  0.84700831457E+02 0.  0.
         23    2    4    4    0    0  0.45710875330E+03 -0.24043129523E+03  0.42390477002E+03  0.67460157950E+03  0.92932324599E+02 0.  0.
          4    1    3    3  502    0 -0.43871616462E+03 -0.13621996239E+02  0.74244178111E+03  0.86248317678E+03  0.00000000000E+00 0. -1.
         -4    1    3    3    0  502 -0.43005722477E+02  0.63000538255E+01  0.31685154216E+02  0.53787841020E+02  0.00000000000E+00 0.  1.
         11    1    5    5    0    0 -0.14123682106E+01  0.22336306907E+03  0.10644322492E+04  0.10876162322E+04  0.00000000000E+00 0. -1.
        -11    1    5    5    0    0  0.26025502014E+02  0.24390168581E+02  0.28314560994E+03  0.28538332731E+03  0.00000000000E+00 0.  1.
          4    1    6    6  503    0  0.29377211687E+03 -0.17973658963E+03  0.32851643704E+03  0.47595204350E+03  0.00000000000E+00 0. -1.
         -4    1    6    6    0  503  0.16333663642E+03 -0.60694705603E+02  0.95388332976E+02  0.19864953600E+03  0.00000000000E+00 0.  1.
<mgrwt>
<rscale>  0 0.15180284E+04</rscale>
<asrwt>0</asrwt>
<pdfrwt beam="1">  1        2 0.42380626E+00 0.15180284E+04</pdfrwt>
<pdfrwt beam="2">  1       -2 0.32174048E-01 0.15180284E+04</pdfrwt>
<totfact> 0.21463146E+01</totfact>
</mgrwt>
</event>
<event>
12    2  0.3623523E-008  0.2031817E+04  0.7818608E-02  0.8591888E-01
         -2   -1    0    0    0  501 -0.00000000000E+00  0.00000000000E+00  0.56894940673E+03  0.56894940673E+03  0.00000000000E+00 0.  1.
          2   -1    0    0  501    0  0.00000000000E+00 -0.00000000000E+00 -0.18139926952E+04  0.18139926952E+04  0.00000000000E+00 0. -1.
         23    2    1    2    0    0  0.53637121774E+03 -0.58057915100E+03 -0.25800263497E+03  0.83645113317E+03  0.91208029999E+02 0.  0.
        254    2    1    2    0    0 -0.53637121774E+03  0.58057915100E+03 -0.98704065348E+03  0.15464909687E+04  0.89029143034E+03 0.  0.
         23    2    4    4    0    0  0.18031513668E+03  0.11527263107E+03 -0.51685001310E+03  0.56679238230E+03  0.91204937419E+02 0.  0.
         23    2    4    4    0    0 -0.71668635442E+03  0.46530651993E+03 -0.47019064038E+03  0.97969858642E+03  0.92631494852E+02 0.  0.
          4    1    3    3  502    0  0.28403370172E+02 -0.25514712378E+02  0.68355587799E+01  0.38787586271E+02  0.00000000000E+00 0. -1.
         -4    1    3    3    0  502  0.50796784757E+03 -0.55506443862E+03 -0.26483819375E+03  0.79766354690E+03  0.00000000000E+00 0.  1.
         11    1    5    5    0    0  0.16256205430E+03  0.58810133090E+02 -0.36701648351E+03  0.40569218926E+03  0.00000000000E+00 0.  1.
        -11    1    5    5    0    0  0.17753082372E+02  0.56462497979E+02 -0.14983352958E+03  0.16110019304E+03  0.00000000000E+00 0. -1.
          3    1    6    6  503    0 -0.23801242077E+03  0.10389100072E+03 -0.14067460648E+03  0.29535165038E+03  0.00000000000E+00 0. -1.
         -3    1    6    6    0  503 -0.47867393365E+03  0.36141551921E+03 -0.32951603390E+03  0.68434693605E+03  0.00000000000E+00 0.  1.
<mgrwt>
<rscale>  0 0.20318170E+04</rscale>
<asrwt>0</asrwt>
<pdfrwt beam="1">  1        2 0.27907580E+00 0.20318170E+04</pdfrwt>
<pdfrwt beam="2">  1       -2 0.87530677E-01 0.20318170E+04</pdfrwt>
<totfact> 0.88490914E+00</totfact>
</mgrwt>
</event>
<event>
12    2  0.3623523E-008  0.2580352E+04  0.7818608E-02  0.8374906E-01
          1   -1    0    0  501    0  0.00000000000E+00  0.00000000000E+00  0.18866798362E+04  0.18866798362E+04  0.00000000000E+00 0. -1.
         -1   -1    0    0    0  501 -0.00000000000E+00 -0.00000000000E+00 -0.88226619223E+03  0.88226619223E+03  0.00000000000E+00 0.  1.
         23    2    1    2    0    0  0.85571529396E+03 -0.34493999664E+03 -0.26107148782E+03  0.96328623242E+03  0.92356798418E+02 0.  0.
        254    2    1    2    0    0 -0.85571529396E+03  0.34493999664E+03  0.12654851318E+04  0.18056597960E+04  0.89873378403E+03 0.  0.
         23    2    4    4    0    0 -0.48397806108E+03  0.49232729246E+03  0.30320708231E+03  0.75968317640E+03  0.92536842586E+02 0.  0.
         23    2    4    4    0    0 -0.37173723288E+03 -0.14738729582E+03  0.96227804948E+03  0.10459766196E+04  0.90423774402E+02 0.  0.
          4    1    3    3  502    0  0.44609473974E+03 -0.17743801670E+03 -0.87915360603E+02  0.48807159027E+03  0.00000000000E+00 0. -1.
         -4    1    3    3    0  502  0.40962055422E+03 -0.16750197994E+03 -0.17315612722E+03  0.47521464215E+03  0.00000000000E+00 0.  1.
         11    1    5    5    0    0 -0.35959070050E+03  0.32112182042E+03  0.17873703950E+03  0.51417081279E+03  0.00000000000E+00 0.  1.
        -11    1    5    5    0    0 -0.12438736058E+03  0.17120547204E+03  0.12447004281E+03  0.24551236361E+03  0.00000000000E+00 0. -1.
          2    1    6    6  503    0 -0.11116784256E+03 -0.79766957215E+02  0.39591960201E+03  0.41889543795E+03  0.00000000000E+00 0. -1.
         -2    1    6    6    0  503 -0.26056939032E+03 -0.67620338608E+02  0.56635844747E+03  0.62708118165E+03  0.00000000000E+00 0.  1.
<mgrwt>
<rscale>  0 0.25803518E+04</rscale>
<asrwt>0</asrwt>
<pdfrwt beam="1">  1        1 0.29025844E+00 0.25803518E+04</pdfrwt>
<pdfrwt beam="2">  1       -1 0.13573326E+00 0.25803518E+04</pdfrwt>
<totfact> 0.14255952E+00</totfact>
</mgrwt>
</event>
<event>
12    2  0.3623523E-008  0.2069043E+04  0.7818608E-02  0.8575004E-01
         -2   -1    0    0    0  501 -0.00000000000E+00  0.00000000000E+00  0.12541575185E+04  0.12541575185E+04  0.00000000000E+00 0. -1.
          2   -1    0    0  501    0  0.00000000000E+00 -0.00000000000E+00 -0.85334943635E+03  0.85334943635E+03  0.00000000000E+00 0.  1.
         23    2    1    2    0    0  0.72640391980E+02 -0.82664497172E+03  0.81253981906E+02  0.83935120966E+03  0.96383130121E+02 0.  0.
        254    2    1    2    0    0 -0.72640391980E+02  0.82664497172E+03  0.31955410022E+03  0.12681557452E+04  0.90414912221E+03 0.  0.
         23    2    4    4    0    0 -0.29072757827E+03 -0.10381919096E+02 -0.72944851871E+02  0.31415377587E+03  0.93495103980E+02 0.  0.
         23    2    4    4    0    0  0.21808718629E+03  0.83702689081E+03  0.39249895209E+03  0.95400196929E+03  0.88816064121E+02 0.  0.
          2    1    3    3  502    0  0.36178407750E+02 -0.24429656194E+03  0.66150807284E+02  0.25566700347E+03  0.00000000000E+00 0. -1.
         -2    1    3    3    0  502  0.36461984230E+02 -0.58234840978E+03  0.15103174622E+02  0.58368420619E+03  0.00000000000E+00 0.  1.
         11    1    5    5    0    0 -0.66584029783E+02 -0.33679588518E+02 -0.44847766494E+02  0.87057853548E+02  0.00000000000E+00 0. -1.
        -11    1    5    5    0    0 -0.22414354849E+03  0.23297669422E+02 -0.28097085377E+02  0.22709592232E+03  0.00000000000E+00 0.  1.
          3    1    6    6  503    0  0.19562107155E+03  0.76160767452E+03  0.38328778457E+03  0.87477047237E+03  0.00000000000E+00 0. -1.
         -3    1    6    6    0  503  0.22466114737E+02  0.75419216292E+02  0.92111675244E+01  0.79231496923E+02  0.00000000000E+00 0.  1.
<mgrwt>
<rscale>  0 0.20690429E+04</rscale>
<asrwt>0</asrwt>
<pdfrwt beam="1">  1        2 0.13128453E+00 0.20690429E+04</pdfrwt>
<pdfrwt beam="2">  1       -2 0.19294731E+00 0.20690429E+04</pdfrwt>
<totfact> 0.43178641E+00</totfact>
</mgrwt>
</event>
<event>
12    2  0.3623523E-008  0.2147736E+04  0.7818608E-02  0.8540502E-01
          1   -1    0    0  501    0  0.00000000000E+00  0.00000000000E+00  0.10039188476E+04  0.10039188476E+04  0.00000000000E+00 0. -1.
         -1   -1    0    0    0  501 -0.00000000000E+00 -0.00000000000E+00 -0.11486912463E+04  0.11486912463E+04  0.00000000000E+00 0.  1.
         23    2    1    2    0    0 -0.81134411604E+03  0.23887948581E+03  0.21670545986E+03  0.87549831382E+03  0.64756141008E+02 0.  0.
        254    2    1    2    0    0  0.81134411604E+03 -0.23887948581E+03 -0.36147785855E+03  0.12771117800E+04  0.88600540244E+03 0.  0.
         23    2    4    4    0    0  0.64232235037E+03  0.56501988210E+02 -0.57252914752E+03  0.86733210065E+03  0.93299901450E+02 0.  0.
         23    2    4    4    0    0  0.16902176566E+03 -0.29538147402E+03  0.21105128897E+03  0.40977967939E+03  0.86937716817E+02 0.  0.
          2    1    3    3  502    0 -0.14617787697E+02  0.14339651371E+02  0.60375765287E+01  0.21348481186E+02  0.00000000000E+00 0. -1.
         -2    1    3    3    0  502 -0.79672632834E+03  0.22453983444E+03  0.21066788333E+03  0.85414983263E+03  0.00000000000E+00 0.  1.
         11    1    5    5    0    0  0.40340338065E+03  0.63178394520E+02 -0.40756506751E+03  0.57691860891E+03  0.00000000000E+00 0. -1.
        -11    1    5    5    0    0  0.23891896972E+03 -0.66764063105E+01 -0.16496408001E+03  0.29041349174E+03  0.00000000000E+00 0.  1.
          4    1    6    6  503    0  0.84039686783E+02 -0.16122859354E+03  0.62315747247E+02  0.19219932540E+03  0.00000000000E+00 0.  1.
         -4    1    6    6    0  503  0.84982078881E+02 -0.13415288048E+03  0.14873554172E+03  0.21758035399E+03  0.00000000000E+00 0. -1.
<mgrwt>
<rscale>  0 0.21477363E+04</rscale>
<asrwt>0</asrwt>
<pdfrwt beam="1">  1        1 0.15444905E+00 0.21477363E+04</pdfrwt>
<pdfrwt beam="2">  1       -1 0.17672173E+00 0.21477363E+04</pdfrwt>
<totfact> 0.30241912E+00</totfact>
</mgrwt>
</event>
<event>
12    2  0.3623523E-008  0.1156066E+04  0.7818608E-02  0.9152205E-01
          1   -1    0    0  501    0  0.00000000000E+00  0.00000000000E+00  0.56936356746E+03  0.56936356746E+03  0.00000000000E+00 0. -1.
         -1   -1    0    0    0  501 -0.00000000000E+00 -0.00000000000E+00 -0.58683462598E+03  0.58683462598E+03  0.00000000000E+00 0.  1.
         23    2    1    2    0    0 -0.17683223855E+03 -0.11350964141E+03 -0.23964018236E+02  0.23079026363E+03  0.92389351832E+02 0.  0.
        254    2    1    2    0    0  0.17683223855E+03  0.11350964141E+03  0.64929597167E+01  0.92540792980E+03  0.90121229393E+03 0.  0.
         23    2    4    4    0    0 -0.15997851249E+03 -0.21688251127E+02 -0.35852198060E+03  0.40240427302E+03  0.85601890623E+02 0.  0.
         23    2    4    4    0    0  0.33681075103E+03  0.13519789254E+03  0.36501494031E+03  0.52300365678E+03  0.92611911748E+02 0.  0.
          3    1    3    3  502    0 -0.18318713177E+03 -0.11792009709E+03 -0.14183535291E+02  0.21832051488E+03  0.00000000000E+00 0. -1.
         -3    1    3    3    0  502  0.63548932267E+01  0.44104556735E+01 -0.97804829449E+01  0.12469748747E+02  0.00000000000E+00 0.  1.
         11    1    5    5    0    0 -0.16742586132E+03 -0.86984663709E+01 -0.32515626320E+03  0.36583285508E+03  0.00000000000E+00 0. -1.
        -11    1    5    5    0    0  0.74473488369E+01 -0.12989784756E+02 -0.33365717394E+02  0.36571417937E+02  0.00000000000E+00 0.  1.
          4    1    6    6  503    0  0.17183772503E+03  0.11496407462E+03  0.22621301604E+03  0.30645924823E+03  0.00000000000E+00 0. -1.
         -4    1    6    6    0  503  0.16497302600E+03  0.20233817924E+02  0.13880192427E+03  0.21654440856E+03  0.00000000000E+00 0.  1.
<mgrwt>
<rscale>  0 0.11560662E+04</rscale>
<asrwt>0</asrwt>
<pdfrwt beam="1">  1        1 0.87594395E-01 0.11560662E+04</pdfrwt>
<pdfrwt beam="2">  1       -1 0.90282250E-01 0.11560662E+04</pdfrwt>
<totfact> 0.44005297E+01</totfact>
</mgrwt>
</event>
<event>
12    2  0.3623523E-008  0.1846894E+04  0.7818608E-02  0.8681752E-01
          1   -1    0    0  501    0  0.00000000000E+00  0.00000000000E+00  0.10640010560E+04  0.10640010560E+04  0.00000000000E+00 0. -1.
         -1   -1    0    0    0  501 -0.00000000000E+00 -0.00000000000E+00 -0.80146021343E+03  0.80146021343E+03  0.00000000000E+00 0.  1.
         23    2    1    2    0    0  0.16001638535E+03  0.68294123872E+03  0.19847463819E+03  0.73479528856E+03  0.92292767700E+02 0.  0.
        254    2    1    2    0    0 -0.16001638535E+03 -0.68294123872E+03  0.64066204373E+02  0.11306659809E+04  0.88446995574E+03 0.  0.
         23    2    4    4    0    0 -0.36092650193E+03 -0.38650671644E+03 -0.29697101423E+03  0.61329889928E+03  0.91040512483E+02 0.  0.
         23    2    4    4    0    0  0.20091011658E+03 -0.29643452228E+03  0.36103721860E+03  0.51736708159E+03  0.95302271453E+02 0.  0.
          2    1    3    3  502    0  0.16815255138E+03  0.61561838383E+03  0.16492361051E+03  0.65913661129E+03  0.00000000000E+00 0. -1.
         -2    1    3    3    0  502 -0.81361660298E+01  0.67322854888E+02  0.33551027678E+02  0.75658677270E+02  0.00000000000E+00 0.  1.
         11    1    5    5    0    0 -0.10535083267E+03 -0.17424703401E+03 -0.97108460086E+02  0.22559007032E+03  0.00000000000E+00 0. -1.
        -11    1    5    5    0    0 -0.25557566927E+03 -0.21225968242E+03 -0.19986255414E+03  0.38770882896E+03  0.00000000000E+00 0.  1.
          4    1    6    6  503    0 -0.13073979177E+00 -0.45931996941E+02  0.71200839790E+02  0.84730897686E+02  0.00000000000E+00 0. -1.
         -4    1    6    6    0  503  0.20104085638E+03 -0.25050252534E+03  0.28983637881E+03  0.43263618390E+03  0.00000000000E+00 0.  1.
<mgrwt>
<rscale>  0 0.18468942E+04</rscale>
<asrwt>0</asrwt>
<pdfrwt beam="1">  1        1 0.16369247E+00 0.18468942E+04</pdfrwt>
<pdfrwt beam="2">  1       -1 0.12330157E+00 0.18468942E+04</pdfrwt>
<totfact> 0.73481856E+00</totfact>
</mgrwt>
</event>
<event>
12    2  0.3623523E-008  0.1673617E+04  0.7818608E-02  0.8776556E-01
          2   -1    0    0  501    0  0.00000000000E+00  0.00000000000E+00  0.11956267228E+04  0.11956267228E+04  0.00000000000E+00 0. -1.
         -2   -1    0    0    0  501 -0.00000000000E+00 -0.00000000000E+00 -0.58567485720E+03  0.58567485720E+03  0.00000000000E+00 0.  1.
         23    2    1    2    0    0  0.30253057563E+03  0.35289857842E+03 -0.16982164515E+03  0.50460483317E+03  0.98612832132E+02 0.  0.
        254    2    1    2    0    0 -0.30253057563E+03 -0.35289857842E+03  0.77977351076E+03  0.12766967468E+04  0.89768908839E+03 0.  0.
         23    2    4    4    0    0 -0.41068056378E+03 -0.54679426331E+02 -0.47602700482E+01  0.42530279697E+03  0.95976266907E+02 0.  0.
         23    2    4    4    0    0  0.10814998815E+03 -0.29821915208E+03  0.78453378080E+03  0.85139394985E+03  0.93527119082E+02 0.  0.
          4    1    3    3  502    0  0.10052747079E+03  0.66917631038E+02 -0.14709964989E+02  0.12165576351E+03  0.00000000000E+00 0. -1.
         -4    1    3    3    0  502  0.20200310484E+03  0.28598094738E+03 -0.15511168017E+03  0.38294906966E+03  0.00000000000E+00 0.  1.
         11    1    5    5    0    0 -0.27505680132E+03 -0.80367315034E+02 -0.14504424581E+02  0.28692425414E+03  0.00000000000E+00 0.  1.
        -11    1    5    5    0    0 -0.13562376246E+03  0.25687888703E+02  0.97441545326E+01  0.13837854283E+03  0.00000000000E+00 0. -1.
          1    1    6    6  503    0 -0.73746571683E+01 -0.20025864878E+02  0.18429274604E+02  0.28196790507E+02  0.00000000000E+00 0. -1.
         -1    1    6    6    0  503  0.11552464532E+03 -0.27819328721E+03  0.76610450620E+03  0.82319715934E+03  0.00000000000E+00 0.  1.
<mgrwt>
<rscale>  0 0.16736171E+04</rscale>
<asrwt>0</asrwt>
<pdfrwt beam="1">  1        2 0.18394257E+00 0.16736171E+04</pdfrwt>
<pdfrwt beam="2">  1       -2 0.90103824E-01 0.16736171E+04</pdfrwt>
<totfact> 0.19153728E+01</totfact>
</mgrwt>
</event>
<event>
12    2  0.3623523E-008  0.2594558E+04  0.7818608E-02  0.8370052E-01
         -2   -1    0    0    0  501 -0.00000000000E+00  0.00000000000E+00  0.10027821417E+04  0.10027821417E+04  0.00000000000E+00 0.  1.
          2   -1    0    0  501    0  0.00000000000E+00 -0.00000000000E+00 -0.16782641491E+04  0.16782641491E+04  0.00000000000E+00 0. -1.
         23    2    1    2    0    0  0.33038777170E+03  0.39219024926E+03 -0.13470508866E+04  0.14443020555E+04  0.92157828294E+02 0.  0.
        254    2    1    2    0    0 -0.33038777170E+03 -0.39219024926E+03  0.67156887922E+03  0.12367442352E+04  0.90308486453E+03 0.  0.
         23    2    4    4    0    0 -0.58391999794E+03 -0.38221687182E+03  0.66206773288E+03  0.96640702564E+03  0.92501649673E+02 0.  0.
         23    2    4    4    0    0  0.25353222623E+03 -0.99733774399E+01  0.95011463441E+01  0.27033720959E+03  0.92810975164E+02 0.  0.
          3    1    3    3  502    0  0.31748665392E+03  0.37017477073E+03 -0.13195653294E+04  0.14067977093E+04  0.00000000000E+00 0. -1.
         -3    1    3    3    0  502  0.12901117780E+02  0.22015478535E+02 -0.27485557192E+02  0.37504346271E+02  0.00000000000E+00 0.  1.
         11    1    5    5    0    0 -0.45009474372E+03 -0.29493434750E+03  0.45385669172E+03  0.70395841090E+03  0.00000000000E+00 0.  1.
        -11    1    5    5    0    0 -0.13382525422E+03 -0.87282524321E+02  0.20821104116E+03  0.26244861474E+03  0.00000000000E+00 0. -1.
          2    1    6    6  503    0  0.85939801544E+02  0.24576457324E+02 -0.30793193085E+02  0.94540322003E+02  0.00000000000E+00 0. -1.
         -2    1    6    6    0  503  0.16759242469E+03 -0.34549834764E+02  0.40294339429E+02  0.17579688759E+03  0.00000000000E+00 0.  1.
<mgrwt>
<rscale>  0 0.25945584E+04</rscale>
<asrwt>0</asrwt>
<pdfrwt beam="1">  1        2 0.25819448E+00 0.25945584E+04</pdfrwt>
<pdfrwt beam="2">  1       -2 0.15427418E+00 0.25945584E+04</pdfrwt>
<totfact> 0.24812824E+00</totfact>
</mgrwt>
</event>
<event>
12    2  0.3623523E-008  0.1527727E+04  0.7818608E-02  0.8866221E-01
         -2   -1    0    0    0  501 -0.00000000000E+00  0.00000000000E+00  0.18417099859E+03  0.18417099859E+03  0.00000000000E+00 0.  1.
          2   -1    0    0  501    0  0.00000000000E+00 -0.00000000000E+00 -0.31681820084E+04  0.31681820084E+04  0.00000000000E+00 0. -1.
         23    2    1    2    0    0 -0.25565942542E+03 -0.38027046921E+03 -0.60554295678E+03  0.76461085859E+03  0.89331523024E+02 0.  0.
        254    2    1    2    0    0  0.25565942542E+03  0.38027046921E+03 -0.23784680530E+04  0.25877421484E+04  0.91067654839E+03 0.  0.
         23    2    4    4    0    0 -0.21542044669E+03 -0.16462528995E+03 -0.54291355989E+03  0.61382984107E+03  0.92328139472E+02 0.  0.
         23    2    4    4    0    0  0.47107987211E+03  0.54489575916E+03 -0.18355544931E+04  0.19739123073E+04  0.90784720492E+02 0.  0.
          1    1    3    3  502    0 -0.94227335839E+02 -0.18401699115E+03 -0.33317822534E+03  0.39210811480E+03  0.00000000000E+00 0. -1.
         -1    1    3    3    0  502 -0.16143208958E+03 -0.19625347806E+03 -0.27236473144E+03  0.37250274379E+03  0.00000000000E+00 0.  1.
         11    1    5    5    0    0 -0.49756582854E+01  0.88842447062E+01 -0.65703280020E+01  0.12118423554E+02  0.00000000000E+00 0. -1.
        -11    1    5    5    0    0 -0.21044478841E+03 -0.17350953466E+03 -0.53634323189E+03  0.60171141752E+03  0.00000000000E+00 0.  1.
          1    1    6    6  503    0  0.80969219884E+02  0.67387482294E+02 -0.34896477929E+03  0.36451818133E+03  0.00000000000E+00 0. -1.
         -1    1    6    6    0  503  0.39011065223E+03  0.47750827686E+03 -0.14865897138E+04  0.16093941260E+04  0.00000000000E+00 0.  1.
<mgrwt>
<rscale>  0 0.15277267E+04</rscale>
<asrwt>0</asrwt>
<pdfrwt beam="1">  1        2 0.48741258E+00 0.15277267E+04</pdfrwt>
<pdfrwt beam="2">  1       -2 0.28334002E-01 0.15277267E+04</pdfrwt>
<totfact> 0.15088196E+01</totfact>
</mgrwt>
</event>
<event>
12    2  0.3623523E-008  0.1206715E+04  0.7818608E-02  0.9106999E-01
         -1   -1    0    0    0  501 -0.00000000000E+00  0.00000000000E+00  0.35100110009E+03  0.35100110009E+03  0.00000000000E+00 0.  1.
          1   -1    0    0  501    0  0.00000000000E+00 -0.00000000000E+00 -0.10371478400E+04  0.10371478400E+04  0.00000000000E+00 0. -1.
         23    2    1    2    0    0 -0.19766659877E+03 -0.14207500631E+03 -0.67232725487E+02  0.26912185928E+03  0.92999699326E+02 0.  0.
        254    2    1    2    0    0  0.19766659877E+03  0.14207500631E+03 -0.61891401444E+03  0.11190270808E+04  0.89994980898E+03 0.  0.
         23    2    4    4    0    0  0.44553279080E+03  0.15016552888E+03 -0.69455139665E+03  0.84356499436E+03  0.90283461267E+02 0.  0.
         23    2    4    4    0    0 -0.24786619202E+03 -0.80905225734E+01  0.75637382205E+02  0.27546208648E+03  0.93033552005E+02 0.  0.
          3    1    3    3  502    0 -0.84659873588E+02 -0.49681452461E+02  0.18425661724E+02  0.99875151687E+02  0.00000000000E+00 0. -1.
         -3    1    3    3    0  502 -0.11300672519E+03 -0.92393553847E+02 -0.85658387211E+02  0.16924670759E+03  0.00000000000E+00 0.  1.
         11    1    5    5    0    0  0.90273088508E+02  0.70670265453E+02 -0.16077382952E+03  0.19746326541E+03  0.00000000000E+00 0.  1.
        -11    1    5    5    0    0  0.35525970229E+03  0.79495263428E+02 -0.53377756713E+03  0.64610172895E+03  0.00000000000E+00 0. -1.
          1    1    6    6  503    0 -0.20765125006E+03  0.98531768695E+01  0.93495935494E+02  0.22794213454E+03  0.00000000000E+00 0. -1.
         -1    1    6    6    0  503 -0.40214941966E+02 -0.17943699443E+02 -0.17858553289E+02  0.47519951942E+02  0.00000000000E+00 0.  1.
<mgrwt>
<rscale>  0 0.12067146E+04</rscale>
<asrwt>0</asrwt>
<pdfrwt beam="1">  1        1 0.15956120E+00 0.12067146E+04</pdfrwt>
<pdfrwt beam="2">  1       -1 0.54000170E-01 0.12067146E+04</pdfrwt>
<totfact> 0.48481635E+01</totfact>
</mgrwt>
</event>
<event>
12    2  0.3623523E-008  0.1206747E+04  0.7818608E-02  0.9106971E-01
          1   -1    0    0  501    0  0.00000000000E+00  0.00000000000E+00  0.88129149325E+03  0.88129149325E+03  0.00000000000E+00 0. -1.
         -1   -1    0    0    0  501 -0.00000000000E+00 -0.00000000000E+00 -0.41309793547E+03  0.41309793547E+03  0.00000000000E+00 0.  1.
         23    2    1    2    0    0 -0.11603574540E+03 -0.61831793667E+02 -0.12931014387E+03  0.20444893401E+03  0.88265442789E+02 0.  0.
        254    2    1    2    0    0  0.11603574540E+03  0.61831793667E+02  0.59750370166E+03  0.10899404947E+04  0.90203777282E+03 0.  0.
         23    2    4    4    0    0  0.13178263293E+03  0.18484452688E+03 -0.17426702521E+03  0.30277913088E+03  0.98853652219E+02 0.  0.
         23    2    4    4    0    0 -0.15746887536E+02 -0.12301273321E+03  0.77177072687E+03  0.78716136384E+03  0.92805500202E+02 0.  0.
          3    1    3    3  502    0 -0.41466535651E+02 -0.60488508736E+01  0.37116358350E+01  0.42069447541E+02  0.00000000000E+00 0. -1.
         -3    1    3    3    0  502 -0.74569209748E+02 -0.55782942794E+02 -0.13302177971E+03  0.16237948647E+03  0.00000000000E+00 0.  1.
         11    1    5    5    0    0  0.12416662402E+03  0.18984974103E+03 -0.13831558539E+03  0.26569056410E+03  0.00000000000E+00 0. -1.
        -11    1    5    5    0    0  0.76160089115E+01 -0.50052141494E+01 -0.35951439814E+02  0.37088566771E+02  0.00000000000E+00 0.  1.
          1    1    6    6  503    0  0.35968065852E+02 -0.36946848174E+02  0.33874444017E+03  0.34264641702E+03  0.00000000000E+00 0. -1.
         -1    1    6    6    0  503 -0.51714953388E+02 -0.86065885040E+02  0.43302628670E+03  0.44451494682E+03  0.00000000000E+00 0.  1.
<mgrwt>
<rscale>  0 0.12067472E+04</rscale>
<asrwt>0</asrwt>
<pdfrwt beam="1">  1        1 0.13558331E+00 0.12067472E+04</pdfrwt>
<pdfrwt beam="2">  1       -1 0.63553528E-01 0.12067472E+04</pdfrwt>
<totfact> 0.46842696E+01</totfact>
</mgrwt>
</event>
<event>
12    2  0.3623523E-008  0.1235644E+04  0.7818608E-02  0.9082217E-01
         -2   -1    0    0    0  501 -0.00000000000E+00  0.00000000000E+00  0.62372303017E+03  0.62372303017E+03  0.00000000000E+00 0.  1.
          2   -1    0    0  501    0  0.00000000000E+00 -0.00000000000E+00 -0.61197635221E+03  0.61197635221E+03  0.00000000000E+00 0. -1.
         23    2    1    2    0    0 -0.23127391499E+03 -0.13692971156E+03 -0.61172598048E+02  0.29011418702E+03  0.90480854855E+02 0.  0.
        254    2    1    2    0    0  0.23127391499E+03  0.13692971156E+03  0.72919276012E+02  0.94558519536E+03  0.90364637509E+03 0.  0.
         23    2    4    4    0    0  0.38591994168E+02 -0.37458187458E+03  0.46996497065E+01  0.38708378472E+03  0.89503334624E+02 0.  0.
         23    2    4    4    0    0  0.19268192083E+03  0.51151158614E+03  0.68219626305E+02  0.55850141064E+03  0.92192640210E+02 0.  0.
          4    1    3    3  502    0 -0.17129864567E+03 -0.10753540981E+03 -0.84736390649E+02  0.21928827208E+03  0.00000000000E+00 0. -1.
         -4    1    3    3    0  502 -0.59975269321E+02 -0.29394301748E+02  0.23563792601E+02  0.70825914940E+02  0.00000000000E+00 0.  1.
         11    1    5    5    0    0  0.58433721481E+02 -0.35133767666E+03  0.30902892887E-02  0.35616381464E+03  0.00000000000E+00 0.  1.
        -11    1    5    5    0    0 -0.19841727313E+02 -0.23244197923E+02  0.46965594172E+01  0.30919970088E+02  0.00000000000E+00 0. -1.
          2    1    6    6  503    0  0.36575460300E+02  0.27898881665E+02  0.90738204812E+01  0.46887590176E+02  0.00000000000E+00 0. -1.
         -2    1    6    6    0  503  0.15610646052E+03  0.48361270447E+03  0.59145805824E+02  0.51161382047E+03  0.00000000000E+00 0.  1.
<mgrwt>
<rscale>  0 0.12356435E+04</rscale>
<asrwt>0</asrwt>
<pdfrwt beam="1">  1        2 0.94150208E-01 0.12356435E+04</pdfrwt>
<pdfrwt beam="2">  1       -2 0.95957389E-01 0.12356435E+04</pdfrwt>
<totfact> 0.43407967E+01</totfact>
</mgrwt>
</event>
<event>
12    2  0.3623523E-008  0.2140869E+04  0.7818608E-02  0.8543451E-01
         -2   -1    0    0    0  501 -0.00000000000E+00  0.00000000000E+00  0.44588890233E+03  0.44588890233E+03  0.00000000000E+00 0. -1.
          2   -1    0    0  501    0  0.00000000000E+00 -0.00000000000E+00 -0.25697665617E+04  0.25697665617E+04  0.00000000000E+00 0.  1.
         23    2    1    2    0    0 -0.38624404995E+03  0.41516977032E+03  0.67952010310E+02  0.57909321600E+03  0.95817914870E+02 0.  0.
        254    2    1    2    0    0  0.38624404995E+03 -0.41516977032E+03 -0.21918296696E+04  0.24365622480E+04  0.90064859037E+03 0.  0.
         23    2    4    4    0    0  0.68335484693E+02  0.19652749822E+03 -0.13387476239E+03  0.26439077767E+03  0.93205339369E+02 0.  0.
         23    2    4    4    0    0  0.31790856525E+03 -0.61169726854E+03 -0.20579549072E+04  0.21721714703E+04  0.88944319852E+02 0.  0.
          3    1    3    3  502    0 -0.29657552349E+03  0.25831416475E+03  0.63278762707E+02  0.39835593462E+03  0.00000000000E+00 0. -1.
         -3    1    3    3    0  502 -0.89668526456E+02  0.15685560557E+03  0.46732476027E+01  0.18073728138E+03  0.00000000000E+00 0.  1.
         11    1    5    5    0    0  0.12608721559E+01  0.57886283872E+02  0.35086203109E+01  0.58006224456E+02  0.00000000000E+00 0. -1.
        -11    1    5    5    0    0  0.67074612537E+02  0.13864121435E+03 -0.13738338270E+03  0.20638455321E+03  0.00000000000E+00 0.  1.
          2    1    6    6  503    0  0.32169236340E+03 -0.60709477486E+03 -0.20509702529E+04  0.21629907583E+04  0.00000000000E+00 0. -1.
         -2    1    6    6    0  503 -0.37837981513E+01 -0.46024936815E+01 -0.69846543785E+01  0.91807120271E+01  0.00000000000E+00 0.  1.
<mgrwt>
<rscale>  0 0.21408693E+04</rscale>
<asrwt>0</asrwt>
<pdfrwt beam="1">  1        2 0.39534871E+00 0.21408693E+04</pdfrwt>
<pdfrwt beam="2">  1       -2 0.68598291E-01 0.21408693E+04</pdfrwt>
<totfact> 0.56586273E+00</totfact>
</mgrwt>
</event>
<event>
12    2  0.3623523E-008  0.1937254E+04  0.7818608E-02  0.8636532E-01
         -3   -1    0    0    0  501 -0.00000000000E+00  0.00000000000E+00  0.26542115868E+03  0.26542115868E+03  0.00000000000E+00 0.  1.
          3   -1    0    0  501    0  0.00000000000E+00 -0.00000000000E+00 -0.35349021668E+04  0.35349021668E+04  0.00000000000E+00 0. -1.
         23    2    1    2    0    0  0.54221572898E+03 -0.54902276314E+03 -0.13459958468E+04  0.15540854023E+04  0.89736988381E+02 0.  0.
        254    2    1    2    0    0 -0.54221572898E+03  0.54902276314E+03 -0.19234851613E+04  0.22462379231E+04  0.86623654399E+03 0.  0.
         23    2    4    4    0    0 -0.40168399945E+02  0.48496581992E+03 -0.15014309572E+04  0.15811573978E+04  0.94649092763E+02 0.  0.
         23    2    4    4    0    0 -0.50204732903E+03  0.64056943222E+02 -0.42205420418E+03  0.66508052528E+03  0.89708089255E+02 0.  0.
          1    1    3    3  502    0  0.46118151434E+03 -0.43516810361E+03 -0.11522953024E+04  0.13152353902E+04  0.00000000000E+00 0. -1.
         -1    1    3    3    0  502  0.81034214635E+02 -0.11385465953E+03 -0.19370054434E+03  0.23885001218E+03  0.00000000000E+00 0.  1.
         11    1    5    5    0    0 -0.64151299887E+01  0.21753162955E+02 -0.16002148713E+03  0.16162063709E+03  0.00000000000E+00 0. -1.
        -11    1    5    5    0    0 -0.33753269956E+02  0.46321265697E+03 -0.13414094700E+04  0.14195367607E+04  0.00000000000E+00 0.  1.
          4    1    6    6  503    0 -0.47441521261E+03  0.81332134877E+02 -0.39233694563E+03  0.62097744647E+03  0.00000000000E+00 0.  1.
         -4    1    6    6    0  503 -0.27632116421E+02 -0.17275191655E+02 -0.29717258553E+02  0.44103078810E+02  0.00000000000E+00 0. -1.
<mgrwt>
<rscale>  0 0.19372535E+04</rscale>
<asrwt>0</asrwt>
<pdfrwt beam="1">  1        3 0.54383107E+00 0.19372535E+04</pdfrwt>
<pdfrwt beam="2">  1       -3 0.40834027E-01 0.19372535E+04</pdfrwt>
<totfact> 0.30817908E-02</totfact>
</mgrwt>
</event>
<event>
12    2  0.3623523E-008  0.1393784E+04  0.7818608E-02  0.8958330E-01
          2   -1    0    0  501    0  0.00000000000E+00  0.00000000000E+00  0.18944715860E+04  0.18944715860E+04  0.00000000000E+00 0. -1.
         -2   -1    0    0    0  501 -0.00000000000E+00 -0.00000000000E+00 -0.25635558014E+03  0.25635558014E+03  0.00000000000E+00 0.  1.
         23    2    1    2    0    0 -0.17272497833E+03  0.34260306911E+03  0.58471008749E+03  0.70546716308E+03  0.92667419639E+02 0.  0.
        254    2    1    2    0    0  0.17272497833E+03 -0.34260306911E+03  0.10534059184E+04  0.14453600031E+04  0.91224488406E+03 0.  0.
         23    2    4    4    0    0  0.82583020935E+02  0.24491808222E+03  0.68879229513E+03  0.74133242375E+03  0.91291370448E+02 0.  0.
         23    2    4    4    0    0  0.90141957396E+02 -0.58752115133E+03  0.36461362324E+03  0.70402757932E+03  0.96979701226E+02 0.  0.
          4    1    3    3  502    0 -0.17805694843E+03  0.28325717214E+03  0.50915962636E+03  0.60924742722E+03  0.00000000000E+00 0. -1.
         -4    1    3    3    0  502  0.53319700980E+01  0.59345896967E+02  0.75550461127E+02  0.96219735857E+02  0.00000000000E+00 0.  1.
         11    1    5    5    0    0  0.73361819260E+02  0.23177667233E+03  0.68175469005E+03  0.72380373015E+03  0.00000000000E+00 0. -1.
        -11    1    5    5    0    0  0.92212016756E+01  0.13141409886E+02  0.70376050818E+01  0.17528693603E+02  0.00000000000E+00 0.  1.
          4    1    6    6  503    0  0.10228614119E+03 -0.47873916446E+03  0.32508408147E+03  0.58765066348E+03  0.00000000000E+00 0. -1.
         -4    1    6    6    0  503 -0.12144183793E+02 -0.10878198687E+03  0.39529541769E+02  0.11637691584E+03  0.00000000000E+00 0.  1.
<mgrwt>
<rscale>  0 0.13937839E+04</rscale>
<asrwt>0</asrwt>
<pdfrwt beam="1">  1        2 0.29145716E+00 0.13937839E+04</pdfrwt>
<pdfrwt beam="2">  1       -2 0.39439321E-01 0.13937839E+04</pdfrwt>
<totfact> 0.45287282E+01</totfact>
</mgrwt>
</event>
<event>
12    2  0.3623523E-008  0.3890995E+04  0.7818608E-02  0.8026905E-01
         -1   -1    0    0    0  501 -0.00000000000E+00  0.00000000000E+00  0.18854487825E+04  0.18854487825E+04  0.00000000000E+00 0.  1.
          1   -1    0    0  501    0  0.00000000000E+00 -0.00000000000E+00 -0.20074589544E+04  0.20074589544E+04  0.00000000000E+00 0. -1.
         23    2    1    2    0    0 -0.14085524236E+04 -0.40783147857E+02 -0.12442188067E+04  0.18819920761E+04  0.90169508341E+02 0.  0.
        254    2    1    2    0    0  0.14085524236E+04  0.40783147857E+02  0.11222086349E+04  0.20109156608E+04  0.89372612099E+03 0.  0.
         23    2    4    4    0    0  0.53241518031E+03 -0.37149554043E+03  0.24134017260E+03  0.69858697737E+03  0.91125327203E+02 0.  0.
         23    2    4    4    0    0  0.87613724332E+03  0.41227868829E+03  0.88086846230E+03  0.13123286834E+04  0.93204825674E+02 0.  0.
          1    1    3    3  502    0 -0.94033285078E+03 -0.60637513320E+02 -0.79566643960E+03  0.12332833662E+04  0.00000000000E+00 0. -1.
         -1    1    3    3    0  502 -0.46821957285E+03  0.19854365463E+02 -0.44855236712E+03  0.64870870988E+03  0.00000000000E+00 0.  1.
         11    1    5    5    0    0  0.19504131795E+03 -0.13407718204E+03  0.13535341055E+03  0.27265060462E+03  0.00000000000E+00 0. -1.
        -11    1    5    5    0    0  0.33737386236E+03 -0.23741835839E+03  0.10598676205E+03  0.42593637275E+03  0.00000000000E+00 0.  1.
          2    1    6    6  503    0  0.21228742403E+02 -0.19402999973E+01  0.98433945840E+01  0.23480133838E+02  0.00000000000E+00 0. -1.
         -2    1    6    6    0  503  0.85490850091E+03  0.41421898828E+03  0.87102506771E+03  0.12888485496E+04  0.00000000000E+00 0.  1.
<mgrwt>
<rscale>  0 0.38909953E+04</rscale>
<asrwt>0</asrwt>
<pdfrwt beam="1">  1        1 0.30883984E+00 0.38909953E+04</pdfrwt>
<pdfrwt beam="2">  1       -1 0.29006904E+00 0.38909953E+04</pdfrwt>
<totfact> 0.89085716E-02</totfact>
</mgrwt>
</event>
<event>
12    2  0.3623523E-008  0.3526282E+04  0.7818608E-02  0.8107590E-01
          2   -1    0    0  501    0  0.00000000000E+00  0.00000000000E+00  0.33379602021E+04  0.33379602021E+04  0.00000000000E+00 0.  1.
         -2   -1    0    0    0  501 -0.00000000000E+00 -0.00000000000E+00 -0.93130704727E+03  0.93130704727E+03  0.00000000000E+00 0. -1.
         23    2    1    2    0    0  0.15180649118E+04 -0.13563141421E+03  0.39250138866E+03  0.15766205251E+04  0.93584096080E+02 0.  0.
        254    2    1    2    0    0 -0.15180649118E+04  0.13563141421E+03  0.20141517661E+04  0.26926467242E+04  0.93307131968E+03 0.  0.
         23    2    4    4    0    0 -0.14217281124E+04  0.35873053960E+03  0.19144439774E+04  0.24131844436E+04  0.91460320767E+02 0.  0.
         23    2    4    4    0    0 -0.96336799369E+02 -0.22309912539E+03  0.99707788717E+02  0.27946228068E+03  0.95412391899E+02 0.  0.
          3    1    3    3  502    0  0.45091631851E+03 -0.31317193984E+02  0.73507610641E+02  0.45794067493E+03  0.00000000000E+00 0. -1.
         -3    1    3    3    0  502  0.10671485933E+04 -0.10431422023E+03  0.31899377802E+03  0.11186798502E+04  0.00000000000E+00 0.  1.
         11    1    5    5    0    0 -0.13802719352E+04  0.34068875011E+03  0.18294931446E+04  0.23169515761E+04  0.00000000000E+00 0. -1.
        -11    1    5    5    0    0 -0.41456177263E+02  0.18041789499E+02  0.84950832760E+02  0.96232867505E+02  0.00000000000E+00 0.  1.
          3    1    6    6  503    0 -0.11482378590E+03 -0.17336249405E+03  0.82000867522E+02  0.22352449178E+03  0.00000000000E+00 0. -1.
         -3    1    6    6    0  503  0.18486986533E+02 -0.49736631347E+02  0.17706921195E+02  0.55937788901E+02  0.00000000000E+00 0.  1.
<mgrwt>
<rscale>  0 0.35262818E+04</rscale>
<asrwt>0</asrwt>
<pdfrwt beam="1">  1        2 0.51353233E+00 0.35262818E+04</pdfrwt>
<pdfrwt beam="2">  1       -2 0.14327801E+00 0.35262818E+04</pdfrwt>
<totfact> 0.29083647E-01</totfact>
</mgrwt>
</event>
<event>
12    2  0.3623523E-008  0.2076000E+04  0.7818608E-02  0.8571890E-01
          2   -1    0    0  501    0  0.00000000000E+00  0.00000000000E+00  0.41822660906E+04  0.41822660906E+04  0.00000000000E+00 0. -1.
         -2   -1    0    0    0  501 -0.00000000000E+00 -0.00000000000E+00 -0.25762201388E+03  0.25762201388E+03  0.00000000000E+00 0.  1.
         23    2    1    2    0    0 -0.15849761194E+03  0.68423577218E+02  0.33695103012E+04  0.33754749458E+04  0.10211836567E+03 0.  0.
        254    2    1    2    0    0  0.15849761194E+03 -0.68423577218E+02  0.55513377545E+03  0.10644131587E+04  0.89162693139E+03 0.  0.
         23    2    4    4    0    0 -0.31333906312E+02  0.28047421747E+03 -0.83094898185E+02  0.30711238339E+03  0.88122945808E+02 0.  0.
         23    2    4    4    0    0  0.18983151826E+03 -0.34889779469E+03  0.63822867364E+03  0.75730077527E+03  0.91667594697E+02 0.  0.
          4    1    3    3  502    0 -0.32868261798E+02  0.57213514095E+02  0.16637358459E+04  0.16650437453E+04  0.00000000000E+00 0.  1.
         -4    1    3    3    0  502 -0.12562935015E+03  0.11210063123E+02  0.17057744553E+04  0.17104312005E+04  0.00000000000E+00 0. -1.
         11    1    5    5    0    0 -0.23227199259E+02  0.19595557161E+03 -0.98936192112E+02  0.22074070522E+03  0.00000000000E+00 0. -1.
        -11    1    5    5    0    0 -0.81067070536E+01  0.84518645860E+02  0.15841293928E+02  0.86371678174E+02  0.00000000000E+00 0.  1.
          3    1    6    6  503    0  0.11836320144E+03 -0.27998498680E+03  0.42975745604E+03  0.52639615435E+03  0.00000000000E+00 0. -1.
         -3    1    6    6    0  503  0.71468316813E+02 -0.68912807885E+02  0.20847121759E+03  0.23090462092E+03  0.00000000000E+00 0.  1.
<mgrwt>
<rscale>  0 0.20759998E+04</rscale>
<asrwt>0</asrwt>
<pdfrwt beam="1">  1        2 0.64342550E+00 0.20759998E+04</pdfrwt>
<pdfrwt beam="2">  1       -2 0.39634159E-01 0.20759998E+04</pdfrwt>
<totfact> 0.13543473E+00</totfact>
</mgrwt>
</event>
<event>
12    2  0.3623523E-008  0.3040999E+04  0.7818608E-02  0.8232119E-01
          2   -1    0    0  501    0  0.00000000000E+00  0.00000000000E+00  0.21737973135E+04  0.21737973135E+04  0.00000000000E+00 0. -1.
         -2   -1    0    0    0  501 -0.00000000000E+00 -0.00000000000E+00 -0.10635390779E+04  0.10635390779E+04  0.00000000000E+00 0.  1.
         23    2    1    2    0    0  0.39692534050E+03  0.13012585317E+04  0.21502811096E+03  0.13804511492E+04  0.92654166203E+02 0.  0.
        254    2    1    2    0    0 -0.39692534050E+03 -0.13012585317E+04  0.89523012459E+03  0.18568852422E+04  0.89205511859E+03 0.  0.
         23    2    4    4    0    0 -0.10856593762E+03  0.11992869349E+02 -0.10700902125E+03  0.17745317188E+03  0.90046131813E+02 0.  0.
         23    2    4    4    0    0 -0.28835940288E+03 -0.13132514010E+04  0.10022391458E+04  0.16794320703E+04  0.90710450916E+02 0.  0.
          1    1    3    3  502    0  0.74993467666E+01  0.14697069020E+02  0.13296985906E+02  0.21190891295E+02  0.00000000000E+00 0. -1.
         -1    1    3    3    0  502  0.38942599373E+03  0.12865614627E+04  0.20173112505E+03  0.13592602579E+04  0.00000000000E+00 0.  1.
         11    1    5    5    0    0 -0.13334264053E+01 -0.27151194261E+02 -0.24589593699E+02  0.36655333773E+02  0.00000000000E+00 0. -1.
        -11    1    5    5    0    0 -0.10723251121E+03  0.39144063610E+02 -0.82419427551E+02  0.14079783811E+03  0.00000000000E+00 0.  1.
          1    1    6    6  503    0 -0.42219032039E+02 -0.16247912577E+03  0.16335950619E+03  0.23423970893E+03  0.00000000000E+00 0. -1.
         -1    1    6    6    0  503 -0.24614037084E+03 -0.11507722753E+04  0.83887963965E+03  0.14451923614E+04  0.00000000000E+00 0.  1.
<mgrwt>
<rscale>  0 0.30409988E+04</rscale>
<asrwt>0</asrwt>
<pdfrwt beam="1">  1        2 0.33443035E+00 0.30409988E+04</pdfrwt>
<pdfrwt beam="2">  1       -2 0.16362140E+00 0.30409988E+04</pdfrwt>
<totfact> 0.10797973E+00</totfact>
</mgrwt>
</event>
<event>
12    2  0.3623523E-008  0.1474475E+04  0.7818608E-02  0.8901606E-01
         -1   -1    0    0    0  501 -0.00000000000E+00  0.00000000000E+00  0.46475239951E+03  0.46475239951E+03  0.00000000000E+00 0.  1.
          1   -1    0    0  501    0  0.00000000000E+00 -0.00000000000E+00 -0.11694815492E+04  0.11694815492E+04  0.00000000000E+00 0. -1.
         23    2    1    2    0    0 -0.90893710340E+02 -0.42661030592E+03 -0.65439391742E+02  0.45022451794E+03  0.90342586105E+02 0.  0.
        254    2    1    2    0    0  0.90893710340E+02  0.42661030592E+03 -0.63928975791E+03  0.11840094307E+04  0.89606300996E+03 0.  0.
         23    2    4    4    0    0  0.13681146783E+03 -0.25672291147E+03 -0.22682435821E+03  0.37985056905E+03  0.90626344549E+02 0.  0.
         23    2    4    4    0    0 -0.45917757495E+02  0.68333321739E+03 -0.41246539970E+03  0.80415886170E+03  0.86550808510E+02 0.  0.
          1    1    3    3  502    0  0.12328878967E+01 -0.92566026785E+01 -0.17898089492E+02  0.20187776331E+02  0.00000000000E+00 0. -1.
         -1    1    3    3    0  502 -0.92126598236E+02 -0.41735370324E+03 -0.47541302250E+02  0.43003674161E+03  0.00000000000E+00 0.  1.
         11    1    5    5    0    0  0.53609763588E+01 -0.42471100435E+02 -0.23928381184E+01  0.42874935731E+02  0.00000000000E+00 0.  1.
        -11    1    5    5    0    0  0.13145049148E+03 -0.21425181103E+03 -0.22443152009E+03  0.33697563332E+03  0.00000000000E+00 0. -1.
          2    1    6    6  503    0 -0.43681378170E+01  0.59895569624E+01 -0.17419872393E+02  0.18931650081E+02  0.00000000000E+00 0.  1.
         -2    1    6    6    0  503 -0.41549619678E+02  0.67734366043E+03 -0.39504552731E+03  0.78522721162E+03  0.00000000000E+00 0. -1.
<mgrwt>
<rscale>  0 0.14744753E+04</rscale>
<asrwt>0</asrwt>
<pdfrwt beam="1">  1        1 0.17992024E+00 0.14744753E+04</pdfrwt>
<pdfrwt beam="2">  1       -1 0.71500369E-01 0.14744753E+04</pdfrwt>
<totfact> 0.21542560E+01</totfact>
</mgrwt>
</event>
<event>
12    2  0.3623523E-008  0.1628985E+04  0.7818608E-02  0.8802937E-01
          4   -1    0    0  501    0  0.00000000000E+00  0.00000000000E+00  0.12918471708E+04  0.12918471708E+04  0.00000000000E+00 0. -1.
         -4   -1    0    0    0  501 -0.00000000000E+00 -0.00000000000E+00 -0.51352660868E+03  0.51352660868E+03  0.00000000000E+00 0.  1.
         23    2    1    2    0    0  0.25735711273E+03 -0.28428113894E+03  0.72926798173E+03  0.82902225511E+03  0.91638751966E+02 0.  0.
        254    2    1    2    0    0 -0.25735711273E+03  0.28428113894E+03  0.49052580379E+02  0.97635152437E+03  0.89655322991E+03 0.  0.
         23    2    4    4    0    0 -0.28730488069E+03  0.58187920124E+03  0.92199917625E+02  0.66178268322E+03  0.91257852823E+02 0.  0.
         23    2    4    4    0    0  0.29947767961E+02 -0.29759806229E+03 -0.43147337246E+02  0.31456884114E+03  0.87352089965E+02 0.  0.
          4    1    3    3  502    0  0.22195906399E+03 -0.18528509638E+03  0.53370594228E+03  0.60699128977E+03  0.00000000000E+00 0. -1.
         -4    1    3    3    0  502  0.35398048734E+02 -0.98996042558E+02  0.19556203945E+03  0.22203096534E+03  0.00000000000E+00 0.  1.
         11    1    5    5    0    0 -0.19354367921E+03  0.45326305430E+03  0.98036495884E+02  0.50251139955E+03  0.00000000000E+00 0. -1.
        -11    1    5    5    0    0 -0.93761201479E+02  0.12861614694E+03 -0.58365782592E+01  0.15927128367E+03  0.00000000000E+00 0.  1.
          4    1    6    6  503    0  0.60644659008E+02 -0.17708861054E+03 -0.23075913831E+02  0.18860182514E+03  0.00000000000E+00 0. -1.
         -4    1    6    6    0  503 -0.30696891047E+02 -0.12050945176E+03 -0.20071423415E+02  0.12596701600E+03  0.00000000000E+00 0.  1.
<mgrwt>
<rscale>  0 0.16289848E+04</rscale>
<asrwt>0</asrwt>
<pdfrwt beam="1">  1        4 0.19874572E+00 0.16289848E+04</pdfrwt>
<pdfrwt beam="2">  1       -4 0.79004094E-01 0.16289848E+04</pdfrwt>
<totfact> 0.36651394E-01</totfact>
</mgrwt>
</event>
<event>
12    2  0.3623523E-008  0.1517236E+04  0.7818608E-02  0.8873072E-01
         -2   -1    0    0    0  501 -0.00000000000E+00  0.00000000000E+00  0.24611004002E+03  0.24611004002E+03  0.00000000000E+00 0.  1.
          2   -1    0    0  501    0  0.00000000000E+00 -0.00000000000E+00 -0.23383891686E+04  0.23383891686E+04  0.00000000000E+00 0. -1.
         23    2    1    2    0    0  0.22510174852E+03  0.83430336270E+02  0.32963612262E+02  0.25888872441E+03  0.91133713265E+02 0.  0.
        254    2    1    2    0    0 -0.22510174852E+03 -0.83430336270E+02 -0.21252427408E+04  0.23256104842E+04  0.91333235933E+03 0.  0.
         23    2    4    4    0    0 -0.49179059816E+03 -0.24600768200E+03 -0.17150402650E+04  0.18033452950E+04  0.91177687213E+02 0.  0.
         23    2    4    4    0    0  0.26668884964E+03  0.16257734573E+03 -0.41020247583E+03  0.52226518914E+03  0.83309787774E+02 0.  0.
          1    1    3    3  502    0  0.19536911791E+03  0.91710234074E+02  0.52814758223E+02  0.22219193944E+03  0.00000000000E+00 0.  1.
         -1    1    3    3    0  502  0.29732630620E+02 -0.82798978042E+01 -0.19851145961E+02  0.36696784971E+02  0.00000000000E+00 0. -1.
         11    1    5    5    0    0 -0.10358535923E+02 -0.25156240534E+02 -0.68379132900E+02  0.73592401242E+02  0.00000000000E+00 0. -1.
        -11    1    5    5    0    0 -0.48143206224E+03 -0.22085144147E+03 -0.16466611321E+04  0.17297528938E+04  0.00000000000E+00 0.  1.
          2    1    6    6  503    0  0.23936544964E+03  0.11734269520E+03 -0.30903854187E+03  0.40812981630E+03  0.00000000000E+00 0. -1.
         -2    1    6    6    0  503  0.27323399999E+02  0.45234650530E+02 -0.10116393397E+03  0.11413537283E+03  0.00000000000E+00 0.  1.
<mgrwt>
<rscale>  0 0.15172357E+04</rscale>
<asrwt>0</asrwt>
<pdfrwt beam="1">  1        2 0.35975220E+00 0.15172357E+04</pdfrwt>
<pdfrwt beam="2">  1       -2 0.37863081E-01 0.15172357E+04</pdfrwt>
<totfact> 0.27432232E+01</totfact>
</mgrwt>
</event>
<event>
12    2  0.3623523E-008  0.2784360E+04  0.7818608E-02  0.8308140E-01
         -1   -1    0    0    0  501 -0.00000000000E+00  0.00000000000E+00  0.10999011078E+04  0.10999011078E+04  0.00000000000E+00 0.  1.
          1   -1    0    0  501    0  0.00000000000E+00 -0.00000000000E+00 -0.17621266749E+04  0.17621266749E+04  0.00000000000E+00 0. -1.
         23    2    1    2    0    0 -0.19936944277E+03  0.12119159917E+04 -0.46682342408E+03  0.13175189819E+04  0.97178251961E+02 0.  0.
        254    2    1    2    0    0  0.19936944277E+03 -0.12119159917E+04 -0.19540214302E+03  0.15445088008E+04  0.91588039195E+03 0.  0.
         23    2    4    4    0    0 -0.14292517631E+03 -0.58855581277E+02  0.20630872585E+03  0.27317367010E+03  0.90382399834E+02 0.  0.
         23    2    4    4    0    0  0.34229461908E+03 -0.11530604105E+04 -0.40171086887E+03  0.12713351307E+04  0.90595120426E+02 0.  0.
          4    1    3    3  502    0 -0.15317147091E+03  0.10847882426E+04 -0.39669355978E+03  0.11651578482E+04  0.00000000000E+00 0.  1.
         -4    1    3    3    0  502 -0.46197971863E+02  0.12712774917E+03 -0.70129864297E+02  0.15236113375E+03  0.00000000000E+00 0. -1.
         11    1    5    5    0    0 -0.13746175662E+03 -0.38610869621E+02  0.20782906537E+03  0.25214966627E+03  0.00000000000E+00 0. -1.
        -11    1    5    5    0    0 -0.54634196881E+01 -0.20244711656E+02 -0.15203395169E+01  0.21024003828E+02  0.00000000000E+00 0.  1.
          4    1    6    6  503    0  0.15854541463E+02 -0.26588404051E+02 -0.24082585343E+02  0.39220920843E+02  0.00000000000E+00 0.  1.
         -4    1    6    6    0  503  0.32644007762E+03 -0.11264720064E+04 -0.37762828353E+03  0.12321142098E+04  0.00000000000E+00 0. -1.
<mgrwt>
<rscale>  0 0.27843599E+04</rscale>
<asrwt>0</asrwt>
<pdfrwt beam="1">  1        1 0.27109641E+00 0.27843599E+04</pdfrwt>
<pdfrwt beam="2">  1       -1 0.16921556E+00 0.27843599E+04</pdfrwt>
<totfact> 0.93452213E-01</totfact>
</mgrwt>
</event>
<event>
12    2  0.3623523E-008  0.1348763E+04  0.7818608E-02  0.8991765E-01
          1   -1    0    0  501    0  0.00000000000E+00  0.00000000000E+00  0.69725377533E+03  0.69725377533E+03  0.00000000000E+00 0. -1.
         -1   -1    0    0    0  501 -0.00000000000E+00 -0.00000000000E+00 -0.65225930636E+03  0.65225930636E+03  0.00000000000E+00 0.  1.
         23    2    1    2    0    0 -0.10998934775E+02 -0.28567892402E+03  0.24736536567E+03  0.38913966706E+03  0.92231405445E+02 0.  0.
        254    2    1    2    0    0  0.10998934775E+02  0.28567892402E+03 -0.20237089669E+03  0.96037341463E+03  0.89422015829E+03 0.  0.
         23    2    4    4    0    0  0.56159661030E+02  0.29538631395E+02  0.33656409701E+03  0.35471040118E+03  0.92291056117E+02 0.  0.
         23    2    4    4    0    0 -0.45160726255E+02  0.25614029263E+03 -0.53893499370E+03  0.60566301344E+03  0.93431352923E+02 0.  0.
          1    1    3    3  502    0 -0.40216490275E+02 -0.23874126893E+03  0.17832692091E+03  0.30069128737E+03  0.00000000000E+00 0. -1.
         -1    1    3    3    0  502  0.29217555499E+02 -0.46937655098E+02  0.69038444758E+02  0.88448379692E+02  0.00000000000E+00 0.  1.
         11    1    5    5    0    0  0.37743432042E+01  0.53776752430E+02  0.17697633436E+03  0.18500488559E+03  0.00000000000E+00 0.  1.
        -11    1    5    5    0    0  0.52385317826E+02 -0.24238121035E+02  0.15958776265E+03  0.16970551560E+03  0.00000000000E+00 0. -1.
          2    1    6    6  503    0  0.53606308372E+01  0.17700307839E+03 -0.40576329611E+03  0.44272189757E+03  0.00000000000E+00 0.  1.
         -2    1    6    6    0  503 -0.50521357092E+02  0.79137214242E+02 -0.13317169760E+03  0.16294111587E+03  0.00000000000E+00 0. -1.
<mgrwt>
<rscale>  0 0.13487628E+04</rscale>
<asrwt>0</asrwt>
<pdfrwt beam="1">  1        1 0.10726981E+00 0.13487628E+04</pdfrwt>
<pdfrwt beam="2">  1       -1 0.10034759E+00 0.13487628E+04</pdfrwt>
<totfact> 0.25381382E+01</totfact>
</mgrwt>
</event>
<event>
12    2  0.3623523E-008  0.1290702E+04  0.7818608E-02  0.9036972E-01
          2   -1    0    0  501    0  0.00000000000E+00  0.00000000000E+00  0.33394249676E+04  0.33394249676E+04  0.00000000000E+00 0. -1.
         -2   -1    0    0    0  501 -0.00000000000E+00 -0.00000000000E+00 -0.12471537436E+03  0.12471537436E+03  0.00000000000E+00 0.  1.
         23    2    1    2    0    0 -0.40861014684E+02 -0.28506828861E+03  0.44496343483E+03  0.53819176240E+03  0.93404299117E+02 0.  0.
        254    2    1    2    0    0  0.40861014684E+02  0.28506828861E+03  0.27697461584E+04  0.29259485796E+04  0.89819138080E+03 0.  0.
         23    2    4    4    0    0  0.40523364772E+03 -0.71947099079E+02  0.13639952007E+04  0.14277153814E+04  0.92182473432E+02 0.  0.
         23    2    4    4    0    0 -0.36437263304E+03  0.35701538768E+03  0.14057509577E+04  0.14982331982E+04  0.91321181898E+02 0.  0.
          1    1    3    3  502    0 -0.54270882820E+02 -0.88822819028E+02  0.18394670646E+03  0.21135565457E+03  0.00000000000E+00 0. -1.
         -1    1    3    3    0  502  0.13409868136E+02 -0.19624546958E+03  0.26101672837E+03  0.32683610783E+03  0.00000000000E+00 0.  1.
         11    1    5    5    0    0  0.77216996715E+02 -0.57517105717E+00  0.38782418599E+03  0.39543696671E+03  0.00000000000E+00 0. -1.
        -11    1    5    5    0    0  0.32801665101E+03 -0.71371928022E+02  0.97617101473E+03  0.10322784147E+04  0.00000000000E+00 0.  1.
          2    1    6    6  503    0 -0.47278016198E+02  0.88726216702E+02  0.33419917149E+03  0.34899375148E+03  0.00000000000E+00 0. -1.
         -2    1    6    6    0  503 -0.31709461684E+03  0.26828917098E+03  0.10715517862E+04  0.11492394467E+04  0.00000000000E+00 0.  1.
<mgrwt>
<rscale>  0 0.12907016E+04</rscale>
<asrwt>0</asrwt>
<pdfrwt beam="1">  1        2 0.51375762E+00 0.12907016E+04</pdfrwt>
<pdfrwt beam="2">  1       -2 0.19186983E-01 0.12907016E+04</pdfrwt>
<totfact> 0.24057508E+01</totfact>
</mgrwt>
</event>
<event>
12    2  0.3623523E-008  0.1652919E+04  0.7818608E-02  0.8788681E-01
         -2   -1    0    0    0  501 -0.00000000000E+00  0.00000000000E+00  0.10424341198E+04  0.10424341198E+04  0.00000000000E+00 0.  1.
          2   -1    0    0  501    0  0.00000000000E+00 -0.00000000000E+00 -0.65523128980E+03  0.65523128980E+03  0.00000000000E+00 0. -1.
         23    2    1    2    0    0  0.21534032161E+03 -0.14596427923E+03 -0.39288631177E+03  0.47940672239E+03  0.88284350655E+02 0.  0.
        254    2    1    2    0    0 -0.21534032161E+03  0.14596427923E+03  0.78008914173E+03  0.12182586872E+04  0.89885378951E+03 0.  0.
         23    2    4    4    0    0  0.38839746007E+02  0.45859249637E+03  0.61651742249E+03  0.77456208013E+03  0.89649763764E+02 0.  0.
         23    2    4    4    0    0 -0.25418006762E+03 -0.31262821714E+03  0.16357171923E+03  0.44369660704E+03  0.88130941455E+02 0.  0.
          1    1    3    3  502    0  0.11783715218E+03 -0.51386635862E+02 -0.25651732159E+03  0.28692737244E+03  0.00000000000E+00 0. -1.
         -1    1    3    3    0  502  0.97503169431E+02 -0.94577643365E+02 -0.13636899019E+03  0.19247934995E+03  0.00000000000E+00 0.  1.
         11    1    5    5    0    0 -0.25823621518E+02  0.22405892024E+03  0.30267546813E+03  0.37746747963E+03  0.00000000000E+00 0. -1.
        -11    1    5    5    0    0  0.64663367525E+02  0.23453357613E+03  0.31384195436E+03  0.39709460050E+03  0.00000000000E+00 0.  1.
          1    1    6    6  503    0 -0.10195245916E+03 -0.14595836096E+03  0.27559164326E+02  0.18016008049E+03  0.00000000000E+00 0. -1.
         -1    1    6    6    0  503 -0.15222760846E+03 -0.16666985618E+03  0.13601255491E+03  0.26353652655E+03  0.00000000000E+00 0.  1.
<mgrwt>
<rscale>  0 0.16529192E+04</rscale>
<asrwt>0</asrwt>
<pdfrwt beam="1">  1        2 0.10080481E+00 0.16529192E+04</pdfrwt>
<pdfrwt beam="2">  1       -2 0.16037448E+00 0.16529192E+04</pdfrwt>
<totfact> 0.10633577E+01</totfact>
</mgrwt>
</event>
<event>
12    2  0.3623523E-008  0.2081811E+04  0.7818608E-02  0.8569298E-01
          2   -1    0    0  501    0  0.00000000000E+00  0.00000000000E+00  0.25918141055E+04  0.25918141055E+04  0.00000000000E+00 0. -1.
         -2   -1    0    0    0  501 -0.00000000000E+00 -0.00000000000E+00 -0.41804088724E+03  0.41804088724E+03  0.00000000000E+00 0.  1.
         23    2    1    2    0    0  0.25624917805E+03  0.44903601172E+03  0.18550983688E+04  0.19279653191E+04  0.91451257440E+02 0.  0.
        254    2    1    2    0    0 -0.25624917805E+03 -0.44903601172E+03  0.31867484947E+03  0.10818896737E+04  0.89534050801E+03 0.  0.
         23    2    4    4    0    0  0.12424839617E+03 -0.51424940674E+03 -0.50784454066E+02  0.53970717958E+03  0.93886434768E+02 0.  0.
         23    2    4    4    0    0 -0.38049757422E+03  0.65213395016E+02  0.36945930354E+03  0.54218249411E+03  0.91817694742E+02 0.  0.
          4    1    3    3  502    0  0.12577549868E+03  0.15980765014E+03  0.60677293967E+03  0.63994637387E+03  0.00000000000E+00 0.  1.
         -4    1    3    3    0  502  0.13047367937E+03  0.28922836158E+03  0.12483254291E+04  0.12880189452E+04  0.00000000000E+00 0. -1.
         11    1    5    5    0    0  0.39827362870E+02 -0.14466968860E+03  0.27653107542E+02  0.15257860922E+03  0.00000000000E+00 0.  1.
        -11    1    5    5    0    0  0.84421033304E+02 -0.36957971814E+03 -0.78437561609E+02  0.38712857036E+03  0.00000000000E+00 0. -1.
          4    1    6    6  503    0 -0.18192250386E+03  0.56188063110E+02  0.12800233285E+03  0.22942862302E+03  0.00000000000E+00 0.  1.
         -4    1    6    6    0  503 -0.19857507037E+03  0.90253319063E+01  0.24145697069E+03  0.31275387109E+03  0.00000000000E+00 0. -1.
<mgrwt>
<rscale>  0 0.20818110E+04</rscale>
<asrwt>0</asrwt>
<pdfrwt beam="1">  1        2 0.39874062E+00 0.20818110E+04</pdfrwt>
<pdfrwt beam="2">  1       -2 0.64313984E-01 0.20818110E+04</pdfrwt>
<totfact> 0.63464827E+00</totfact>
</mgrwt>
</event>
<event>
12    2  0.3623523E-008  0.2098661E+04  0.7818608E-02  0.8561834E-01
         -2   -1    0    0    0  501 -0.00000000000E+00  0.00000000000E+00  0.10191771219E+04  0.10191771219E+04  0.00000000000E+00 0.  1.
          2   -1    0    0  501    0  0.00000000000E+00 -0.00000000000E+00 -0.10803755621E+04  0.10803755621E+04  0.00000000000E+00 0. -1.
         23    2    1    2    0    0  0.56731257005E+03  0.41350411521E+02  0.61242147088E+03  0.84071692315E+03  0.90506785405E+02 0.  0.
        254    2    1    2    0    0 -0.56731257005E+03 -0.41350411521E+02 -0.67361991110E+03  0.12588357609E+04  0.89852672727E+03 0.  0.
         23    2    4    4    0    0  0.22633057591E+03  0.38199150202E+02 -0.77563317581E+02  0.25898421082E+03  0.91498899185E+02 0.  0.
         23    2    4    4    0    0 -0.79364314596E+03 -0.79549561723E+02 -0.59605659352E+03  0.99985155008E+03  0.90675705744E+02 0.  0.
          4    1    3    3  502    0  0.96332417733E+02  0.36770140942E+02  0.85290356381E+02  0.13381488282E+03  0.00000000000E+00 0. -1.
         -4    1    3    3    0  502  0.47098015231E+03  0.45802705788E+01  0.52713111450E+03  0.70690204033E+03  0.00000000000E+00 0.  1.
         11    1    5    5    0    0  0.23133231687E+03  0.26496363201E+02 -0.79642478868E+02  0.24608864771E+03  0.00000000000E+00 0.  1.
        -11    1    5    5    0    0 -0.50017409615E+01  0.11702787001E+02  0.20791612872E+01  0.12895563109E+02  0.00000000000E+00 0. -1.
          3    1    6    6  503    0 -0.12279627153E+03 -0.44705062850E+02 -0.10775092274E+03  0.16937452080E+03  0.00000000000E+00 0. -1.
         -3    1    6    6    0  503 -0.67084687443E+03 -0.34844498873E+02 -0.48830567078E+03  0.83047702928E+03  0.00000000000E+00 0.  1.
<mgrwt>
<rscale>  0 0.20986606E+04</rscale>
<asrwt>0</asrwt>
<pdfrwt beam="1">  1        2 0.16621162E+00 0.20986606E+04</pdfrwt>
<pdfrwt beam="2">  1       -2 0.15679648E+00 0.20986606E+04</pdfrwt>
<totfact> 0.54950061E+00</totfact>
</mgrwt>
</event>
<event>
12    2  0.3623523E-008  0.1896848E+04  0.7818608E-02  0.8656427E-01
         -2   -1    0    0    0  501 -0.00000000000E+00  0.00000000000E+00  0.46517553149E+03  0.46517553149E+03  0.00000000000E+00 0.  1.
          2   -1    0    0  501    0  0.00000000000E+00 -0.00000000000E+00 -0.19336953323E+04  0.19336953323E+04  0.00000000000E+00 0. -1.
         23    2    1    2    0    0 -0.45627320046E+03 -0.44563271156E+03 -0.96751489629E+03  0.11624910673E+04  0.92339915355E+02 0.  0.
        254    2    1    2    0    0  0.45627320046E+03  0.44563271156E+03 -0.50100490453E+03  0.12363797965E+04  0.93319630289E+03 0.  0.
         23    2    4    4    0    0  0.55538866999E+02  0.13597543192E+03 -0.67315148662E+03  0.69568614924E+03  0.96293356309E+02 0.  0.
         23    2    4    4    0    0  0.40073433346E+03  0.30965727964E+03  0.17214658210E+03  0.54069364725E+03  0.78990743750E+02 0.  0.
          2    1    3    3  502    0 -0.35189316435E+03 -0.31928238120E+03 -0.64972905204E+03  0.80493346254E+03  0.00000000000E+00 0. -1.
         -2    1    3    3    0  502 -0.10438003611E+03 -0.12635033037E+03 -0.31778584426E+03  0.35755760478E+03  0.00000000000E+00 0.  1.
         11    1    5    5    0    0  0.56270396888E+01  0.30503964341E+02 -0.34215764308E+02  0.46183048225E+02  0.00000000000E+00 0. -1.
        -11    1    5    5    0    0  0.49911827310E+02  0.10547146758E+03 -0.63893572232E+03  0.64950310102E+03  0.00000000000E+00 0.  1.
          1    1    6    6  503    0  0.13434390629E+03  0.15097292767E+03  0.78311211397E+02  0.21673429788E+03  0.00000000000E+00 0. -1.
         -1    1    6    6    0  503  0.26639042718E+03  0.15868435197E+03  0.93835370698E+02  0.32395934937E+03  0.00000000000E+00 0.  1.
<mgrwt>
<rscale>  0 0.18968477E+04</rscale>
<asrwt>0</asrwt>
<pdfrwt beam="1">  1        2 0.29749159E+00 0.18968477E+04</pdfrwt>
<pdfrwt beam="2">  1       -2 0.71565465E-01 0.18968477E+04</pdfrwt>
<totfact> 0.12065379E+01</totfact>
</mgrwt>
</event>
<event>
12    2  0.3623523E-008  0.1671663E+04  0.7818608E-02  0.8777693E-01
          2   -1    0    0  501    0  0.00000000000E+00  0.00000000000E+00  0.50880378609E+03  0.50880378609E+03  0.00000000000E+00 0. -1.
         -2   -1    0    0    0  501 -0.00000000000E+00 -0.00000000000E+00 -0.13730517542E+04  0.13730517542E+04  0.00000000000E+00 0.  1.
         23    2    1    2    0    0  0.42232965391E+03  0.26338588484E+03 -0.66056691449E+03  0.83208507441E+03  0.91008030594E+02 0.  0.
        254    2    1    2    0    0 -0.42232965391E+03 -0.26338588484E+03 -0.20368105357E+03  0.10497704658E+04  0.90155288166E+03 0.  0.
         23    2    4    4    0    0 -0.20802196196E+03 -0.35519310064E+03  0.27943001180E+03  0.50588494462E+03  0.91668807652E+02 0.  0.
         23    2    4    4    0    0 -0.21430769195E+03  0.91807215799E+02 -0.48311106537E+03  0.54388552121E+03  0.89770858295E+02 0.  0.
          2    1    3    3  502    0  0.70318851204E+02  0.23528791782E+02 -0.57888765449E+02  0.94071536836E+02  0.00000000000E+00 0. -1.
         -2    1    3    3    0  502  0.35201080271E+03  0.23985709306E+03 -0.60267814904E+03  0.73801353758E+03  0.00000000000E+00 0.  1.
         11    1    5    5    0    0 -0.49547485776E+02 -0.16391201910E+03  0.13889567264E+03  0.22048607945E+03  0.00000000000E+00 0. -1.
        -11    1    5    5    0    0 -0.15847447618E+03 -0.19128108153E+03  0.14053433916E+03  0.28539886516E+03  0.00000000000E+00 0.  1.
          3    1    6    6  503    0 -0.18376396857E+03  0.10943883488E+03 -0.39977142446E+03  0.45339083199E+03  0.00000000000E+00 0. -1.
         -3    1    6    6    0  503 -0.30543723386E+02 -0.17631619077E+02 -0.83339640912E+02  0.90494689219E+02  0.00000000000E+00 0.  1.
<mgrwt>
<rscale>  0 0.16716626E+04</rscale>
<asrwt>0</asrwt>
<pdfrwt beam="1">  1        2 0.78277505E-01 0.16716626E+04</pdfrwt>
<pdfrwt beam="2">  1       -2 0.21123873E+00 0.16716626E+04</pdfrwt>
<totfact> 0.64637339E+00</totfact>
</mgrwt>
</event>
<event>
12    2  0.3623523E-008  0.1811156E+04  0.7818608E-02  0.8700389E-01
         -1   -1    0    0    0  501 -0.00000000000E+00  0.00000000000E+00  0.59355736892E+03  0.59355736892E+03  0.00000000000E+00 0.  1.
          1   -1    0    0  501    0  0.00000000000E+00 -0.00000000000E+00 -0.13816210301E+04  0.13816210301E+04  0.00000000000E+00 0. -1.
         23    2    1    2    0    0  0.36144997335E+03 -0.30446740433E+03  0.23689971827E+03  0.53666270119E+03  0.92406140475E+02 0.  0.
        254    2    1    2    0    0 -0.36144997335E+03  0.30446740433E+03 -0.10249633794E+04  0.14385156978E+04  0.89186938515E+03 0.  0.
         23    2    4    4    0    0 -0.52760594298E+03  0.48527338926E+03 -0.59972301557E+03  0.93908559216E+03  0.91409849542E+02 0.  0.
         23    2    4    4    0    0  0.16615596964E+03 -0.18080598493E+03 -0.42524036386E+03  0.49943010566E+03  0.91117797129E+02 0.  0.
          2    1    3    3  502    0  0.82849647646E+02 -0.97685537672E+02  0.26192572890E+02  0.13073859132E+03  0.00000000000E+00 0. -1.
         -2    1    3    3    0  502  0.27860032570E+03 -0.20678186666E+03  0.21070714537E+03  0.40592410987E+03  0.00000000000E+00 0.  1.
         11    1    5    5    0    0 -0.15104741130E+03  0.13153491737E+03 -0.22255241801E+03  0.29940997596E+03  0.00000000000E+00 0.  1.
        -11    1    5    5    0    0 -0.37655853168E+03  0.35373847190E+03 -0.37717059756E+03  0.63967561619E+03  0.00000000000E+00 0. -1.
          1    1    6    6  503    0  0.10884617452E+03 -0.17160186714E+03 -0.34494424119E+03  0.40035137073E+03  0.00000000000E+00 0. -1.
         -1    1    6    6    0  503  0.57309795113E+02 -0.92041177911E+01 -0.80296122664E+02  0.99078734928E+02  0.00000000000E+00 0.  1.
<mgrwt>
<rscale>  0 0.18111558E+04</rscale>
<asrwt>0</asrwt>
<pdfrwt beam="1">  1        1 0.21255708E+00 0.18111558E+04</pdfrwt>
<pdfrwt beam="2">  1       -1 0.91316519E-01 0.18111558E+04</pdfrwt>
<totfact> 0.87281420E+00</totfact>
</mgrwt>
</event>
<event>
12    2  0.3623523E-008  0.1177464E+04  0.7818608E-02  0.9132814E-01
         -3   -1    0    0    0  501 -0.00000000000E+00  0.00000000000E+00  0.64302239474E+03  0.64302239474E+03  0.00000000000E+00 0.  1.
          3   -1    0    0  501    0  0.00000000000E+00 -0.00000000000E+00 -0.53902545747E+03  0.53902545747E+03  0.00000000000E+00 0. -1.
         23    2    1    2    0    0  0.21221878144E+03  0.97607791401E+02  0.18871004241E+02  0.25157598954E+03  0.91489188314E+02 0.  0.
        254    2    1    2    0    0 -0.21221878144E+03 -0.97607791401E+02  0.85125933038E+02  0.93047186267E+03  0.89664227572E+03 0.  0.
         23    2    4    4    0    0 -0.41898635776E+03  0.18608033623E+03  0.25235626918E+03  0.53139269812E+03  0.92298718858E+02 0.  0.
         23    2    4    4    0    0  0.20676757632E+03 -0.28368812763E+03 -0.16723033615E+03  0.39907916454E+03  0.89813194303E+02 0.  0.
          1    1    3    3  502    0  0.10852009798E+03  0.36966013315E+02 -0.35077543338E+02  0.11988966533E+03  0.00000000000E+00 0. -1.
         -1    1    3    3    0  502  0.10369868346E+03  0.60641778086E+02  0.53948547579E+02  0.13168632422E+03  0.00000000000E+00 0.  1.
         11    1    5    5    0    0 -0.26883943243E+03  0.80510218412E+02  0.18376468168E+03  0.33544894385E+03  0.00000000000E+00 0.  1.
        -11    1    5    5    0    0 -0.15014692533E+03  0.10557011781E+03  0.68591587500E+02  0.19594375427E+03  0.00000000000E+00 0. -1.
          4    1    6    6  503    0  0.49901360644E+02 -0.87494846838E+02 -0.66512630790E+01  0.10094420894E+03  0.00000000000E+00 0. -1.
         -4    1    6    6    0  503  0.15686621568E+03 -0.19619328079E+03 -0.16057907307E+03  0.29813495561E+03  0.00000000000E+00 0.  1.
<mgrwt>
<rscale>  0 0.11774641E+04</rscale>
<asrwt>0</asrwt>
<pdfrwt beam="1">  1        3 0.82926994E-01 0.11774641E+04</pdfrwt>
<pdfrwt beam="2">  1       -3 0.98926522E-01 0.11774641E+04</pdfrwt>
<totfact> 0.31168602E+00</totfact>
</mgrwt>
</event>
<event>
12    2  0.3623523E-008  0.1251482E+04  0.7818608E-02  0.9068951E-01
          2   -1    0    0  501    0  0.00000000000E+00  0.00000000000E+00  0.11346212370E+04  0.11346212370E+04  0.00000000000E+00 0. -1.
         -2   -1    0    0    0  501 -0.00000000000E+00 -0.00000000000E+00 -0.34509474967E+03  0.34509474967E+03  0.00000000000E+00 0.  1.
         23    2    1    2    0    0  0.26214076127E+03 -0.98262075679E+02  0.65593181777E+02  0.30126882212E+03  0.89928991136E+02 0.  0.
        254    2    1    2    0    0 -0.26214076127E+03  0.98262075679E+02  0.72393330552E+03  0.11784471645E+04  0.88672717026E+03 0.  0.
         23    2    4    4    0    0 -0.37486602283E+03 -0.25873854363E+03  0.62757321875E+03  0.78104570237E+03  0.93349211414E+02 0.  0.
         23    2    4    4    0    0  0.11272526155E+03  0.35700061931E+03  0.96360086769E+02  0.39740146214E+03  0.92120730629E+02 0.  0.
          3    1    3    3  502    0  0.14497507901E+03 -0.93197292952E+02  0.64404695275E+02  0.18398769992E+03  0.00000000000E+00 0. -1.
         -3    1    3    3    0  502  0.11716568226E+03 -0.50647827273E+01  0.11884865017E+01  0.11728112220E+03  0.00000000000E+00 0.  1.
         11    1    5    5    0    0 -0.27392720037E+03 -0.14705422652E+03  0.46617221741E+03  0.56033703512E+03  0.00000000000E+00 0. -1.
        -11    1    5    5    0    0 -0.10093882246E+03 -0.11168431711E+03  0.16140100134E+03  0.22070866725E+03  0.00000000000E+00 0.  1.
          4    1    6    6  503    0  0.12030468245E+03  0.35428178970E+03  0.10171611834E+03  0.38773054028E+03  0.00000000000E+00 0. -1.
         -4    1    6    6    0  503 -0.75794208998E+01  0.27188296124E+01 -0.53560315689E+01  0.96709218694E+01  0.00000000000E+00 0.  1.
<mgrwt>
<rscale>  0 0.12514821E+04</rscale>
<asrwt>0</asrwt>
<pdfrwt beam="1">  1        2 0.17455711E+00 0.12514821E+04</pdfrwt>
<pdfrwt beam="2">  1       -2 0.53091500E-01 0.12514821E+04</pdfrwt>
<totfact> 0.68236809E+01</totfact>
</mgrwt>
</event>
<event>
12    2  0.3623523E-008  0.1164744E+04  0.7818608E-02  0.9144288E-01
          2   -1    0    0  501    0  0.00000000000E+00  0.00000000000E+00  0.12670070768E+04  0.12670070768E+04  0.00000000000E+00 0. -1.
         -2   -1    0    0    0  501 -0.00000000000E+00 -0.00000000000E+00 -0.26768370047E+03  0.26768370047E+03  0.00000000000E+00 0.  1.
         23    2    1    2    0    0 -0.12796594508E+03 -0.86015829466E+02 -0.21735629428E+02  0.17874058665E+03  0.87759635987E+02 0.  0.
        254    2    1    2    0    0  0.12796594508E+03  0.86015829466E+02  0.10210590057E+04  0.13559501906E+04  0.87878633365E+03 0.  0.
         23    2    4    4    0    0  0.72180680951E+02  0.46767677673E+03  0.67879136263E+03  0.83220039284E+03  0.88702658780E+02 0.  0.
         23    2    4    4    0    0  0.55785264131E+02 -0.38166094726E+03  0.34226764312E+03  0.52374979778E+03  0.91594960498E+02 0.  0.
          1    1    3    3  502    0 -0.15983589264E+02 -0.29050096350E+02  0.28214289661E+02  0.43536529085E+02  0.00000000000E+00 0. -1.
         -1    1    3    3    0  502 -0.11198235582E+03 -0.56965733116E+02 -0.49949919089E+02  0.13520405756E+03  0.00000000000E+00 0.  1.
         11    1    5    5    0    0  0.31156702556E+02  0.40063536831E+03  0.58678503079E+03  0.71119344120E+03  0.00000000000E+00 0. -1.
        -11    1    5    5    0    0  0.41023978395E+02  0.67041408419E+02  0.92006331840E+02  0.12100695164E+03  0.00000000000E+00 0.  1.
          1    1    6    6  503    0  0.54338770334E+02 -0.24176047894E+03  0.16404826519E+03  0.29717446803E+03  0.00000000000E+00 0. -1.
         -1    1    6    6    0  503  0.14464937974E+01 -0.13990046833E+03  0.17821937793E+03  0.22657532975E+03  0.00000000000E+00 0.  1.
<mgrwt>
<rscale>  0 0.11647440E+04</rscale>
<asrwt>0</asrwt>
<pdfrwt beam="1">  1        2 0.19492416E+00 0.11647440E+04</pdfrwt>
<pdfrwt beam="2">  1       -2 0.41182109E-01 0.11647440E+04</pdfrwt>
<totfact> 0.95407049E+01</totfact>
</mgrwt>
</event>
<event>
12    2  0.3623523E-008  0.2256674E+04  0.7818608E-02  0.8495203E-01
          2   -1    0    0  501    0  0.00000000000E+00  0.00000000000E+00  0.19115507371E+04  0.19115507371E+04  0.00000000000E+00 0.  1.
         -2   -1    0    0    0  501 -0.00000000000E+00 -0.00000000000E+00 -0.66602695159E+03  0.66602695159E+03  0.00000000000E+00 0. -1.
         23    2    1    2    0    0  0.85836072268E+03  0.42369214287E+02  0.95060717044E+03  0.12847043892E+04  0.90736401486E+02 0.  0.
        254    2    1    2    0    0 -0.85836072268E+03 -0.42369214287E+02  0.29491661505E+03  0.12928732995E+04  0.91976479498E+03 0.  0.
         23    2    4    4    0    0 -0.58219803923E+03  0.35501204606E+03  0.39091946329E+03  0.79117433344E+03  0.90281168462E+02 0.  0.
         23    2    4    4    0    0 -0.27616268346E+03 -0.39738126035E+03 -0.96002848239E+02  0.50169896604E+03  0.91146101627E+02 0.  0.
          4    1    3    3  502    0  0.17869733386E+03  0.36867512550E+02  0.16642975225E+03  0.24696318156E+03  0.00000000000E+00 0. -1.
         -4    1    3    3    0  502  0.67966338882E+03  0.55017017365E+01  0.78417741818E+03  0.10377412076E+04  0.00000000000E+00 0.  1.
         11    1    5    5    0    0 -0.58062583843E+03  0.34070592425E+03  0.38567892443E+03  0.77585766982E+03  0.00000000000E+00 0. -1.
        -11    1    5    5    0    0 -0.15722007965E+01  0.14306121816E+02  0.52405388615E+01  0.15316663616E+02  0.00000000000E+00 0.  1.
          1    1    6    6  503    0 -0.12064027896E+03 -0.22346694232E+03 -0.13782569223E+02  0.25432559925E+03  0.00000000000E+00 0. -1.
         -1    1    6    6    0  503 -0.15552240450E+03 -0.17391431803E+03 -0.82220279015E+02  0.24737336679E+03  0.00000000000E+00 0.  1.
<mgrwt>
<rscale>  0 0.22566739E+04</rscale>
<asrwt>0</asrwt>
<pdfrwt beam="1">  1        2 0.29408473E+00 0.22566739E+04</pdfrwt>
<pdfrwt beam="2">  1       -2 0.10246569E+00 0.22566739E+04</pdfrwt>
<totfact> 0.53056270E+00</totfact>
</mgrwt>
</event>
<event>
12    2  0.3623523E-008  0.2831346E+04  0.7818608E-02  0.8293602E-01
         -2   -1    0    0    0  501 -0.00000000000E+00  0.00000000000E+00  0.12772015179E+04  0.12772015179E+04  0.00000000000E+00 0.  1.
          2   -1    0    0  501    0  0.00000000000E+00 -0.00000000000E+00 -0.15691568811E+04  0.15691568811E+04  0.00000000000E+00 0. -1.
         23    2    1    2    0    0  0.27401024894E+03  0.67568766942E+03 -0.11772235459E+04  0.13877469919E+04  0.91383770080E+02 0.  0.
        254    2    1    2    0    0 -0.27401024894E+03 -0.67568766942E+03  0.88526818278E+03  0.14586114070E+04  0.90122807223E+03 0.  0.
         23    2    4    4    0    0 -0.50270618437E+03 -0.96520191394E+02  0.30546749474E+03  0.60275365609E+03  0.89285633999E+02 0.  0.
         23    2    4    4    0    0  0.22869593543E+03 -0.57916747802E+03  0.57980068804E+03  0.85585775095E+03  0.92665276788E+02 0.  0.
          3    1    3    3  502    0  0.23773182157E+03  0.54296504592E+03 -0.10112510389E+04  0.11721587451E+04  0.00000000000E+00 0. -1.
         -3    1    3    3    0  502  0.36278427378E+02  0.13272262350E+03 -0.16597250703E+03  0.21558824683E+03  0.00000000000E+00 0.  1.
         11    1    5    5    0    0 -0.29046591191E+02 -0.93672265010E+01 -0.32483135737E+01  0.30692033710E+02  0.00000000000E+00 0. -1.
        -11    1    5    5    0    0 -0.47365959318E+03 -0.87152964893E+02  0.30871580831E+03  0.57206162238E+03  0.00000000000E+00 0.  1.
          1    1    6    6  503    0  0.12103236222E+03 -0.21165859426E+03  0.18701920116E+03  0.30728549401E+03  0.00000000000E+00 0. -1.
         -1    1    6    6    0  503  0.10766357321E+03 -0.36750888377E+03  0.39278148688E+03  0.54857225693E+03  0.00000000000E+00 0.  1.
<mgrwt>
<rscale>  0 0.28313457E+04</rscale>
<asrwt>0</asrwt>
<pdfrwt beam="1">  1        2 0.24140875E+00 0.28313457E+04</pdfrwt>
<pdfrwt beam="2">  1       -2 0.19649254E+00 0.28313457E+04</pdfrwt>
<totfact> 0.14131090E+00</totfact>
</mgrwt>
</event>
<event>
12    2  0.3623523E-008  0.2150875E+04  0.7818608E-02  0.8539158E-01
          2   -1    0    0  501    0  0.00000000000E+00  0.00000000000E+00  0.18133239567E+04  0.18133239567E+04  0.00000000000E+00 0. -1.
         -2   -1    0    0    0  501 -0.00000000000E+00 -0.00000000000E+00 -0.63781532019E+03  0.63781532019E+03  0.00000000000E+00 0.  1.
         23    2    1    2    0    0 -0.58932954856E+03 -0.52827228926E+03  0.94788985397E+03  0.12375767269E+04  0.81975918496E+02 0.  0.
        254    2    1    2    0    0  0.58932954856E+03  0.52827228926E+03  0.22761878259E+03  0.12135625501E+04  0.89137131676E+03 0.  0.
         23    2    4    4    0    0  0.13805361790E+03  0.66686050836E+03  0.25113917395E+03  0.73195098361E+03  0.94443732869E+02 0.  0.
         23    2    4    4    0    0  0.45127593066E+03 -0.13858821910E+03 -0.23520391366E+02  0.48161156646E+03  0.92411211866E+02 0.  0.
          1    1    3    3  502    0 -0.43085288216E+03 -0.42761272537E+03  0.69836484249E+03  0.92531092190E+03  0.00000000000E+00 0. -1.
         -1    1    3    3    0  502 -0.15847666640E+03 -0.10065956389E+03  0.24952501148E+03  0.31226580496E+03  0.00000000000E+00 0.  1.
         11    1    5    5    0    0  0.58744572208E+02  0.11002804329E+03  0.36812379503E+02  0.13004709285E+03  0.00000000000E+00 0.  1.
        -11    1    5    5    0    0  0.79309045697E+02  0.55683246507E+03  0.21432679445E+03  0.60190389076E+03  0.00000000000E+00 0. -1.
          1    1    6    6  503    0  0.26664551559E+03 -0.35668720066E+02 -0.25475618055E+02  0.27022415823E+03  0.00000000000E+00 0. -1.
         -1    1    6    6    0  503  0.18463041507E+03 -0.10291949903E+03  0.19552266885E+01  0.21138740824E+03  0.00000000000E+00 0.  1.
<mgrwt>
<rscale>  0 0.21508750E+04</rscale>
<asrwt>0</asrwt>
<pdfrwt beam="1">  1        2 0.27897291E+00 0.21508750E+04</pdfrwt>
<pdfrwt beam="2">  1       -2 0.98125435E-01 0.21508750E+04</pdfrwt>
<totfact> 0.67246998E+00</totfact>
</mgrwt>
</event>
<event>
12    2  0.3623523E-008  0.2007056E+04  0.7818608E-02  0.8603329E-01
          2   -1    0    0  501    0  0.00000000000E+00  0.00000000000E+00  0.67929490413E+03  0.67929490413E+03  0.00000000000E+00 0.  1.
         -2   -1    0    0    0  501 -0.00000000000E+00 -0.00000000000E+00 -0.14825207548E+04  0.14825207548E+04  0.00000000000E+00 0. -1.
         23    2    1    2    0    0  0.70802678836E+03  0.35848626834E+03 -0.33926726874E+03  0.86796732399E+03  0.91927461933E+02 0.  0.
        254    2    1    2    0    0 -0.70802678836E+03 -0.35848626834E+03 -0.46395858191E+03  0.12938483349E+04  0.91047878089E+03 0.  0.
         23    2    4    4    0    0  0.41326140850E+02  0.29601904235E+00  0.20153716305E+03  0.22549225253E+03  0.92312460231E+02 0.  0.
         23    2    4    4    0    0 -0.74935292921E+03 -0.35878228738E+03 -0.66549574496E+03  0.10683560824E+04  0.90805231078E+02 0.  0.
          1    1    3    3  502    0  0.39220123757E+03  0.18258362060E+03 -0.23190227948E+03  0.49085359986E+03  0.00000000000E+00 0. -1.
         -1    1    3    3    0  502  0.31582555078E+03  0.17590264774E+03 -0.10736498925E+03  0.37711372413E+03  0.00000000000E+00 0.  1.
         11    1    5    5    0    0  0.65931974027E+02 -0.94939294765E+00  0.18341535425E+03  0.19490797500E+03  0.00000000000E+00 0. -1.
        -11    1    5    5    0    0 -0.24605833177E+02  0.12454119900E+01  0.18121808806E+02  0.30584277525E+02  0.00000000000E+00 0.  1.
          4    1    6    6  503    0 -0.56562114398E+03 -0.30814143552E+03 -0.49038903817E+03  0.80954297697E+03  0.00000000000E+00 0. -1.
         -4    1    6    6    0  503 -0.18373178523E+03 -0.50640851859E+02 -0.17510670679E+03  0.25881310543E+03  0.00000000000E+00 0.  1.
<mgrwt>
<rscale>  0 0.20070563E+04</rscale>
<asrwt>0</asrwt>
<pdfrwt beam="1">  1        2 0.10450691E+00 0.20070563E+04</pdfrwt>
<pdfrwt beam="2">  1       -2 0.22808011E+00 0.20070563E+04</pdfrwt>
<totfact> 0.34717103E+00</totfact>
</mgrwt>
</event>
<event>
12    2  0.3623523E-008  0.3603968E+04  0.7818608E-02  0.8089583E-01
          2   -1    0    0  501    0  0.00000000000E+00  0.00000000000E+00  0.22118534213E+04  0.22118534213E+04  0.00000000000E+00 0. -1.
         -2   -1    0    0    0  501 -0.00000000000E+00 -0.00000000000E+00 -0.14680654132E+04  0.14680654132E+04  0.00000000000E+00 0.  1.
         23    2    1    2    0    0 -0.12840535156E+04  0.52455103813E+03 -0.63296124751E+03  0.15273848192E+04  0.91198807462E+02 0.  0.
        254    2    1    2    0    0  0.12840535156E+04 -0.52455103813E+03  0.13767492556E+04  0.21525340153E+04  0.90222887978E+03 0.  0.
         23    2    4    4    0    0  0.11654156862E+04 -0.40243506735E+03  0.64280067507E+03  0.13934279105E+04  0.91109433538E+02 0.  0.
         23    2    4    4    0    0  0.11863782944E+03 -0.12211597078E+03  0.73394858055E+03  0.75910610477E+03  0.92597594549E+02 0.  0.
          1    1    3    3  502    0 -0.82828022269E+03  0.34349866660E+03 -0.36114904808E+03  0.96667890025E+03  0.00000000000E+00 0. -1.
         -1    1    3    3    0  502 -0.45577329295E+03  0.18105237153E+03 -0.27181219944E+03  0.56070591897E+03  0.00000000000E+00 0.  1.
         11    1    5    5    0    0 -0.33031001803E-01  0.23794786854E+01  0.28933981954E+00  0.23972332787E+01  0.00000000000E+00 0. -1.
        -11    1    5    5    0    0  0.11654487172E+04 -0.40481454604E+03  0.64251133525E+03  0.13910306772E+04  0.00000000000E+00 0.  1.
          2    1    6    6  503    0  0.97203097284E+02 -0.98073358081E+02  0.39133595788E+03  0.41498271966E+03  0.00000000000E+00 0. -1.
         -2    1    6    6    0  503  0.21434732160E+02 -0.24042612702E+02  0.34261262267E+03  0.34412338511E+03  0.00000000000E+00 0.  1.
<mgrwt>
<rscale>  0 0.36039675E+04</rscale>
<asrwt>0</asrwt>
<pdfrwt beam="1">  1        2 0.34028514E+00 0.36039675E+04</pdfrwt>
<pdfrwt beam="2">  1       -2 0.22585622E+00 0.36039675E+04</pdfrwt>
<totfact> 0.37609434E-01</totfact>
</mgrwt>
</event>
<event>
12    2  0.3623523E-008  0.2021801E+04  0.7818608E-02  0.8596495E-01
          2   -1    0    0  501    0  0.00000000000E+00  0.00000000000E+00  0.84504667714E+03  0.84504667714E+03  0.00000000000E+00 0. -1.
         -2   -1    0    0    0  501 -0.00000000000E+00 -0.00000000000E+00 -0.12093056458E+04  0.12093056458E+04  0.00000000000E+00 0.  1.
         23    2    1    2    0    0  0.33929287306E+03  0.51616549545E+02  0.59507599148E+03  0.69326226977E+03  0.93344615064E+02 0.  0.
        254    2    1    2    0    0 -0.33929287306E+03 -0.51616549545E+02 -0.95933496016E+03  0.13610900532E+04  0.90247362577E+03 0.  0.
         23    2    4    4    0    0  0.10274771286E+03  0.33830641940E+03 -0.30229844052E+03  0.47394413720E+03  0.90721398450E+02 0.  0.
         23    2    4    4    0    0 -0.44204058592E+03 -0.38992296894E+03 -0.65703651964E+03  0.88714591599E+03  0.88831789461E+02 0.  0.
          4    1    3    3  502    0  0.93115722631E+02 -0.24751065887E+02  0.19205325357E+03  0.21486648243E+03  0.00000000000E+00 0.  1.
         -4    1    3    3    0  502  0.24617715043E+03  0.76367615432E+02  0.40302273791E+03  0.47839578735E+03  0.00000000000E+00 0. -1.
         11    1    5    5    0    0 -0.10638556797E+02  0.41315710311E+02 -0.62816391645E+02  0.75934615746E+02  0.00000000000E+00 0. -1.
        -11    1    5    5    0    0  0.11338626965E+03  0.29699070909E+03 -0.23948204888E+03  0.39800952145E+03  0.00000000000E+00 0.  1.
          1    1    6    6  503    0 -0.12548078178E+02 -0.16422366837E+01 -0.18463490064E+01  0.12789066109E+02  0.00000000000E+00 0. -1.
         -1    1    6    6    0  503 -0.42949250774E+03 -0.38828073226E+03 -0.65519017063E+03  0.87435684989E+03  0.00000000000E+00 0.  1.
<mgrwt>
<rscale>  0 0.20218009E+04</rscale>
<asrwt>0</asrwt>
<pdfrwt beam="1">  1        2 0.13000718E+00 0.20218009E+04</pdfrwt>
<pdfrwt beam="2">  1       -2 0.18604702E+00 0.20218009E+04</pdfrwt>
<totfact> 0.48884287E+00</totfact>
</mgrwt>
</event>
<event>
12    2  0.3623523E-008  0.1280174E+04  0.7818608E-02  0.9045437E-01
         -2   -1    0    0    0  501 -0.00000000000E+00  0.00000000000E+00  0.29911708092E+03  0.29911708092E+03  0.00000000000E+00 0.  1.
          2   -1    0    0  501    0  0.00000000000E+00 -0.00000000000E+00 -0.13697364449E+04  0.13697364449E+04  0.00000000000E+00 0. -1.
         23    2    1    2    0    0 -0.25969317378E+03  0.15940954073E+03 -0.38477589858E+03  0.49926881633E+03  0.91459896426E+02 0.  0.
        254    2    1    2    0    0  0.25969317378E+03 -0.15940954073E+03 -0.68584346542E+03  0.11695847095E+04  0.89704804077E+03 0.  0.
         23    2    4    4    0    0 -0.23090015660E+03 -0.32722204483E+03 -0.37638821509E+03  0.55792425742E+03  0.96032492489E+02 0.  0.
         23    2    4    4    0    0  0.49059333038E+03  0.16781250410E+03 -0.30945525032E+03  0.61166045208E+03  0.97586394229E+02 0.  0.
          4    1    3    3  502    0 -0.22563102871E+03  0.11830078103E+03 -0.35840079494E+03  0.43972214604E+03  0.00000000000E+00 0. -1.
         -4    1    3    3    0  502 -0.34062145066E+02  0.41108759701E+02 -0.26375103642E+02  0.59546670291E+02  0.00000000000E+00 0.  1.
         11    1    5    5    0    0 -0.82079356060E+01 -0.76062002918E+01  0.54491447746E+01  0.12446592649E+02  0.00000000000E+00 0. -1.
        -11    1    5    5    0    0 -0.22269222100E+03 -0.31961584453E+03 -0.38183735987E+03  0.54547766477E+03  0.00000000000E+00 0.  1.
          3    1    6    6  503    0  0.16816563165E+03  0.32484159540E+02 -0.14863314451E+03  0.22677458397E+03  0.00000000000E+00 0. -1.
         -3    1    6    6    0  503  0.32242769873E+03  0.13532834456E+03 -0.16082210582E+03  0.38488586811E+03  0.00000000000E+00 0.  1.
<mgrwt>
<rscale>  0 0.12801743E+04</rscale>
<asrwt>0</asrwt>
<pdfrwt beam="1">  1        2 0.21072868E+00 0.12801743E+04</pdfrwt>
<pdfrwt beam="2">  1       -2 0.46018013E-01 0.12801743E+04</pdfrwt>
<totfact> 0.66166733E+01</totfact>
</mgrwt>
</event>
<event>
12    2  0.5047941E-008  0.1534342E+04  0.7818608E-02  0.8861932E-01
         -1   -1    0    0    0  501 -0.00000000000E+00  0.00000000000E+00  0.58104094246E+03  0.58104094246E+03  0.00000000000E+00 0.  1.
          1   -1    0    0  501    0  0.00000000000E+00 -0.00000000000E+00 -0.10129251563E+04  0.10129251563E+04  0.00000000000E+00 0. -1.
         23    2    1    2    0    0 -0.30731872448E+03  0.85513036964E+02 -0.53639653277E+03  0.63073211481E+03  0.91348138359E+02 0.  0.
        254    2    1    2    0    0  0.30731872448E+03 -0.85513036964E+02  0.10451231892E+03  0.96323398396E+03  0.90285082109E+03 0.  0.
         23    2    4    4    0    0  0.30208595191E+03 -0.41995731859E+03 -0.13451948232E+03  0.54246465413E+03  0.92478852045E+02 0.  0.
         23    2    4    4    0    0  0.52327725729E+01  0.33444428162E+03  0.23903180124E+03  0.42076932984E+03  0.89611759875E+02 0.  0.
          1    1    3    3  502    0 -0.29667820712E+03  0.97744536117E+02 -0.52505851357E+03  0.61094876675E+03  0.00000000000E+00 0. -1.
         -1    1    3    3    0  502 -0.10640517358E+02 -0.12231499152E+02 -0.11338019199E+02  0.19783348062E+02  0.00000000000E+00 0.  1.
         11    1    5    5    0    0  0.26101684166E+03 -0.40442887689E+03 -0.12803355981E+03  0.49808141958E+03  0.00000000000E+00 0. -1.
        -11    1    5    5    0    0  0.41069110244E+02 -0.15528441700E+02 -0.64859225067E+01  0.44383234545E+02  0.00000000000E+00 0.  1.
          1    1    6    6  503    0  0.13357876196E+02  0.33008908990E+03  0.21279921946E+03  0.39296405424E+03  0.00000000000E+00 0. -1.
         -1    1    6    6    0  503 -0.81251036235E+01  0.43551917259E+01  0.26232581781E+02  0.27805275593E+02  0.00000000000E+00 0.  1.
<mgrwt>
<rscale>  0 0.15343415E+04</rscale>
<asrwt>0</asrwt>
<pdfrwt beam="1">  1        1 0.15583464E+00 0.15343415E+04</pdfrwt>
<pdfrwt beam="2">  1       -1 0.89390915E-01 0.15343415E+04</pdfrwt>
<totfact> 0.17490934E+01</totfact>
</mgrwt>
</event>
<event>
12    2  0.3623523E-008  0.1759146E+04  0.7818608E-02  0.8728332E-01
         -1   -1    0    0    0  501 -0.00000000000E+00  0.00000000000E+00  0.77859131075E+03  0.77859131075E+03  0.00000000000E+00 0.  1.
          1   -1    0    0  501    0  0.00000000000E+00 -0.00000000000E+00 -0.99365135076E+03  0.99365135076E+03  0.00000000000E+00 0. -1.
         23    2    1    2    0    0  0.24593385111E+03 -0.29133246307E+03  0.44311310232E+03  0.59158314291E+03  0.90902862260E+02 0.  0.
        254    2    1    2    0    0 -0.24593385111E+03  0.29133246307E+03 -0.65817314232E+03  0.11806595186E+04  0.90299886513E+03 0.  0.
         23    2    4    4    0    0 -0.37211186544E+03 -0.53921987990E+02 -0.69978496881E+03  0.79968438632E+03  0.91767608467E+02 0.  0.
         23    2    4    4    0    0  0.12617801433E+03  0.34525445106E+03  0.41611826485E+02  0.38097513228E+03  0.91043835795E+02 0.  0.
          3    1    3    3  502    0  0.42487188289E+01 -0.25297327503E+02  0.72871255406E+01  0.26666619379E+02  0.00000000000E+00 0. -1.
         -3    1    3    3    0  502  0.24168513228E+03 -0.26603513557E+03  0.43582597678E+03  0.56491652353E+03  0.00000000000E+00 0.  1.
         11    1    5    5    0    0 -0.19801178979E+03 -0.69597249192E+02 -0.33765842789E+03  0.39757472243E+03  0.00000000000E+00 0.  1.
        -11    1    5    5    0    0 -0.17410007565E+03  0.15675261202E+02 -0.36212654092E+03  0.40210966389E+03  0.00000000000E+00 0. -1.
          1    1    6    6  503    0  0.20529982213E+02  0.98486040804E+02 -0.26502150098E+02  0.10403530344E+03  0.00000000000E+00 0.  1.
         -1    1    6    6    0  503  0.10564803211E+03  0.24676841026E+03  0.68113976583E+02  0.27693982884E+03  0.00000000000E+00 0. -1.
<mgrwt>
<rscale>  0 0.17591456E+04</rscale>
<asrwt>0</asrwt>
<pdfrwt beam="1">  1        1 0.15286944E+00 0.17591456E+04</pdfrwt>
<pdfrwt beam="2">  1       -1 0.11978328E+00 0.17591456E+04</pdfrwt>
<totfact> 0.90135538E+00</totfact>
</mgrwt>
</event>
<event>
12    2  0.3623523E-008  0.1044473E+04  0.7818608E-02  0.9261069E-01
          3   -1    0    0  501    0  0.00000000000E+00  0.00000000000E+00  0.82682797837E+03  0.82682797837E+03  0.00000000000E+00 0. -1.
         -3   -1    0    0    0  501 -0.00000000000E+00 -0.00000000000E+00 -0.32985225823E+03  0.32985225823E+03  0.00000000000E+00 0.  1.
         23    2    1    2    0    0 -0.98251574050E+02  0.36391769134E+02  0.11799615723E+03  0.18179427697E+03  0.90268119262E+02 0.  0.
        254    2    1    2    0    0  0.98251574050E+02 -0.36391769134E+02  0.37897956291E+03  0.97488595963E+03  0.89207588944E+03 0.  0.
         23    2    4    4    0    0 -0.27152548245E+03 -0.25995299374E+03 -0.87280373737E+01  0.38736816276E+03  0.93146488420E+02 0.  0.
         23    2    4    4    0    0  0.36977705650E+03  0.22356122461E+03  0.38770760029E+03  0.58751779687E+03  0.90251236306E+02 0.  0.
          1    1    3    3  502    0 -0.49680873765E+02  0.34467487050E+02  0.11866319731E+03  0.13318089682E+03  0.00000000000E+00 0. -1.
         -1    1    3    3    0  502 -0.48570700285E+02  0.19242820843E+01 -0.66704007876E+00  0.48613380156E+02  0.00000000000E+00 0.  1.
         11    1    5    5    0    0 -0.15902243257E+03 -0.18288594701E+03 -0.44455737423E+02  0.24639747617E+03  0.00000000000E+00 0. -1.
        -11    1    5    5    0    0 -0.11250304989E+03 -0.77067046727E+02  0.35727700050E+02  0.14097068659E+03  0.00000000000E+00 0.  1.
          4    1    6    6  503    0  0.13417201737E+03  0.45093321146E+02  0.88480788800E+02  0.16692629465E+03  0.00000000000E+00 0.  1.
         -4    1    6    6    0  503  0.23560503913E+03  0.17846790346E+03  0.29922681149E+03  0.42059150222E+03  0.00000000000E+00 0. -1.
<mgrwt>
<rscale>  0 0.10444732E+04</rscale>
<asrwt>0</asrwt>
<pdfrwt beam="1">  1        3 0.12720430E+00 0.10444732E+04</pdfrwt>
<pdfrwt beam="2">  1       -3 0.50746502E-01 0.10444732E+04</pdfrwt>
<totfact> 0.49326914E+00</totfact>
</mgrwt>
</event>
<event>
12    2  0.3623523E-008  0.1199412E+04  0.7818608E-02  0.9113371E-01
         -2   -1    0    0    0  501 -0.00000000000E+00  0.00000000000E+00  0.25092261400E+04  0.25092261400E+04  0.00000000000E+00 0.  1.
          2   -1    0    0  501    0  0.00000000000E+00 -0.00000000000E+00 -0.14333007315E+03  0.14333007315E+03  0.00000000000E+00 0. -1.
         23    2    1    2    0    0  0.72900995909E+02  0.38208621757E+02  0.10598141498E+04  0.10670229557E+04  0.92506766978E+02 0.  0.
        254    2    1    2    0    0 -0.72900995909E+02 -0.38208621757E+02  0.13060819171E+04  0.15855332575E+04  0.89514874878E+03 0.  0.
         23    2    4    4    0    0  0.37335379690E+03  0.10991554257E+03  0.42177103362E+03  0.57971228427E+03  0.81859902168E+02 0.  0.
         23    2    4    4    0    0 -0.44625479281E+03 -0.14812416433E+03  0.88431088349E+03  0.10058209732E+04  0.92660581379E+02 0.  0.
          1    1    3    3  502    0 -0.16303907864E+02 -0.12043843241E+02  0.12711183925E+03  0.12871787463E+03  0.00000000000E+00 0. -1.
         -1    1    3    3    0  502  0.89204903773E+02  0.50252464997E+02  0.93270231050E+03  0.93830508104E+03  0.00000000000E+00 0.  1.
         11    1    5    5    0    0  0.33655900785E+03  0.12347811148E+03  0.38083892673E+03  0.52302686154E+03  0.00000000000E+00 0.  1.
        -11    1    5    5    0    0  0.36794789046E+02 -0.13562568905E+02  0.40932106885E+02  0.56685422732E+02  0.00000000000E+00 0. -1.
          2    1    6    6  503    0 -0.78099270507E+01  0.57450353454E+00  0.21073289615E+00  0.78338638744E+01  0.00000000000E+00 0. -1.
         -2    1    6    6    0  503 -0.43844486576E+03 -0.14869866787E+03  0.88410015060E+03  0.99798710934E+03  0.00000000000E+00 0.  1.
<mgrwt>
<rscale>  0 0.11994125E+04</rscale>
<asrwt>0</asrwt>
<pdfrwt beam="1">  1        2 0.22050782E-01 0.11994125E+04</pdfrwt>
<pdfrwt beam="2">  1       -2 0.38603476E+00 0.11994125E+04</pdfrwt>
<totfact> 0.23337036E+00</totfact>
</mgrwt>
</event>
<event>
12    2  0.3623523E-008  0.1581054E+04  0.7818608E-02  0.8832273E-01
          1   -1    0    0  501    0  0.00000000000E+00  0.00000000000E+00  0.54810352929E+03  0.54810352929E+03  0.00000000000E+00 0. -1.
         -1   -1    0    0    0  501 -0.00000000000E+00 -0.00000000000E+00 -0.11401728532E+04  0.11401728532E+04  0.00000000000E+00 0.  1.
         23    2    1    2    0    0 -0.37461421990E+03 -0.35562618795E+03 -0.48318186472E+02  0.52665454165E+03  0.90689358734E+02 0.  0.
        254    2    1    2    0    0  0.37461421990E+03  0.35562618795E+03 -0.54375113741E+03  0.11616218408E+04  0.88707057346E+03 0.  0.
         23    2    4    4    0    0  0.43106882358E+03  0.43554083271E+03 -0.19324258746E+02  0.62041852447E+03  0.95024054429E+02 0.  0.
         23    2    4    4    0    0 -0.56454603678E+02 -0.79914644755E+02 -0.52442687866E+03  0.54120331633E+03  0.91126317973E+02 0.  0.
          3    1    3    3  502    0 -0.36416259944E+03 -0.34512902762E+03 -0.29343996008E+02  0.50258284356E+03  0.00000000000E+00 0. -1.
         -3    1    3    3    0  502 -0.10451620461E+02 -0.10497160331E+02 -0.18974190464E+02  0.24071698092E+02  0.00000000000E+00 0.  1.
         11    1    5    5    0    0  0.19336883736E+03  0.16389601223E+03  0.33234533185E+02  0.25565199840E+03  0.00000000000E+00 0.  1.
        -11    1    5    5    0    0  0.23769998621E+03  0.27164482048E+03 -0.52558791930E+02  0.36476652608E+03  0.00000000000E+00 0. -1.
          1    1    6    6  503    0 -0.16758572651E+02 -0.59003089951E+02 -0.12472543484E+03  0.13899154102E+03  0.00000000000E+00 0. -1.
         -1    1    6    6    0  503 -0.39696031027E+02 -0.20911554804E+02 -0.39970144382E+03  0.40221177531E+03  0.00000000000E+00 0.  1.
<mgrwt>
<rscale>  0 0.15810538E+04</rscale>
<asrwt>0</asrwt>
<pdfrwt beam="1">  1        1 0.84323621E-01 0.15810538E+04</pdfrwt>
<pdfrwt beam="2">  1       -1 0.17541121E+00 0.15810538E+04</pdfrwt>
<totfact> 0.84141292E+00</totfact>
</mgrwt>
</event>
<event>
12    2  0.3623523E-008  0.2369911E+04  0.7818608E-02  0.8450855E-01
         -1   -1    0    0    0  501 -0.00000000000E+00  0.00000000000E+00  0.66689882536E+03  0.66689882536E+03  0.00000000000E+00 0.  1.
          1   -1    0    0  501    0  0.00000000000E+00 -0.00000000000E+00 -0.21054454570E+04  0.21054454570E+04  0.00000000000E+00 0. -1.
         23    2    1    2    0    0 -0.31912137453E+03  0.92327163921E+03 -0.91561480673E+03  0.13419591345E+04  0.90746199943E+02 0.  0.
        254    2    1    2    0    0  0.31912137453E+03 -0.92327163921E+03 -0.52293182489E+03  0.14303851479E+04  0.90458554397E+03 0.  0.
         23    2    4    4    0    0  0.24225846938E+03 -0.93160353703E+03 -0.71616545195E+03  0.12032829058E+04  0.91774073453E+02 0.  0.
         23    2    4    4    0    0  0.76862905152E+02  0.83318978278E+01  0.19323362707E+03  0.22710224211E+03  0.90878308925E+02 0.  0.
          4    1    3    3  502    0 -0.28204356481E+03  0.73671008134E+03 -0.70258710085E+03  0.10563706502E+04  0.00000000000E+00 0. -1.
         -4    1    3    3    0  502 -0.37077809715E+02  0.18656155787E+03 -0.21302770587E+03  0.28558848422E+03  0.00000000000E+00 0.  1.
         11    1    5    5    0    0  0.10522290694E+02 -0.40298028843E+02 -0.57690882241E+02  0.71153971244E+02  0.00000000000E+00 0.  1.
        -11    1    5    5    0    0  0.23173617868E+03 -0.89130550819E+03 -0.65847456971E+03  0.11321289345E+04  0.00000000000E+00 0. -1.
          2    1    6    6  503    0  0.56901920420E+02  0.32801229789E+02  0.18215956989E+03  0.19363847274E+03  0.00000000000E+00 0. -1.
         -2    1    6    6    0  503  0.19960984731E+02 -0.24469331962E+02  0.11074057176E+02  0.33463769370E+02  0.00000000000E+00 0.  1.
<mgrwt>
<rscale>  0 0.23699106E+04</rscale>
<asrwt>0</asrwt>
<pdfrwt beam="1">  1        1 0.32391468E+00 0.23699106E+04</pdfrwt>
<pdfrwt beam="2">  1       -1 0.10259982E+00 0.23699106E+04</pdfrwt>
<totfact> 0.20390416E+00</totfact>
</mgrwt>
</event>
<event>
12    2  0.3623523E-008  0.2190605E+04  0.7818608E-02  0.8522348E-01
          3   -1    0    0  501    0  0.00000000000E+00  0.00000000000E+00  0.13208285635E+04  0.13208285635E+04  0.00000000000E+00 0. -1.
         -3   -1    0    0    0  501 -0.00000000000E+00 -0.00000000000E+00 -0.90828449276E+03  0.90828449276E+03  0.00000000000E+00 0.  1.
         23    2    1    2    0    0 -0.29539366565E+03  0.68066568236E+03 -0.36943806529E+03  0.83377590106E+03  0.90191907969E+02 0.  0.
        254    2    1    2    0    0  0.29539366565E+03 -0.68066568236E+03  0.78198213599E+03  0.13953371552E+04  0.88594950574E+03 0.  0.
         23    2    4    4    0    0  0.39609506095E+03 -0.84732110671E+03  0.63911862455E+03  0.11366547873E+04  0.93097443773E+02 0.  0.
         23    2    4    4    0    0 -0.10070139531E+03  0.16665542435E+03  0.14286351144E+03  0.25868236787E+03  0.92691871623E+02 0.  0.
          4    1    3    3  502    0 -0.80241410231E+02  0.11757788720E+03 -0.97136017288E+02  0.17233296066E+03  0.00000000000E+00 0. -1.
         -4    1    3    3    0  502 -0.21515225541E+03  0.56308779515E+03 -0.27230204800E+03  0.66144294040E+03  0.00000000000E+00 0.  1.
         11    1    5    5    0    0  0.24184826511E+03 -0.59273115281E+03  0.47117591845E+03  0.79487580726E+03  0.00000000000E+00 0.  1.
        -11    1    5    5    0    0  0.15424679585E+03 -0.25458995390E+03  0.16794270610E+03  0.34177898002E+03  0.00000000000E+00 0. -1.
          4    1    6    6  503    0 -0.57791723583E+02  0.17403157929E+02  0.39710688307E+02  0.72247435847E+02  0.00000000000E+00 0. -1.
         -4    1    6    6    0  503 -0.42909671726E+02  0.14925226642E+03  0.10315282313E+03  0.18643493203E+03  0.00000000000E+00 0.  1.
<mgrwt>
<rscale>  0 0.21906055E+04</rscale>
<asrwt>0</asrwt>
<pdfrwt beam="1">  1        3 0.20320439E+00 0.21906055E+04</pdfrwt>
<pdfrwt beam="2">  1       -3 0.13973608E+00 0.21906055E+04</pdfrwt>
<totfact> 0.12993292E-01</totfact>
</mgrwt>
</event>
<event>
12    2  0.3623523E-008  0.1389182E+04  0.7818608E-02  0.8961686E-01
         -1   -1    0    0    0  501 -0.00000000000E+00  0.00000000000E+00  0.34021578728E+03  0.34021578728E+03  0.00000000000E+00 0.  1.
          1   -1    0    0  501    0  0.00000000000E+00 -0.00000000000E+00 -0.14180908939E+04  0.14180908939E+04  0.00000000000E+00 0. -1.
         23    2    1    2    0    0  0.33903381679E+03 -0.17104882998E+03 -0.12057007925E+03  0.41655629993E+03  0.12157456901E+03 0.  0.
        254    2    1    2    0    0 -0.33903381679E+03  0.17104882998E+03 -0.95730502742E+03  0.13417503813E+04  0.86003461502E+03 0.  0.
         23    2    4    4    0    0 -0.15919655907E+03  0.33399881740E+03 -0.33395813159E+02  0.38219829929E+03  0.89785885344E+02 0.  0.
         23    2    4    4    0    0 -0.17983725773E+03 -0.16294998742E+03 -0.92390921426E+03  0.95955208201E+03  0.90762460435E+02 0.  0.
          1    1    3    3  502    0 -0.67768057553E+01 -0.15098040852E+02 -0.16091627857E+02  0.23082816572E+02  0.00000000000E+00 0. -1.
         -1    1    3    3    0  502  0.34581062255E+03 -0.15595078912E+03 -0.10447845140E+03  0.39347348335E+03  0.00000000000E+00 0.  1.
         11    1    5    5    0    0 -0.15115560630E+03  0.29137688134E+03 -0.56464086750E+02  0.33307161000E+03  0.00000000000E+00 0. -1.
        -11    1    5    5    0    0 -0.80409527625E+01  0.42621936054E+02  0.23068273591E+02  0.49126689292E+02  0.00000000000E+00 0.  1.
          1    1    6    6  503    0 -0.18058988713E+03 -0.12429255965E+03 -0.74925044139E+03  0.78066482669E+03  0.00000000000E+00 0. -1.
         -1    1    6    6    0  503  0.75262939809E+00 -0.38657427769E+02 -0.17465877287E+03  0.17888725531E+03  0.00000000000E+00 0.  1.
<mgrwt>
<rscale>  0 0.13891824E+04</rscale>
<asrwt>0</asrwt>
<pdfrwt beam="1">  1        1 0.21816783E+00 0.13891824E+04</pdfrwt>
<pdfrwt beam="2">  1       -1 0.52340890E-01 0.13891824E+04</pdfrwt>
<totfact> 0.26771382E+01</totfact>
</mgrwt>
</event>
<event>
12    2  0.3623523E-008  0.1800693E+04  0.7818608E-02  0.8705931E-01
          2   -1    0    0  501    0  0.00000000000E+00  0.00000000000E+00  0.82885516209E+03  0.82885516209E+03  0.00000000000E+00 0. -1.
         -2   -1    0    0    0  501 -0.00000000000E+00 -0.00000000000E+00 -0.97800405819E+03  0.97800405819E+03  0.00000000000E+00 0.  1.
         23    2    1    2    0    0 -0.58930117764E+03 -0.27227668898E+03 -0.22489122889E+03  0.69286392586E+03  0.89854780611E+02 0.  0.
        254    2    1    2    0    0  0.58930117764E+03  0.27227668898E+03  0.75742332795E+02  0.11139952944E+04  0.90212978095E+03 0.  0.
         23    2    4    4    0    0  0.13567438249E+02  0.47495075430E+03  0.10915080808E+03  0.49579448943E+03  0.90199681007E+02 0.  0.
         23    2    4    4    0    0  0.57573373939E+03 -0.20267406532E+03 -0.33408475283E+02  0.61820080499E+03  0.92249626784E+02 0.  0.
          3    1    3    3  502    0 -0.70833852447E+02 -0.29583286326E+02  0.27305946049E+01  0.76811858650E+02  0.00000000000E+00 0. -1.
         -3    1    3    3    0  502 -0.51846732519E+03 -0.24269340265E+03 -0.22762182350E+03  0.61605206721E+03  0.00000000000E+00 0.  1.
         11    1    5    5    0    0 -0.10604870408E+02  0.47769444364E+01 -0.26008044519E+01  0.11918332866E+02  0.00000000000E+00 0. -1.
        -11    1    5    5    0    0  0.24172308657E+02  0.47017380986E+03  0.11175161253E+03  0.48387615656E+03  0.00000000000E+00 0.  1.
          4    1    6    6  503    0  0.33149063723E+02 -0.33718501716E+02  0.97629960602E+01  0.48281610119E+02  0.00000000000E+00 0. -1.
         -4    1    6    6    0  503  0.54258467567E+03 -0.16895556360E+03 -0.43171471343E+02  0.56991919487E+03  0.00000000000E+00 0.  1.
<mgrwt>
<rscale>  0 0.18006929E+04</rscale>
<asrwt>0</asrwt>
<pdfrwt beam="1">  1        2 0.12751618E+00 0.18006929E+04</pdfrwt>
<pdfrwt beam="2">  1       -2 0.15046216E+00 0.18006929E+04</pdfrwt>
<totfact> 0.92113557E+00</totfact>
</mgrwt>
</event>
<event>
12    2  0.3623523E-008  0.2289550E+04  0.7818608E-02  0.8482053E-01
         -1   -1    0    0    0  501 -0.00000000000E+00  0.00000000000E+00  0.99293390259E+03  0.99293390259E+03  0.00000000000E+00 0.  1.
          1   -1    0    0  501    0  0.00000000000E+00 -0.00000000000E+00 -0.13198363130E+04  0.13198363130E+04  0.00000000000E+00 0. -1.
         23    2    1    2    0    0 -0.85089927301E+03 -0.35129957577E+03  0.14618502246E+03  0.93678532973E+03  0.93572049592E+02 0.  0.
        254    2    1    2    0    0  0.85089927301E+03  0.35129957577E+03 -0.47308743291E+03  0.13759848859E+04  0.90668722408E+03 0.  0.
         23    2    4    4    0    0  0.10073092211E+04  0.15215465364E+03 -0.37934225449E+03  0.10909500941E+04  0.91916571502E+02 0.  0.
         23    2    4    4    0    0 -0.15640994813E+03  0.19914492213E+03 -0.93745178426E+02  0.28503479182E+03  0.91290208574E+02 0.  0.
          1    1    3    3  502    0 -0.63657374146E+02 -0.49833281260E+02 -0.20121354834E+01  0.80868200756E+02  0.00000000000E+00 0. -1.
         -1    1    3    3    0  502 -0.78724189887E+03 -0.30146629451E+03  0.14819715794E+03  0.85591712898E+03  0.00000000000E+00 0.  1.
         11    1    5    5    0    0  0.83236878930E+03  0.90184799593E+02 -0.31430779031E+03  0.89429328887E+03  0.00000000000E+00 0.  1.
        -11    1    5    5    0    0  0.17494043185E+03  0.61969854043E+02 -0.65034464180E+02  0.19665680521E+03  0.00000000000E+00 0. -1.
          2    1    6    6  503    0 -0.20987259249E+02  0.26578445956E+02  0.18538915659E+02  0.38607903777E+02  0.00000000000E+00 0. -1.
         -2    1    6    6    0  503 -0.13542268889E+03  0.17256647618E+03 -0.11228409409E+03  0.24642688804E+03  0.00000000000E+00 0.  1.
<mgrwt>
<rscale>  0 0.22895504E+04</rscale>
<asrwt>0</asrwt>
<pdfrwt beam="1">  1        1 0.20305174E+00 0.22895504E+04</pdfrwt>
<pdfrwt beam="2">  1       -1 0.15275906E+00 0.22895504E+04</pdfrwt>
<totfact> 0.26305484E+00</totfact>
</mgrwt>
</event>
<event>
12    2  0.3623523E-008  0.2185351E+04  0.7818608E-02  0.8524550E-01
         -1   -1    0    0    0  501 -0.00000000000E+00  0.00000000000E+00  0.63162732917E+03  0.63162732917E+03  0.00000000000E+00 0.  1.
          1   -1    0    0  501    0  0.00000000000E+00 -0.00000000000E+00 -0.18902595587E+04  0.18902595587E+04  0.00000000000E+00 0. -1.
         23    2    1    2    0    0 -0.52064620097E+03  0.49990534526E+03  0.10298047253E+03  0.73476500812E+03  0.91086874122E+02 0.  0.
        254    2    1    2    0    0  0.52064620097E+03 -0.49990534526E+03 -0.13616127021E+04  0.17871218798E+04  0.90489648131E+03 0.  0.
         23    2    4    4    0    0  0.62493946684E+02 -0.11426446208E+03 -0.11262842680E+04  0.11373785400E+04  0.90287486289E+02 0.  0.
         23    2    4    4    0    0  0.45815225428E+03 -0.38564088318E+03 -0.23532843410E+03  0.64974333982E+03  0.90357937448E+02 0.  0.
          3    1    3    3  502    0 -0.16494469788E+03  0.12275152799E+03  0.61838910471E+02  0.21470617558E+03  0.00000000000E+00 0. -1.
         -3    1    3    3    0  502 -0.35570150309E+03  0.37715381727E+03  0.41141562057E+02  0.52005883255E+03  0.00000000000E+00 0.  1.
         11    1    5    5    0    0  0.16641394025E+02 -0.32587999876E+02 -0.69859043383E+03  0.69954807409E+03  0.00000000000E+00 0. -1.
        -11    1    5    5    0    0  0.45852552659E+02 -0.81676462208E+02 -0.42769383415E+03  0.43783046586E+03  0.00000000000E+00 0.  1.
          3    1    6    6  503    0  0.12499702017E+03 -0.75997046371E+02 -0.92222083637E+02  0.17292980893E+03  0.00000000000E+00 0. -1.
         -3    1    6    6    0  503  0.33315523412E+03 -0.30964383681E+03 -0.14310635046E+03  0.47681353088E+03  0.00000000000E+00 0.  1.
<mgrwt>
<rscale>  0 0.21853509E+04</rscale>
<asrwt>0</asrwt>
<pdfrwt beam="1">  1        1 0.29080916E+00 0.21853509E+04</pdfrwt>
<pdfrwt beam="2">  1       -1 0.97173436E-01 0.21853509E+04</pdfrwt>
<totfact> 0.32852239E+00</totfact>
</mgrwt>
</event>
<event>
12    2  0.3623523E-008  0.2181802E+04  0.7818608E-02  0.8526041E-01
          1   -1    0    0  501    0  0.00000000000E+00  0.00000000000E+00  0.52540158640E+03  0.52540158640E+03  0.00000000000E+00 0. -1.
         -1   -1    0    0    0  501 -0.00000000000E+00 -0.00000000000E+00 -0.22650586177E+04  0.22650586177E+04  0.00000000000E+00 0.  1.
         23    2    1    2    0    0 -0.20589940995E+03  0.20359941465E+03 -0.17993045635E+04  0.18251144970E+04  0.98482111578E+02 0.  0.
        254    2    1    2    0    0  0.20589940995E+03 -0.20359941465E+03  0.59647532215E+02  0.96534570706E+03  0.91895985624E+03 0.  0.
         23    2    4    4    0    0  0.53794889376E+02 -0.17734916132E+03 -0.41222316499E+03  0.46076070770E+03  0.89587258355E+02 0.  0.
         23    2    4    4    0    0  0.15210452058E+03 -0.26250253337E+02  0.47187069721E+03  0.50458499937E+03  0.90106635276E+02 0.  0.
          3    1    3    3  502    0 -0.33579231452E+02  0.82588128286E+01 -0.96652206980E+02  0.10265194537E+03  0.00000000000E+00 0. -1.
         -3    1    3    3    0  502 -0.17232017850E+03  0.19534060183E+03 -0.17026523565E+04  0.17224625516E+04  0.00000000000E+00 0.  1.
         11    1    5    5    0    0  0.66009923779E+02 -0.12593742992E+03 -0.22448518088E+03  0.26572757239E+03  0.00000000000E+00 0. -1.
        -11    1    5    5    0    0 -0.12215034403E+02 -0.51411731396E+02 -0.18773798411E+03  0.19503313531E+03  0.00000000000E+00 0.  1.
          1    1    6    6  503    0  0.67421036194E+02  0.21166450916E+02  0.28946583457E+03  0.29796658227E+03  0.00000000000E+00 0. -1.
         -1    1    6    6    0  503  0.84683484381E+02 -0.47416704252E+02  0.18240486264E+03  0.20661841709E+03  0.00000000000E+00 0.  1.
<mgrwt>
<rscale>  0 0.21818024E+04</rscale>
<asrwt>0</asrwt>
<pdfrwt beam="1">  1        1 0.80831013E-01 0.21818024E+04</pdfrwt>
<pdfrwt beam="2">  1       -1 0.34847056E+00 0.21818024E+04</pdfrwt>
<totfact> 0.60141345E-01</totfact>
</mgrwt>
</event>
<event>
12    2  0.3623523E-008  0.1825355E+04  0.7818608E-02  0.8692931E-01
          1   -1    0    0  501    0  0.00000000000E+00  0.00000000000E+00  0.19058146474E+04  0.19058146474E+04  0.00000000000E+00 0. -1.
         -1   -1    0    0    0  501 -0.00000000000E+00 -0.00000000000E+00 -0.43707296172E+03  0.43707296172E+03  0.00000000000E+00 0.  1.
         23    2    1    2    0    0 -0.46833567657E+03 -0.37627917916E+03  0.91517046542E+03  0.10984041425E+04  0.89612235878E+02 0.  0.
        254    2    1    2    0    0  0.46833567657E+03  0.37627917916E+03  0.55357122024E+03  0.12444834666E+04  0.93881503834E+03 0.  0.
         23    2    4    4    0    0 -0.59898979497E+02 -0.23086554650E+03 -0.11118034646E+02  0.25718695216E+03  0.95575778120E+02 0.  0.
         23    2    4    4    0    0  0.52823465607E+03  0.60714472566E+03  0.56468925489E+03  0.98729651447E+03  0.90685628006E+02 0.  0.
          2    1    3    3  502    0 -0.37402642283E+03 -0.27620233193E+03  0.76117518590E+03  0.89194795631E+03  0.00000000000E+00 0. -1.
         -2    1    3    3    0  502 -0.94309253736E+02 -0.10007684723E+03  0.15399527952E+03  0.20645618616E+03  0.00000000000E+00 0.  1.
         11    1    5    5    0    0  0.23812532336E+02 -0.89876230913E+02 -0.43591267917E+01  0.93079404627E+02  0.00000000000E+00 0. -1.
        -11    1    5    5    0    0 -0.83711511833E+02 -0.14098931558E+03 -0.67589078539E+01  0.16410754753E+03  0.00000000000E+00 0.  1.
          4    1    6    6  503    0  0.12590294768E+03  0.19269195469E+03  0.19338237351E+03  0.30063014490E+03  0.00000000000E+00 0. -1.
         -4    1    6    6    0  503  0.40233170839E+03  0.41445277097E+03  0.37130688137E+03  0.68666636957E+03  0.00000000000E+00 0.  1.
<mgrwt>
<rscale>  0 0.18253548E+04</rscale>
<asrwt>0</asrwt>
<pdfrwt beam="1">  1        1 0.29320225E+00 0.18253548E+04</pdfrwt>
<pdfrwt beam="2">  1       -1 0.67241995E-01 0.18253548E+04</pdfrwt>
<totfact> 0.72824885E+00</totfact>
</mgrwt>
</event>
<event>
12    2  0.3623523E-008  0.3560070E+04  0.7818608E-02  0.8099700E-01
         -2   -1    0    0    0  501 -0.00000000000E+00  0.00000000000E+00  0.15216404755E+04  0.15216404755E+04  0.00000000000E+00 0.  1.
          2   -1    0    0  501    0  0.00000000000E+00 -0.00000000000E+00 -0.20823081459E+04  0.20823081459E+04  0.00000000000E+00 0. -1.
         23    2    1    2    0    0  0.54874171337E+03  0.15493237455E+04 -0.55423518520E+03  0.17370093136E+04  0.92212680443E+02 0.  0.
        254    2    1    2    0    0 -0.54874171337E+03 -0.15493237455E+04 -0.64324852397E+01  0.18669393079E+04  0.88538097224E+03 0.  0.
         23    2    4    4    0    0 -0.10679198251E+03 -0.91761100992E+03 -0.38186917287E+03  0.10039663634E+04  0.93326847753E+02 0.  0.
         23    2    4    4    0    0 -0.44194973086E+03 -0.63171273560E+03  0.37543668763E+03  0.86297294452E+03  0.96897118746E+02 0.  0.
          3    1    3    3  502    0  0.52798449872E+03  0.15034918797E+04 -0.55283098774E+03  0.16866764848E+04  0.00000000000E+00 0. -1.
         -3    1    3    3    0  502  0.20757214655E+02  0.45831865816E+02 -0.14041974604E+01  0.50332828800E+02  0.00000000000E+00 0.  1.
         11    1    5    5    0    0 -0.19711838148E+02 -0.11431437067E+03 -0.16403622389E+02  0.11715549808E+03  0.00000000000E+00 0. -1.
        -11    1    5    5    0    0 -0.87080144363E+02 -0.80329663925E+03 -0.36546555048E+03  0.88681086527E+03  0.00000000000E+00 0.  1.
          2    1    6    6  503    0 -0.40415167259E+02 -0.80424659102E+02  0.13964592312E+02  0.91085242354E+02  0.00000000000E+00 0. -1.
         -2    1    6    6    0  503 -0.40153456360E+03 -0.55128807650E+03  0.36147209532E+03  0.77188770216E+03  0.00000000000E+00 0.  1.
<mgrwt>
<rscale>  0 0.35600699E+04</rscale>
<asrwt>0</asrwt>
<pdfrwt beam="1">  1        2 0.32035510E+00 0.35600699E+04</pdfrwt>
<pdfrwt beam="2">  1       -2 0.23409854E+00 0.35600699E+04</pdfrwt>
<totfact> 0.39621231E-01</totfact>
</mgrwt>
</event>
<event>
12    2  0.3623523E-008  0.2133139E+04  0.7818608E-02  0.8546784E-01
          2   -1    0    0  501    0  0.00000000000E+00  0.00000000000E+00  0.52558608786E+03  0.52558608786E+03  0.00000000000E+00 0. -1.
         -2   -1    0    0    0  501 -0.00000000000E+00 -0.00000000000E+00 -0.21643847868E+04  0.21643847868E+04  0.00000000000E+00 0.  1.
         23    2    1    2    0    0  0.47247983394E+03 -0.42105394300E+03 -0.14395099797E+04  0.15749411961E+04  0.87904340649E+02 0.  0.
        254    2    1    2    0    0 -0.47247983394E+03  0.42105394300E+03 -0.19928871926E+03  0.11150296786E+04  0.89613144912E+03 0.  0.
         23    2    4    4    0    0 -0.25026225644E+03  0.58761171260E+03 -0.40044876872E+03  0.75949489610E+03  0.92490859224E+02 0.  0.
         23    2    4    4    0    0 -0.22221757750E+03 -0.16655776960E+03  0.20116004946E+03  0.35553478249E+03  0.93901404137E+02 0.  0.
          3    1    3    3  502    0  0.34308449010E+03 -0.32896567209E+03 -0.98981536455E+03  0.10980254262E+04  0.00000000000E+00 0. -1.
         -3    1    3    3    0  502  0.12939534384E+03 -0.92088270911E+02 -0.44969461511E+03  0.47691576982E+03  0.00000000000E+00 0.  1.
         11    1    5    5    0    0 -0.18767006169E+03  0.40390951716E+03 -0.23031389761E+03  0.50140546620E+03  0.00000000000E+00 0.  1.
        -11    1    5    5    0    0 -0.62592194755E+02  0.18370219544E+03 -0.17013487111E+03  0.25808942990E+03  0.00000000000E+00 0. -1.
          1    1    6    6  503    0 -0.98644768519E+01  0.70693225049E+01 -0.42396629064E+01  0.12855269962E+02  0.00000000000E+00 0. -1.
         -1    1    6    6    0  503 -0.21235310065E+03 -0.17362709210E+03  0.20539971236E+03  0.34267951253E+03  0.00000000000E+00 0.  1.
<mgrwt>
<rscale>  0 0.21331390E+04</rscale>
<asrwt>0</asrwt>
<pdfrwt beam="1">  1        2 0.80859399E-01 0.21331390E+04</pdfrwt>
<pdfrwt beam="2">  1       -2 0.33298227E+00 0.21331390E+04</pdfrwt>
<totfact> 0.10633124E+00</totfact>
</mgrwt>
</event>
<event>
12    2  0.3623523E-008  0.2565075E+04  0.7818608E-02  0.8380162E-01
         -1   -1    0    0    0  501 -0.00000000000E+00  0.00000000000E+00  0.11217159631E+04  0.11217159631E+04  0.00000000000E+00 0.  1.
          1   -1    0    0  501    0  0.00000000000E+00 -0.00000000000E+00 -0.14664164838E+04  0.14664164838E+04  0.00000000000E+00 0. -1.
         23    2    1    2    0    0  0.10009670915E+04  0.18908431886E+03  0.32229716626E+03  0.10721789914E+04  0.89466911843E+02 0.  0.
        254    2    1    2    0    0 -0.10009670915E+04 -0.18908431886E+03 -0.66699768695E+03  0.15159534556E+04  0.90307306857E+03 0.  0.
         23    2    4    4    0    0  0.43847812373E+02  0.20452987426E+03 -0.40026825829E+02  0.23197434112E+03  0.91950247619E+02 0.  0.
         23    2    4    4    0    0 -0.10448149038E+04 -0.39361419312E+03 -0.62697086112E+03  0.12839791144E+04  0.94549401421E+02 0.  0.
          4    1    3    3  502    0  0.74818893931E+02 -0.86782319330E+01  0.29923631723E+02  0.81046914401E+02  0.00000000000E+00 0. -1.
         -4    1    3    3    0  502  0.92614819754E+03  0.19776255080E+03  0.29237353454E+03  0.99113207697E+03  0.00000000000E+00 0.  1.
         11    1    5    5    0    0 -0.20117190235E+02  0.23844968010E+02 -0.24510502094E+02  0.39674280778E+02  0.00000000000E+00 0. -1.
        -11    1    5    5    0    0  0.63965002608E+02  0.18068490625E+03 -0.15516323734E+02  0.19230006034E+03  0.00000000000E+00 0.  1.
          2    1    6    6  503    0 -0.89952301106E+03 -0.31224781569E+03 -0.55883626219E+03  0.11040553943E+04  0.00000000000E+00 0.  1.
         -2    1    6    6    0  503 -0.14529189278E+03 -0.81366377427E+02 -0.68134598935E+02  0.17992372010E+03  0.00000000000E+00 0. -1.
<mgrwt>
<rscale>  0 0.25650753E+04</rscale>
<asrwt>0</asrwt>
<pdfrwt beam="1">  1        1 0.22560254E+00 0.25650753E+04</pdfrwt>
<pdfrwt beam="2">  1       -1 0.17257169E+00 0.25650753E+04</pdfrwt>
<totfact> 0.14368642E+00</totfact>
</mgrwt>
</event>
<event>
12    2  0.3623523E-008  0.2970041E+04  0.7818608E-02  0.8252338E-01
          2   -1    0    0  501    0  0.00000000000E+00  0.00000000000E+00  0.23679361990E+04  0.23679361990E+04  0.00000000000E+00 0. -1.
         -2   -1    0    0    0  501 -0.00000000000E+00 -0.00000000000E+00 -0.93131124965E+03  0.93131124965E+03  0.00000000000E+00 0.  1.
         23    2    1    2    0    0  0.10658767941E+04 -0.54068220401E+03  0.13519202969E+04  0.18067494555E+04  0.90689138050E+02 0.  0.
        254    2    1    2    0    0 -0.10658767941E+04  0.54068220401E+03  0.84704652430E+02  0.14924979931E+04  0.88991280215E+03 0.  0.
         23    2    4    4    0    0 -0.72327265797E+03 -0.19038463433E+02  0.30975886810E+03  0.79217458825E+03  0.90023447185E+02 0.  0.
         23    2    4    4    0    0 -0.34260413614E+03  0.55972066744E+03 -0.22505421567E+03  0.70032340489E+03  0.95596295879E+02 0.  0.
          3    1    3    3  502    0  0.39238533504E+03 -0.23040904189E+03  0.56591595046E+03  0.72616488536E+03  0.00000000000E+00 0. -1.
         -3    1    3    3    0  502  0.67349145907E+03 -0.31027316211E+03  0.78600434643E+03  0.10805845701E+04  0.00000000000E+00 0.  1.
         11    1    5    5    0    0 -0.72601982934E+03 -0.19276930541E+02  0.30923125479E+03  0.78936706391E+03  0.00000000000E+00 0. -1.
        -11    1    5    5    0    0  0.27471713708E+01  0.23846710741E+00  0.52761330717E+00  0.28075243372E+01  0.00000000000E+00 0.  1.
          1    1    6    6  503    0 -0.34831284468E+03  0.55409295029E+03 -0.22564964136E+03  0.69228505399E+03  0.00000000000E+00 0. -1.
         -1    1    6    6    0  503  0.57087085367E+01  0.56277171489E+01  0.59542569063E+00  0.80383509016E+01  0.00000000000E+00 0.  1.
<mgrwt>
<rscale>  0 0.29700408E+04</rscale>
<asrwt>0</asrwt>
<pdfrwt beam="1">  1        2 0.36429788E+00 0.29700408E+04</pdfrwt>
<pdfrwt beam="2">  1       -2 0.14327865E+00 0.29700408E+04</pdfrwt>
<totfact> 0.12030760E+00</totfact>
</mgrwt>
</event>
<event>
12    2  0.3623523E-008  0.2737573E+04  0.7818608E-02  0.8322916E-01
          1   -1    0    0  501    0  0.00000000000E+00  0.00000000000E+00  0.32436181001E+04  0.32436181001E+04  0.00000000000E+00 0. -1.
         -1   -1    0    0    0  501 -0.00000000000E+00 -0.00000000000E+00 -0.57761928220E+03  0.57761928220E+03  0.00000000000E+00 0.  1.
         23    2    1    2    0    0 -0.46417219176E+02  0.59991145939E+03 -0.28227028928E+03  0.67101257344E+03  0.92374456225E+02 0.  0.
        254    2    1    2    0    0  0.46417219176E+02 -0.59991145939E+03  0.29482691071E+04  0.31502248088E+04  0.93251128714E+03 0.  0.
         23    2    4    4    0    0 -0.17886234831E+03  0.76321834733E+02  0.15208059711E+03  0.26317161522E+03  0.91181297095E+02 0.  0.
         23    2    4    4    0    0  0.22527956748E+03 -0.67623329412E+03  0.27961885100E+04  0.28870531936E+04  0.91452760850E+02 0.  0.
          1    1    3    3  502    0 -0.25666231055E+02  0.24206771399E+03 -0.65361358281E+02  0.25204690185E+03  0.00000000000E+00 0. -1.
         -1    1    3    3    0  502 -0.20750988121E+02  0.35784374540E+03 -0.21690893100E+03  0.41896567159E+03  0.00000000000E+00 0.  1.
         11    1    5    5    0    0 -0.11872628162E+03  0.22346371906E+01  0.74407222194E+02  0.14013335886E+03  0.00000000000E+00 0.  1.
        -11    1    5    5    0    0 -0.60136066683E+02  0.74087197543E+02  0.77673374921E+02  0.12303825636E+03  0.00000000000E+00 0. -1.
          3    1    6    6  503    0  0.75476845740E+01 -0.12849234547E+03  0.46225991998E+03  0.47984527090E+03  0.00000000000E+00 0. -1.
         -3    1    6    6    0  503  0.21773188291E+03 -0.54774094866E+03  0.23339285900E+04  0.24072079227E+04  0.00000000000E+00 0.  1.
<mgrwt>
<rscale>  0 0.27375729E+04</rscale>
<asrwt>0</asrwt>
<pdfrwt beam="1">  1        1 0.49901816E+00 0.27375729E+04</pdfrwt>
<pdfrwt beam="2">  1       -1 0.88864507E-01 0.27375729E+04</pdfrwt>
<totfact> 0.42594500E-01</totfact>
</mgrwt>
</event>
<event>
12    2  0.3623523E-008  0.2836220E+04  0.7818608E-02  0.8292111E-01
         -2   -1    0    0    0  501 -0.00000000000E+00  0.00000000000E+00  0.10865269703E+04  0.10865269703E+04  0.00000000000E+00 0.  1.
          2   -1    0    0  501    0  0.00000000000E+00 -0.00000000000E+00 -0.18508847111E+04  0.18508847111E+04  0.00000000000E+00 0. -1.
         23    2    1    2    0    0  0.63622206575E+03 -0.16424852904E+03  0.78518029227E+03  0.10279291490E+04  0.91510369273E+02 0.  0.
        254    2    1    2    0    0 -0.63622206575E+03  0.16424852904E+03 -0.15495380331E+04  0.19094825324E+04  0.90183109796E+03 0.  0.
         23    2    4    4    0    0 -0.76410044093E+03  0.24117519329E+03 -0.15366158999E+04  0.17352164242E+04  0.88162674980E+02 0.  0.
         23    2    4    4    0    0  0.12787837518E+03 -0.76926664243E+02 -0.12922133236E+02  0.17426610823E+03  0.89056748426E+02 0.  0.
          1    1    3    3  502    0  0.15396224176E+03 -0.34986807720E+02  0.25283217163E+03  0.29808145802E+03  0.00000000000E+00 0. -1.
         -1    1    3    3    0  502  0.48225982399E+03 -0.12926172132E+03  0.53234812063E+03  0.72984769094E+03  0.00000000000E+00 0.  1.
         11    1    5    5    0    0 -0.67831853356E+03  0.22812502098E+03 -0.13132210860E+04  0.14955623286E+04  0.00000000000E+00 0.  1.
        -11    1    5    5    0    0 -0.85781907368E+02  0.13050172306E+02 -0.22339481391E+03  0.23965409555E+03  0.00000000000E+00 0. -1.
          4    1    6    6  503    0  0.68354990351E+02  0.20180159651E+01 -0.28666714523E+02  0.74150236788E+02  0.00000000000E+00 0. -1.
         -4    1    6    6    0  503  0.59523384831E+02 -0.78944680208E+02  0.15744581286E+02  0.10011587144E+03  0.00000000000E+00 0.  1.
<mgrwt>
<rscale>  0 0.28362201E+04</rscale>
<asrwt>0</asrwt>
<pdfrwt beam="1">  1        2 0.28475149E+00 0.28362201E+04</pdfrwt>
<pdfrwt beam="2">  1       -2 0.16715800E+00 0.28362201E+04</pdfrwt>
<totfact> 0.15669824E+00</totfact>
</mgrwt>
</event>
<event>
12    2  0.3623523E-008  0.2006728E+04  0.7818608E-02  0.8603482E-01
         -2   -1    0    0    0  501 -0.00000000000E+00  0.00000000000E+00  0.72780634542E+03  0.72780634542E+03  0.00000000000E+00 0.  1.
          2   -1    0    0  501    0  0.00000000000E+00 -0.00000000000E+00 -0.13832513324E+04  0.13832513324E+04  0.00000000000E+00 0. -1.
         23    2    1    2    0    0  0.28301366967E+03 -0.46412583975E+03  0.31117253970E+03  0.63342772790E+03  0.94301668363E+02 0.  0.
        254    2    1    2    0    0 -0.28301366967E+03  0.46412583975E+03 -0.96661752671E+03  0.14776299500E+04  0.97648926963E+03 0.  0.
         23    2    4    4    0    0 -0.15082822957E+03  0.45682343883E+03  0.78399316486E+01  0.48995693471E+03  0.92517696928E+02 0.  0.
         23    2    4    4    0    0 -0.13218544011E+03  0.73024009215E+01 -0.97445745836E+03  0.98767301524E+03  0.91675139735E+02 0.  0.
          2    1    3    3  502    0  0.71840312896E+02 -0.18165825628E+03  0.14661609592E+03  0.24424789091E+03  0.00000000000E+00 0. -1.
         -2    1    3    3    0  502  0.21117335678E+03 -0.28246758347E+03  0.16455644377E+03  0.38917983698E+03  0.00000000000E+00 0.  1.
         11    1    5    5    0    0  0.54731820736E+01  0.31164155424E+02 -0.16827581983E+02  0.35837519734E+02  0.00000000000E+00 0.  1.
        -11    1    5    5    0    0 -0.15630141164E+03  0.42565928341E+03  0.24667513632E+02  0.45411941498E+03  0.00000000000E+00 0. -1.
          3    1    6    6  503    0  0.13426492698E+02  0.69211190259E+01 -0.11112242228E+03  0.11214439499E+03  0.00000000000E+00 0.  1.
         -3    1    6    6    0  503 -0.14561193280E+03  0.38128189562E+00 -0.86333503608E+03  0.87552862024E+03  0.00000000000E+00 0. -1.
<mgrwt>
<rscale>  0 0.20067278E+04</rscale>
<asrwt>0</asrwt>
<pdfrwt beam="1">  1        2 0.21280789E+00 0.20067278E+04</pdfrwt>
<pdfrwt beam="2">  1       -2 0.11197021E+00 0.20067278E+04</pdfrwt>
<totfact> 0.86465094E+00</totfact>
</mgrwt>
</event>
<event>
12    2  0.3623523E-008  0.1632718E+04  0.7818608E-02  0.8800696E-01
         -2   -1    0    0    0  501 -0.00000000000E+00  0.00000000000E+00  0.40589526478E+03  0.40589526478E+03  0.00000000000E+00 0.  1.
          2   -1    0    0  501    0  0.00000000000E+00 -0.00000000000E+00 -0.16419067627E+04  0.16419067627E+04  0.00000000000E+00 0. -1.
         23    2    1    2    0    0  0.36534721255E+03  0.34605036631E+03 -0.11361224168E+03  0.52404149986E+03  0.92099459129E+02 0.  0.
        254    2    1    2    0    0 -0.36534721255E+03 -0.34605036631E+03 -0.11223992562E+04  0.15237605276E+04  0.89935344187E+03 0.  0.
         23    2    4    4    0    0  0.18296883110E+03  0.12378745680E+03 -0.80915959353E+02  0.25288299359E+03  0.92744209283E+02 0.  0.
         23    2    4    4    0    0 -0.54831604366E+03 -0.46983782311E+03 -0.10414832969E+04  0.12708775340E+04  0.95100920410E+02 0.  0.
          3    1    3    3  502    0  0.26191972620E+02  0.22659701837E+02 -0.34318695031E+02  0.48757095337E+02  0.00000000000E+00 0. -1.
         -3    1    3    3    0  502  0.33915523993E+03  0.32339066448E+03 -0.79293546652E+02  0.47528440453E+03  0.00000000000E+00 0.  1.
         11    1    5    5    0    0  0.72328778575E+01 -0.33682552247E+01 -0.28678442325E+02  0.29767645516E+02  0.00000000000E+00 0.  1.
        -11    1    5    5    0    0  0.17573595324E+03  0.12715571202E+03 -0.52237517028E+02  0.22311534808E+03  0.00000000000E+00 0. -1.
          3    1    6    6  503    0 -0.48185443018E+03 -0.37748194379E+03 -0.83808850020E+03  0.10378191769E+04  0.00000000000E+00 0. -1.
         -3    1    6    6    0  503 -0.66461613474E+02 -0.92355879320E+02 -0.20339479670E+03  0.23305835714E+03  0.00000000000E+00 0.  1.
<mgrwt>
<rscale>  0 0.16327182E+04</rscale>
<asrwt>0</asrwt>
<pdfrwt beam="1">  1        2 0.25260104E+00 0.16327182E+04</pdfrwt>
<pdfrwt beam="2">  1       -2 0.62445425E-01 0.16327182E+04</pdfrwt>
<totfact> 0.24042120E+01</totfact>
</mgrwt>
</event>
<event>
12    2  0.3623523E-008  0.1851339E+04  0.7818608E-02  0.8679465E-01
          2   -1    0    0  501    0  0.00000000000E+00  0.00000000000E+00  0.41179639633E+03  0.41179639633E+03  0.00000000000E+00 0. -1.
         -2   -1    0    0    0  501 -0.00000000000E+00 -0.00000000000E+00 -0.20807946705E+04  0.20807946705E+04  0.00000000000E+00 0.  1.
         23    2    1    2    0    0  0.75982872302E+02  0.49928608179E+03  0.20585446505E+02  0.51334042249E+03  0.89636155650E+02 0.  0.
        254    2    1    2    0    0 -0.75982872302E+02 -0.49928608179E+03 -0.16895837207E+04  0.19792506444E+04  0.89871017331E+03 0.  0.
         23    2    4    4    0    0  0.20336989088E+03 -0.42931274569E+03 -0.32730630047E+03  0.58410859626E+03  0.91567962536E+02 0.  0.
         23    2    4    4    0    0 -0.27935276319E+03 -0.69973336105E+02 -0.13622774202E+04  0.13951420481E+04  0.87677424026E+02 0.  0.
          3    1    3    3  502    0  0.22443527383E+02  0.39361374118E+03  0.95882199438E+01  0.39436965290E+03  0.00000000000E+00 0. -1.
         -3    1    3    3    0  502  0.53539344919E+02  0.10567234062E+03  0.10997226561E+02  0.11897076959E+03  0.00000000000E+00 0.  1.
         11    1    5    5    0    0  0.11663430106E+03 -0.33921256555E+03 -0.24512585163E+03  0.43445990373E+03  0.00000000000E+00 0. -1.
        -11    1    5    5    0    0  0.86735589825E+02 -0.90100180136E+02 -0.82180448849E+02  0.14964869253E+03  0.00000000000E+00 0.  1.
          3    1    6    6  503    0 -0.18418311805E+03 -0.73184084658E+02 -0.10547726727E+04  0.10732309734E+04  0.00000000000E+00 0. -1.
         -3    1    6    6    0  503 -0.95169645130E+02  0.32107485530E+01 -0.30750474753E+03  0.32191107470E+03  0.00000000000E+00 0.  1.
<mgrwt>
<rscale>  0 0.18513387E+04</rscale>
<asrwt>0</asrwt>
<pdfrwt beam="1">  1        2 0.63353291E-01 0.18513387E+04</pdfrwt>
<pdfrwt beam="2">  1       -2 0.32012226E+00 0.18513387E+04</pdfrwt>
<totfact> 0.17331352E+00</totfact>
</mgrwt>
</event>
<event>
12    2  0.3623523E-008  0.1269584E+04  0.7818608E-02  0.9054039E-01
         -2   -1    0    0    0  501 -0.00000000000E+00  0.00000000000E+00  0.17448567674E+03  0.17448567674E+03  0.00000000000E+00 0.  1.
          2   -1    0    0  501    0  0.00000000000E+00 -0.00000000000E+00 -0.23094207365E+04  0.23094207365E+04  0.00000000000E+00 0. -1.
         23    2    1    2    0    0 -0.27084894844E+03  0.21936138923E+02 -0.29083318033E+03  0.40807940545E+03  0.90025081515E+02 0.  0.
        254    2    1    2    0    0  0.27084894844E+03 -0.21936138923E+02 -0.18441018794E+04  0.20758270078E+04  0.91351282285E+03 0.  0.
         23    2    4    4    0    0  0.48713323571E+03 -0.21409247797E+03 -0.15930643214E+04  0.16821209337E+04  0.92425781348E+02 0.  0.
         23    2    4    4    0    0 -0.21628428727E+03  0.19215633905E+03 -0.25103755805E+03  0.39370607410E+03  0.91003657476E+02 0.  0.
          3    1    3    3  502    0 -0.56136849627E+02  0.41861052006E+02 -0.60244374896E+02  0.92374662477E+02  0.00000000000E+00 0. -1.
         -3    1    3    3    0  502 -0.21471209882E+03 -0.19924913083E+02 -0.23058880544E+03  0.31570474297E+03  0.00000000000E+00 0.  1.
         11    1    5    5    0    0  0.22186999670E+03 -0.10456503654E+03 -0.59381578191E+03  0.64247748999E+03  0.00000000000E+00 0. -1.
        -11    1    5    5    0    0  0.26526323902E+03 -0.10952744143E+03 -0.99924853947E+03  0.10396434437E+04  0.00000000000E+00 0.  1.
          2    1    6    6  503    0 -0.67051248514E+02  0.75067915160E+02 -0.14465142184E+03  0.17622456030E+03  0.00000000000E+00 0. -1.
         -2    1    6    6    0  503 -0.14923303876E+03  0.11708842389E+03 -0.10638613621E+03  0.21748151379E+03  0.00000000000E+00 0.  1.
<mgrwt>
<rscale>  0 0.12695839E+04</rscale>
<asrwt>0</asrwt>
<pdfrwt beam="1">  1        2 0.35529549E+00 0.12695839E+04</pdfrwt>
<pdfrwt beam="2">  1       -2 0.26843951E-01 0.12695839E+04</pdfrwt>
<totfact> 0.55592993E+01</totfact>
</mgrwt>
</event>
<event>
12    2  0.3623523E-008  0.2035907E+04  0.7818608E-02  0.8590015E-01
         -2   -1    0    0    0  501 -0.00000000000E+00  0.00000000000E+00  0.40828182685E+03  0.40828182685E+03  0.00000000000E+00 0. -1.
          2   -1    0    0  501    0  0.00000000000E+00 -0.00000000000E+00 -0.25380240979E+04  0.25380240979E+04  0.00000000000E+00 0.  1.
         23    2    1    2    0    0  0.24411775606E+03  0.77463003017E+03 -0.97756406543E+03  0.12743412111E+04  0.93106701825E+02 0.  0.
        254    2    1    2    0    0 -0.24411775606E+03 -0.77463003017E+03 -0.11521782056E+04  0.16719647136E+04  0.89905852066E+03 0.  0.
         23    2    4    4    0    0  0.73615074452E+02 -0.86007657603E+03 -0.77827956433E+03  0.11658135618E+04  0.90836583223E+02 0.  0.
         23    2    4    4    0    0 -0.31773283051E+03  0.85446545854E+02 -0.37389864126E+03  0.50615115176E+03  0.90186089358E+02 0.  0.
          2    1    3    3  502    0  0.20163929369E+03  0.64150055885E+03 -0.86025076123E+03  0.10918849500E+04  0.00000000000E+00 0. -1.
         -2    1    3    3    0  502  0.42478462370E+02  0.13312947132E+03 -0.11731330419E+03  0.18245626117E+03  0.00000000000E+00 0.  1.
         11    1    5    5    0    0  0.89723876359E+02 -0.63000246657E+03 -0.59543850905E+03  0.87149325869E+03  0.00000000000E+00 0. -1.
        -11    1    5    5    0    0 -0.16108801907E+02 -0.23007410945E+03 -0.18284105527E+03  0.29432030313E+03  0.00000000000E+00 0.  1.
          3    1    6    6  503    0 -0.28334890334E+03  0.10244695633E+03 -0.31529816319E+03  0.43611341598E+03  0.00000000000E+00 0. -1.
         -3    1    6    6    0  503 -0.34383927170E+02 -0.17000410475E+02 -0.58600478071E+02  0.70037735787E+02  0.00000000000E+00 0.  1.
<mgrwt>
<rscale>  0 0.20359068E+04</rscale>
<asrwt>0</asrwt>
<pdfrwt beam="1">  1        2 0.39046524E+00 0.20359068E+04</pdfrwt>
<pdfrwt beam="2">  1       -2 0.62812590E-01 0.20359068E+04</pdfrwt>
<totfact> 0.72043796E+00</totfact>
</mgrwt>
</event>
<event>
12    2  0.3623523E-008  0.1720697E+04  0.7818608E-02  0.8749647E-01
         -4   -1    0    0    0  501 -0.00000000000E+00  0.00000000000E+00  0.56414346595E+03  0.56414346595E+03  0.00000000000E+00 0.  1.
          4   -1    0    0  501    0  0.00000000000E+00 -0.00000000000E+00 -0.13120771122E+04  0.13120771122E+04  0.00000000000E+00 0. -1.
         23    2    1    2    0    0 -0.33966358574E+03  0.24730815371E+03  0.23102314732E+03  0.48764271079E+03  0.88831550798E+02 0.  0.
        254    2    1    2    0    0  0.33966358574E+03 -0.24730815371E+03 -0.97895679358E+03  0.13885778674E+04  0.89065111896E+03 0.  0.
         23    2    4    4    0    0 -0.17487065018E+03 -0.36510667443E+03 -0.61061589608E+03  0.73836766363E+03  0.91936968336E+02 0.  0.
         23    2    4    4    0    0  0.51453423593E+03  0.11779852072E+03 -0.36834089750E+03  0.65021020374E+03  0.92066936832E+02 0.  0.
          4    1    3    3  502    0 -0.40238981598E+02  0.20177232996E+02 -0.26579790468E+01  0.45092806788E+02  0.00000000000E+00 0. -1.
         -4    1    3    3    0  502 -0.29942460415E+03  0.22713092071E+03  0.23368112636E+03  0.44254990400E+03  0.00000000000E+00 0.  1.
         11    1    5    5    0    0  0.43098897112E+01 -0.20764658763E+02 -0.10526875100E+02  0.23676175836E+02  0.00000000000E+00 0.  1.
        -11    1    5    5    0    0 -0.17918053989E+03 -0.34434201567E+03 -0.60008902098E+03  0.71469148780E+03  0.00000000000E+00 0. -1.
          2    1    6    6  503    0  0.34157683679E+03  0.10618411637E+03 -0.28760457979E+03  0.45898387370E+03  0.00000000000E+00 0. -1.
         -2    1    6    6    0  503  0.17295739914E+03  0.11614404354E+02 -0.80736317708E+02  0.19122633005E+03  0.00000000000E+00 0.  1.
<mgrwt>
<rscale>  0 0.17206972E+04</rscale>
<asrwt>0</asrwt>
<pdfrwt beam="1">  1        4 0.20185802E+00 0.17206972E+04</pdfrwt>
<pdfrwt beam="2">  1       -4 0.86791303E-01 0.17206972E+04</pdfrwt>
<totfact> 0.27990422E-01</totfact>
</mgrwt>
</event>
<event>
12    2  0.3623523E-008  0.1776755E+04  0.7818608E-02  0.8718759E-01
          1   -1    0    0  501    0  0.00000000000E+00  0.00000000000E+00  0.18465031890E+04  0.18465031890E+04  0.00000000000E+00 0. -1.
         -1   -1    0    0    0  501 -0.00000000000E+00 -0.00000000000E+00 -0.42741036259E+03  0.42741036259E+03  0.00000000000E+00 0.  1.
         23    2    1    2    0    0 -0.96187762262E+02  0.15258952912E+03  0.13393881888E+04  0.13545668024E+04  0.91404879276E+02 0.  0.
        254    2    1    2    0    0  0.96187762262E+02 -0.15258952912E+03  0.79704637614E+02  0.91934674916E+03  0.89794764097E+03 0.  0.
         23    2    4    4    0    0  0.25220611132E+03 -0.22290339364E+03 -0.32088684850E+03  0.47389466713E+03  0.91180812188E+02 0.  0.
         23    2    4    4    0    0 -0.15601834906E+03  0.70313864517E+02  0.40059148611E+03  0.44545208203E+03  0.93103457821E+02 0.  0.
          1    1    3    3  502    0 -0.96473881729E+02  0.13538943931E+03  0.92491697904E+03  0.93973875532E+03  0.00000000000E+00 0. -1.
         -1    1    3    3    0  502  0.28611946669E+00  0.17200089811E+02  0.41447120976E+03  0.41482804711E+03  0.00000000000E+00 0.  1.
         11    1    5    5    0    0  0.15118508024E+02 -0.32106532152E+02 -0.73811360391E+02  0.81899423774E+02  0.00000000000E+00 0. -1.
        -11    1    5    5    0    0  0.23708760329E+03 -0.19079686149E+03 -0.24707548811E+03  0.39199524335E+03  0.00000000000E+00 0.  1.
          2    1    6    6  503    0 -0.47183447965E+02  0.31522132999E+02  0.24596534207E+03  0.25242597357E+03  0.00000000000E+00 0. -1.
         -2    1    6    6    0  503 -0.10883490109E+03  0.38791731518E+02  0.15462614404E+03  0.19302610847E+03  0.00000000000E+00 0.  1.
<mgrwt>
<rscale>  0 0.17767550E+04</rscale>
<asrwt>0</asrwt>
<pdfrwt beam="1">  1        1 0.28407741E+00 0.17767550E+04</pdfrwt>
<pdfrwt beam="2">  1       -1 0.65755441E-01 0.17767550E+04</pdfrwt>
<totfact> 0.83960120E+00</totfact>
</mgrwt>
</event>
<event>
12    2  0.3623523E-008  0.2220492E+04  0.7818608E-02  0.8509947E-01
         -2   -1    0    0    0  501 -0.00000000000E+00  0.00000000000E+00  0.47101648722E+03  0.47101648722E+03  0.00000000000E+00 0. -1.
          2   -1    0    0  501    0  0.00000000000E+00 -0.00000000000E+00 -0.26169916528E+04  0.26169916528E+04  0.00000000000E+00 0.  1.
         23    2    1    2    0    0 -0.69462641279E+03 -0.48313752199E+03 -0.14430265211E+04  0.16752965404E+04  0.91461680725E+02 0.  0.
        254    2    1    2    0    0  0.69462641279E+03  0.48313752199E+03 -0.70294864447E+03  0.14127115996E+04  0.88639130665E+03 0.  0.
         23    2    4    4    0    0  0.43722459412E+03  0.62094672165E+03 -0.78469174570E+03  0.10960456846E+04  0.93993776885E+02 0.  0.
         23    2    4    4    0    0  0.25740181867E+03 -0.13780919966E+03  0.81743101226E+02  0.31666591506E+03  0.91369006778E+02 0.  0.
          1    1    3    3  502    0 -0.40161945677E+01 -0.14962214194E+02 -0.16088002806E+02  0.22334312317E+02  0.00000000000E+00 0. -1.
         -1    1    3    3    0  502 -0.69061021823E+03 -0.46817530780E+03 -0.14269385183E+04  0.16529622281E+04  0.00000000000E+00 0.  1.
         11    1    5    5    0    0  0.14182354669E+03  0.27998941548E+03 -0.30837605713E+03  0.44000429974E+03  0.00000000000E+00 0. -1.
        -11    1    5    5    0    0  0.29540104743E+03  0.34095730617E+03 -0.47631568857E+03  0.65604138484E+03  0.00000000000E+00 0.  1.
          3    1    6    6  503    0  0.25310214711E+03 -0.13254911178E+03  0.57433812918E+02  0.29142513064E+03  0.00000000000E+00 0. -1.
         -3    1    6    6    0  503  0.42996715598E+01 -0.52600878825E+01  0.24309288308E+02  0.25240784420E+02  0.00000000000E+00 0.  1.
<mgrwt>
<rscale>  0 0.22204920E+04</rscale>
<asrwt>0</asrwt>
<pdfrwt beam="1">  1        2 0.40261410E+00 0.22204920E+04</pdfrwt>
<pdfrwt beam="2">  1       -2 0.72464074E-01 0.22204920E+04</pdfrwt>
<totfact> 0.46768564E+00</totfact>
</mgrwt>
</event>
<event>
12    2  0.3623523E-008  0.1299317E+04  0.7818608E-02  0.9030107E-01
         -1   -1    0    0    0  501 -0.00000000000E+00  0.00000000000E+00  0.68802495897E+03  0.68802495897E+03  0.00000000000E+00 0.  1.
          1   -1    0    0  501    0  0.00000000000E+00 -0.00000000000E+00 -0.61343185087E+03  0.61343185087E+03  0.00000000000E+00 0. -1.
         23    2    1    2    0    0 -0.21430499062E+03 -0.22022536480E+03  0.14868767682E+03  0.35355511557E+03  0.92018227564E+02 0.  0.
        254    2    1    2    0    0  0.21430499062E+03  0.22022536480E+03 -0.74094568718E+02  0.94790169427E+03  0.89364521852E+03 0.  0.
         23    2    4    4    0    0 -0.15364109516E+03  0.43004145157E+03  0.10877244220E+03  0.47815448738E+03  0.90879224375E+02 0.  0.
         23    2    4    4    0    0  0.36794608578E+03 -0.20981608677E+03 -0.18286701092E+03  0.46974720690E+03  0.88402389104E+02 0.  0.
          3    1    3    3  502    0 -0.61294771417E+02 -0.16388674234E+02  0.47800498322E+02  0.79438814732E+02  0.00000000000E+00 0. -1.
         -3    1    3    3    0  502 -0.15301021920E+03 -0.20383669057E+03  0.10088717850E+03  0.27411630084E+03  0.00000000000E+00 0.  1.
         11    1    5    5    0    0  0.92475394162E+01  0.47208730755E+02 -0.76550744040E-01  0.48105998636E+02  0.00000000000E+00 0. -1.
        -11    1    5    5    0    0 -0.16288863458E+03  0.38283272082E+03  0.10884899294E+03  0.43004848874E+03  0.00000000000E+00 0.  1.
          3    1    6    6  503    0  0.17884038211E+03 -0.14064951362E+03 -0.65861931399E+02  0.23686274921E+03  0.00000000000E+00 0. -1.
         -3    1    6    6    0  503  0.18910570366E+03 -0.69166573157E+02 -0.11700507952E+03  0.23288445769E+03  0.00000000000E+00 0.  1.
<mgrwt>
<rscale>  0 0.12993174E+04</rscale>
<asrwt>0</asrwt>
<pdfrwt beam="1">  1        1 0.94374131E-01 0.12993174E+04</pdfrwt>
<pdfrwt beam="2">  1       -1 0.10584999E+00 0.12993174E+04</pdfrwt>
<totfact> 0.27238704E+01</totfact>
</mgrwt>
</event>
<event>
12    2  0.3623523E-008  0.1281897E+04  0.7818608E-02  0.9044045E-01
         -2   -1    0    0    0  501 -0.00000000000E+00  0.00000000000E+00  0.11954980132E+03  0.11954980132E+03  0.00000000000E+00 0. -1.
          2   -1    0    0  501    0  0.00000000000E+00 -0.00000000000E+00 -0.34363524267E+04  0.34363524267E+04  0.00000000000E+00 0.  1.
         23    2    1    2    0    0  0.12390345881E+03  0.14389830685E+03 -0.14801375331E+03  0.25722599752E+03  0.90544755864E+02 0.  0.
        254    2    1    2    0    0 -0.12390345881E+03 -0.14389830685E+03 -0.31687888721E+04  0.32986762305E+04  0.89665108488E+03 0.  0.
         23    2    4    4    0    0 -0.38386655181E+03 -0.33818640974E+03 -0.24477569650E+04  0.25023477433E+04  0.92230642252E+02 0.  0.
         23    2    4    4    0    0  0.25996309301E+03  0.19428810289E+03 -0.72103190708E+03  0.79632848720E+03  0.94463600635E+02 0.  0.
          3    1    3    3  502    0  0.29961152300E+02  0.45523150691E+02  0.22430977197E+01  0.54544104937E+02  0.00000000000E+00 0. -1.
         -3    1    3    3    0  502  0.93942306505E+02  0.98375156162E+02 -0.15025685103E+03  0.20268189259E+03  0.00000000000E+00 0.  1.
         11    1    5    5    0    0 -0.33488536234E+03 -0.30429265432E+03 -0.22763572053E+04  0.23208930074E+04  0.00000000000E+00 0. -1.
        -11    1    5    5    0    0 -0.48981189470E+02 -0.33893755421E+02 -0.17139975966E+03  0.18145473592E+03  0.00000000000E+00 0.  1.
          1    1    6    6  503    0  0.18050868214E+03  0.10728573396E+03 -0.36243261527E+03  0.41886873081E+03  0.00000000000E+00 0. -1.
         -1    1    6    6    0  503  0.79454410870E+02  0.87002368924E+02 -0.35859929181E+03  0.37745975639E+03  0.00000000000E+00 0.  1.
<mgrwt>
<rscale>  0 0.12818974E+04</rscale>
<asrwt>0</asrwt>
<pdfrwt beam="1">  1        2 0.52866962E+00 0.12818974E+04</pdfrwt>
<pdfrwt beam="2">  1       -2 0.18392277E-01 0.12818974E+04</pdfrwt>
<totfact> 0.22310747E+01</totfact>
</mgrwt>
</event>
<event>
12    2  0.3623523E-008  0.1323426E+04  0.7818608E-02  0.9011192E-01
         -1   -1    0    0    0  501 -0.00000000000E+00  0.00000000000E+00  0.35663894514E+03  0.35663894514E+03  0.00000000000E+00 0.  1.
          1   -1    0    0  501    0  0.00000000000E+00 -0.00000000000E+00 -0.12277512467E+04  0.12277512467E+04  0.00000000000E+00 0. -1.
         23    2    1    2    0    0 -0.28442526084E+02 -0.12286102347E+03 -0.62292612030E+03  0.64341044760E+03  0.10018105785E+03 0.  0.
        254    2    1    2    0    0  0.28442526084E+02  0.12286102347E+03 -0.24818618123E+03  0.94097974422E+03  0.89885632339E+03 0.  0.
         23    2    4    4    0    0  0.75569581849E+02 -0.32903944637E+03 -0.31849509335E+03  0.47286062662E+03  0.90445169865E+02 0.  0.
         23    2    4    4    0    0 -0.47127055765E+02  0.45190046984E+03  0.70308912116E+02  0.46811911760E+03  0.88074804095E+02 0.  0.
          1    1    3    3  502    0  0.66962503836E+00 -0.12375968066E+03 -0.56705167893E+03  0.58040030456E+03  0.00000000000E+00 0. -1.
         -1    1    3    3    0  502 -0.29112151122E+02  0.89865719197E+00 -0.55874441372E+02  0.63010143043E+02  0.00000000000E+00 0.  1.
         11    1    5    5    0    0  0.86471974533E+02 -0.30776260979E+03 -0.26863209752E+03  0.41756248656E+03  0.00000000000E+00 0. -1.
        -11    1    5    5    0    0 -0.10902392684E+02 -0.21276836583E+02 -0.49862995833E+02  0.55298140065E+02  0.00000000000E+00 0.  1.
          3    1    6    6  503    0 -0.72922684216E+02  0.30663532031E+03  0.52046195090E+02  0.31945538649E+03  0.00000000000E+00 0. -1.
         -3    1    6    6    0  503  0.25795628451E+02  0.14526514953E+03  0.18262717026E+02  0.14866373111E+03  0.00000000000E+00 0.  1.
<mgrwt>
<rscale>  0 0.13234257E+04</rscale>
<asrwt>0</asrwt>
<pdfrwt beam="1">  1        1 0.18888481E+00 0.13234257E+04</pdfrwt>
<pdfrwt beam="2">  1       -1 0.54867530E-01 0.13234257E+04</pdfrwt>
<totfact> 0.33573613E+01</totfact>
</mgrwt>
</event>
<event>
12    2  0.3623523E-008  0.3294958E+04  0.7818608E-02  0.8164180E-01
          2   -1    0    0  501    0  0.00000000000E+00  0.00000000000E+00  0.36224315552E+04  0.36224315552E+04  0.00000000000E+00 0. -1.
         -2   -1    0    0    0  501 -0.00000000000E+00 -0.00000000000E+00 -0.74927192558E+03  0.74927192558E+03  0.00000000000E+00 0.  1.
         23    2    1    2    0    0  0.67170174443E+03 -0.38953137766E+03  0.30767509772E+04  0.31745366476E+04  0.91479085519E+02 0.  0.
        254    2    1    2    0    0 -0.67170174443E+03  0.38953137766E+03 -0.20359134760E+03  0.11971668332E+04  0.88816724896E+03 0.  0.
         23    2    4    4    0    0 -0.58086499515E+03  0.55391907711E+03 -0.40911133821E+03  0.90484630026E+03  0.84523685746E+02 0.  0.
         23    2    4    4    0    0 -0.90836749280E+02 -0.16438769945E+03  0.20551999061E+03  0.29232053298E+03  0.89096558360E+02 0.  0.
          1    1    3    3  502    0  0.65889860363E+03 -0.36330205755E+03  0.29460151372E+04  0.30405823362E+04  0.00000000000E+00 0. -1.
         -1    1    3    3    0  502  0.12803140803E+02 -0.26229320109E+02  0.13073584008E+03  0.13395431135E+03  0.00000000000E+00 0.  1.
         11    1    5    5    0    0 -0.25093637885E+02  0.50942256580E+02 -0.38870267210E+02  0.68816435833E+02  0.00000000000E+00 0.  1.
        -11    1    5    5    0    0 -0.55577135727E+03  0.50297682053E+03 -0.37024107100E+03  0.83602986442E+03  0.00000000000E+00 0. -1.
          3    1    6    6  503    0 -0.91262329131E+02 -0.82341092904E+02  0.14657981270E+03  0.19129691527E+03  0.00000000000E+00 0. -1.
         -3    1    6    6    0  503  0.42557985056E+00 -0.82046606548E+02  0.58940177905E+02  0.10102361771E+03  0.00000000000E+00 0.  1.
<mgrwt>
<rscale>  0 0.32949575E+04</rscale>
<asrwt>0</asrwt>
<pdfrwt beam="1">  1        2 0.55729715E+00 0.32949575E+04</pdfrwt>
<pdfrwt beam="2">  1       -2 0.11527261E+00 0.32949575E+04</pdfrwt>
<totfact> 0.32529961E-01</totfact>
</mgrwt>
</event>
<event>
12    2  0.3623523E-008  0.2135153E+04  0.7818608E-02  0.8545915E-01
          1   -1    0    0  501    0  0.00000000000E+00  0.00000000000E+00  0.49391489052E+03  0.49391489052E+03  0.00000000000E+00 0. -1.
         -1   -1    0    0    0  501 -0.00000000000E+00 -0.00000000000E+00 -0.23075211421E+04  0.23075211421E+04  0.00000000000E+00 0.  1.
         23    2    1    2    0    0  0.92561750869E+01  0.84985038440E+03 -0.11407415921E+04  0.14254451110E+04  0.90945213853E+02 0.  0.
        254    2    1    2    0    0 -0.92561750869E+01 -0.84985038440E+03 -0.67286465942E+03  0.13759909215E+04  0.84750977200E+03 0.  0.
         23    2    4    4    0    0  0.19690536784E+03 -0.76177507127E+03 -0.16051420283E+03  0.80792030976E+03  0.88867511076E+02 0.  0.
         23    2    4    4    0    0 -0.20616154292E+03 -0.88075313133E+02 -0.51235045658E+03  0.56807061179E+03  0.99706504545E+02 0.  0.
          3    1    3    3  502    0  0.19805716755E+02  0.84013897470E+03 -0.11197449988E+04  0.14000195090E+04  0.00000000000E+00 0. -1.
         -3    1    3    3    0  502 -0.10549541668E+02  0.97114097004E+01 -0.20996593356E+02  0.25425602064E+02  0.00000000000E+00 0.  1.
         11    1    5    5    0    0  0.16170262053E+03 -0.64351358143E+03 -0.10183402674E+03  0.67128804248E+03  0.00000000000E+00 0. -1.
        -11    1    5    5    0    0  0.35202747308E+02 -0.11826148984E+03 -0.58680176094E+02  0.13663226728E+03  0.00000000000E+00 0.  1.
          4    1    6    6  503    0 -0.15162173749E+03 -0.96513536649E+02 -0.45129657384E+03  0.48577012217E+03  0.00000000000E+00 0. -1.
         -4    1    6    6    0  503 -0.54539805428E+02  0.84382235162E+01 -0.61053882748E+02  0.82300489615E+02  0.00000000000E+00 0.  1.
<mgrwt>
<rscale>  0 0.21351525E+04</rscale>
<asrwt>0</asrwt>
<pdfrwt beam="1">  1        1 0.75986906E-01 0.21351525E+04</pdfrwt>
<pdfrwt beam="2">  1       -1 0.35500326E+00 0.21351525E+04</pdfrwt>
<totfact> 0.59557865E-01</totfact>
</mgrwt>
</event>
<event>
12    2  0.3623523E-008  0.1887690E+04  0.7818608E-02  0.8661008E-01
          1   -1    0    0  501    0  0.00000000000E+00  0.00000000000E+00  0.20274026732E+04  0.20274026732E+04  0.00000000000E+00 0. -1.
         -1   -1    0    0    0  501 -0.00000000000E+00 -0.00000000000E+00 -0.43940118417E+03  0.43940118417E+03  0.00000000000E+00 0.  1.
         23    2    1    2    0    0 -0.43047047622E+03  0.26940975856E+03 -0.60664086411E+02  0.51972567050E+03  0.92456434614E+02 0.  0.
        254    2    1    2    0    0  0.43047047622E+03 -0.26940975856E+03  0.16486655755E+04  0.19470781869E+04  0.90284485778E+03 0.  0.
         23    2    4    4    0    0 -0.13003633653E+03 -0.20152483870E+03  0.11804047533E+04  0.12080465807E+04  0.92192461855E+02 0.  0.
         23    2    4    4    0    0  0.56050681274E+03 -0.67884919858E+02  0.46826082214E+03  0.73903160619E+03  0.90129173512E+02 0.  0.
          2    1    3    3  502    0 -0.81417536277E+02  0.12136008186E+02 -0.39609265671E+01  0.82412297914E+02  0.00000000000E+00 0. -1.
         -2    1    3    3    0  502 -0.34905293994E+03  0.25727375037E+03 -0.56703159844E+02  0.43731337259E+03  0.00000000000E+00 0.  1.
         11    1    5    5    0    0 -0.19648769686E+02 -0.11477586882E+03  0.51801421963E+03  0.53094096278E+03  0.00000000000E+00 0.  1.
        -11    1    5    5    0    0 -0.11038756684E+03 -0.86748969882E+02  0.66239053370E+03  0.67710561792E+03  0.00000000000E+00 0. -1.
          3    1    6    6  503    0  0.20721906658E+03 -0.43652683891E+02  0.22757108830E+03  0.31085993404E+03  0.00000000000E+00 0. -1.
         -3    1    6    6    0  503  0.35328774617E+03 -0.24232235968E+02  0.24068973384E+03  0.42817167214E+03  0.00000000000E+00 0.  1.
<mgrwt>
<rscale>  0 0.18876897E+04</rscale>
<asrwt>0</asrwt>
<pdfrwt beam="1">  1        1 0.31190810E+00 0.18876897E+04</pdfrwt>
<pdfrwt beam="2">  1       -1 0.67600184E-01 0.18876897E+04</pdfrwt>
<totfact> 0.59259714E+00</totfact>
</mgrwt>
</event>
<event>
12    2  0.3623523E-008  0.1056092E+04  0.7818608E-02  0.9249077E-01
          2   -1    0    0  501    0  0.00000000000E+00  0.00000000000E+00  0.19289451924E+04  0.19289451924E+04  0.00000000000E+00 0.  1.
         -2   -1    0    0    0  501 -0.00000000000E+00 -0.00000000000E+00 -0.14455171909E+03  0.14455171909E+03  0.00000000000E+00 0. -1.
         23    2    1    2    0    0 -0.64399825119E+02  0.45129326126E+02  0.63887447652E+02  0.13595747987E+03  0.90657800627E+02 0.  0.
        254    2    1    2    0    0  0.64399825119E+02 -0.45129326126E+02  0.17205060257E+04  0.19375394316E+04  0.88754384183E+03 0.  0.
         23    2    4    4    0    0 -0.36432282461E+03  0.53013571497E+02  0.11528210476E+04  0.12137370005E+04  0.92841689145E+02 0.  0.
         23    2    4    4    0    0  0.42872264973E+03 -0.98142897623E+02  0.56768497808E+03  0.72380243115E+03  0.90490807575E+02 0.  0.
          4    1    3    3  502    0  0.96040757764E+00  0.19199874284E+02 -0.19159167636E+02  0.27140951710E+02  0.00000000000E+00 0. -1.
         -4    1    3    3    0  502 -0.65360232696E+02  0.25929451842E+02  0.83046615288E+02  0.10881652816E+03  0.00000000000E+00 0.  1.
         11    1    5    5    0    0 -0.68865831519E+01  0.14957946654E+02  0.24318503846E+02  0.29369283698E+02  0.00000000000E+00 0. -1.
        -11    1    5    5    0    0 -0.35743624146E+03  0.38055624843E+02  0.11285025438E+04  0.11843677168E+04  0.00000000000E+00 0.  1.
          2    1    6    6  503    0  0.82156781721E+02 -0.56840800566E+02  0.13288570265E+03  0.16625048379E+03  0.00000000000E+00 0. -1.
         -2    1    6    6    0  503  0.34656586801E+03 -0.41302097057E+02  0.43479927543E+03  0.55755194736E+03  0.00000000000E+00 0.  1.
<mgrwt>
<rscale>  0 0.10560916E+04</rscale>
<asrwt>0</asrwt>
<pdfrwt beam="1">  1        2 0.29676078E+00 0.10560916E+04</pdfrwt>
<pdfrwt beam="2">  1       -2 0.22238727E-01 0.10560916E+04</pdfrwt>
<totfact> 0.12925647E+02</totfact>
</mgrwt>
</event>
<event>
12    2  0.4089468E-008  0.1986074E+04  0.7818608E-02  0.8613159E-01
         -2   -1    0    0    0  501 -0.00000000000E+00  0.00000000000E+00  0.85310294638E+03  0.85310294638E+03  0.00000000000E+00 0.  1.
          2   -1    0    0  501    0  0.00000000000E+00 -0.00000000000E+00 -0.11559242135E+04  0.11559242135E+04  0.00000000000E+00 0. -1.
         23    2    1    2    0    0  0.20857900839E+02 -0.52543195122E+02  0.66738685488E+03  0.67625945617E+03  0.93411983234E+02 0.  0.
        254    2    1    2    0    0 -0.20857900839E+02  0.52543195122E+02 -0.97020812196E+03  0.13327677037E+04  0.91201431605E+03 0.  0.
         23    2    4    4    0    0  0.33612852557E+03  0.30783357380E+03 -0.48792273119E+03  0.67430471008E+03  0.94203798050E+02 0.  0.
         23    2    4    4    0    0 -0.35698642641E+03 -0.25529037867E+03 -0.48228539077E+03  0.65846299360E+03  0.91443040742E+02 0.  0.
          1    1    3    3  502    0 -0.70972750818E+01 -0.63921496892E+01  0.34832354795E+01  0.10166799921E+02  0.00000000000E+00 0. -1.
         -1    1    3    3    0  502  0.27955175921E+02 -0.46151045433E+02  0.66390361940E+03  0.66609265625E+03  0.00000000000E+00 0.  1.
         11    1    5    5    0    0  0.11604888544E+02  0.27060870854E+02 -0.80085147788E+01  0.30513939085E+02  0.00000000000E+00 0.  1.
        -11    1    5    5    0    0  0.32452363703E+03  0.28077270294E+03 -0.47991421641E+03  0.64379077100E+03  0.00000000000E+00 0. -1.
          4    1    6    6  503    0 -0.29417110454E+03 -0.19645169077E+03 -0.33121944957E+03  0.48459903975E+03  0.00000000000E+00 0. -1.
         -4    1    6    6    0  503 -0.62815321869E+02 -0.58838687903E+02 -0.15106594120E+03  0.17386395385E+03  0.00000000000E+00 0.  1.
<mgrwt>
<rscale>  0 0.19860739E+04</rscale>
<asrwt>0</asrwt>
<pdfrwt beam="1">  1        2 0.17783449E+00 0.19860739E+04</pdfrwt>
<pdfrwt beam="2">  1       -2 0.13124661E+00 0.19860739E+04</pdfrwt>
<totfact> 0.79397624E+00</totfact>
</mgrwt>
</event>
<event>
12    2  0.3623523E-008  0.2411241E+04  0.7818608E-02  0.8435307E-01
          2   -1    0    0  501    0  0.00000000000E+00  0.00000000000E+00  0.18867692342E+04  0.18867692342E+04  0.00000000000E+00 0. -1.
         -2   -1    0    0    0  501 -0.00000000000E+00 -0.00000000000E+00 -0.77037538462E+03  0.77037538462E+03  0.00000000000E+00 0.  1.
         23    2    1    2    0    0 -0.15570207691E+03 -0.80909492373E+03 -0.20826696585E+03  0.85259458239E+03  0.68298319959E+02 0.  0.
        254    2    1    2    0    0  0.15570207691E+03  0.80909492373E+03  0.13246608154E+04  0.18045500364E+04  0.90708148792E+03 0.  0.
         23    2    4    4    0    0  0.49825339842E+03  0.50583943951E+03  0.55737578795E+03  0.90659757467E+03  0.84388422301E+02 0.  0.
         23    2    4    4    0    0 -0.34255132151E+03  0.30325548422E+03  0.76728502749E+03  0.89795246177E+03  0.91033035847E+02 0.  0.
          3    1    3    3  502    0 -0.58017007876E+02 -0.35284489925E+03 -0.12388931147E+03  0.37843633233E+03  0.00000000000E+00 0. -1.
         -3    1    3    3    0  502 -0.97685069031E+02 -0.45625002447E+03 -0.84377654379E+02  0.47415825006E+03  0.00000000000E+00 0.  1.
         11    1    5    5    0    0  0.21800930259E+03  0.25143863069E+03  0.21478668210E+03  0.39608428374E+03  0.00000000000E+00 0. -1.
        -11    1    5    5    0    0  0.28024409583E+03  0.25440080881E+03  0.34258910585E+03  0.51051329093E+03  0.00000000000E+00 0.  1.
          2    1    6    6  503    0 -0.20542421221E+03  0.13979086464E+03  0.47513261918E+03  0.53618243034E+03  0.00000000000E+00 0. -1.
         -2    1    6    6    0  503 -0.13712710930E+03  0.16346461958E+03  0.29215240831E+03  0.36177003143E+03  0.00000000000E+00 0.  1.
<mgrwt>
<rscale>  0 0.24112408E+04</rscale>
<asrwt>0</asrwt>
<pdfrwt beam="1">  1        2 0.29027219E+00 0.24112408E+04</pdfrwt>
<pdfrwt beam="2">  1       -2 0.11851929E+00 0.24112408E+04</pdfrwt>
<totfact> 0.37998540E+00</totfact>
</mgrwt>
</event>
<event>
12    2  0.3623523E-008  0.2422917E+04  0.7818608E-02  0.8430973E-01
          3   -1    0    0  501    0  0.00000000000E+00  0.00000000000E+00  0.14779470866E+04  0.14779470866E+04  0.00000000000E+00 0. -1.
         -3   -1    0    0    0  501 -0.00000000000E+00 -0.00000000000E+00 -0.99302074116E+03  0.99302074116E+03  0.00000000000E+00 0.  1.
         23    2    1    2    0    0  0.12043516214E+03 -0.21620252956E+03 -0.81550732847E+03  0.85724508657E+03  0.92567670376E+02 0.  0.
        254    2    1    2    0    0 -0.12043516214E+03  0.21620252956E+03  0.13004336739E+04  0.16137227412E+04  0.92288958341E+03 0.  0.
         23    2    4    4    0    0  0.19654065655E+03  0.11368706225E+03 -0.23267905327E+02  0.24572590247E+03  0.91032114799E+02 0.  0.
         23    2    4    4    0    0 -0.31697581870E+03  0.10251546731E+03  0.13237015793E+04  0.13679968388E+04  0.90809631759E+02 0.  0.
          4    1    3    3  502    0  0.13057331552E+02 -0.94282146151E+02 -0.39845675783E+03  0.40966743201E+03  0.00000000000E+00 0. -1.
         -4    1    3    3    0  502  0.10737783059E+03 -0.12192038341E+03 -0.41705057064E+03  0.44757765456E+03  0.00000000000E+00 0.  1.
         11    1    5    5    0    0  0.13626840802E+03  0.48688330264E+02 -0.50064530868E+02  0.15312116046E+03  0.00000000000E+00 0.  1.
        -11    1    5    5    0    0  0.60272248530E+02  0.64998731985E+02  0.26796625541E+02  0.92604742011E+02  0.00000000000E+00 0. -1.
          4    1    6    6  503    0 -0.17547651677E+03  0.20281423807E+02  0.57057636754E+03  0.59729451302E+03  0.00000000000E+00 0. -1.
         -4    1    6    6    0  503 -0.14149930192E+03  0.82234043505E+02  0.75312521173E+03  0.77070232574E+03  0.00000000000E+00 0.  1.
<mgrwt>
<rscale>  0 0.24229173E+04</rscale>
<asrwt>0</asrwt>
<pdfrwt beam="1">  1        3 0.22737648E+00 0.24229173E+04</pdfrwt>
<pdfrwt beam="2">  1       -3 0.15277242E+00 0.24229173E+04</pdfrwt>
<totfact> 0.72048902E-02</totfact>
</mgrwt>
</event>
<event>
12    2  0.3623523E-008  0.3413833E+04  0.7818608E-02  0.8134520E-01
          2   -1    0    0  501    0  0.00000000000E+00  0.00000000000E+00  0.17781114668E+04  0.17781114668E+04  0.00000000000E+00 0. -1.
         -2   -1    0    0    0  501 -0.00000000000E+00 -0.00000000000E+00 -0.16385724431E+04  0.16385724431E+04  0.00000000000E+00 0.  1.
         23    2    1    2    0    0 -0.81702164298E+03 -0.13399553397E+04  0.29864093113E+03  0.16001019308E+04  0.90194819914E+02 0.  0.
        254    2    1    2    0    0  0.81702164298E+03  0.13399553397E+04 -0.15910190748E+03  0.18165819791E+04  0.90091730609E+03 0.  0.
         23    2    4    4    0    0 -0.83208693402E+02  0.64693193799E+03  0.36765475299E+02  0.65972040039E+03  0.91840554584E+02 0.  0.
         23    2    4    4    0    0  0.90023033638E+03  0.69302340172E+03 -0.19586738278E+03  0.11568615787E+04  0.96273500266E+02 0.  0.
          3    1    3    3  502    0 -0.11759953790E+03 -0.25914888345E+03  0.50418317028E+02  0.28901522763E+03  0.00000000000E+00 0. -1.
         -3    1    3    3    0  502 -0.69942210508E+03 -0.10808064563E+04  0.24822261410E+03  0.13110867031E+04  0.00000000000E+00 0.  1.
         11    1    5    5    0    0 -0.14623937069E+02  0.93733279852E+01 -0.75699067538E+00  0.17386542146E+02  0.00000000000E+00 0.  1.
        -11    1    5    5    0    0 -0.68584756333E+02  0.63755861000E+03  0.37522465974E+02  0.64233385824E+03  0.00000000000E+00 0. -1.
          3    1    6    6  503    0  0.71513547511E+03  0.50634262982E+03 -0.12985297246E+03  0.88581228316E+03  0.00000000000E+00 0. -1.
         -3    1    6    6    0  503  0.18509486127E+03  0.18668077190E+03 -0.66014410316E+02  0.27104929558E+03  0.00000000000E+00 0.  1.
<mgrwt>
<rscale>  0 0.34138333E+04</rscale>
<asrwt>0</asrwt>
<pdfrwt beam="1">  1        2 0.27355561E+00 0.34138333E+04</pdfrwt>
<pdfrwt beam="2">  1       -2 0.25208807E+00 0.34138333E+04</pdfrwt>
<totfact> 0.45814447E-01</totfact>
</mgrwt>
</event>
<event>
12    2  0.3623523E-008  0.1964849E+04  0.7818608E-02  0.8623233E-01
         -2   -1    0    0    0  501 -0.00000000000E+00  0.00000000000E+00  0.62222884517E+03  0.62222884517E+03  0.00000000000E+00 0.  1.
          2   -1    0    0  501    0  0.00000000000E+00 -0.00000000000E+00 -0.15511308235E+04  0.15511308235E+04  0.00000000000E+00 0. -1.
         23    2    1    2    0    0  0.66574378888E+03 -0.22381456024E+03 -0.72809590208E+03  0.10155328515E+04  0.88744465032E+02 0.  0.
        254    2    1    2    0    0 -0.66574378888E+03  0.22381456024E+03 -0.20080607629E+03  0.11578268172E+04  0.89829399893E+03 0.  0.
         23    2    4    4    0    0  0.36806566615E+02 -0.22593865635E+03  0.98436215479E+02  0.26652165279E+03  0.94557406406E+02 0.  0.
         23    2    4    4    0    0 -0.70255035550E+03  0.44975321659E+03 -0.29924229177E+03  0.89130516440E+03  0.94994679121E+02 0.  0.
          3    1    3    3  502    0  0.60005938786E+03 -0.17683362194E+03 -0.62169411087E+03  0.88195519518E+03  0.00000000000E+00 0. -1.
         -3    1    3    3    0  502  0.65684401025E+02 -0.46980938298E+02 -0.10640179121E+03  0.13357765634E+03  0.00000000000E+00 0.  1.
         11    1    5    5    0    0 -0.14600742340E+02 -0.86920410671E+02  0.76463040596E+02  0.11668305809E+03  0.00000000000E+00 0.  1.
        -11    1    5    5    0    0  0.51407308955E+02 -0.13901824568E+03  0.21973174884E+02  0.14983859470E+03  0.00000000000E+00 0. -1.
          4    1    6    6  503    0 -0.40093374995E+03  0.20874493635E+03 -0.13506688785E+03  0.47176835894E+03  0.00000000000E+00 0. -1.
         -4    1    6    6    0  503 -0.30161660555E+03  0.24100828024E+03 -0.16417540392E+03  0.41953680546E+03  0.00000000000E+00 0.  1.
<mgrwt>
<rscale>  0 0.19648495E+04</rscale>
<asrwt>0</asrwt>
<pdfrwt beam="1">  1        2 0.23863551E+00 0.19648495E+04</pdfrwt>
<pdfrwt beam="2">  1       -2 0.95727515E-01 0.19648495E+04</pdfrwt>
<totfact> 0.10133000E+01</totfact>
</mgrwt>
</event>
<event>
12    2  0.3623523E-008  0.1292588E+04  0.7818608E-02  0.9035464E-01
          1   -1    0    0  501    0  0.00000000000E+00  0.00000000000E+00  0.15043873282E+04  0.15043873282E+04  0.00000000000E+00 0. -1.
         -1   -1    0    0    0  501 -0.00000000000E+00 -0.00000000000E+00 -0.27765194659E+03  0.27765194659E+03  0.00000000000E+00 0.  1.
         23    2    1    2    0    0 -0.26109666396E+03  0.17890595404E+03  0.43582096291E+03  0.54634501574E+03  0.91510415745E+02 0.  0.
        254    2    1    2    0    0  0.26109666396E+03 -0.17890595404E+03  0.79091441873E+03  0.12356942591E+04  0.89510662820E+03 0.  0.
         23    2    4    4    0    0 -0.16308354179E+03 -0.40580233324E+03  0.28024014595E+03  0.52766974528E+03  0.92892655336E+02 0.  0.
         23    2    4    4    0    0  0.42418020575E+03  0.22689637920E+03  0.51067427278E+03  0.70802451380E+03  0.95392271278E+02 0.  0.
          3    1    3    3  502    0 -0.16637564954E+03  0.15893310626E+03  0.27415957816E+03  0.35791627977E+03  0.00000000000E+00 0. -1.
         -3    1    3    3    0  502 -0.94721014419E+02  0.19972847780E+02  0.16166138474E+03  0.18842873597E+03  0.00000000000E+00 0.  1.
         11    1    5    5    0    0 -0.49989924981E+02 -0.19729397353E+03  0.17396686470E+03  0.26774684798E+03  0.00000000000E+00 0. -1.
        -11    1    5    5    0    0 -0.11309361681E+03 -0.20850835970E+03  0.10627328125E+03  0.25992289729E+03  0.00000000000E+00 0.  1.
          3    1    6    6  503    0  0.29030798304E+02  0.43069499165E+02  0.33629304045E+02  0.61876482601E+02  0.00000000000E+00 0. -1.
         -3    1    6    6    0  503  0.39514940745E+03  0.18382688003E+03  0.47704496874E+03  0.64614803120E+03  0.00000000000E+00 0.  1.
<mgrwt>
<rscale>  0 0.12925882E+04</rscale>
<asrwt>0</asrwt>
<pdfrwt beam="1">  1        1 0.23144420E+00 0.12925882E+04</pdfrwt>
<pdfrwt beam="2">  1       -1 0.42715685E-01 0.12925882E+04</pdfrwt>
<totfact> 0.34455326E+01</totfact>
</mgrwt>
</event>
<event>
12    2  0.3623523E-008  0.1710887E+04  0.7818608E-02  0.8755179E-01
         -2   -1    0    0    0  501 -0.00000000000E+00  0.00000000000E+00  0.29195288316E+03  0.29195288316E+03  0.00000000000E+00 0. -1.
          2   -1    0    0  501    0  0.00000000000E+00 -0.00000000000E+00 -0.25065121113E+04  0.25065121113E+04  0.00000000000E+00 0.  1.
         23    2    1    2    0    0  0.34788255488E+03 -0.41581167005E+03 -0.32439816972E+03  0.63840807765E+03  0.91701058595E+02 0.  0.
        254    2    1    2    0    0 -0.34788255488E+03  0.41581167005E+03 -0.18901610584E+04  0.21600569168E+04  0.89398850116E+03 0.  0.
         23    2    4    4    0    0 -0.11749712133E+03  0.92334988841E+02  0.46704548871E+02  0.18076899650E+03  0.90359235967E+02 0.  0.
         23    2    4    4    0    0 -0.23038543355E+03  0.32347668121E+03 -0.19368656073E+04  0.19792879203E+04  0.91747913132E+02 0.  0.
          4    1    3    3  502    0  0.28919868369E+03 -0.35150025667E+03 -0.22998891355E+03  0.50998353841E+03  0.00000000000E+00 0. -1.
         -4    1    3    3    0  502  0.58683871183E+02 -0.64311413378E+02 -0.94409256172E+02  0.12842453924E+03  0.00000000000E+00 0.  1.
         11    1    5    5    0    0 -0.59983112540E+01 -0.12559568791E+02 -0.10406106303E+02  0.17378422095E+02  0.00000000000E+00 0. -1.
        -11    1    5    5    0    0 -0.11149881008E+03  0.10489455763E+03  0.57110655174E+02  0.16339057440E+03  0.00000000000E+00 0.  1.
          1    1    6    6  503    0 -0.70273441828E+02  0.13616910860E+03 -0.56204399548E+03  0.58255801051E+03  0.00000000000E+00 0. -1.
         -1    1    6    6    0  503 -0.16011199172E+03  0.18730757261E+03 -0.13748216118E+04  0.13967299098E+04  0.00000000000E+00 0.  1.
<mgrwt>
<rscale>  0 0.17108868E+04</rscale>
<asrwt>0</asrwt>
<pdfrwt beam="1">  1        2 0.38561725E+00 0.17108868E+04</pdfrwt>
<pdfrwt beam="2">  1       -2 0.44915828E-01 0.17108868E+04</pdfrwt>
<totfact> 0.15447939E+01</totfact>
</mgrwt>
</event>
<event>
12    2  0.3623523E-008  0.1124203E+04  0.7818608E-02  0.9181918E-01
          1   -1    0    0  501    0  0.00000000000E+00  0.00000000000E+00  0.25343853110E+03  0.25343853110E+03  0.00000000000E+00 0. -1.
         -1   -1    0    0    0  501 -0.00000000000E+00 -0.00000000000E+00 -0.12466856638E+04  0.12466856638E+04  0.00000000000E+00 0.  1.
         23    2    1    2    0    0  0.34939469569E+02 -0.64258809974E+02  0.41778199149E+02  0.12488205720E+03  0.92196253135E+02 0.  0.
        254    2    1    2    0    0 -0.34939469569E+02  0.64258809974E+02 -0.10350253319E+04  0.13752421377E+04  0.90258713627E+03 0.  0.
         23    2    4    4    0    0 -0.28993946969E+03 -0.20386754604E+03 -0.11932043460E+03  0.38341879976E+03  0.84532464088E+02 0.  0.
         23    2    4    4    0    0  0.25500000012E+03  0.26812635601E+03 -0.91570489727E+03  0.99182333796E+03  0.91001824098E+02 0.  0.
          3    1    3    3  502    0  0.23473384460E+02 -0.74906872226E+02  0.61489699839E+02  0.99714705390E+02  0.00000000000E+00 0. -1.
         -3    1    3    3    0  502  0.11466085109E+02  0.10648062251E+02 -0.19711500691E+02  0.25167351806E+02  0.00000000000E+00 0.  1.
         11    1    5    5    0    0 -0.10831659521E+03 -0.95606337424E+02 -0.85711684833E+01  0.14472913142E+03  0.00000000000E+00 0.  1.
        -11    1    5    5    0    0 -0.18162287448E+03 -0.10826120861E+03 -0.11074926612E+03  0.23868966834E+03  0.00000000000E+00 0. -1.
          1    1    6    6  503    0  0.16438166827E+02  0.62660520902E+02 -0.19080110379E+03  0.20149842534E+03  0.00000000000E+00 0. -1.
         -1    1    6    6    0  503  0.23856183329E+03  0.20546583511E+03 -0.72490379348E+03  0.79032491262E+03  0.00000000000E+00 0.  1.
<mgrwt>
<rscale>  0 0.11242032E+04</rscale>
<asrwt>0</asrwt>
<pdfrwt beam="1">  1        1 0.38990544E-01 0.11242032E+04</pdfrwt>
<pdfrwt beam="2">  1       -1 0.19179779E+00 0.11242032E+04</pdfrwt>
<totfact> 0.18664217E+01</totfact>
</mgrwt>
</event>
<event>
12    2  0.3623523E-008  0.3703344E+04  0.7818608E-02  0.8067221E-01
         -2   -1    0    0    0  501 -0.00000000000E+00  0.00000000000E+00  0.18604131125E+04  0.18604131125E+04  0.00000000000E+00 0.  1.
          2   -1    0    0  501    0  0.00000000000E+00 -0.00000000000E+00 -0.18429717750E+04  0.18429717750E+04  0.00000000000E+00 0. -1.
         23    2    1    2    0    0  0.56837710389E+03 -0.95102989640E+03 -0.13343202984E+04  0.17366837772E+04  0.90274510526E+02 0.  0.
        254    2    1    2    0    0 -0.56837710389E+03  0.95102989640E+03  0.13517616358E+04  0.19667011103E+04  0.90174460979E+03 0.  0.
         23    2    4    4    0    0 -0.34435065759E+03  0.92178906822E+03  0.55547604271E+03  0.11335029206E+04  0.89458232470E+02 0.  0.
         23    2    4    4    0    0 -0.22402644630E+03  0.29240828177E+02  0.79628559306E+03  0.83319818969E+03  0.95423282848E+02 0.  0.
          1    1    3    3  502    0  0.47382783385E+03 -0.83284993989E+03 -0.11868032264E+04  0.15253372534E+04  0.00000000000E+00 0. -1.
         -1    1    3    3    0  502  0.94549270042E+02 -0.11817995651E+03 -0.14751707201E+03  0.21134652380E+03  0.00000000000E+00 0.  1.
         11    1    5    5    0    0 -0.32762168043E+03  0.90625894798E+03  0.53199026295E+03  0.11007519640E+04  0.00000000000E+00 0.  1.
        -11    1    5    5    0    0 -0.16728977152E+02  0.15530120242E+02  0.23485779764E+02  0.32750956664E+02  0.00000000000E+00 0. -1.
          4    1    6    6  503    0 -0.25127381257E+02  0.36588690903E+02  0.18839730795E+03  0.19355532345E+03  0.00000000000E+00 0. -1.
         -4    1    6    6    0  503 -0.19889906505E+03 -0.73478627260E+01  0.60788828511E+03  0.63964286624E+03  0.00000000000E+00 0.  1.
<mgrwt>
<rscale>  0 0.37033438E+04</rscale>
<asrwt>0</asrwt>
<pdfrwt beam="1">  1        2 0.28353412E+00 0.37033438E+04</pdfrwt>
<pdfrwt beam="2">  1       -2 0.28621740E+00 0.37033438E+04</pdfrwt>
<totfact> 0.25472640E-01</totfact>
</mgrwt>
</event>
<event>
12    2  0.3623523E-008  0.1732268E+04  0.7818608E-02  0.8743171E-01
         -2   -1    0    0    0  501 -0.00000000000E+00  0.00000000000E+00  0.62403289314E+03  0.62403289314E+03  0.00000000000E+00 0. -1.
          2   -1    0    0  501    0  0.00000000000E+00 -0.00000000000E+00 -0.12021618238E+04  0.12021618238E+04  0.00000000000E+00 0.  1.
         23    2    1    2    0    0  0.42054545356E+03 -0.16395895002E+03 -0.67285355645E+03  0.81540443510E+03  0.91714058613E+02 0.  0.
        254    2    1    2    0    0 -0.42054545356E+03  0.16395895002E+03  0.94724625762E+02  0.10107902819E+04  0.89943494674E+03 0.  0.
         23    2    4    4    0    0 -0.23929019691E+03 -0.30005527488E+03  0.26336072400E+03  0.47529701422E+03  0.96205064636E+02 0.  0.
         23    2    4    4    0    0 -0.18125525665E+03  0.46401422490E+03 -0.16863609824E+03  0.53549326766E+03  0.10075831038E+03 0.  0.
          1    1    3    3  502    0  0.21425066810E+03 -0.12402086169E+03 -0.31792752109E+03  0.40294221866E+03  0.00000000000E+00 0. -1.
         -1    1    3    3    0  502  0.20629478546E+03 -0.39938088324E+02 -0.35492603536E+03  0.41246221643E+03  0.00000000000E+00 0.  1.
         11    1    5    5    0    0 -0.24578956855E+03 -0.27992570012E+03  0.23708800701E+03  0.44156724591E+03  0.00000000000E+00 0.  1.
        -11    1    5    5    0    0  0.64993716480E+01 -0.20129574762E+02  0.26272716988E+02  0.33729768304E+02  0.00000000000E+00 0. -1.
          2    1    6    6  503    0 -0.10257901302E+03  0.25357980491E+03 -0.39546654498E+02  0.27638579785E+03  0.00000000000E+00 0. -1.
         -2    1    6    6    0  503 -0.78676243636E+02  0.21043441998E+03 -0.12908944374E+03  0.25910746981E+03  0.00000000000E+00 0.  1.
<mgrwt>
<rscale>  0 0.17322685E+04</rscale>
<asrwt>0</asrwt>
<pdfrwt beam="1">  1        2 0.18494797E+00 0.17322685E+04</pdfrwt>
<pdfrwt beam="2">  1       -2 0.96005061E-01 0.17322685E+04</pdfrwt>
<totfact> 0.16301465E+01</totfact>
</mgrwt>
</event>
<event>
12    2  0.3623523E-008  0.2589055E+04  0.7818608E-02  0.8371929E-01
          2   -1    0    0  501    0  0.00000000000E+00  0.00000000000E+00  0.28966693661E+04  0.28966693661E+04  0.00000000000E+00 0. -1.
         -2   -1    0    0    0  501 -0.00000000000E+00 -0.00000000000E+00 -0.57852679168E+03  0.57852679168E+03  0.00000000000E+00 0.  1.
         23    2    1    2    0    0  0.76111637574E+03  0.80539606591E+03  0.13746457140E+04  0.17676190265E+04  0.82856644371E+02 0.  0.
        254    2    1    2    0    0 -0.76111637574E+03 -0.80539606591E+03  0.94349686040E+03  0.17075771312E+04  0.89312506018E+03 0.  0.
         23    2    4    4    0    0 -0.15776431029E+03  0.15519483624E+03  0.24124142180E+02  0.24468355593E+03  0.10155320531E+03 0.  0.
         23    2    4    4    0    0 -0.60335206545E+03 -0.96059090215E+03  0.91937271822E+03  0.14628935753E+04  0.89681779009E+02 0.  0.
          1    1    3    3  502    0  0.70386714137E+03  0.76981305406E+03  0.12750959528E+04  0.16473951498E+04  0.00000000000E+00 0. -1.
         -1    1    3    3    0  502  0.57249234361E+02  0.35583011855E+02  0.99549761215E+02  0.12022387669E+03  0.00000000000E+00 0.  1.
         11    1    5    5    0    0 -0.43321740141E+02  0.42924585437E+02  0.54175539661E+02  0.81573784400E+02  0.00000000000E+00 0. -1.
        -11    1    5    5    0    0 -0.11444257015E+03  0.11227025080E+03 -0.30051397481E+02  0.16310977153E+03  0.00000000000E+00 0.  1.
          4    1    6    6  503    0 -0.33657687623E+03 -0.50635022475E+03  0.43856546734E+03  0.74967607196E+03  0.00000000000E+00 0. -1.
         -4    1    6    6    0  503 -0.26677518922E+03 -0.45424067740E+03  0.48080725088E+03  0.71321750335E+03  0.00000000000E+00 0.  1.
<mgrwt>
<rscale>  0 0.25890545E+04</rscale>
<asrwt>0</asrwt>
<pdfrwt beam="1">  1        2 0.44564143E+00 0.25890545E+04</pdfrwt>
<pdfrwt beam="2">  1       -2 0.89004124E-01 0.25890545E+04</pdfrwt>
<totfact> 0.19375328E+00</totfact>
</mgrwt>
</event>
<event>
12    2  0.3623523E-008  0.3424878E+04  0.7818608E-02  0.8131827E-01
         -1   -1    0    0    0  501 -0.00000000000E+00  0.00000000000E+00  0.13831570395E+04  0.13831570395E+04  0.00000000000E+00 0.  1.
          1   -1    0    0  501    0  0.00000000000E+00 -0.00000000000E+00 -0.21201110159E+04  0.21201110159E+04  0.00000000000E+00 0. -1.
         23    2    1    2    0    0  0.78996434587E+03  0.12266378266E+04 -0.99733715724E+03  0.17694503333E+04  0.87115161831E+02 0.  0.
        254    2    1    2    0    0 -0.78996434587E+03 -0.12266378266E+04  0.26038318081E+03  0.17338177221E+04  0.89980023750E+03 0.  0.
         23    2    4    4    0    0 -0.88506515065E+03 -0.11940783306E+04  0.57811719967E+02  0.14902068456E+04  0.90613835547E+02 0.  0.
         23    2    4    4    0    0  0.95100804777E+02 -0.32559495966E+02  0.20257146084E+03  0.24361087653E+03  0.90591272036E+02 0.  0.
          1    1    3    3  502    0  0.67209732284E+03  0.10918709404E+04 -0.88876065954E+03  0.15600616885E+04  0.00000000000E+00 0. -1.
         -1    1    3    3    0  502  0.11786702303E+03  0.13476688612E+03 -0.10857649770E+03  0.20938864478E+03  0.00000000000E+00 0.  1.
         11    1    5    5    0    0 -0.19288419077E+03 -0.21745938629E+03 -0.14033007015E+02  0.29101515600E+03  0.00000000000E+00 0. -1.
        -11    1    5    5    0    0 -0.69218095987E+03 -0.97661894431E+03  0.71844726982E+02  0.11991916896E+04  0.00000000000E+00 0.  1.
          3    1    6    6  503    0  0.13072135841E+02 -0.24309635891E+02  0.31013947619E+01  0.27775128840E+02  0.00000000000E+00 0. -1.
         -3    1    6    6    0  503  0.82028668936E+02 -0.82498600745E+01  0.19947006608E+03  0.21583574769E+03  0.00000000000E+00 0.  1.
<mgrwt>
<rscale>  0 0.34248775E+04</rscale>
<asrwt>0</asrwt>
<pdfrwt beam="1">  1        1 0.32617092E+00 0.34248775E+04</pdfrwt>
<pdfrwt beam="2">  1       -1 0.21279339E+00 0.34248775E+04</pdfrwt>
<totfact> 0.24951981E-01</totfact>
</mgrwt>
</event>
<event>
12    2  0.3623523E-008  0.1962373E+04  0.7818608E-02  0.8624417E-01
         -2   -1    0    0    0  501 -0.00000000000E+00  0.00000000000E+00  0.37730407232E+03  0.37730407232E+03  0.00000000000E+00 0.  1.
          2   -1    0    0  501    0  0.00000000000E+00 -0.00000000000E+00 -0.25515940560E+04  0.25515940560E+04  0.00000000000E+00 0. -1.
         23    2    1    2    0    0 -0.57397949132E+03  0.36035090267E+02 -0.94980827249E+02  0.59022792520E+03  0.92718185696E+02 0.  0.
        254    2    1    2    0    0  0.57397949132E+03 -0.36035090267E+02 -0.20793091564E+04  0.23386702031E+04  0.90282931207E+03 0.  0.
         23    2    4    4    0    0  0.17452011924E+03  0.16033891347E+03 -0.17722683991E+04  0.17902856554E+04  0.89563442019E+02 0.  0.
         23    2    4    4    0    0  0.39945937208E+03 -0.19637400374E+03 -0.30704075729E+03  0.54838454772E+03  0.91219768965E+02 0.  0.
          3    1    3    3  502    0 -0.54873323953E+02  0.24184114612E+02 -0.29639561973E+02  0.66891379977E+02  0.00000000000E+00 0. -1.
         -3    1    3    3    0  502 -0.51910616736E+03  0.11850975656E+02 -0.65341265275E+02  0.52333654522E+03  0.00000000000E+00 0.  1.
         11    1    5    5    0    0  0.17378094425E+03  0.13724271805E+03 -0.17012824674E+04  0.17156332400E+04  0.00000000000E+00 0.  1.
        -11    1    5    5    0    0  0.73917498390E+00  0.23096195424E+02 -0.70985931709E+02  0.74652415388E+02  0.00000000000E+00 0. -1.
          2    1    6    6  503    0  0.31471891040E+02  0.47436207485E-01 -0.18410353995E+01  0.31525728971E+02  0.00000000000E+00 0. -1.
         -2    1    6    6    0  503  0.36798748104E+03 -0.19642143995E+03 -0.30519972189E+03  0.51685881874E+03  0.00000000000E+00 0.  1.
<mgrwt>
<rscale>  0 0.19623729E+04</rscale>
<asrwt>0</asrwt>
<pdfrwt beam="1">  1        2 0.39255293E+00 0.19623729E+04</pdfrwt>
<pdfrwt beam="2">  1       -2 0.58046780E-01 0.19623729E+04</pdfrwt>
<totfact> 0.84143093E+00</totfact>
</mgrwt>
</event>
<event>
12    2  0.3623523E-008  0.2283620E+04  0.7818608E-02  0.8484408E-01
          1   -1    0    0  501    0  0.00000000000E+00  0.00000000000E+00  0.20052963610E+04  0.20052963610E+04  0.00000000000E+00 0. -1.
         -1   -1    0    0    0  501 -0.00000000000E+00 -0.00000000000E+00 -0.65014340517E+03  0.65014340517E+03  0.00000000000E+00 0.  1.
         23    2    1    2    0    0 -0.43721514390E+03  0.15310798500E+03  0.15522066889E+04  0.16225514181E+04  0.93425703270E+02 0.  0.
        254    2    1    2    0    0  0.43721514390E+03 -0.15310798500E+03 -0.19705373304E+03  0.10328883481E+04  0.90190300415E+03 0.  0.
         23    2    4    4    0    0  0.95686748907E+02  0.30239878708E+03  0.14729411574E+03  0.36136890889E+03  0.91054661812E+02 0.  0.
         23    2    4    4    0    0  0.34152839499E+03 -0.45550677208E+03 -0.34434784878E+03  0.67151943925E+03  0.90746087176E+02 0.  0.
          3    1    3    3  502    0 -0.14445907150E+03  0.48554158045E+02  0.37002979328E+03  0.40018492915E+03  0.00000000000E+00 0.  1.
         -3    1    3    3    0  502 -0.29275607240E+03  0.10455382696E+03  0.11821768956E+04  0.12223664889E+04  0.00000000000E+00 0. -1.
         11    1    5    5    0    0  0.34662322640E+02  0.40264691009E+02  0.55926835344E+02  0.77139697073E+02  0.00000000000E+00 0. -1.
        -11    1    5    5    0    0  0.61024426268E+02  0.26213409607E+03  0.91367280394E+02  0.28422921182E+03  0.00000000000E+00 0.  1.
          3    1    6    6  503    0  0.18673992636E+03 -0.31918955497E+03 -0.23369925051E+03  0.43745755427E+03  0.00000000000E+00 0. -1.
         -3    1    6    6    0  503  0.15478846863E+03 -0.13631721711E+03 -0.11064859827E+03  0.23406188498E+03  0.00000000000E+00 0.  1.
<mgrwt>
<rscale>  0 0.22836201E+04</rscale>
<asrwt>0</asrwt>
<pdfrwt beam="1">  1        1 0.30850713E+00 0.22836201E+04</pdfrwt>
<pdfrwt beam="2">  1       -1 0.10002206E+00 0.22836201E+04</pdfrwt>
<totfact> 0.25479934E+00</totfact>
</mgrwt>
</event>
<event>
12    2  0.3623523E-008  0.2127665E+04  0.7818608E-02  0.8549154E-01
         -1   -1    0    0    0  501 -0.00000000000E+00  0.00000000000E+00  0.13479318314E+04  0.13479318314E+04  0.00000000000E+00 0.  1.
          1   -1    0    0  501    0  0.00000000000E+00 -0.00000000000E+00 -0.83961171356E+03  0.83961171356E+03  0.00000000000E+00 0. -1.
         23    2    1    2    0    0 -0.53358642184E+03  0.59196797069E+03  0.51791452343E+03  0.95451243214E+03  0.87852043966E+02 0.  0.
        254    2    1    2    0    0  0.53358642184E+03 -0.59196797069E+03 -0.95944056068E+01  0.12330311128E+04  0.94081513839E+03 0.  0.
         23    2    4    4    0    0  0.26920274938E+03 -0.46967650792E+03  0.43003802394E+03  0.69693596947E+03  0.87868658532E+02 0.  0.
         23    2    4    4    0    0  0.26438367246E+03 -0.12229146278E+03 -0.43963242954E+03  0.53609514333E+03  0.96267343740E+02 0.  0.
          3    1    3    3  502    0 -0.39922595661E+03  0.48505413264E+03  0.37935783948E+03  0.73387413526E+03  0.00000000000E+00 0. -1.
         -3    1    3    3    0  502 -0.13436046523E+03  0.10691383805E+03  0.13855668395E+03  0.22063829688E+03  0.00000000000E+00 0.  1.
         11    1    5    5    0    0  0.19137932645E+02 -0.19271528766E+02  0.49503552388E+02  0.56464625970E+02  0.00000000000E+00 0. -1.
        -11    1    5    5    0    0  0.25006481674E+03 -0.45040497915E+03  0.38053447155E+03  0.64047134350E+03  0.00000000000E+00 0.  1.
          4    1    6    6  503    0  0.61103512527E+02  0.10272928238E+02 -0.11680589137E+03  0.13222249641E+03  0.00000000000E+00 0. -1.
         -4    1    6    6    0  503  0.20328015993E+03 -0.13256439101E+03 -0.32282653818E+03  0.40387264693E+03  0.00000000000E+00 0.  1.
<mgrwt>
<rscale>  0 0.21276648E+04</rscale>
<asrwt>0</asrwt>
<pdfrwt beam="1">  1        1 0.12917103E+00 0.21276648E+04</pdfrwt>
<pdfrwt beam="2">  1       -1 0.20737413E+00 0.21276648E+04</pdfrwt>
<totfact> 0.25116632E+00</totfact>
</mgrwt>
</event>
<event>
12    2  0.3623523E-008  0.2165279E+04  0.7818608E-02  0.8533020E-01
          1   -1    0    0  501    0  0.00000000000E+00  0.00000000000E+00  0.13653143068E+04  0.13653143068E+04  0.00000000000E+00 0. -1.
         -1   -1    0    0    0  501 -0.00000000000E+00 -0.00000000000E+00 -0.85848961621E+03  0.85848961621E+03  0.00000000000E+00 0.  1.
         23    2    1    2    0    0 -0.56233613710E+03 -0.65145713491E+03  0.50234888620E+03  0.10005626664E+04  0.90293500080E+02 0.  0.
        254    2    1    2    0    0  0.56233613710E+03  0.65145713491E+03  0.44758043638E+01  0.12232412566E+04  0.86929903333E+03 0.  0.
         23    2    4    4    0    0  0.70997384863E+03  0.69020981174E+03  0.13417842181E+03  0.10034030403E+04  0.91440485797E+02 0.  0.
         23    2    4    4    0    0 -0.14763771153E+03 -0.38752676830E+02 -0.12970261745E+03  0.21983821631E+03  0.90594749034E+02 0.  0.
          3    1    3    3  502    0 -0.28451658611E+03 -0.34471320077E+03  0.20983417051E+03  0.49376842514E+03  0.00000000000E+00 0.  1.
         -3    1    3    3    0  502 -0.27781955098E+03 -0.30674393414E+03  0.29251471570E+03  0.50679424122E+03  0.00000000000E+00 0. -1.
         11    1    5    5    0    0  0.15970832617E+02  0.40128363461E+02  0.10750228882E+02  0.44507532728E+02  0.00000000000E+00 0. -1.
        -11    1    5    5    0    0  0.69400301601E+03  0.65008144828E+03  0.12342819293E+03  0.95889550757E+03  0.00000000000E+00 0.  1.
          4    1    6    6  503    0 -0.19379445357E+02 -0.20220178307E+01 -0.71806993740E+02  0.74403600776E+02  0.00000000000E+00 0. -1.
         -4    1    6    6    0  503 -0.12825826617E+03 -0.36730658999E+02 -0.57895623705E+02  0.14543461554E+03  0.00000000000E+00 0.  1.
<mgrwt>
<rscale>  0 0.21652789E+04</rscale>
<asrwt>0</asrwt>
<pdfrwt beam="1">  1        1 0.21004836E+00 0.21652789E+04</pdfrwt>
<pdfrwt beam="2">  1       -1 0.13207533E+00 0.21652789E+04</pdfrwt>
<totfact> 0.36212426E+00</totfact>
</mgrwt>
</event>
<event>
12    2  0.3623523E-008  0.2457475E+04  0.7818608E-02  0.8418294E-01
         -1   -1    0    0    0  501 -0.00000000000E+00  0.00000000000E+00  0.57728554823E+03  0.57728554823E+03  0.00000000000E+00 0.  1.
          1   -1    0    0  501    0  0.00000000000E+00 -0.00000000000E+00 -0.26153369946E+04  0.26153369946E+04  0.00000000000E+00 0. -1.
         23    2    1    2    0    0 -0.34055755844E+02  0.16076110156E+03  0.47909297991E+03  0.51470393370E+03  0.91575813862E+02 0.  0.
        254    2    1    2    0    0  0.34055755844E+02 -0.16076110156E+03 -0.25171444263E+04  0.26779186092E+04  0.89901506555E+03 0.  0.
         23    2    4    4    0    0 -0.32444749844E+03 -0.27848459319E+01 -0.19722678232E+04  0.20005655103E+04  0.84546199097E+02 0.  0.
         23    2    4    4    0    0  0.35850325429E+03 -0.15797625563E+03 -0.54487660308E+03  0.67735309888E+03  0.91845671050E+02 0.  0.
          2    1    3    3  502    0  0.18030185033E+02  0.13864051133E+02  0.21505939062E+02  0.31301835427E+02  0.00000000000E+00 0. -1.
         -2    1    3    3    0  502 -0.52085940878E+02  0.14689705043E+03  0.45758704085E+03  0.48340209828E+03  0.00000000000E+00 0.  1.
         11    1    5    5    0    0 -0.86260444209E+02 -0.28388394917E+02 -0.70813071833E+03  0.71392988412E+03  0.00000000000E+00 0. -1.
        -11    1    5    5    0    0 -0.23818705424E+03  0.25603548985E+02 -0.12641371049E+04  0.12866356262E+04  0.00000000000E+00 0.  1.
          1    1    6    6  503    0  0.89918043856E+02 -0.15435500996E+02 -0.77161240732E+02  0.11948793401E+03  0.00000000000E+00 0. -1.
         -1    1    6    6    0  503  0.26858521043E+03 -0.14254075463E+03 -0.46771536235E+03  0.55786516487E+03  0.00000000000E+00 0.  1.
<mgrwt>
<rscale>  0 0.24574753E+04</rscale>
<asrwt>0</asrwt>
<pdfrwt beam="1">  1        1 0.40235953E+00 0.24574753E+04</pdfrwt>
<pdfrwt beam="2">  1       -1 0.88813163E-01 0.24574753E+04</pdfrwt>
<totfact> 0.12481619E+00</totfact>
</mgrwt>
</event>
<event>
12    2  0.3623523E-008  0.1296304E+04  0.7818608E-02  0.9032501E-01
          1   -1    0    0  501    0  0.00000000000E+00  0.00000000000E+00  0.86313212294E+03  0.86313212294E+03  0.00000000000E+00 0.  1.
         -1   -1    0    0    0  501 -0.00000000000E+00 -0.00000000000E+00 -0.48671672312E+03  0.48671672312E+03  0.00000000000E+00 0. -1.
         23    2    1    2    0    0  0.21812887314E+03 -0.58256022428E+02 -0.14956541874E+03  0.28544469662E+03  0.90193630026E+02 0.  0.
        254    2    1    2    0    0 -0.21812887314E+03  0.58256022428E+02  0.52598081857E+03  0.10644041494E+04  0.89739980075E+03 0.  0.
         23    2    4    4    0    0  0.12508602004E+03 -0.34403311163E+03  0.29453398041E+03  0.47998354302E+03  0.98125642157E+02 0.  0.
         23    2    4    4    0    0 -0.34321489318E+03  0.40228913406E+03  0.23144683816E+03  0.58442060641E+03  0.91360801378E+02 0.  0.
          1    1    3    3  502    0  0.19767563628E+03 -0.78741187573E+02 -0.12101615799E+03  0.24478713670E+03  0.00000000000E+00 0. -1.
         -1    1    3    3    0  502  0.20453236864E+02  0.20485165145E+02 -0.28549260754E+02  0.40657559922E+02  0.00000000000E+00 0.  1.
         11    1    5    5    0    0  0.37547248683E+02 -0.23097184257E+02  0.52715816712E+02  0.68718506501E+02  0.00000000000E+00 0. -1.
        -11    1    5    5    0    0  0.87538771353E+02 -0.32093592738E+03  0.24181816370E+03  0.41126503652E+03  0.00000000000E+00 0.  1.
          1    1    6    6  503    0 -0.37778961313E+02  0.99863684236E+01  0.22702160901E+02  0.45192539005E+02  0.00000000000E+00 0. -1.
         -1    1    6    6    0  503 -0.30543593186E+03  0.39230276564E+03  0.20874467725E+03  0.53922806741E+03  0.00000000000E+00 0.  1.
<mgrwt>
<rscale>  0 0.12963037E+04</rscale>
<asrwt>0</asrwt>
<pdfrwt beam="1">  1        1 0.13278956E+00 0.12963037E+04</pdfrwt>
<pdfrwt beam="2">  1       -1 0.74879496E-01 0.12963037E+04</pdfrwt>
<totfact> 0.34434064E+01</totfact>
</mgrwt>
</event>
<event>
12    2  0.3623523E-008  0.2305036E+04  0.7818608E-02  0.8475938E-01
          2   -1    0    0  501    0  0.00000000000E+00  0.00000000000E+00  0.81787669948E+03  0.81787669948E+03  0.00000000000E+00 0. -1.
         -2   -1    0    0    0  501 -0.00000000000E+00 -0.00000000000E+00 -0.16240803682E+04  0.16240803682E+04  0.00000000000E+00 0.  1.
         23    2    1    2    0    0  0.22355643822E+03 -0.72634208287E+03 -0.98908623712E+03  0.12504430472E+04  0.88124499599E+02 0.  0.
        254    2    1    2    0    0 -0.22355643822E+03  0.72634208287E+03  0.18288256838E+03  0.11915140205E+04  0.89928267236E+03 0.  0.
         23    2    4    4    0    0  0.25893118787E+03 -0.29603992645E+02  0.59710741816E+02  0.28147503874E+03  0.87983341114E+02 0.  0.
         23    2    4    4    0    0 -0.48248762610E+03  0.75594607552E+03  0.12317182656E+03  0.91003898175E+03  0.93546090387E+02 0.  0.
          4    1    3    3  502    0  0.68946129829E+02 -0.35092516139E+03 -0.50130459231E+03  0.61579893796E+03  0.00000000000E+00 0. -1.
         -4    1    3    3    0  502  0.15461030839E+03 -0.37541692149E+03 -0.48778164481E+03  0.63464410926E+03  0.00000000000E+00 0.  1.
         11    1    5    5    0    0  0.59281481339E+02  0.26557296333E+02 -0.23174596368E+01  0.64999651056E+02  0.00000000000E+00 0. -1.
        -11    1    5    5    0    0  0.19964970653E+03 -0.56161288979E+02  0.62028201453E+02  0.21647538769E+03  0.00000000000E+00 0.  1.
          1    1    6    6  503    0 -0.10227816348E+02  0.15090672601E+02 -0.10977731163E+02  0.21280206961E+02  0.00000000000E+00 0. -1.
         -1    1    6    6    0  503 -0.47225980975E+03  0.74085540292E+03  0.13414955773E+03  0.88875877479E+03  0.00000000000E+00 0.  1.
<mgrwt>
<rscale>  0 0.23050358E+04</rscale>
<asrwt>0</asrwt>
<pdfrwt beam="1">  1        2 0.12582719E+00 0.23050358E+04</pdfrwt>
<pdfrwt beam="2">  1       -2 0.24985852E+00 0.23050358E+04</pdfrwt>
<totfact> 0.19510809E+00</totfact>
</mgrwt>
</event>
<event>
12    2  0.3623523E-008  0.1477618E+04  0.7818608E-02  0.8899475E-01
          2   -1    0    0  501    0  0.00000000000E+00  0.00000000000E+00  0.24027271573E+04  0.24027271573E+04  0.00000000000E+00 0. -1.
         -2   -1    0    0    0  501 -0.00000000000E+00 -0.00000000000E+00 -0.22717471008E+03  0.22717471008E+03  0.00000000000E+00 0.  1.
         23    2    1    2    0    0 -0.26822897994E+03 -0.35624702736E+03  0.68087230562E+03  0.81905324254E+03  0.91664537176E+02 0.  0.
        254    2    1    2    0    0  0.26822897994E+03  0.35624702736E+03  0.14946801416E+04  0.18108486248E+04  0.91991591258E+03 0.  0.
         23    2    4    4    0    0  0.30465225608E+03  0.39029771631E+03  0.15906629021E+04  0.16689722119E+04  0.10057072856E+03 0.  0.
         23    2    4    4    0    0 -0.36423276141E+02 -0.34050688955E+02 -0.95982760523E+02  0.14187641293E+03  0.91815694554E+02 0.  0.
          1    1    3    3  502    0 -0.14142723427E+03 -0.14182995975E+03  0.23928144046E+03  0.31204648343E+03  0.00000000000E+00 0. -1.
         -1    1    3    3    0  502 -0.12680174568E+03 -0.21441706761E+03  0.44159086516E+03  0.50700675911E+03  0.00000000000E+00 0.  1.
         11    1    5    5    0    0  0.27433163545E+03  0.35702518257E+03  0.15191668691E+04  0.15844850278E+04  0.00000000000E+00 0. -1.
        -11    1    5    5    0    0  0.30320620632E+02  0.33272533743E+02  0.71496032960E+02  0.84487184035E+02  0.00000000000E+00 0.  1.
          1    1    6    6  503    0 -0.33277929721E+02 -0.56057499376E+02 -0.29090855514E+02  0.71387265793E+02  0.00000000000E+00 0. -1.
         -1    1    6    6    0  503 -0.31453464202E+01  0.22006810422E+02 -0.66891905009E+02  0.70489147142E+02  0.00000000000E+00 0.  1.
<mgrwt>
<rscale>  0 0.14776181E+04</rscale>
<asrwt>0</asrwt>
<pdfrwt beam="1">  1        2 0.36965031E+00 0.14776181E+04</pdfrwt>
<pdfrwt beam="2">  1       -2 0.34949957E-01 0.14776181E+04</pdfrwt>
<totfact> 0.29517681E+01</totfact>
</mgrwt>
</event>
<event>
12    2  0.3623523E-008  0.2006544E+04  0.7818608E-02  0.8603567E-01
         -2   -1    0    0    0  501 -0.00000000000E+00  0.00000000000E+00  0.84916834696E+03  0.84916834696E+03  0.00000000000E+00 0.  1.
          2   -1    0    0  501    0  0.00000000000E+00 -0.00000000000E+00 -0.11853412645E+04  0.11853412645E+04  0.00000000000E+00 0. -1.
         23    2    1    2    0    0  0.51719259128E+03  0.60183037603E+03 -0.18800290763E+03  0.82065874564E+03  0.91911400468E+02 0.  0.
        254    2    1    2    0    0 -0.51719259128E+03 -0.60183037603E+03 -0.14817000986E+03  0.12138508658E+04  0.90652721666E+03 0.  0.
         23    2    4    4    0    0  0.19201810368E+03 -0.26410603252E+02 -0.20176969055E+03  0.29462710224E+03  0.92334442360E+02 0.  0.
         23    2    4    4    0    0 -0.70921069496E+03 -0.57541977277E+03  0.53599680692E+02  0.91922376353E+03  0.89507971297E+02 0.  0.
          2    1    3    3  502    0  0.42881767019E+02  0.19436110670E+02 -0.19052833062E+02  0.50789947710E+02  0.00000000000E+00 0.  1.
         -2    1    3    3    0  502  0.47431082426E+03  0.58239426536E+03 -0.16895007457E+03  0.76986879793E+03  0.00000000000E+00 0. -1.
         11    1    5    5    0    0  0.19985177325E+03 -0.35179323899E+02 -0.19143843051E+03  0.27897488915E+03  0.00000000000E+00 0. -1.
        -11    1    5    5    0    0 -0.78336695668E+01  0.87687206476E+01 -0.10331260040E+02  0.15652213093E+02  0.00000000000E+00 0.  1.
          4    1    6    6  503    0 -0.55816299620E+03 -0.40950862134E+03  0.21852132938E+02  0.69261876743E+03  0.00000000000E+00 0. -1.
         -4    1    6    6    0  503 -0.15104769876E+03 -0.16591115144E+03  0.31747547754E+02  0.22660499611E+03  0.00000000000E+00 0.  1.
<mgrwt>
<rscale>  0 0.20065436E+04</rscale>
<asrwt>0</asrwt>
<pdfrwt beam="1">  1        2 0.18236019E+00 0.20065436E+04</pdfrwt>
<pdfrwt beam="2">  1       -2 0.13064128E+00 0.20065436E+04</pdfrwt>
<totfact> 0.76989938E+00</totfact>
</mgrwt>
</event>
<event>
12    2  0.3623523E-008  0.1758227E+04  0.7818608E-02  0.8728835E-01
         -1   -1    0    0    0  501 -0.00000000000E+00  0.00000000000E+00  0.29091710818E+03  0.29091710818E+03  0.00000000000E+00 0.  1.
          1   -1    0    0  501    0  0.00000000000E+00 -0.00000000000E+00 -0.26565646619E+04  0.26565646619E+04  0.00000000000E+00 0. -1.
         23    2    1    2    0    0 -0.45034757117E+03  0.19540565836E+03 -0.23554933882E+03  0.55208795563E+03  0.91221234131E+02 0.  0.
        254    2    1    2    0    0  0.45034757117E+03 -0.19540565836E+03 -0.21300982149E+04  0.23953938144E+04  0.97959012602E+03 0.  0.
         23    2    4    4    0    0 -0.20506459609E+03  0.20691165716E+03 -0.43251782651E+03  0.52947645833E+03  0.91704564965E+02 0.  0.
         23    2    4    4    0    0  0.65541216726E+03 -0.40231731551E+03 -0.16975803884E+04  0.18659173561E+04  0.91891639897E+02 0.  0.
          1    1    3    3  502    0 -0.12853393317E+03  0.95713256717E+02 -0.52301377109E+02  0.16857471202E+03  0.00000000000E+00 0. -1.
         -1    1    3    3    0  502 -0.32181363800E+03  0.99692401640E+02 -0.18324796171E+03  0.38351324360E+03  0.00000000000E+00 0.  1.
         11    1    5    5    0    0 -0.19962376581E+03  0.19690457657E+03 -0.43526323602E+03  0.51775973654E+03  0.00000000000E+00 0.  1.
        -11    1    5    5    0    0 -0.54408302778E+01  0.10007080592E+02  0.27454095098E+01  0.11716721788E+02  0.00000000000E+00 0. -1.
          1    1    6    6  503    0  0.23569640793E+03 -0.13120728798E+03 -0.70050508121E+03  0.75065006357E+03  0.00000000000E+00 0. -1.
         -1    1    6    6    0  503  0.41971575933E+03 -0.27111002754E+03 -0.99707530715E+03  0.11152672925E+04  0.00000000000E+00 0.  1.
<mgrwt>
<rscale>  0 0.17582265E+04</rscale>
<asrwt>0</asrwt>
<pdfrwt beam="1">  1        1 0.40870227E+00 0.17582265E+04</pdfrwt>
<pdfrwt beam="2">  1       -1 0.44756476E-01 0.17582265E+04</pdfrwt>
<totfact> 0.49426435E+00</totfact>
</mgrwt>
</event>
<event>
12    2  0.3623523E-008  0.1229431E+04  0.7818608E-02  0.9087479E-01
         -2   -1    0    0    0  501 -0.00000000000E+00  0.00000000000E+00  0.25250011917E+03  0.25250011917E+03  0.00000000000E+00 0.  1.
          2   -1    0    0  501    0  0.00000000000E+00 -0.00000000000E+00 -0.14965335822E+04  0.14965335822E+04  0.00000000000E+00 0. -1.
         23    2    1    2    0    0  0.13057402348E+03  0.17601739085E+03 -0.55125803810E+02  0.24344993185E+03  0.90539038998E+02 0.  0.
        254    2    1    2    0    0 -0.13057402348E+03 -0.17601739085E+03 -0.11889076592E+04  0.15055837695E+04  0.89735687850E+03 0.  0.
         23    2    4    4    0    0  0.47929024617E+01 -0.16774808624E+03 -0.12932352031E+04  0.13072198718E+04  0.90576543718E+02 0.  0.
         23    2    4    4    0    0 -0.13536692594E+03 -0.82693046088E+01  0.10432754391E+03  0.19836389772E+03  0.10035643208E+03 0.  0.
          4    1    3    3  502    0  0.13130817928E+03  0.15982669122E+03 -0.23843550374E+02  0.20821845276E+03  0.00000000000E+00 0.  1.
         -4    1    3    3    0  502 -0.73415580148E+00  0.16190699627E+02 -0.31282253436E+02  0.35231479094E+02  0.00000000000E+00 0. -1.
         11    1    5    5    0    0 -0.14768966427E+02  0.12451911433E+01 -0.22842819690E+03  0.22890852760E+03  0.00000000000E+00 0.  1.
        -11    1    5    5    0    0  0.19561868889E+02 -0.16899327738E+03 -0.10648070062E+04  0.10783113442E+04  0.00000000000E+00 0. -1.
          2    1    6    6  503    0 -0.14522811843E+03 -0.19637888120E+02  0.73255240116E+02  0.16383889415E+03  0.00000000000E+00 0. -1.
         -2    1    6    6    0  503  0.98611924825E+01  0.11368583511E+02  0.31072303794E+02  0.34525003567E+02  0.00000000000E+00 0.  1.
<mgrwt>
<rscale>  0 0.12294306E+04</rscale>
<asrwt>0</asrwt>
<pdfrwt beam="1">  1        2 0.23023594E+00 0.12294306E+04</pdfrwt>
<pdfrwt beam="2">  1       -2 0.38846172E-01 0.12294306E+04</pdfrwt>
<totfact> 0.78605997E+01</totfact>
</mgrwt>
</event>
<event>
12    2  0.3623523E-008  0.1727130E+04  0.7818608E-02  0.8746041E-01
          2   -1    0    0  501    0  0.00000000000E+00  0.00000000000E+00  0.26171971972E+04  0.26171971972E+04  0.00000000000E+00 0. -1.
         -2   -1    0    0    0  501 -0.00000000000E+00 -0.00000000000E+00 -0.28494002800E+03  0.28494002800E+03  0.00000000000E+00 0.  1.
         23    2    1    2    0    0 -0.15839123107E+03 -0.20282547807E+03 -0.10744782557E+03  0.29334369476E+03  0.90991930421E+02 0.  0.
        254    2    1    2    0    0  0.15839123107E+03  0.20282547807E+03  0.24397049948E+04  0.26087935304E+04  0.88736535107E+03 0.  0.
         23    2    4    4    0    0  0.42099216352E+03 -0.10693149361E+03  0.17311919948E+04  0.17871174739E+04  0.89968864330E+02 0.  0.
         23    2    4    4    0    0 -0.26260093246E+03  0.30975697168E+03  0.70851299994E+03  0.82167605651E+03  0.90841837985E+02 0.  0.
          3    1    3    3  502    0 -0.50812442890E+02 -0.70393491877E+02 -0.84564468115E+02  0.12119528588E+03  0.00000000000E+00 0. -1.
         -3    1    3    3    0  502 -0.10757878818E+03 -0.13243198620E+03 -0.22883357460E+02  0.17214840889E+03  0.00000000000E+00 0.  1.
         11    1    5    5    0    0  0.32346435879E+03 -0.12034566259E+03  0.13426459793E+04  0.13862937985E+04  0.00000000000E+00 0.  1.
        -11    1    5    5    0    0  0.97527804733E+02  0.13414168986E+02  0.38854601548E+03  0.40082367541E+03  0.00000000000E+00 0. -1.
          2    1    6    6  503    0 -0.19560969300E+03  0.24547966563E+03  0.61175459835E+03  0.68758061843E+03  0.00000000000E+00 0.  1.
         -2    1    6    6    0  503 -0.66991239455E+02  0.64277306051E+02  0.96758401592E+02  0.13409543809E+03  0.00000000000E+00 0. -1.
<mgrwt>
<rscale>  0 0.17271297E+04</rscale>
<asrwt>0</asrwt>
<pdfrwt beam="1">  1        2 0.40264571E+00 0.17271297E+04</pdfrwt>
<pdfrwt beam="2">  1       -2 0.43836929E-01 0.17271297E+04</pdfrwt>
<totfact> 0.13960106E+01</totfact>
</mgrwt>
</event>
<event>
12    2  0.3623523E-008  0.2506476E+04  0.7818608E-02  0.8400682E-01
         -1   -1    0    0    0  501 -0.00000000000E+00  0.00000000000E+00  0.12834958324E+04  0.12834958324E+04  0.00000000000E+00 0.  1.
          1   -1    0    0  501    0  0.00000000000E+00 -0.00000000000E+00 -0.12236937539E+04  0.12236937539E+04  0.00000000000E+00 0. -1.
         23    2    1    2    0    0  0.71586348760E+03 -0.72067721183E+03  0.41998979795E+03  0.11030418099E+04  0.92052307715E+02 0.  0.
        254    2    1    2    0    0 -0.71586348760E+03  0.72067721183E+03 -0.36018771951E+03  0.14041477764E+04  0.90003311506E+03 0.  0.
         23    2    4    4    0    0 -0.24292661729E+03  0.41027278270E+03 -0.61016405785E+03  0.78031400784E+03  0.96190829782E+02 0.  0.
         23    2    4    4    0    0 -0.47293687032E+03  0.31040442913E+03  0.24997633834E+03  0.62383376857E+03  0.81610098384E+02 0.  0.
          1    1    3    3  502    0  0.41906159842E+02 -0.16197957319E+02  0.15571621719E+02  0.47549715635E+02  0.00000000000E+00 0. -1.
         -1    1    3    3    0  502  0.67395732776E+03 -0.70447925451E+03  0.40441817623E+03  0.10554920942E+04  0.00000000000E+00 0.  1.
         11    1    5    5    0    0 -0.14190704158E+03  0.14814326437E+03 -0.24318736024E+03  0.31815739408E+03  0.00000000000E+00 0. -1.
        -11    1    5    5    0    0 -0.10101957571E+03  0.26212951833E+03 -0.36697669761E+03  0.46215661377E+03  0.00000000000E+00 0.  1.
          3    1    6    6  503    0 -0.39857525926E+02  0.31991592571E+02 -0.88990255383E+00  0.51116301654E+02  0.00000000000E+00 0. -1.
         -3    1    6    6    0  503 -0.43307934439E+03  0.27841283656E+03  0.25086624089E+03  0.57271746692E+03  0.00000000000E+00 0.  1.
<mgrwt>
<rscale>  0 0.25064763E+04</rscale>
<asrwt>0</asrwt>
<pdfrwt beam="1">  1        1 0.18826058E+00 0.25064763E+04</pdfrwt>
<pdfrwt beam="2">  1       -1 0.19746090E+00 0.25064763E+04</pdfrwt>
<totfact> 0.14289095E+00</totfact>
</mgrwt>
</event>
<event>
12    2  0.3623523E-008  0.1709652E+04  0.7818608E-02  0.8755879E-01
          4   -1    0    0  501    0  0.00000000000E+00  0.00000000000E+00  0.78056664604E+03  0.78056664604E+03  0.00000000000E+00 0. -1.
         -4   -1    0    0    0  501 -0.00000000000E+00 -0.00000000000E+00 -0.93614953599E+03  0.93614953599E+03  0.00000000000E+00 0.  1.
         23    2    1    2    0    0  0.12789799263E+02  0.82814129706E+02  0.54869399838E+03  0.56267914794E+03  0.92309049525E+02 0.  0.
        254    2    1    2    0    0 -0.12789799263E+02 -0.82814129706E+02 -0.70427688834E+03  0.11540370341E+04  0.91037013438E+03 0.  0.
         23    2    4    4    0    0  0.22229497833E+03 -0.30037791861E+03 -0.72441318803E+03  0.82030391027E+03  0.92098245514E+02 0.  0.
         23    2    4    4    0    0 -0.23508477760E+03  0.21756378890E+03  0.20136299693E+02  0.33373312383E+03  0.91506679954E+02 0.  0.
          1    1    3    3  502    0 -0.21462944599E+02  0.63449150402E+02  0.46944566396E+03  0.47420004649E+03  0.00000000000E+00 0. -1.
         -1    1    3    3    0  502  0.34252743862E+02  0.19364979304E+02  0.79248334418E+02  0.88479101451E+02  0.00000000000E+00 0.  1.
         11    1    5    5    0    0  0.15852873399E+03 -0.20557484820E+03 -0.58529144232E+03  0.64027997795E+03  0.00000000000E+00 0. -1.
        -11    1    5    5    0    0  0.63766244348E+02 -0.94803070405E+02 -0.13912174571E+03  0.18002393231E+03  0.00000000000E+00 0.  1.
          4    1    6    6  503    0 -0.22701525141E+03  0.22647692171E+03  0.16179921737E+02  0.32107555234E+03  0.00000000000E+00 0. -1.
         -4    1    6    6    0  503 -0.80695261841E+01 -0.89131328150E+01  0.39563779567E+01  0.12657571487E+02  0.00000000000E+00 0.  1.
<mgrwt>
<rscale>  0 0.17096515E+04</rscale>
<asrwt>0</asrwt>
<pdfrwt beam="1">  1        4 0.12008718E+00 0.17096515E+04</pdfrwt>
<pdfrwt beam="2">  1       -4 0.14402300E+00 0.17096515E+04</pdfrwt>
<totfact> 0.33355612E-01</totfact>
</mgrwt>
</event>
<event>
12    2  0.3623523E-008  0.2309250E+04  0.7818608E-02  0.8474283E-01
          1   -1    0    0  501    0  0.00000000000E+00  0.00000000000E+00  0.12136836885E+04  0.12136836885E+04  0.00000000000E+00 0.  1.
         -1   -1    0    0    0  501 -0.00000000000E+00 -0.00000000000E+00 -0.10984406127E+04  0.10984406127E+04  0.00000000000E+00 0. -1.
         23    2    1    2    0    0  0.43002440602E+03 -0.20859801667E+03 -0.80602565466E+03  0.94134681876E+03  0.89567599625E+02 0.  0.
        254    2    1    2    0    0 -0.43002440602E+03  0.20859801667E+03  0.92126873043E+03  0.13707774824E+04  0.89546675559E+03 0.  0.
         23    2    4    4    0    0 -0.42879990677E+03 -0.44397292051E+02  0.32244949026E+02  0.44192815696E+03  0.91762081445E+02 0.  0.
         23    2    4    4    0    0 -0.12244992433E+01  0.25299530872E+03  0.88902378141E+03  0.92884932547E+03  0.91595086625E+02 0.  0.
          2    1    3    3  502    0  0.19949638098E+03 -0.64239024956E+02 -0.28713559336E+03  0.35548882869E+03  0.00000000000E+00 0. -1.
         -2    1    3    3    0  502  0.23052802503E+03 -0.14435899172E+03 -0.51889006130E+03  0.58585799007E+03  0.00000000000E+00 0.  1.
         11    1    5    5    0    0 -0.21421102360E+03 -0.87751882699E+01 -0.28007154928E+02  0.21621231992E+03  0.00000000000E+00 0. -1.
        -11    1    5    5    0    0 -0.21458888318E+03 -0.35622103782E+02  0.60252103954E+02  0.22571583704E+03  0.00000000000E+00 0.  1.
          1    1    6    6  503    0 -0.43493088677E+02  0.17515000794E+03  0.60141558695E+03  0.62790913536E+03  0.00000000000E+00 0. -1.
         -1    1    6    6    0  503  0.42268589434E+02  0.77845300786E+02  0.28760819445E+03  0.30094019011E+03  0.00000000000E+00 0.  1.
<mgrwt>
<rscale>  0 0.23092505E+04</rscale>
<asrwt>0</asrwt>
<pdfrwt beam="1">  1        1 0.18672057E+00 0.23092505E+04</pdfrwt>
<pdfrwt beam="2">  1       -1 0.16899086E+00 0.23092505E+04</pdfrwt>
<totfact> 0.23609080E+00</totfact>
</mgrwt>
</event>
<event>
12    2  0.3623523E-008  0.1307190E+04  0.7818608E-02  0.9023883E-01
         -4   -1    0    0    0  501 -0.00000000000E+00  0.00000000000E+00  0.59687471679E+03  0.59687471679E+03  0.00000000000E+00 0.  1.
          4   -1    0    0  501    0  0.00000000000E+00 -0.00000000000E+00 -0.71570563671E+03  0.71570563671E+03  0.00000000000E+00 0. -1.
         23    2    1    2    0    0  0.56108681094E+02 -0.17031795381E+03 -0.31194513138E+03  0.37138503136E+03  0.91981993027E+02 0.  0.
        254    2    1    2    0    0 -0.56108681094E+02  0.17031795381E+03  0.19311421146E+03  0.94119532214E+03  0.90354808741E+03 0.  0.
         23    2    4    4    0    0 -0.14027473722E+03 -0.16060948883E+03 -0.27113981933E+03  0.35796369079E+03  0.95649320415E+02 0.  0.
         23    2    4    4    0    0  0.84166056129E+02  0.33092744264E+03  0.46425403079E+03  0.58323163135E+03  0.89612685516E+02 0.  0.
          1    1    3    3  502    0  0.18185713136E+02 -0.13905863259E+03 -0.27886347234E+03  0.31214237083E+03  0.00000000000E+00 0. -1.
         -1    1    3    3    0  502  0.37922967959E+02 -0.31259321219E+02 -0.33081659039E+02  0.59242660530E+02  0.00000000000E+00 0.  1.
         11    1    5    5    0    0 -0.10475974196E+03 -0.75908479210E+02 -0.99181358722E+02  0.16301424070E+03  0.00000000000E+00 0.  1.
        -11    1    5    5    0    0 -0.35514995262E+02 -0.84701009621E+02 -0.17195846061E+03  0.19494945010E+03  0.00000000000E+00 0. -1.
          1    1    6    6  503    0  0.63500814377E+02  0.30321079956E+03  0.36843501542E+03  0.48136628775E+03  0.00000000000E+00 0. -1.
         -1    1    6    6    0  503  0.20665241753E+02  0.27716643083E+02  0.95819015362E+02  0.10186534359E+03  0.00000000000E+00 0.  1.
<mgrwt>
<rscale>  0 0.13071903E+04</rscale>
<asrwt>0</asrwt>
<pdfrwt beam="1">  1        4 0.11010856E+00 0.13071903E+04</pdfrwt>
<pdfrwt beam="2">  1       -4 0.91826879E-01 0.13071903E+04</pdfrwt>
<totfact> 0.12922953E+00</totfact>
</mgrwt>
</event>
<event>
12    2  0.3623523E-008  0.1464214E+04  0.7818608E-02  0.8908605E-01
         -1   -1    0    0    0  501 -0.00000000000E+00  0.00000000000E+00  0.69009047286E+03  0.69009047286E+03  0.00000000000E+00 0.  1.
          1   -1    0    0  501    0  0.00000000000E+00 -0.00000000000E+00 -0.77668203737E+03  0.77668203737E+03  0.00000000000E+00 0. -1.
         23    2    1    2    0    0 -0.12803706913E+03 -0.34749710227E+03 -0.28128120934E+03  0.47390753438E+03  0.91222284883E+02 0.  0.
        254    2    1    2    0    0  0.12803706913E+03  0.34749710227E+03  0.19468964483E+03  0.99286497584E+03  0.90040495073E+03 0.  0.
         23    2    4    4    0    0 -0.65680990812E+02 -0.25031855852E+02 -0.31037979050E+03  0.32985567413E+03  0.86767303971E+02 0.  0.
         23    2    4    4    0    0  0.19371805994E+03  0.37252895812E+03  0.50506943534E+03  0.66300930172E+03  0.90452685240E+02 0.  0.
          3    1    3    3  502    0 -0.10754770298E+03 -0.32486175191E+03 -0.28191282083E+03  0.44336949017E+03  0.00000000000E+00 0. -1.
         -3    1    3    3    0  502 -0.20489366151E+02 -0.22635350359E+02  0.63161148334E+00  0.30538044211E+02  0.00000000000E+00 0.  1.
         11    1    5    5    0    0 -0.69046405513E+02  0.21960406119E+01 -0.28217682697E+03  0.29050988002E+03  0.00000000000E+00 0. -1.
        -11    1    5    5    0    0  0.33654147012E+01 -0.27227896464E+02 -0.28202963533E+02  0.39345794108E+02  0.00000000000E+00 0.  1.
          1    1    6    6  503    0  0.83381647157E+02  0.99864541949E+02  0.20515177978E+03  0.24292525305E+03  0.00000000000E+00 0. -1.
         -1    1    6    6    0  503  0.11033641279E+03  0.27266441617E+03  0.29991765555E+03  0.42008404867E+03  0.00000000000E+00 0.  1.
<mgrwt>
<rscale>  0 0.14642143E+04</rscale>
<asrwt>0</asrwt>
<pdfrwt beam="1">  1        1 0.11948954E+00 0.14642143E+04</pdfrwt>
<pdfrwt beam="2">  1       -1 0.10616777E+00 0.14642143E+04</pdfrwt>
<totfact> 0.18663809E+01</totfact>
</mgrwt>
</event>
<event>
12    2  0.3623523E-008  0.1752763E+04  0.7818608E-02  0.8731831E-01
         -2   -1    0    0    0  501 -0.00000000000E+00  0.00000000000E+00  0.39076292421E+03  0.39076292421E+03  0.00000000000E+00 0.  1.
          2   -1    0    0  501    0  0.00000000000E+00 -0.00000000000E+00 -0.19654993035E+04  0.19654993035E+04  0.00000000000E+00 0. -1.
         23    2    1    2    0    0  0.46348023305E+03 -0.27220884202E+03 -0.10623456932E+04  0.11940783148E+04  0.91285650078E+02 0.  0.
        254    2    1    2    0    0 -0.46348023305E+03  0.27220884202E+03 -0.51239068614E+03  0.11621839130E+04  0.89398861973E+03 0.  0.
         23    2    4    4    0    0 -0.11578024391E+03  0.36080197929E+02 -0.68266218432E+03  0.69974564880E+03  0.94389986452E+02 0.  0.
         23    2    4    4    0    0 -0.34769998915E+03  0.23612864409E+03  0.17027149818E+03  0.46243826417E+03  0.90580053329E+02 0.  0.
          1    1    3    3  502    0  0.10978454214E+03 -0.89148784837E+02 -0.35821889395E+03  0.38512456104E+03  0.00000000000E+00 0. -1.
         -1    1    3    3    0  502  0.35369569091E+03 -0.18306005718E+03 -0.70412679924E+03  0.80895375375E+03  0.00000000000E+00 0.  1.
         11    1    5    5    0    0  0.10114283782E+02  0.45231564103E+01 -0.10836908762E+02  0.15498266737E+02  0.00000000000E+00 0.  1.
        -11    1    5    5    0    0 -0.12589452769E+03  0.31557041519E+02 -0.67182527556E+03  0.68424738206E+03  0.00000000000E+00 0. -1.
          4    1    6    6  503    0 -0.12103519656E+03  0.10738569611E+03  0.24139654484E+02  0.16359685038E+03  0.00000000000E+00 0.  1.
         -4    1    6    6    0  503 -0.22666479258E+03  0.12874294798E+03  0.14613184370E+03  0.29884141379E+03  0.00000000000E+00 0. -1.
<mgrwt>
<rscale>  0 0.17527627E+04</rscale>
<asrwt>0</asrwt>
<pdfrwt beam="1">  1        2 0.30238451E+00 0.17527627E+04</pdfrwt>
<pdfrwt beam="2">  1       -2 0.60117373E-01 0.17527627E+04</pdfrwt>
<totfact> 0.17067691E+01</totfact>
</mgrwt>
</event>
<event>
12    2  0.3623523E-008  0.2193452E+04  0.7818608E-02  0.8521159E-01
         -2   -1    0    0    0  501 -0.00000000000E+00  0.00000000000E+00  0.76706528513E+03  0.76706528513E+03  0.00000000000E+00 0.  1.
          2   -1    0    0  501    0  0.00000000000E+00 -0.00000000000E+00 -0.15680644494E+04  0.15680644494E+04  0.00000000000E+00 0. -1.
         23    2    1    2    0    0 -0.81509658763E+03 -0.18396035037E+03  0.36894363145E+02  0.84138060237E+03  0.91303156261E+02 0.  0.
        254    2    1    2    0    0  0.81509658763E+03  0.18396035037E+03 -0.83789352742E+03  0.14937491322E+04  0.91159039535E+03 0.  0.
         23    2    4    4    0    0  0.42478465721E+03  0.30866624758E+03  0.26083170660E+02  0.53357060296E+03  0.91106526425E+02 0.  0.
         23    2    4    4    0    0  0.39031193042E+03 -0.12470589721E+03 -0.86397669808E+03  0.96017852921E+03  0.87132710791E+02 0.  0.
          1    1    3    3  502    0 -0.31130655658E+03 -0.41224004190E+02  0.47832340799E+02  0.31764622383E+03  0.00000000000E+00 0. -1.
         -1    1    3    3    0  502 -0.50379003105E+03 -0.14273634618E+03 -0.10937977654E+02  0.52373437854E+03  0.00000000000E+00 0.  1.
         11    1    5    5    0    0  0.71634245033E+02  0.54795308338E+02  0.39436474100E+02  0.98433867986E+02  0.00000000000E+00 0.  1.
        -11    1    5    5    0    0  0.35315041218E+03  0.25387093924E+03 -0.13353303439E+02  0.43513673498E+03  0.00000000000E+00 0. -1.
          4    1    6    6  503    0  0.17168476036E+03 -0.10037033508E+03 -0.41853539858E+03  0.46338077320E+03  0.00000000000E+00 0. -1.
         -4    1    6    6    0  503  0.21862717006E+03 -0.24335562131E+02 -0.44544129950E+03  0.49679775601E+03  0.00000000000E+00 0.  1.
<mgrwt>
<rscale>  0 0.21934519E+04</rscale>
<asrwt>0</asrwt>
<pdfrwt beam="1">  1        2 0.24124068E+00 0.21934519E+04</pdfrwt>
<pdfrwt beam="2">  1       -2 0.11801004E+00 0.21934519E+04</pdfrwt>
<totfact> 0.58832562E+00</totfact>
</mgrwt>
</event>
<event>
12    2  0.3623523E-008  0.4754477E+04  0.7818608E-02  0.7867539E-01
          2   -1    0    0  501    0  0.00000000000E+00  0.00000000000E+00  0.30877125628E+04  0.30877125628E+04  0.00000000000E+00 0.  1.
         -2   -1    0    0    0  501 -0.00000000000E+00 -0.00000000000E+00 -0.18302423396E+04  0.18302423396E+04  0.00000000000E+00 0. -1.
         23    2    1    2    0    0 -0.10515777404E+04 -0.15126853772E+04  0.20097441660E+04  0.27279092778E+04  0.91567576942E+02 0.  0.
        254    2    1    2    0    0  0.10515777404E+04  0.15126853772E+04 -0.75227394279E+03  0.21900456246E+04  0.91452225704E+03 0.  0.
         23    2    4    4    0    0  0.85481090566E+03  0.15012945213E+04 -0.39701360364E+03  0.17749212075E+04  0.90214007782E+02 0.  0.
         23    2    4    4    0    0  0.19676683470E+03  0.11390855839E+02 -0.35526033915E+03  0.41512441711E+03  0.85272705335E+02 0.  0.
          4    1    3    3  502    0 -0.34239035061E+03 -0.48515279847E+03  0.71163630804E+03  0.92683905020E+03  0.00000000000E+00 0.  1.
         -4    1    3    3    0  502 -0.70918738975E+03 -0.10275325787E+04  0.12981078579E+04  0.18010702276E+04  0.00000000000E+00 0. -1.
         11    1    5    5    0    0  0.81274455446E+03  0.14439284035E+04 -0.36382472754E+03  0.16964231128E+04  0.00000000000E+00 0. -1.
        -11    1    5    5    0    0  0.42066351205E+02  0.57366117802E+02 -0.33188876097E+02  0.78498094703E+02  0.00000000000E+00 0.  1.
          1    1    6    6  503    0  0.14697577707E+03 -0.21348066161E+02 -0.20228051968E+03  0.25094825685E+03  0.00000000000E+00 0. -1.
         -1    1    6    6    0  503  0.49791057631E+02  0.32738922001E+02 -0.15297981947E+03  0.16417616026E+03  0.00000000000E+00 0.  1.
<mgrwt>
<rscale>  0 0.47544767E+04</rscale>
<asrwt>0</asrwt>
<pdfrwt beam="1">  1        2 0.47503270E+00 0.47544767E+04</pdfrwt>
<pdfrwt beam="2">  1       -2 0.28157574E+00 0.47544767E+04</pdfrwt>
<totfact> 0.46821512E-02</totfact>
</mgrwt>
</event>
<event>
12    2  0.3623523E-008  0.2095968E+04  0.7818608E-02  0.8563022E-01
          1   -1    0    0  501    0  0.00000000000E+00  0.00000000000E+00  0.40741954592E+03  0.40741954592E+03  0.00000000000E+00 0.  1.
         -1   -1    0    0    0  501 -0.00000000000E+00 -0.00000000000E+00 -0.26956749138E+04  0.26956749138E+04  0.00000000000E+00 0. -1.
         23    2    1    2    0    0  0.31717019236E+03  0.52933707243E+03 -0.53353184694E+02  0.62609650578E+03  0.91408998815E+02 0.  0.
        254    2    1    2    0    0 -0.31717019236E+03 -0.52933707243E+03 -0.22349021831E+04  0.24769979539E+04  0.87174332702E+03 0.  0.
         23    2    4    4    0    0 -0.36857251172E+03  0.10998827231E+03 -0.11154531612E+04  0.11834252105E+04  0.91194065781E+02 0.  0.
         23    2    4    4    0    0  0.51402319356E+02 -0.63932534475E+03 -0.11194490220E+04  0.12935727434E+04  0.93729583345E+02 0.  0.
          3    1    3    3  502    0  0.21432015027E+03  0.38957835480E+03 -0.76042694058E+02  0.45109523680E+03  0.00000000000E+00 0. -1.
         -3    1    3    3    0  502  0.10285004209E+03  0.13975871763E+03  0.22689509364E+02  0.17500126899E+03  0.00000000000E+00 0.  1.
         11    1    5    5    0    0 -0.19481119846E+03  0.13933415039E+02 -0.60371368092E+03  0.63452009553E+03  0.00000000000E+00 0. -1.
        -11    1    5    5    0    0 -0.17376131326E+03  0.96054857275E+02 -0.51173948027E+03  0.54890511498E+03  0.00000000000E+00 0.  1.
          1    1    6    6  503    0  0.17144860303E+02 -0.32613632073E+02 -0.37009880594E+02  0.52223811555E+02  0.00000000000E+00 0. -1.
         -1    1    6    6    0  503  0.34257459053E+02 -0.60671171267E+03 -0.10824391414E+04  0.12413489318E+04  0.00000000000E+00 0.  1.
<mgrwt>
<rscale>  0 0.20959682E+04</rscale>
<asrwt>0</asrwt>
<pdfrwt beam="1">  1        1 0.62679933E-01 0.20959682E+04</pdfrwt>
<pdfrwt beam="2">  1       -1 0.41471920E+00 0.20959682E+04</pdfrwt>
<totfact> 0.30571189E-01</totfact>
</mgrwt>
</event>
<event>
12    2  0.3623523E-008  0.1769149E+04  0.7818608E-02  0.8722880E-01
         -1   -1    0    0    0  501 -0.00000000000E+00  0.00000000000E+00  0.13760564386E+04  0.13760564386E+04  0.00000000000E+00 0.  1.
          1   -1    0    0  501    0  0.00000000000E+00 -0.00000000000E+00 -0.56863347755E+03  0.56863347755E+03  0.00000000000E+00 0. -1.
         23    2    1    2    0    0  0.15114526858E+03 -0.20162517549E+03 -0.37376821793E+03  0.45886861041E+03  0.85791125873E+02 0.  0.
        254    2    1    2    0    0 -0.15114526858E+03  0.20162517549E+03  0.11811911790E+04  0.14858213057E+04  0.86542171668E+03 0.  0.
         23    2    4    4    0    0 -0.45878880520E+02 -0.45968252449E+01 -0.12226755458E+03  0.15881010045E+03  0.90251263824E+02 0.  0.
         23    2    4    4    0    0 -0.10526638806E+03  0.20622200073E+03  0.13034587336E+04  0.13270112053E+04  0.91353942642E+02 0.  0.
          4    1    3    3  502    0  0.64279118058E+02 -0.74651275529E+02 -0.78647068742E+02  0.12605546152E+03  0.00000000000E+00 0. -1.
         -4    1    3    3    0  502  0.86866150525E+02 -0.12697389996E+03 -0.29512114919E+03  0.33281314889E+03  0.00000000000E+00 0.  1.
         11    1    5    5    0    0  0.15289396085E+02 -0.25624371694E+02 -0.68435469846E+02  0.74657803279E+02  0.00000000000E+00 0. -1.
        -11    1    5    5    0    0 -0.61168276605E+02  0.21027546449E+02 -0.53832084738E+02  0.84152297175E+02  0.00000000000E+00 0.  1.
          2    1    6    6  503    0 -0.40536544917E+02  0.78131225382E+02  0.75392907080E+03  0.75904989536E+03  0.00000000000E+00 0. -1.
         -2    1    6    6    0  503 -0.64729843145E+02  0.12809077535E+03  0.54952966275E+03  0.56796130992E+03  0.00000000000E+00 0.  1.
<mgrwt>
<rscale>  0 0.17691487E+04</rscale>
<asrwt>0</asrwt>
<pdfrwt beam="1">  1        1 0.87482074E-01 0.17691487E+04</pdfrwt>
<pdfrwt beam="2">  1       -1 0.21170099E+00 0.17691487E+04</pdfrwt>
<totfact> 0.43810185E+00</totfact>
</mgrwt>
</event>
<event>
12    2  0.3623523E-008  0.1193478E+04  0.7818608E-02  0.9118585E-01
         -1   -1    0    0    0  501 -0.00000000000E+00  0.00000000000E+00  0.20457835454E+03  0.20457835454E+03  0.00000000000E+00 0.  1.
          1   -1    0    0  501    0  0.00000000000E+00 -0.00000000000E+00 -0.17406402604E+04  0.17406402604E+04  0.00000000000E+00 0. -1.
         23    2    1    2    0    0 -0.17797138557E+03  0.32636248456E+02 -0.61385403047E+02  0.21182519556E+03  0.91448384197E+02 0.  0.
        254    2    1    2    0    0  0.17797138557E+03 -0.32636248456E+02 -0.14746765028E+04  0.17333934194E+04  0.89288466198E+03 0.  0.
         23    2    4    4    0    0  0.23339172663E+03 -0.38932132543E+02 -0.15695439694E+04  0.15899967411E+04  0.92919082607E+02 0.  0.
         23    2    4    4    0    0 -0.55420341052E+02  0.62958840878E+01  0.94867466555E+02  0.14339667828E+03  0.91933229969E+02 0.  0.
          1    1    3    3  502    0 -0.59037947869E+02  0.42829616940E+02 -0.56665405810E+02  0.92362457695E+02  0.00000000000E+00 0. -1.
         -1    1    3    3    0  502 -0.11893343770E+03 -0.10193368485E+02 -0.47199972372E+01  0.11946273787E+03  0.00000000000E+00 0.  1.
         11    1    5    5    0    0  0.76936146961E+02  0.28801089240E+02 -0.59644268406E+03  0.60207354104E+03  0.00000000000E+00 0. -1.
        -11    1    5    5    0    0  0.15645557966E+03 -0.67733221784E+02 -0.97310128533E+03  0.98792320008E+03  0.00000000000E+00 0.  1.
          1    1    6    6  503    0  0.74725485208E+01 -0.29976970787E+02  0.47653553074E+02  0.56791890966E+02  0.00000000000E+00 0. -1.
         -1    1    6    6    0  503 -0.62892889573E+02  0.36272854874E+02  0.47213913481E+02  0.86604787314E+02  0.00000000000E+00 0.  1.
<mgrwt>
<rscale>  0 0.11934778E+04</rscale>
<asrwt>0</asrwt>
<pdfrwt beam="1">  1        1 0.26779082E+00 0.11934778E+04</pdfrwt>
<pdfrwt beam="2">  1       -1 0.31473592E-01 0.11934778E+04</pdfrwt>
<totfact> 0.41534635E+01</totfact>
</mgrwt>
</event>
<event>
12    2  0.3623523E-008  0.2194441E+04  0.7818608E-02  0.8520745E-01
          1   -1    0    0  501    0  0.00000000000E+00  0.00000000000E+00  0.22727928248E+04  0.22727928248E+04  0.00000000000E+00 0. -1.
         -1   -1    0    0    0  501 -0.00000000000E+00 -0.00000000000E+00 -0.52969773263E+03  0.52969773263E+03  0.00000000000E+00 0.  1.
         23    2    1    2    0    0  0.38091188262E+03 -0.35981226684E+03  0.16653560108E+04  0.17482279868E+04  0.91278264776E+02 0.  0.
        254    2    1    2    0    0 -0.38091188262E+03  0.35981226684E+03  0.77739081435E+02  0.10542625706E+04  0.91151932145E+03 0.  0.
         23    2    4    4    0    0 -0.12548256444E+03 -0.28586054866E+03 -0.81777651189E+02  0.33511835247E+03  0.90302816520E+02 0.  0.
         23    2    4    4    0    0 -0.25542931818E+03  0.64567281549E+03  0.15951673262E+03  0.71914421817E+03  0.97904531474E+02 0.  0.
          4    1    3    3  502    0  0.29614432655E+03 -0.23856192895E+03  0.12858884288E+04  0.13409408292E+04  0.00000000000E+00 0. -1.
         -4    1    3    3    0  502  0.84767556074E+02 -0.12125033789E+03  0.37946758195E+03  0.40728715761E+03  0.00000000000E+00 0.  1.
         11    1    5    5    0    0 -0.10618522080E+03 -0.13574228394E+03 -0.58420864179E+02  0.18197325666E+03  0.00000000000E+00 0. -1.
        -11    1    5    5    0    0 -0.19297343639E+02 -0.15011826471E+03 -0.23356787010E+02  0.15314509581E+03  0.00000000000E+00 0.  1.
          3    1    6    6  503    0 -0.96033971625E+02  0.26037335862E+03  0.11279853435E+03  0.29956688558E+03  0.00000000000E+00 0. -1.
         -3    1    6    6    0  503 -0.15939534655E+03  0.38529945687E+03  0.46718198274E+02  0.41957733258E+03  0.00000000000E+00 0.  1.
<mgrwt>
<rscale>  0 0.21944413E+04</rscale>
<asrwt>0</asrwt>
<pdfrwt beam="1">  1        1 0.34966043E+00 0.21944413E+04</pdfrwt>
<pdfrwt beam="2">  1       -1 0.81491960E-01 0.21944413E+04</pdfrwt>
<totfact> 0.26568877E+00</totfact>
</mgrwt>
</event>
<event>
12    2  0.3623523E-008  0.1444270E+04  0.7818608E-02  0.8922383E-01
         -1   -1    0    0    0  501 -0.00000000000E+00  0.00000000000E+00  0.72177920001E+03  0.72177920001E+03  0.00000000000E+00 0.  1.
          1   -1    0    0  501    0  0.00000000000E+00 -0.00000000000E+00 -0.72249114330E+03  0.72249114330E+03  0.00000000000E+00 0. -1.
         23    2    1    2    0    0  0.32182923682E+03 -0.24173125552E+03 -0.18015866523E+03  0.45067602601E+03  0.92971383735E+02 0.  0.
        254    2    1    2    0    0 -0.32182923682E+03  0.24173125552E+03  0.17944672195E+03  0.99359431730E+03  0.89051697557E+03 0.  0.
         23    2    4    4    0    0  0.14998953919E+03 -0.19783505825E+03 -0.10449011035E+03  0.28298469785E+03  0.86755886935E+02 0.  0.
         23    2    4    4    0    0 -0.47181877601E+03  0.43956631377E+03  0.28393683230E+03  0.71060961945E+03  0.92273533142E+02 0.  0.
          1    1    3    3  502    0  0.24171239562E+03 -0.21635673652E+03 -0.16935392747E+03  0.36594517674E+03  0.00000000000E+00 0. -1.
         -1    1    3    3    0  502  0.80116841205E+02 -0.25374518998E+02 -0.10804737761E+02  0.84730849265E+02  0.00000000000E+00 0.  1.
         11    1    5    5    0    0  0.76100197938E+02 -0.37716090355E+02 -0.19108249025E+02  0.87056698643E+02  0.00000000000E+00 0.  1.
        -11    1    5    5    0    0  0.73889341252E+02 -0.16011896789E+03 -0.85381861325E+02  0.19592799921E+03  0.00000000000E+00 0. -1.
          3    1    6    6  503    0 -0.38367976774E+03  0.39938525331E+03  0.22945543096E+03  0.59947355199E+03  0.00000000000E+00 0. -1.
         -3    1    6    6    0  503 -0.88139008270E+02  0.40181060456E+02  0.54481401343E+02  0.11113606746E+03  0.00000000000E+00 0.  1.
<mgrwt>
<rscale>  0 0.14442702E+04</rscale>
<asrwt>0</asrwt>
<pdfrwt beam="1">  1        1 0.11115248E+00 0.14442702E+04</pdfrwt>
<pdfrwt beam="2">  1       -1 0.11104295E+00 0.14442702E+04</pdfrwt>
<totfact> 0.18828869E+01</totfact>
</mgrwt>
</event>
<event>
12    2  0.3887910E-008  0.1997658E+04  0.7818608E-02  0.8607716E-01
          1   -1    0    0  501    0  0.00000000000E+00  0.00000000000E+00  0.21094419869E+04  0.21094419869E+04  0.00000000000E+00 0. -1.
         -1   -1    0    0    0  501 -0.00000000000E+00 -0.00000000000E+00 -0.47294941236E+03  0.47294941236E+03  0.00000000000E+00 0.  1.
         23    2    1    2    0    0 -0.47005458360E+02  0.59892409848E+03  0.13240929736E+04  0.14568392076E+04  0.90767203373E+02 0.  0.
        254    2    1    2    0    0  0.47005458360E+02 -0.59892409848E+03  0.31239960093E+03  0.11255521916E+04  0.89908544455E+03 0.  0.
         23    2    4    4    0    0 -0.37531031415E+03 -0.81928050802E+02  0.20010297497E+03  0.44287713191E+03  0.92352130262E+02 0.  0.
         23    2    4    4    0    0  0.42231577251E+03 -0.51699604768E+03  0.11229662596E+03  0.68267505973E+03  0.88312965929E+02 0.  0.
          2    1    3    3  502    0 -0.37009259679E+02  0.54297375815E+03  0.11239237702E+04  0.12487573137E+04  0.00000000000E+00 0. -1.
         -2    1    3    3    0  502 -0.99961986814E+01  0.55950340332E+02  0.20016920344E+03  0.20808189392E+03  0.00000000000E+00 0.  1.
         11    1    5    5    0    0 -0.16807699400E+03 -0.63966616759E+02  0.13515458074E+03  0.22496302955E+03  0.00000000000E+00 0. -1.
        -11    1    5    5    0    0 -0.20723332016E+03 -0.17961434042E+02  0.64948394233E+02  0.21791410236E+03  0.00000000000E+00 0.  1.
          2    1    6    6  503    0  0.90364905001E+02 -0.82528930395E+02 -0.86733068281E+01  0.12268686425E+03  0.00000000000E+00 0. -1.
         -2    1    6    6    0  503  0.33195086751E+03 -0.43446711728E+03  0.12096993279E+03  0.55998819548E+03  0.00000000000E+00 0.  1.
<mgrwt>
<rscale>  0 0.19976580E+04</rscale>
<asrwt>0</asrwt>
<pdfrwt beam="1">  1        1 0.32452953E+00 0.19976580E+04</pdfrwt>
<pdfrwt beam="2">  1       -1 0.72761449E-01 0.19976580E+04</pdfrwt>
<totfact> 0.44373783E+00</totfact>
</mgrwt>
</event>
<event>
12    2  0.3623523E-008  0.1900041E+04  0.7818608E-02  0.8654836E-01
          2   -1    0    0  501    0  0.00000000000E+00  0.00000000000E+00  0.17778623067E+04  0.17778623067E+04  0.00000000000E+00 0. -1.
         -2   -1    0    0    0  501 -0.00000000000E+00 -0.00000000000E+00 -0.50765384039E+03  0.50765384039E+03  0.00000000000E+00 0.  1.
         23    2    1    2    0    0 -0.21831335374E+03  0.46914022361E+03 -0.12862431327E+03  0.54101964975E+03  0.91677574232E+02 0.  0.
        254    2    1    2    0    0  0.21831335374E+03 -0.46914022361E+03  0.13988327795E+04  0.17444964973E+04  0.90486552270E+03 0.  0.
         23    2    4    4    0    0 -0.25806365049E+03  0.10188409683E+03  0.40024843242E+03  0.49617630460E+03  0.94946830943E+02 0.  0.
         23    2    4    4    0    0  0.47637700423E+03 -0.57102432044E+03  0.99858434713E+03  0.12483201927E+04  0.90159749910E+02 0.  0.
          3    1    3    3  502    0  0.54092499784E+01  0.50261031400E+02 -0.15095547807E+02  0.52757054754E+02  0.00000000000E+00 0. -1.
         -3    1    3    3    0  502 -0.22372260372E+03  0.41887919221E+03 -0.11352876547E+03  0.48826259500E+03  0.00000000000E+00 0.  1.
         11    1    5    5    0    0 -0.25594612494E+03  0.85413453896E+02  0.39573493115E+03  0.47896765309E+03  0.00000000000E+00 0. -1.
        -11    1    5    5    0    0 -0.21175255505E+01  0.16470642933E+02  0.45135012673E+01  0.17208651509E+02  0.00000000000E+00 0.  1.
          2    1    6    6  503    0  0.33829730903E+03 -0.46439105038E+03  0.75822631212E+03  0.95132079624E+03  0.00000000000E+00 0. -1.
         -2    1    6    6    0  503  0.13807969519E+03 -0.10663327007E+03  0.24035803501E+03  0.29699939647E+03  0.00000000000E+00 0.  1.
<mgrwt>
<rscale>  0 0.19000407E+04</rscale>
<asrwt>0</asrwt>
<pdfrwt beam="1">  1        2 0.27351728E+00 0.19000407E+04</pdfrwt>
<pdfrwt beam="2">  1       -2 0.78100592E-01 0.19000407E+04</pdfrwt>
<totfact> 0.12127572E+01</totfact>
</mgrwt>
</event>
<event>
12    2  0.3623523E-008  0.1839559E+04  0.7818608E-02  0.8685541E-01
         -2   -1    0    0    0  501 -0.00000000000E+00  0.00000000000E+00  0.11181994745E+04  0.11181994745E+04  0.00000000000E+00 0.  1.
          2   -1    0    0  501    0  0.00000000000E+00 -0.00000000000E+00 -0.75656808696E+03  0.75656808696E+03  0.00000000000E+00 0. -1.
         23    2    1    2    0    0  0.58858038353E+03  0.12438389440E+03 -0.22102089974E+03  0.64716793963E+03  0.89877043244E+02 0.  0.
        254    2    1    2    0    0 -0.58858038353E+03 -0.12438389440E+03  0.58265228731E+03  0.12275996218E+04  0.89756276805E+03 0.  0.
         23    2    4    4    0    0 -0.23275665612E+03  0.37080686616E+03  0.14166520743E+03  0.46958092670E+03  0.93615291310E+02 0.  0.
         23    2    4    4    0    0 -0.35582372741E+03 -0.49519076056E+03  0.44098707988E+03  0.75801869515E+03  0.91095132939E+02 0.  0.
          3    1    3    3  502    0  0.19995979710E+03  0.38586151602E+02 -0.12073415634E+03  0.23674785756E+03  0.00000000000E+00 0. -1.
         -3    1    3    3    0  502  0.38862058643E+03  0.85797742798E+02 -0.10028674340E+03  0.41042008207E+03  0.00000000000E+00 0.  1.
         11    1    5    5    0    0 -0.11532953468E+03  0.12263934452E+03  0.87542000175E+02  0.18974960392E+03  0.00000000000E+00 0.  1.
        -11    1    5    5    0    0 -0.11742712145E+03  0.24816752164E+03  0.54123207253E+02  0.27983132278E+03  0.00000000000E+00 0. -1.
          2    1    6    6  503    0 -0.27411262209E+03 -0.43439700747E+03  0.38391833481E+03  0.64127355901E+03  0.00000000000E+00 0. -1.
         -2    1    6    6    0  503 -0.81711105321E+02 -0.60793753085E+02  0.57068745070E+02  0.11674513613E+03  0.00000000000E+00 0.  1.
<mgrwt>
<rscale>  0 0.18395587E+04</rscale>
<asrwt>0</asrwt>
<pdfrwt beam="1">  1        2 0.11639509E+00 0.18395587E+04</pdfrwt>
<pdfrwt beam="2">  1       -2 0.17203069E+00 0.18395587E+04</pdfrwt>
<totfact> 0.71898485E+00</totfact>
</mgrwt>
</event>
<event>
12    2  0.3623523E-008  0.1482652E+04  0.7818608E-02  0.8896072E-01
          2   -1    0    0  501    0  0.00000000000E+00  0.00000000000E+00  0.10454829077E+04  0.10454829077E+04  0.00000000000E+00 0. -1.
         -2   -1    0    0    0  501 -0.00000000000E+00 -0.00000000000E+00 -0.52565609884E+03  0.52565609884E+03  0.00000000000E+00 0.  1.
         23    2    1    2    0    0  0.38464808019E+03  0.75336903253E+02  0.39581952898E+03  0.56449372718E+03  0.91379833230E+02 0.  0.
        254    2    1    2    0    0 -0.38464808019E+03 -0.75336903253E+02  0.12400727988E+03  0.10066452793E+04  0.91887274330E+03 0.  0.
         23    2    4    4    0    0  0.81372125653E+02 -0.18810697241E+03  0.39033083046E+03  0.45057529616E+03  0.93028406407E+02 0.  0.
         23    2    4    4    0    0 -0.46602020585E+03  0.11277006916E+03 -0.26632355058E+03  0.55606998319E+03  0.91616984568E+02 0.  0.
          3    1    3    3  502    0  0.36854287070E+03  0.57062228857E+02  0.34456304495E+03  0.50774367298E+03  0.00000000000E+00 0. -1.
         -3    1    3    3    0  502  0.16105209490E+02  0.18274674396E+02  0.51256484026E+02  0.56750054200E+02  0.00000000000E+00 0.  1.
         11    1    5    5    0    0  0.39804645863E+01 -0.11694045711E+03  0.16913636314E+03  0.20566483400E+03  0.00000000000E+00 0.  1.
        -11    1    5    5    0    0  0.77391661067E+02 -0.71166515299E+02  0.22119446732E+03  0.24491046216E+03  0.00000000000E+00 0. -1.
          4    1    6    6  503    0 -0.24835875602E+03  0.44240439606E+02 -0.90553342863E+02  0.26802834942E+03  0.00000000000E+00 0.  1.
         -4    1    6    6    0  503 -0.21766144982E+03  0.68529629550E+02 -0.17577020772E+03  0.28804163377E+03  0.00000000000E+00 0. -1.
<mgrwt>
<rscale>  0 0.14826523E+04</rscale>
<asrwt>0</asrwt>
<pdfrwt beam="1">  1        2 0.16084352E+00 0.14826523E+04</pdfrwt>
<pdfrwt beam="2">  1       -2 0.80870169E-01 0.14826523E+04</pdfrwt>
<totfact> 0.30757745E+01</totfact>
</mgrwt>
</event>
<event>
12    2  0.3623523E-008  0.2632308E+04  0.7818608E-02  0.8357309E-01
         -1   -1    0    0    0  501 -0.00000000000E+00  0.00000000000E+00  0.50839912066E+03  0.50839912066E+03  0.00000000000E+00 0.  1.
          1   -1    0    0  501    0  0.00000000000E+00 -0.00000000000E+00 -0.34072867089E+04  0.34072867089E+04  0.00000000000E+00 0. -1.
         23    2    1    2    0    0 -0.84947682275E+03 -0.31344122279E+03 -0.19941440980E+03  0.93161018014E+03  0.90967842588E+02 0.  0.
        254    2    1    2    0    0  0.84947682275E+03  0.31344122279E+03 -0.26994731784E+04  0.29840756494E+04  0.89313815716E+03 0.  0.
         23    2    4    4    0    0  0.98817560379E+03  0.15429501347E+03 -0.18625837525E+04  0.21162584534E+04  0.95045417140E+02 0.  0.
         23    2    4    4    0    0 -0.13869878105E+03  0.15914620932E+03 -0.83688942587E+03  0.86781719596E+03  0.90321130851E+02 0.  0.
          1    1    3    3  502    0 -0.34006866381E+02 -0.32493355258E+02 -0.37427445692E+01  0.47183611921E+02  0.00000000000E+00 0. -1.
         -1    1    3    3    0  502 -0.81546995636E+03 -0.28094786753E+03 -0.19567166523E+03  0.88442656822E+03  0.00000000000E+00 0.  1.
         11    1    5    5    0    0  0.71543928329E+03  0.84021833865E+02 -0.12677389238E+04  0.14581066544E+04  0.00000000000E+00 0.  1.
        -11    1    5    5    0    0  0.27273632050E+03  0.70273179601E+02 -0.59484482872E+03  0.65815179901E+03  0.00000000000E+00 0. -1.
          2    1    6    6  503    0 -0.13022990759E+03  0.12586832833E+03 -0.78480043377E+03  0.80542807609E+03  0.00000000000E+00 0. -1.
         -2    1    6    6    0  503 -0.84688734583E+01  0.33277880993E+02 -0.52088992091E+02  0.62389119870E+02  0.00000000000E+00 0.  1.
<mgrwt>
<rscale>  0 0.26323082E+04</rscale>
<asrwt>0</asrwt>
<pdfrwt beam="1">  1        1 0.52419793E+00 0.26323082E+04</pdfrwt>
<pdfrwt beam="2">  1       -1 0.78215253E-01 0.26323082E+04</pdfrwt>
<totfact> 0.42454036E-01</totfact>
</mgrwt>
</event>
<event>
12    2  0.3623523E-008  0.1426523E+04  0.7818608E-02  0.8934841E-01
          3   -1    0    0  501    0  0.00000000000E+00  0.00000000000E+00  0.78649693121E+03  0.78649693121E+03  0.00000000000E+00 0. -1.
         -3   -1    0    0    0  501 -0.00000000000E+00 -0.00000000000E+00 -0.64684545117E+03  0.64684545117E+03  0.00000000000E+00 0.  1.
         23    2    1    2    0    0 -0.26703986083E+03 -0.32138852315E+03 -0.38676298489E+02  0.42939875468E+03  0.91030568331E+02 0.  0.
        254    2    1    2    0    0  0.26703986083E+03  0.32138852315E+03  0.17832777853E+03  0.10039436277E+04  0.89526596099E+03 0.  0.
         23    2    4    4    0    0 -0.29194245037E+03  0.23821485699E+03 -0.42925339803E+02  0.39015696778E+03  0.91668763998E+02 0.  0.
         23    2    4    4    0    0  0.55898231120E+03  0.83173666165E+02  0.22125311834E+03  0.61378665991E+03  0.91662634293E+02 0.  0.
          2    1    3    3  502    0 -0.22628992380E+03 -0.27906680975E+03 -0.64834413379E+02  0.36508754440E+03  0.00000000000E+00 0. -1.
         -2    1    3    3    0  502 -0.40749937035E+02 -0.42321713401E+02  0.26158114890E+02  0.64311210283E+02  0.00000000000E+00 0.  1.
         11    1    5    5    0    0 -0.15773694515E+03  0.12141566764E+03 -0.68293563355E+02  0.21044409949E+03  0.00000000000E+00 0. -1.
        -11    1    5    5    0    0 -0.13420550522E+03  0.11679918935E+03  0.25368223552E+02  0.17971286830E+03  0.00000000000E+00 0.  1.
          1    1    6    6  503    0  0.42643227188E+02 -0.15725824782E+01 -0.64205957011E+01  0.43152542101E+02  0.00000000000E+00 0. -1.
         -1    1    6    6    0  503  0.51633908402E+03  0.84746248643E+02  0.22767371404E+03  0.57063411781E+03  0.00000000000E+00 0.  1.
<mgrwt>
<rscale>  0 0.14265230E+04</rscale>
<asrwt>0</asrwt>
<pdfrwt beam="1">  1        3 0.12099953E+00 0.14265230E+04</pdfrwt>
<pdfrwt beam="2">  1       -3 0.99514685E-01 0.14265230E+04</pdfrwt>
<totfact> 0.12488437E+00</totfact>
</mgrwt>
</event>
<event>
12    2  0.3623523E-008  0.1346450E+04  0.7818608E-02  0.8993520E-01
         -2   -1    0    0    0  501 -0.00000000000E+00  0.00000000000E+00  0.97839665080E+03  0.97839665080E+03  0.00000000000E+00 0.  1.
          2   -1    0    0  501    0  0.00000000000E+00 -0.00000000000E+00 -0.46323940400E+03  0.46323940400E+03  0.00000000000E+00 0. -1.
         23    2    1    2    0    0  0.29825900732E+03  0.19594621312E+03  0.14177873366E+03  0.39459489397E+03  0.90832632602E+02 0.  0.
        254    2    1    2    0    0 -0.29825900732E+03 -0.19594621312E+03  0.37337851315E+03  0.10470411608E+04  0.91078555353E+03 0.  0.
         23    2    4    4    0    0 -0.29396003588E+03  0.31869973077E+03  0.25664352617E+03  0.51200562074E+03  0.91114406443E+02 0.  0.
         23    2    4    4    0    0 -0.42989714421E+01 -0.51464594389E+03  0.11673498698E+03  0.53503554009E+03  0.88074078278E+02 0.  0.
          1    1    3    3  502    0  0.82046904197E+02  0.52943048336E+02  0.84467571265E+02  0.12911015239E+03  0.00000000000E+00 0. -1.
         -1    1    3    3    0  502  0.21621210312E+03  0.14300316478E+03  0.57311162392E+02  0.26548474158E+03  0.00000000000E+00 0.  1.
         11    1    5    5    0    0 -0.22044775726E+03  0.27919529233E+03  0.23306560532E+03  0.42528437700E+03  0.00000000000E+00 0.  1.
        -11    1    5    5    0    0 -0.73512278623E+02  0.39504438443E+02  0.23577920852E+02  0.86721243745E+02  0.00000000000E+00 0. -1.
          1    1    6    6  503    0  0.35078603956E+02 -0.19505083183E+03  0.67037278486E+02  0.20921121423E+03  0.00000000000E+00 0. -1.
         -1    1    6    6    0  503 -0.39377575398E+02 -0.31959511206E+03  0.49697708490E+02  0.32582432586E+03  0.00000000000E+00 0.  1.
<mgrwt>
<rscale>  0 0.13464500E+04</rscale>
<asrwt>0</asrwt>
<pdfrwt beam="1">  1        2 0.71267601E-01 0.13464500E+04</pdfrwt>
<pdfrwt beam="2">  1       -2 0.15052256E+00 0.13464500E+04</pdfrwt>
<totfact> 0.19492729E+01</totfact>
</mgrwt>
</event>
<event>
12    2  0.3623523E-008  0.2262567E+04  0.7818608E-02  0.8492828E-01
         -2   -1    0    0    0  501 -0.00000000000E+00  0.00000000000E+00  0.67242929481E+03  0.67242929481E+03  0.00000000000E+00 0.  1.
          2   -1    0    0  501    0  0.00000000000E+00 -0.00000000000E+00 -0.19032519295E+04  0.19032519295E+04  0.00000000000E+00 0. -1.
         23    2    1    2    0    0  0.14790360826E+02 -0.49899889720E+03  0.39950951479E+03  0.64572310516E+03  0.90176615299E+02 0.  0.
        254    2    1    2    0    0 -0.14790360826E+02  0.49899889720E+03 -0.16303321495E+04  0.19299581192E+04  0.90417739956E+03 0.  0.
         23    2    4    4    0    0  0.24940610685E+03 -0.53369857350E+02 -0.10369817933E+04  0.10719444776E+04  0.93177119948E+02 0.  0.
         23    2    4    4    0    0 -0.26419646768E+03  0.55236875455E+03 -0.59335035625E+03  0.85801364158E+03  0.95977858615E+02 0.  0.
          3    1    3    3  502    0  0.32801843960E+02 -0.18842256735E+03  0.19671195239E+03  0.27436220051E+03  0.00000000000E+00 0. -1.
         -3    1    3    3    0  502 -0.18011483134E+02 -0.31057632985E+03  0.20279756240E+03  0.37136090465E+03  0.00000000000E+00 0.  1.
         11    1    5    5    0    0  0.16444542319E+03 -0.40302141466E+02 -0.49420838363E+03  0.52240643781E+03  0.00000000000E+00 0. -1.
        -11    1    5    5    0    0  0.84960683658E+02 -0.13067715884E+02 -0.54277340965E+03  0.54953803981E+03  0.00000000000E+00 0.  1.
          1    1    6    6  503    0 -0.16400405038E+03  0.32519251117E+03 -0.41591195762E+03  0.55283836187E+03  0.00000000000E+00 0. -1.
         -1    1    6    6    0  503 -0.10019241730E+03  0.22717624338E+03 -0.17743839863E+03  0.30517527971E+03  0.00000000000E+00 0.  1.
<mgrwt>
<rscale>  0 0.22625670E+04</rscale>
<asrwt>0</asrwt>
<pdfrwt beam="1">  1        2 0.29280799E+00 0.22625670E+04</pdfrwt>
<pdfrwt beam="2">  1       -2 0.10345066E+00 0.22625670E+04</pdfrwt>
<totfact> 0.52383772E+00</totfact>
</mgrwt>
</event>
<event>
12    2  0.3623523E-008  0.1551209E+04  0.7818608E-02  0.8851096E-01
         -2   -1    0    0    0  501 -0.00000000000E+00  0.00000000000E+00  0.27431721480E+03  0.27431721480E+03  0.00000000000E+00 0.  1.
          2   -1    0    0  501    0  0.00000000000E+00 -0.00000000000E+00 -0.21929438270E+04  0.21929438270E+04  0.00000000000E+00 0. -1.
         23    2    1    2    0    0  0.48516013906E+03  0.10929769850E+03 -0.54622840694E+03  0.74421310035E+03  0.90340017484E+02 0.  0.
        254    2    1    2    0    0 -0.48516013906E+03 -0.10929769850E+03 -0.13723982053E+04  0.17230479414E+04  0.91547311662E+03 0.  0.
         23    2    4    4    0    0 -0.55920560949E+03 -0.25418752640E+03 -0.14032637927E+04  0.15344624924E+04  0.90020311840E+02 0.  0.
         23    2    4    4    0    0  0.74045470422E+02  0.14488982790E+03  0.30865587409E+02  0.18858544902E+03  0.90199740447E+02 0.  0.
          4    1    3    3  502    0  0.41825528607E+03  0.73641624797E+02 -0.42216078657E+03  0.59881575042E+03  0.00000000000E+00 0. -1.
         -4    1    3    3    0  502  0.66904852997E+02  0.35656073701E+02 -0.12406762036E+03  0.14539734994E+03  0.00000000000E+00 0.  1.
         11    1    5    5    0    0 -0.21743866804E+03 -0.12585797359E+03 -0.66481385241E+03  0.71070195035E+03  0.00000000000E+00 0.  1.
        -11    1    5    5    0    0 -0.34176694144E+03 -0.12832955282E+03 -0.73844994028E+03  0.82376054208E+03  0.00000000000E+00 0. -1.
          4    1    6    6  503    0  0.44747337014E+02  0.14426197270E+03  0.42729383514E+02  0.15697019193E+03  0.00000000000E+00 0.  1.
         -4    1    6    6    0  503  0.29298133408E+02  0.62785520330E+00 -0.11863796104E+02  0.31615257098E+02  0.00000000000E+00 0. -1.
<mgrwt>
<rscale>  0 0.15512089E+04</rscale>
<asrwt>0</asrwt>
<pdfrwt beam="1">  1        2 0.33737596E+00 0.15512089E+04</pdfrwt>
<pdfrwt beam="2">  1       -2 0.42202650E-01 0.15512089E+04</pdfrwt>
<totfact> 0.26715219E+01</totfact>
</mgrwt>
</event>
<event>
12    2  0.3623523E-008  0.1173956E+04  0.7818608E-02  0.9135963E-01
         -2   -1    0    0    0  501 -0.00000000000E+00  0.00000000000E+00  0.17506348388E+03  0.17506348388E+03  0.00000000000E+00 0.  1.
          2   -1    0    0  501    0  0.00000000000E+00 -0.00000000000E+00 -0.19681046529E+04  0.19681046529E+04  0.00000000000E+00 0. -1.
         23    2    1    2    0    0 -0.72884132325E+01 -0.30639892748E+02  0.38179926073E+02  0.10437045092E+03  0.91888847397E+02 0.  0.
        254    2    1    2    0    0  0.72884132325E+01  0.30639892748E+02 -0.18312210951E+04  0.20387976858E+04  0.89573064070E+03 0.  0.
         23    2    4    4    0    0 -0.82614793972E+02  0.34777904490E+03 -0.31750488163E+03  0.48689486947E+03  0.92096665537E+02 0.  0.
         23    2    4    4    0    0  0.89903207204E+02 -0.31713915215E+03 -0.15137162134E+04  0.15519028163E+04  0.91682866954E+02 0.  0.
          1    1    3    3  502    0  0.35033055377E+00  0.10028002834E+02 -0.26078093897E+02  0.27941913922E+02  0.00000000000E+00 0. -1.
         -1    1    3    3    0  502 -0.76387437863E+01 -0.40667895582E+02  0.64258019970E+02  0.76428537001E+02  0.00000000000E+00 0.  1.
         11    1    5    5    0    0 -0.83864805940E+02  0.35308219767E+03 -0.30822337622E+03  0.47613232786E+03  0.00000000000E+00 0. -1.
        -11    1    5    5    0    0  0.12500119680E+01 -0.53031527695E+01 -0.92815054072E+01  0.10762541607E+02  0.00000000000E+00 0.  1.
          1    1    6    6  503    0  0.10514821214E+03 -0.22064294653E+03 -0.10708174124E+04  0.10983575862E+04  0.00000000000E+00 0. -1.
         -1    1    6    6    0  503 -0.15245004933E+02 -0.96496205621E+02 -0.44289880101E+03  0.45354523018E+03  0.00000000000E+00 0.  1.
<mgrwt>
<rscale>  0 0.11739561E+04</rscale>
<asrwt>0</asrwt>
<pdfrwt beam="1">  1        2 0.30278533E+00 0.11739561E+04</pdfrwt>
<pdfrwt beam="2">  1       -2 0.26932844E-01 0.11739561E+04</pdfrwt>
<totfact> 0.86252623E+01</totfact>
</mgrwt>
</event>
<event>
12    2  0.3623523E-008  0.1840755E+04  0.7818608E-02  0.8684922E-01
          1   -1    0    0  501    0  0.00000000000E+00  0.00000000000E+00  0.12160341361E+04  0.12160341361E+04  0.00000000000E+00 0. -1.
         -1   -1    0    0    0  501 -0.00000000000E+00 -0.00000000000E+00 -0.69660438621E+03  0.69660438621E+03  0.00000000000E+00 0.  1.
         23    2    1    2    0    0  0.30392764283E+03 -0.28220307931E+03  0.76811397458E+03  0.87826478075E+03  0.96640349351E+02 0.  0.
        254    2    1    2    0    0 -0.30392764283E+03  0.28220307931E+03 -0.24868422469E+03  0.10343737416E+04  0.91437115198E+03 0.  0.
         23    2    4    4    0    0 -0.11994640269E+01  0.51698698509E+02  0.32353456432E+03  0.34037370819E+03  0.92225011641E+02 0.  0.
         23    2    4    4    0    0 -0.30272817880E+03  0.23050438080E+03 -0.57221878901E+03  0.69400003337E+03  0.97082871917E+02 0.  0.
          4    1    3    3  502    0  0.27108606880E+03 -0.22880290366E+03  0.70548498820E+03  0.78965023523E+03  0.00000000000E+00 0. -1.
         -4    1    3    3    0  502  0.32841574024E+02 -0.53400175647E+02  0.62628986379E+02  0.88614545524E+02  0.00000000000E+00 0.  1.
         11    1    5    5    0    0 -0.37435881221E+01 -0.15777716660E+02  0.19044774558E+03  0.19113684781E+03  0.00000000000E+00 0.  1.
        -11    1    5    5    0    0  0.25441240951E+01  0.67476415169E+02  0.13308681874E+03  0.14923686037E+03  0.00000000000E+00 0. -1.
          4    1    6    6  503    0 -0.27978983600E+03  0.23537791648E+03 -0.55614668873E+03  0.66557062381E+03  0.00000000000E+00 0.  1.
         -4    1    6    6    0  503 -0.22938342804E+02 -0.48735356860E+01 -0.16072100282E+02  0.28429409564E+02  0.00000000000E+00 0. -1.
<mgrwt>
<rscale>  0 0.18407550E+04</rscale>
<asrwt>0</asrwt>
<pdfrwt beam="1">  1        1 0.18708217E+00 0.18407550E+04</pdfrwt>
<pdfrwt beam="2">  1       -1 0.10716991E+00 0.18407550E+04</pdfrwt>
<totfact> 0.79382981E+00</totfact>
</mgrwt>
</event>
<event>
12    2  0.3623523E-008  0.1334423E+04  0.7818608E-02  0.9002704E-01
          2   -1    0    0  501    0  0.00000000000E+00  0.00000000000E+00  0.75595764059E+03  0.75595764059E+03  0.00000000000E+00 0. -1.
         -2   -1    0    0    0  501 -0.00000000000E+00 -0.00000000000E+00 -0.58888410577E+03  0.58888410577E+03  0.00000000000E+00 0.  1.
         23    2    1    2    0    0  0.20546547490E+02  0.23496776403E+03  0.29926828825E+03  0.39080941106E+03  0.86824401385E+02 0.  0.
        254    2    1    2    0    0 -0.20546547490E+02 -0.23496776403E+03 -0.13219475344E+03  0.95403233530E+03  0.91491542408E+03 0.  0.
         23    2    4    4    0    0  0.67949384927E+02 -0.56686836923E+03 -0.10599289139E+02  0.57836076643E+03  0.91825727724E+02 0.  0.
         23    2    4    4    0    0 -0.88495932417E+02  0.33190060519E+03 -0.12159546430E+03  0.37567156887E+03  0.91400924160E+02 0.  0.
          1    1    3    3  502    0  0.39029894899E+02  0.14852534268E+03  0.23804478142E+03  0.28328153501E+03  0.00000000000E+00 0. -1.
         -1    1    3    3    0  502 -0.18483347409E+02  0.86442421351E+02  0.61223506824E+02  0.10752787605E+03  0.00000000000E+00 0.  1.
         11    1    5    5    0    0  0.27161707177E+02 -0.37402543801E+03 -0.46916540606E+02  0.37793378837E+03  0.00000000000E+00 0. -1.
        -11    1    5    5    0    0  0.40787677749E+02 -0.19284293122E+03  0.36317251467E+02  0.20042697805E+03  0.00000000000E+00 0.  1.
          3    1    6    6  503    0 -0.96208926622E+02  0.33199815920E+03 -0.12454913546E+03  0.36741178862E+03  0.00000000000E+00 0. -1.
         -3    1    6    6    0  503  0.77129942057E+01 -0.97554005872E-01  0.29536711650E+01  0.82597802484E+01  0.00000000000E+00 0.  1.
<mgrwt>
<rscale>  0 0.13344234E+04</rscale>
<asrwt>0</asrwt>
<pdfrwt beam="1">  1        2 0.11630118E+00 0.13344234E+04</pdfrwt>
<pdfrwt beam="2">  1       -2 0.90597555E-01 0.13344234E+04</pdfrwt>
<totfact> 0.37786436E+01</totfact>
</mgrwt>
</event>
<event>
12    2  0.3623523E-008  0.1481031E+04  0.7818608E-02  0.8897166E-01
         -1   -1    0    0    0  501 -0.00000000000E+00  0.00000000000E+00  0.33867807390E+03  0.33867807390E+03  0.00000000000E+00 0.  1.
          1   -1    0    0  501    0  0.00000000000E+00 -0.00000000000E+00 -0.16191280165E+04  0.16191280165E+04  0.00000000000E+00 0. -1.
         23    2    1    2    0    0  0.33741475928E+03  0.14440970354E+03 -0.36052164163E+02  0.37992891787E+03  0.91341895320E+02 0.  0.
        254    2    1    2    0    0 -0.33741475928E+03 -0.14440970354E+03 -0.12443977784E+04  0.15778771725E+04  0.89803544381E+03 0.  0.
         23    2    4    4    0    0 -0.42282229289E+03 -0.20100802938E+03 -0.18820586792E+03  0.51273731814E+03  0.91077930657E+02 0.  0.
         23    2    4    4    0    0  0.85407533608E+02  0.56598325841E+02 -0.10561919105E+04  0.10651398544E+04  0.92107221738E+02 0.  0.
          4    1    3    3  502    0  0.18780667119E+03  0.12889645320E+03 -0.23629668755E+02  0.22900655588E+03  0.00000000000E+00 0.  1.
         -4    1    3    3    0  502  0.14960808809E+03  0.15513250341E+02 -0.12422495408E+02  0.15092236200E+03  0.00000000000E+00 0. -1.
         11    1    5    5    0    0 -0.17758680233E+03 -0.13335414558E+03 -0.99065968243E+02  0.24317579355E+03  0.00000000000E+00 0. -1.
        -11    1    5    5    0    0 -0.24523549056E+03 -0.67653883797E+02 -0.89139899682E+02  0.26956152459E+03  0.00000000000E+00 0.  1.
          2    1    6    6  503    0  0.88793204636E+02  0.51520496833E+02 -0.10534654331E+04  0.10584554849E+04  0.00000000000E+00 0. -1.
         -2    1    6    6    0  503 -0.33856710289E+01  0.50778290085E+01 -0.27264773318E+01  0.66843694090E+01  0.00000000000E+00 0.  1.
<mgrwt>
<rscale>  0 0.14810309E+04</rscale>
<asrwt>0</asrwt>
<pdfrwt beam="1">  1        1 0.24909662E+00 0.14810309E+04</pdfrwt>
<pdfrwt beam="2">  1       -1 0.52104319E-01 0.14810309E+04</pdfrwt>
<totfact> 0.19455419E+01</totfact>
</mgrwt>
</event>
<event>
12    2  0.3623523E-008  0.1793253E+04  0.7818608E-02  0.8709896E-01
         -1   -1    0    0    0  501 -0.00000000000E+00  0.00000000000E+00  0.67663843988E+03  0.67663843988E+03  0.00000000000E+00 0.  1.
          1   -1    0    0  501    0  0.00000000000E+00 -0.00000000000E+00 -0.11881363981E+04  0.11881363981E+04  0.00000000000E+00 0. -1.
         23    2    1    2    0    0 -0.24489434010E+03 -0.15485852167E+03  0.43344293575E+03  0.52921456394E+03  0.90779274015E+02 0.  0.
        254    2    1    2    0    0  0.24489434010E+03  0.15485852167E+03 -0.94494089393E+03  0.13355602740E+04  0.89825027299E+03 0.  0.
         23    2    4    4    0    0 -0.25478250076E+03  0.13133121150E+03 -0.71825488867E+03  0.77880411546E+03  0.92107303437E+02 0.  0.
         23    2    4    4    0    0  0.49967684085E+03  0.23527310170E+02 -0.22668600526E+03  0.55675615854E+03  0.91435198288E+02 0.  0.
          3    1    3    3  502    0 -0.84357494773E+01 -0.27582520325E+02  0.16360606537E+02  0.33160620365E+02  0.00000000000E+00 0. -1.
         -3    1    3    3    0  502 -0.23645859062E+03 -0.12727600135E+03  0.41708232921E+03  0.49605394358E+03  0.00000000000E+00 0.  1.
         11    1    5    5    0    0 -0.22096093745E+03  0.71440139529E+02 -0.56111295429E+03  0.60726862004E+03  0.00000000000E+00 0.  1.
        -11    1    5    5    0    0 -0.33821563306E+02  0.59891071971E+02 -0.15714193438E+03  0.17153549542E+03  0.00000000000E+00 0. -1.
          2    1    6    6  503    0  0.60004513458E+02  0.32286357596E+02 -0.39991035789E+02  0.79007806359E+02  0.00000000000E+00 0. -1.
         -2    1    6    6    0  503  0.43967232740E+03 -0.87590474260E+01 -0.18669496947E+03  0.47774835218E+03  0.00000000000E+00 0.  1.
<mgrwt>
<rscale>  0 0.17932526E+04</rscale>
<asrwt>0</asrwt>
<pdfrwt beam="1">  1        1 0.18279021E+00 0.17932526E+04</pdfrwt>
<pdfrwt beam="2">  1       -1 0.10409822E+00 0.17932526E+04</pdfrwt>
<totfact> 0.89419861E+00</totfact>
</mgrwt>
</event>
<event>
12    2  0.3623523E-008  0.1383785E+04  0.7818608E-02  0.8965640E-01
         -3   -1    0    0    0  501 -0.00000000000E+00  0.00000000000E+00  0.40768575878E+03  0.40768575878E+03  0.00000000000E+00 0.  1.
          3   -1    0    0  501    0  0.00000000000E+00 -0.00000000000E+00 -0.11742255006E+04  0.11742255006E+04  0.00000000000E+00 0. -1.
         23    2    1    2    0    0 -0.53075887441E+02  0.20790166552E+03  0.14947761788E+03  0.27660814567E+03  0.90157393769E+02 0.  0.
        254    2    1    2    0    0  0.53075887441E+02 -0.20790166552E+03 -0.91601735972E+03  0.13053031137E+04  0.90481393834E+03 0.  0.
         23    2    4    4    0    0  0.34168982105E+03  0.12435417241E+03 -0.72583466721E+03  0.81728563395E+03  0.94360740449E+02 0.  0.
         23    2    4    4    0    0 -0.28861393361E+03 -0.33225583793E+03 -0.19018269252E+03  0.48801747977E+03  0.91102467102E+02 0.  0.
          3    1    3    3  502    0 -0.29818793608E+02  0.40437540060E+02  0.78589072264E+02  0.93276992756E+02  0.00000000000E+00 0. -1.
         -3    1    3    3    0  502 -0.23257093834E+02  0.16746412546E+03  0.70888545616E+02  0.18333115292E+03  0.00000000000E+00 0.  1.
         11    1    5    5    0    0  0.27036560373E+03  0.12658498021E+03 -0.63582884767E+03  0.70242411721E+03  0.00000000000E+00 0. -1.
        -11    1    5    5    0    0  0.71324217315E+02 -0.22308078024E+01 -0.90005819533E+02  0.11486151674E+03  0.00000000000E+00 0.  1.
          1    1    6    6  503    0 -0.20122775789E+03 -0.17034770960E+03 -0.90406906715E+02  0.27871914447E+03  0.00000000000E+00 0. -1.
         -1    1    6    6    0  503 -0.87386175722E+02 -0.16190812833E+03 -0.99775785802E+02  0.20929833530E+03  0.00000000000E+00 0.  1.
<mgrwt>
<rscale>  0 0.13837847E+04</rscale>
<asrwt>0</asrwt>
<pdfrwt beam="1">  1        3 0.18065007E+00 0.13837847E+04</pdfrwt>
<pdfrwt beam="2">  1       -3 0.62720887E-01 0.13837847E+04</pdfrwt>
<totfact> 0.12410331E+00</totfact>
</mgrwt>
</event>
<event>
12    2  0.3623523E-008  0.1639300E+04  0.7818608E-02  0.8796762E-01
          2   -1    0    0  501    0  0.00000000000E+00  0.00000000000E+00  0.56786545557E+03  0.56786545557E+03  0.00000000000E+00 0. -1.
         -2   -1    0    0    0  501 -0.00000000000E+00 -0.00000000000E+00 -0.11830729654E+04  0.11830729654E+04  0.00000000000E+00 0.  1.
         23    2    1    2    0    0 -0.46377767249E+03 -0.39436501974E+02  0.12746247047E+03  0.49108470683E+03  0.90953508536E+02 0.  0.
        254    2    1    2    0    0  0.46377767249E+03  0.39436501974E+02 -0.74266998031E+03  0.12598537141E+04  0.90500149957E+03 0.  0.
         23    2    4    4    0    0  0.24627902860E+03 -0.41958347359E+03 -0.43528029311E+03  0.65913175941E+03  0.91005996797E+02 0.  0.
         23    2    4    4    0    0  0.21749864388E+03  0.45901997556E+03 -0.30738968720E+03  0.60072195474E+03  0.91506551974E+02 0.  0.
          2    1    3    3  502    0 -0.35756472351E+03 -0.56439774109E+02  0.68489260771E+02  0.36841384128E+03  0.00000000000E+00 0. -1.
         -2    1    3    3    0  502 -0.10621294897E+03  0.17003272135E+02  0.58973209694E+02  0.12267086555E+03  0.00000000000E+00 0.  1.
         11    1    5    5    0    0  0.20276973605E+03 -0.39388146687E+03 -0.37454329676E+03  0.58012141569E+03  0.00000000000E+00 0.  1.
        -11    1    5    5    0    0  0.43509292558E+02 -0.25702006720E+02 -0.60736996351E+02  0.79010343716E+02  0.00000000000E+00 0. -1.
          3    1    6    6  503    0  0.15534938685E+02  0.10678847203E+03 -0.42777947010E+02  0.11608214690E+03  0.00000000000E+00 0. -1.
         -3    1    6    6    0  503  0.20196370520E+03  0.35223150353E+03 -0.26461174019E+03  0.48463980784E+03  0.00000000000E+00 0.  1.
<mgrwt>
<rscale>  0 0.16393002E+04</rscale>
<asrwt>0</asrwt>
<pdfrwt beam="1">  1        2 0.87363917E-01 0.16393002E+04</pdfrwt>
<pdfrwt beam="2">  1       -2 0.18201122E+00 0.16393002E+04</pdfrwt>
<totfact> 0.88896159E+00</totfact>
</mgrwt>
</event>
<event>
12    2  0.3623523E-008  0.1512905E+04  0.7818608E-02  0.8875917E-01
          1   -1    0    0  501    0  0.00000000000E+00  0.00000000000E+00  0.20293370039E+04  0.20293370039E+04  0.00000000000E+00 0. -1.
         -1   -1    0    0    0  501 -0.00000000000E+00 -0.00000000000E+00 -0.28197392320E+03  0.28197392320E+03  0.00000000000E+00 0.  1.
         23    2    1    2    0    0  0.24281953807E+03 -0.25235402574E+03  0.91506770746E+03  0.98400741431E+03  0.90982414761E+02 0.  0.
        254    2    1    2    0    0 -0.24281953807E+03  0.25235402574E+03  0.83229537318E+03  0.13273035127E+04  0.97281814557E+03 0.  0.
         23    2    4    4    0    0  0.11526375341E+03 -0.31898504583E+03  0.32408597174E+03  0.47786808258E+03  0.91043917722E+02 0.  0.
         23    2    4    4    0    0 -0.35808329149E+03  0.57133907157E+03  0.50820940144E+03  0.84943543017E+03  0.92799654998E+02 0.  0.
          2    1    3    3  502    0  0.21608800821E+03 -0.20273808124E+03  0.67088927608E+03  0.73340928385E+03  0.00000000000E+00 0. -1.
         -2    1    3    3    0  502  0.26731529866E+02 -0.49615944499E+02  0.24417843138E+03  0.25059813046E+03  0.00000000000E+00 0.  1.
         11    1    5    5    0    0  0.11881805582E+03 -0.30489595473E+03  0.27744569624E+03  0.42901676886E+03  0.00000000000E+00 0. -1.
        -11    1    5    5    0    0 -0.35543024022E+01 -0.14089091099E+02  0.46640275498E+02  0.48851313719E+02  0.00000000000E+00 0.  1.
          1    1    6    6  503    0 -0.12359580115E+03  0.15056567939E+03  0.19004919058E+03  0.27214819623E+03  0.00000000000E+00 0. -1.
         -1    1    6    6    0  503 -0.23448749034E+03  0.42077339218E+03  0.31816021086E+03  0.57728723394E+03  0.00000000000E+00 0.  1.
<mgrwt>
<rscale>  0 0.15129046E+04</rscale>
<asrwt>0</asrwt>
<pdfrwt beam="1">  1        1 0.31220568E+00 0.15129046E+04</pdfrwt>
<pdfrwt beam="2">  1       -1 0.43380605E-01 0.15129046E+04</pdfrwt>
<totfact> 0.14433166E+01</totfact>
</mgrwt>
</event>
<event>
12    2  0.3623523E-008  0.1214814E+04  0.7818608E-02  0.9099987E-01
         -2   -1    0    0    0  501 -0.00000000000E+00  0.00000000000E+00  0.16515281429E+03  0.16515281429E+03  0.00000000000E+00 0.  1.
          2   -1    0    0  501    0  0.00000000000E+00 -0.00000000000E+00 -0.22339523278E+04  0.22339523278E+04  0.00000000000E+00 0. -1.
         23    2    1    2    0    0 -0.60059114449E+02 -0.26601870780E+03 -0.49507774467E+03  0.57273429816E+03  0.92463792338E+02 0.  0.
        254    2    1    2    0    0  0.60059114449E+02  0.26601870780E+03 -0.15737217688E+04  0.18263708439E+04  0.88580878506E+03 0.  0.
         23    2    4    4    0    0  0.17559962378E+03  0.67590829433E+02 -0.15652867732E+04  0.15792684996E+04  0.92534121401E+02 0.  0.
         23    2    4    4    0    0 -0.11554050933E+03  0.19842787837E+03 -0.84349956207E+01  0.24710234423E+03  0.90913074766E+02 0.  0.
          3    1    3    3  502    0  0.11709017949E+02 -0.65703418911E+02 -0.18499269123E+03  0.19666300152E+03  0.00000000000E+00 0. -1.
         -3    1    3    3    0  502 -0.71768132398E+02 -0.20031528889E+03 -0.31008505344E+03  0.37607129665E+03  0.00000000000E+00 0.  1.
         11    1    5    5    0    0  0.69132127302E+02  0.16008840028E+02 -0.29205400820E+03  0.30055128962E+03  0.00000000000E+00 0. -1.
        -11    1    5    5    0    0  0.10646749648E+03  0.51581989405E+02 -0.12732327650E+04  0.12787172100E+04  0.00000000000E+00 0.  1.
          3    1    6    6  503    0 -0.47047675210E+02  0.49520046797E+02 -0.41459258383E+02  0.79903622466E+02  0.00000000000E+00 0. -1.
         -3    1    6    6    0  503 -0.68492834119E+02  0.14890783157E+03  0.33024262762E+02  0.16719872177E+03  0.00000000000E+00 0.  1.
<mgrwt>
<rscale>  0 0.12148144E+04</rscale>
<asrwt>0</asrwt>
<pdfrwt beam="1">  1        2 0.34368496E+00 0.12148144E+04</pdfrwt>
<pdfrwt beam="2">  1       -2 0.25408126E-01 0.12148144E+04</pdfrwt>
<totfact> 0.68066546E+01</totfact>
</mgrwt>
</event>
<event>
12    2  0.3623523E-008  0.2309183E+04  0.7818608E-02  0.8474309E-01
         -1   -1    0    0    0  501 -0.00000000000E+00  0.00000000000E+00  0.50177505061E+03  0.50177505061E+03  0.00000000000E+00 0.  1.
          1   -1    0    0  501    0  0.00000000000E+00 -0.00000000000E+00 -0.26567322045E+04  0.26567322045E+04  0.00000000000E+00 0. -1.
         23    2    1    2    0    0 -0.90435913721E+03 -0.22553918220E+03 -0.13210927151E+04  0.16196274883E+04  0.95780306217E+02 0.  0.
        254    2    1    2    0    0  0.90435913721E+03  0.22553918220E+03 -0.83386443874E+03  0.15388797668E+04  0.89670935244E+03 0.  0.
         23    2    4    4    0    0  0.60795474745E+02  0.13783060194E+03 -0.64044131240E+03  0.66426261536E+03  0.91577196740E+02 0.  0.
         23    2    4    4    0    0  0.84356366246E+03  0.87708580267E+02 -0.19342312634E+03  0.87461715145E+03  0.90830656326E+02 0.  0.
          3    1    3    3  502    0 -0.79893865754E+03 -0.17450269051E+03 -0.11176956736E+04  0.13849179710E+04  0.00000000000E+00 0. -1.
         -3    1    3    3    0  502 -0.10542047967E+03 -0.51036491693E+02 -0.20339704149E+03  0.23470951728E+03  0.00000000000E+00 0.  1.
         11    1    5    5    0    0  0.67445405939E+02  0.12996004903E+03 -0.44335218957E+03  0.46690433830E+03  0.00000000000E+00 0. -1.
        -11    1    5    5    0    0 -0.66499311939E+01  0.78705529018E+01 -0.19708912283E+03  0.19735827706E+03  0.00000000000E+00 0.  1.
          1    1    6    6  503    0  0.50667336771E+03  0.36260754735E+02 -0.15805512978E+03  0.53199075925E+03  0.00000000000E+00 0. -1.
         -1    1    6    6    0  503  0.33689029475E+03  0.51447825532E+02 -0.35367996567E+02  0.34262639220E+03  0.00000000000E+00 0.  1.
<mgrwt>
<rscale>  0 0.23091834E+04</rscale>
<asrwt>0</asrwt>
<pdfrwt beam="1">  1        1 0.40872802E+00 0.23091834E+04</pdfrwt>
<pdfrwt beam="2">  1       -1 0.77196164E-01 0.23091834E+04</pdfrwt>
<totfact> 0.15998943E+00</totfact>
</mgrwt>
</event>
<event>
12    2  0.3623523E-008  0.3039012E+04  0.7818608E-02  0.8232678E-01
         -1   -1    0    0    0  501 -0.00000000000E+00  0.00000000000E+00  0.18453191487E+04  0.18453191487E+04  0.00000000000E+00 0.  1.
          1   -1    0    0  501    0  0.00000000000E+00 -0.00000000000E+00 -0.12512188699E+04  0.12512188699E+04  0.00000000000E+00 0. -1.
         23    2    1    2    0    0 -0.12272033057E+04  0.63752248159E+03  0.22378114736E+03  0.14039643584E+04  0.92601565159E+02 0.  0.
        254    2    1    2    0    0  0.12272033057E+04 -0.63752248159E+03  0.37031913144E+03  0.16925736602E+04  0.90288784908E+03 0.  0.
         23    2    4    4    0    0  0.12442358268E+04 -0.29913026943E+03  0.18592453874E+03  0.12964293413E+04  0.92516982533E+02 0.  0.
         23    2    4    4    0    0 -0.17032521118E+02 -0.33839221215E+03  0.18439459270E+03  0.39614431889E+03  0.90164070188E+02 0.  0.
          1    1    3    3  502    0 -0.10023449041E+02 -0.10576272003E+01 -0.37170045152E+01  0.10742636014E+02  0.00000000000E+00 0. -1.
         -1    1    3    3    0  502 -0.12171798566E+04  0.63858010879E+03  0.22749815187E+03  0.13932217224E+04  0.00000000000E+00 0.  1.
         11    1    5    5    0    0  0.10739591304E+04 -0.25246531656E+03  0.12810462797E+03  0.11106474443E+04  0.00000000000E+00 0. -1.
        -11    1    5    5    0    0  0.17027669638E+03 -0.46664952870E+02  0.57819910773E+02  0.18578189696E+03  0.00000000000E+00 0.  1.
          2    1    6    6  503    0 -0.83201118930E+01 -0.34101672493E+03  0.17638700989E+03  0.38402344746E+03  0.00000000000E+00 0. -1.
         -2    1    6    6    0  503 -0.87124092253E+01  0.26245127734E+01  0.80075828141E+01  0.12120871434E+02  0.00000000000E+00 0.  1.
<mgrwt>
<rscale>  0 0.30390118E+04</rscale>
<asrwt>0</asrwt>
<pdfrwt beam="1">  1        1 0.19249521E+00 0.30390118E+04</pdfrwt>
<pdfrwt beam="2">  1       -1 0.28389525E+00 0.30390118E+04</pdfrwt>
<totfact> 0.34931500E-01</totfact>
</mgrwt>
</event>
<event>
12    2  0.3623523E-008  0.1266110E+04  0.7818608E-02  0.9056881E-01
          1   -1    0    0  501    0  0.00000000000E+00  0.00000000000E+00  0.27464606139E+04  0.27464606139E+04  0.00000000000E+00 0. -1.
         -1   -1    0    0    0  501 -0.00000000000E+00 -0.00000000000E+00 -0.14591820770E+03  0.14591820770E+03  0.00000000000E+00 0.  1.
         23    2    1    2    0    0 -0.15909596589E+03  0.10718100457E+03  0.11928022596E+04  0.12117789659E+04  0.93977324524E+02 0.  0.
        254    2    1    2    0    0  0.15909596589E+03 -0.10718100457E+03  0.14077401466E+04  0.16805998557E+04  0.89771056619E+03 0.  0.
         23    2    4    4    0    0 -0.11232726097E+02 -0.39604955023E+03  0.26169071843E+03  0.48328507155E+03  0.90005599278E+02 0.  0.
         23    2    4    4    0    0  0.17032869199E+03  0.28886854566E+03  0.11460494282E+04  0.11973147842E+04  0.87615641431E+02 0.  0.
          2    1    3    3  502    0 -0.15036594719E+03  0.58360367307E+02  0.98650977315E+03  0.99960861494E+03  0.00000000000E+00 0. -1.
         -2    1    3    3    0  502 -0.87300187087E+01  0.48820637262E+02  0.20629248647E+03  0.21217035095E+03  0.00000000000E+00 0.  1.
         11    1    5    5    0    0 -0.38084970591E+01 -0.77053300863E+02  0.97824879552E+02  0.12458500264E+03  0.00000000000E+00 0.  1.
        -11    1    5    5    0    0 -0.74242290377E+01 -0.31899624936E+03  0.16386583888E+03  0.35870006891E+03  0.00000000000E+00 0. -1.
          1    1    6    6  503    0  0.11733713171E+03  0.20022100676E+03  0.91951588535E+03  0.94834904831E+03  0.00000000000E+00 0. -1.
         -1    1    6    6    0  503  0.52991560279E+02  0.88647538902E+02  0.22653354284E+03  0.24896573589E+03  0.00000000000E+00 0.  1.
<mgrwt>
<rscale>  0 0.12661100E+04</rscale>
<asrwt>0</asrwt>
<pdfrwt beam="1">  1        1 0.42253237E+00 0.12661100E+04</pdfrwt>
<pdfrwt beam="2">  1       -1 0.22448957E-01 0.12661100E+04</pdfrwt>
<totfact> 0.15202205E+01</totfact>
</mgrwt>
</event>
<event>
12    2  0.3623523E-008  0.1559371E+04  0.7818608E-02  0.8845904E-01
          1   -1    0    0  501    0  0.00000000000E+00  0.00000000000E+00  0.13975208003E+04  0.13975208003E+04  0.00000000000E+00 0. -1.
         -1   -1    0    0    0  501 -0.00000000000E+00 -0.00000000000E+00 -0.43499134229E+03  0.43499134229E+03  0.00000000000E+00 0.  1.
         23    2    1    2    0    0 -0.44776464716E+03  0.24542239767E+03  0.35344561895E+03  0.62785501150E+03  0.92481227217E+02 0.  0.
        254    2    1    2    0    0  0.44776464716E+03 -0.24542239767E+03  0.60908383902E+03  0.12046571311E+04  0.90525706179E+03 0.  0.
         23    2    4    4    0    0  0.20070627767E+03  0.17380609166E+03  0.65001345001E+03  0.70820239886E+03  0.92420696591E+02 0.  0.
         23    2    4    4    0    0  0.24705836948E+03 -0.41922848933E+03 -0.40929610995E+02  0.49645473220E+03  0.89452243490E+02 0.  0.
          4    1    3    3  502    0 -0.23847598704E+03  0.14379665043E+03  0.13812080384E+03  0.31084663344E+03  0.00000000000E+00 0. -1.
         -4    1    3    3    0  502 -0.20928866012E+03  0.10162574724E+03  0.21532481511E+03  0.31700837806E+03  0.00000000000E+00 0.  1.
         11    1    5    5    0    0  0.79304291723E+02  0.60551821903E+02  0.36465404291E+03  0.37805854683E+03  0.00000000000E+00 0. -1.
        -11    1    5    5    0    0  0.12140198595E+03  0.11325426976E+03  0.28535940710E+03  0.33014385203E+03  0.00000000000E+00 0.  1.
          1    1    6    6  503    0  0.78621225986E+02 -0.65018752172E+02 -0.17712450026E+02  0.10354934184E+03  0.00000000000E+00 0. -1.
         -1    1    6    6    0  503  0.16843714350E+03 -0.35420973716E+03 -0.23217160969E+02  0.39290539036E+03  0.00000000000E+00 0.  1.
<mgrwt>
<rscale>  0 0.15593710E+04</rscale>
<asrwt>0</asrwt>
<pdfrwt beam="1">  1        1 0.21500320E+00 0.15593710E+04</pdfrwt>
<pdfrwt beam="2">  1       -1 0.66921745E-01 0.15593710E+04</pdfrwt>
<totfact> 0.16797823E+01</totfact>
</mgrwt>
</event>
<event>
12    2  0.3623523E-008  0.2139602E+04  0.7818608E-02  0.8543996E-01
          2   -1    0    0  501    0  0.00000000000E+00  0.00000000000E+00  0.16843847738E+04  0.16843847738E+04  0.00000000000E+00 0. -1.
         -2   -1    0    0    0  501 -0.00000000000E+00 -0.00000000000E+00 -0.67946137007E+03  0.67946137007E+03  0.00000000000E+00 0.  1.
         23    2    1    2    0    0  0.13327312578E+03 -0.10586143756E+03  0.13668768138E+04  0.13804044054E+04  0.90530262017E+02 0.  0.
        254    2    1    2    0    0 -0.13327312578E+03  0.10586143756E+03 -0.36195341006E+03  0.98344173848E+03  0.89843141748E+03 0.  0.
         23    2    4    4    0    0 -0.19513726761E+03 -0.35436321271E+02  0.25927073472E+03  0.33702224303E+03  0.83835507602E+02 0.  0.
         23    2    4    4    0    0  0.61864141832E+02  0.14129775884E+03 -0.62122414478E+03  0.64641949545E+03  0.90257948909E+02 0.  0.
          3    1    3    3  502    0  0.11683868852E+03 -0.69542660208E+02  0.12394997897E+04  0.12469351184E+04  0.00000000000E+00 0. -1.
         -3    1    3    3    0  502  0.16434437257E+02 -0.36318777355E+02  0.12737702407E+03  0.13346928702E+03  0.00000000000E+00 0.  1.
         11    1    5    5    0    0 -0.19516259190E+03 -0.44164978594E+02  0.26020211429E+03  0.32824399902E+03  0.00000000000E+00 0.  1.
        -11    1    5    5    0    0  0.25324285442E-01  0.87286573225E+01 -0.93137956789E+00  0.87782440085E+01  0.00000000000E+00 0. -1.
          1    1    6    6  503    0  0.70109884635E+02  0.12712921617E+03 -0.41721684695E+03  0.44175460485E+03  0.00000000000E+00 0.  1.
         -1    1    6    6    0  503 -0.82457428035E+01  0.14168542666E+02 -0.20400729783E+03  0.20466489059E+03  0.00000000000E+00 0. -1.
<mgrwt>
<rscale>  0 0.21396022E+04</rscale>
<asrwt>0</asrwt>
<pdfrwt beam="1">  1        2 0.25913612E+00 0.21396022E+04</pdfrwt>
<pdfrwt beam="2">  1       -2 0.10453252E+00 0.21396022E+04</pdfrwt>
<totfact> 0.68290827E+00</totfact>
</mgrwt>
</event>
<event>
12    2  0.4114688E-008  0.1791536E+04  0.7818608E-02  0.8710814E-01
         -1   -1    0    0    0  501 -0.00000000000E+00  0.00000000000E+00  0.25976828983E+03  0.25976828983E+03  0.00000000000E+00 0.  1.
          1   -1    0    0  501    0  0.00000000000E+00 -0.00000000000E+00 -0.30889073939E+04  0.30889073939E+04  0.00000000000E+00 0. -1.
         23    2    1    2    0    0  0.16732200894E+03  0.37838136967E+03 -0.88685744081E+02  0.43320332537E+03  0.92902337541E+02 0.  0.
        254    2    1    2    0    0 -0.16732200894E+03 -0.37838136967E+03 -0.27404533600E+04  0.29154723584E+04  0.90483442601E+03 0.  0.
         23    2    4    4    0    0  0.30545610803E+03  0.10453607181E+02 -0.14452881943E+04  0.14800260743E+04  0.90589757381E+02 0.  0.
         23    2    4    4    0    0 -0.47277811698E+03 -0.38883497685E+03 -0.12951651657E+04  0.14354462841E+04  0.91331489324E+02 0.  0.
          3    1    3    3  502    0  0.42449778008E+01  0.51750276600E+02  0.14337795885E+02  0.53867275368E+02  0.00000000000E+00 0. -1.
         -3    1    3    3    0  502  0.16307703114E+03  0.32663109307E+03 -0.10302353997E+03  0.37933605000E+03  0.00000000000E+00 0.  1.
         11    1    5    5    0    0  0.18019075195E+02 -0.23196658320E+02 -0.13087690204E+03  0.13413252967E+03  0.00000000000E+00 0. -1.
        -11    1    5    5    0    0  0.28743703284E+03  0.33650265501E+02 -0.13144112922E+04  0.13458935446E+04  0.00000000000E+00 0.  1.
          2    1    6    6  503    0 -0.48145080682E+02 -0.92015904818E+01 -0.11534086747E+03  0.12532411488E+03  0.00000000000E+00 0. -1.
         -2    1    6    6    0  503 -0.42463303629E+03 -0.37963338637E+03 -0.11798242982E+04  0.13101221692E+04  0.00000000000E+00 0.  1.
<mgrwt>
<rscale>  0 0.17915359E+04</rscale>
<asrwt>0</asrwt>
<pdfrwt beam="1">  1        1 0.47521654E+00 0.17915359E+04</pdfrwt>
<pdfrwt beam="2">  1       -1 0.39964351E-01 0.17915359E+04</pdfrwt>
<totfact> 0.29738509E+00</totfact>
</mgrwt>
</event>
<event>
12    2  0.3623523E-008  0.1406707E+04  0.7818608E-02  0.8948978E-01
         -1   -1    0    0    0  501 -0.00000000000E+00  0.00000000000E+00  0.59935459777E+03  0.59935459777E+03  0.00000000000E+00 0.  1.
          1   -1    0    0  501    0  0.00000000000E+00 -0.00000000000E+00 -0.82539775401E+03  0.82539775401E+03  0.00000000000E+00 0. -1.
         23    2    1    2    0    0 -0.33003408334E+01 -0.34252582329E+03  0.15706776371E+03  0.38760196166E+03  0.90720264654E+02 0.  0.
        254    2    1    2    0    0  0.33003408334E+01  0.34252582329E+03 -0.38311091995E+03  0.10371503901E+04  0.90087297821E+03 0.  0.
         23    2    4    4    0    0  0.29066336883E+03  0.50993870902E+03 -0.13088722976E+03  0.60899877522E+03  0.96048739538E+02 0.  0.
         23    2    4    4    0    0 -0.28736302799E+03 -0.16741288573E+03 -0.25222369019E+03  0.42815161490E+03  0.95354241034E+02 0.  0.
          4    1    3    3  502    0 -0.29854307038E+02 -0.53425399035E+02  0.46819379333E+02  0.77055870587E+02  0.00000000000E+00 0. -1.
         -4    1    3    3    0  502  0.26553966205E+02 -0.28910042425E+03  0.11024838438E+03  0.31054609108E+03  0.00000000000E+00 0.  1.
         11    1    5    5    0    0 -0.13379156499E+01  0.14163939854E+02  0.90355421318E+01  0.16853730509E+02  0.00000000000E+00 0. -1.
        -11    1    5    5    0    0  0.29200128448E+03  0.49577476916E+03 -0.13992277190E+03  0.59214504471E+03  0.00000000000E+00 0.  1.
          2    1    6    6  503    0 -0.26193701860E+03 -0.14503712747E+03 -0.18252584253E+03  0.35066002516E+03  0.00000000000E+00 0.  1.
         -2    1    6    6    0  503 -0.25426009393E+02 -0.22375758263E+02 -0.69697847658E+02  0.77491589735E+02  0.00000000000E+00 0. -1.
<mgrwt>
<rscale>  0 0.14067067E+04</rscale>
<asrwt>0</asrwt>
<pdfrwt beam="1">  1        1 0.12698427E+00 0.14067067E+04</pdfrwt>
<pdfrwt beam="2">  1       -1 0.92208399E-01 0.14067067E+04</pdfrwt>
<totfact> 0.23455728E+01</totfact>
</mgrwt>
</event>
<event>
12    2  0.3623523E-008  0.3877434E+04  0.7818608E-02  0.8029739E-01
          2   -1    0    0  501    0  0.00000000000E+00  0.00000000000E+00  0.21393131087E+04  0.21393131087E+04  0.00000000000E+00 0. -1.
         -2   -1    0    0    0  501 -0.00000000000E+00 -0.00000000000E+00 -0.17569302755E+04  0.17569302755E+04  0.00000000000E+00 0.  1.
         23    2    1    2    0    0 -0.79827122726E+03  0.14526134785E+04  0.96986100199E+03  0.19226988239E+04  0.93901726455E+02 0.  0.
        254    2    1    2    0    0  0.79827122726E+03 -0.14526134785E+04 -0.58747816875E+03  0.19735445603E+04  0.89578159315E+03 0.  0.
         23    2    4    4    0    0 -0.37044509705E+00 -0.87841692879E+03 -0.16281514742E+03  0.89821747103E+03  0.93109693480E+02 0.  0.
         23    2    4    4    0    0  0.79864167235E+03 -0.57419654970E+03 -0.42466302133E+03  0.10753270893E+04  0.91975370376E+02 0.  0.
          4    1    3    3  502    0 -0.94470486538E+02  0.22796110356E+03  0.12184612982E+03  0.27520431849E+03  0.00000000000E+00 0.  1.
         -4    1    3    3    0  502 -0.70380074072E+03  0.12246523749E+04  0.84801487217E+03  0.16474945054E+04  0.00000000000E+00 0. -1.
         11    1    5    5    0    0 -0.26607709103E+02 -0.79446415594E+03 -0.13773128405E+03  0.80675347651E+03  0.00000000000E+00 0. -1.
        -11    1    5    5    0    0  0.26237264005E+02 -0.83952772850E+02 -0.25083863374E+02  0.91463994519E+02  0.00000000000E+00 0.  1.
          3    1    6    6  503    0  0.72476360950E+03 -0.50061447218E+03 -0.35375598295E+03  0.94923149700E+03  0.00000000000E+00 0. -1.
         -3    1    6    6    0  503  0.73878062849E+02 -0.73582077518E+02 -0.70907038379E+02  0.12609559229E+03  0.00000000000E+00 0.  1.
<mgrwt>
<rscale>  0 0.38774342E+04</rscale>
<asrwt>0</asrwt>
<pdfrwt beam="1">  1        2 0.32912509E+00 0.38774342E+04</pdfrwt>
<pdfrwt beam="2">  1       -2 0.27029696E+00 0.38774342E+04</pdfrwt>
<totfact> 0.21480515E-01</totfact>
</mgrwt>
</event>
<event>
12    2  0.3623523E-008  0.1878953E+04  0.7818608E-02  0.8665404E-01
         -2   -1    0    0    0  501 -0.00000000000E+00  0.00000000000E+00  0.92193526773E+03  0.92193526773E+03  0.00000000000E+00 0.  1.
          2   -1    0    0  501    0  0.00000000000E+00 -0.00000000000E+00 -0.95735162515E+03  0.95735162515E+03  0.00000000000E+00 0. -1.
         23    2    1    2    0    0  0.25346218424E+03  0.28867647481E+03 -0.57057771293E+03  0.69406072789E+03  0.92650858369E+02 0.  0.
        254    2    1    2    0    0 -0.25346218424E+03 -0.28867647481E+03  0.53516135551E+03  0.11852261650E+04  0.98528483182E+03 0.  0.
         23    2    4    4    0    0  0.45874549030E+02 -0.89897825341E+02  0.74654128612E+03  0.75780865723E+03  0.82243393840E+02 0.  0.
         23    2    4    4    0    0 -0.29933673327E+03 -0.19877864946E+03 -0.21137993062E+03  0.42741750777E+03  0.94280536235E+02 0.  0.
          1    1    3    3  502    0  0.20146754909E+03  0.22960328318E+03 -0.37780171294E+03  0.48584048338E+03  0.00000000000E+00 0. -1.
         -1    1    3    3    0  502  0.51994635151E+02  0.59073191621E+02 -0.19277599999E+03  0.20822024451E+03  0.00000000000E+00 0.  1.
         11    1    5    5    0    0  0.46968164919E+02 -0.40283787025E+02  0.59808710356E+03  0.60127944873E+03  0.00000000000E+00 0.  1.
        -11    1    5    5    0    0 -0.10936158894E+01 -0.49614038316E+02  0.14845418256E+03  0.15652920850E+03  0.00000000000E+00 0. -1.
          2    1    6    6  503    0 -0.23289292165E+03 -0.10940890850E+03 -0.17104280563E+03  0.30897421182E+03  0.00000000000E+00 0. -1.
         -2    1    6    6    0  503 -0.66443811621E+02 -0.89369740962E+02 -0.40337124983E+02  0.11844329594E+03  0.00000000000E+00 0.  1.
<mgrwt>
<rscale>  0 0.18789531E+04</rscale>
<asrwt>0</asrwt>
<pdfrwt beam="1">  1        2 0.14728487E+00 0.18789531E+04</pdfrwt>
<pdfrwt beam="2">  1       -2 0.14183619E+00 0.18789531E+04</pdfrwt>
<totfact> 0.87436042E+00</totfact>
</mgrwt>
</event>
<event>
12    2  0.3623523E-008  0.2018047E+04  0.7818608E-02  0.8598229E-01
          2   -1    0    0  501    0  0.00000000000E+00  0.00000000000E+00  0.37905258587E+04  0.37905258587E+04  0.00000000000E+00 0.  1.
         -2   -1    0    0    0  501 -0.00000000000E+00 -0.00000000000E+00 -0.26859826223E+03  0.26859826223E+03  0.00000000000E+00 0. -1.
         23    2    1    2    0    0  0.34683580090E+03  0.30771386196E+03  0.27431017668E+04  0.27834551951E+04  0.89624921887E+02 0.  0.
        254    2    1    2    0    0 -0.34683580090E+03 -0.30771386196E+03  0.77882582969E+03  0.12756689258E+04  0.89765173742E+03 0.  0.
         23    2    4    4    0    0 -0.62946279061E+02  0.12473259707E+03 -0.13760395570E+03  0.21939848505E+03  0.98388982099E+02 0.  0.
         23    2    4    4    0    0 -0.28388952184E+03 -0.43244645903E+03  0.91642978539E+03  0.10562704408E+04  0.90887248762E+02 0.  0.
          2    1    3    3  502    0  0.49055958065E+02  0.92935416082E+02  0.61417931019E+03  0.62310488977E+03  0.00000000000E+00 0. -1.
         -2    1    3    3    0  502  0.29777984283E+03  0.21477844588E+03  0.21289224566E+04  0.21603503054E+04  0.00000000000E+00 0.  1.
         11    1    5    5    0    0  0.12338073913E+02  0.13868453607E+01 -0.47515804848E+02  0.49111130289E+02  0.00000000000E+00 0. -1.
        -11    1    5    5    0    0 -0.75284352975E+02  0.12334575170E+03 -0.90088150850E+02  0.17028735476E+03  0.00000000000E+00 0.  1.
          2    1    6    6  503    0 -0.24415081829E+03 -0.38198786221E+03  0.85307045911E+03  0.96605049410E+03  0.00000000000E+00 0.  1.
         -2    1    6    6    0  503 -0.39738703551E+02 -0.50458596820E+02  0.63359326281E+02  0.90219946684E+02  0.00000000000E+00 0. -1.
<mgrwt>
<rscale>  0 0.20180472E+04</rscale>
<asrwt>0</asrwt>
<pdfrwt beam="1">  1        2 0.58315778E+00 0.20180472E+04</pdfrwt>
<pdfrwt beam="2">  1       -2 0.41322812E-01 0.20180472E+04</pdfrwt>
<totfact> 0.25905835E+00</totfact>
</mgrwt>
</event>
<event>
12    2  0.3623523E-008  0.2392513E+04  0.7818608E-02  0.8442312E-01
          2   -1    0    0  501    0  0.00000000000E+00  0.00000000000E+00  0.21559788964E+04  0.21559788964E+04  0.00000000000E+00 0. -1.
         -2   -1    0    0    0  501 -0.00000000000E+00 -0.00000000000E+00 -0.66374960918E+03  0.66374960918E+03  0.00000000000E+00 0.  1.
         23    2    1    2    0    0  0.59392895128E+03  0.47082907857E+03 -0.17605002077E+03  0.78249325149E+03  0.82888228491E+02 0.  0.
        254    2    1    2    0    0 -0.59392895128E+03 -0.47082907857E+03  0.16682793080E+04  0.20372352541E+04  0.89035948393E+03 0.  0.
         23    2    4    4    0    0 -0.25369084004E+03  0.22882015004E+03  0.31383060039E+03  0.47259400539E+03  0.90209449663E+02 0.  0.
         23    2    4    4    0    0 -0.34023811124E+03 -0.69964922860E+03  0.13544487076E+04  0.15646412487E+04  0.91103897707E+02 0.  0.
          4    1    3    3  502    0  0.51227091602E+02  0.54361045567E+02 -0.40994550629E+02  0.85204996159E+02  0.00000000000E+00 0. -1.
         -4    1    3    3    0  502  0.54270185968E+03  0.41646803300E+03 -0.13505547014E+03  0.69728825533E+03  0.00000000000E+00 0.  1.
         11    1    5    5    0    0 -0.25705251143E+03  0.23043347099E+03  0.29712245475E+03  0.45547484157E+03  0.00000000000E+00 0. -1.
        -11    1    5    5    0    0  0.33616713977E+01 -0.16133209563E+01  0.16708145641E+02  0.17119163819E+02  0.00000000000E+00 0.  1.
          4    1    6    6  503    0 -0.81837813748E+02 -0.11632629070E+03  0.30398474890E+03  0.33561281446E+03  0.00000000000E+00 0.  1.
         -4    1    6    6    0  503 -0.25840029750E+03 -0.58332293791E+03  0.10504639587E+04  0.12290284342E+04  0.00000000000E+00 0. -1.
<mgrwt>
<rscale>  0 0.23925134E+04</rscale>
<asrwt>0</asrwt>
<pdfrwt beam="1">  1        2 0.33168906E+00 0.23925134E+04</pdfrwt>
<pdfrwt beam="2">  1       -2 0.10211533E+00 0.23925134E+04</pdfrwt>
<totfact> 0.38647870E+00</totfact>
</mgrwt>
</event>
<event>
12    2  0.3623523E-008  0.2575814E+04  0.7818608E-02  0.8376463E-01
          1   -1    0    0  501    0  0.00000000000E+00  0.00000000000E+00  0.16092840582E+04  0.16092840582E+04  0.00000000000E+00 0. -1.
         -1   -1    0    0    0  501 -0.00000000000E+00 -0.00000000000E+00 -0.10307092619E+04  0.10307092619E+04  0.00000000000E+00 0.  1.
         23    2    1    2    0    0 -0.10568884670E+04 -0.35946130095E+03  0.26537604751E+03  0.11511340961E+04  0.91976095638E+02 0.  0.
        254    2    1    2    0    0  0.10568884670E+04  0.35946130095E+03  0.31319874874E+03  0.14888592240E+04  0.93401427940E+03 0.  0.
         23    2    4    4    0    0 -0.78047190799E+02  0.28617249402E+03  0.19292054572E+02  0.31060718343E+03  0.90103155895E+02 0.  0.
         23    2    4    4    0    0  0.11349356578E+04  0.73288806930E+02  0.29390669417E+03  0.11782520406E+04  0.91905003590E+02 0.  0.
          2    1    3    3  502    0 -0.74652566312E+03 -0.26401028762E+03  0.22965853062E+03  0.82446651742E+03  0.00000000000E+00 0. -1.
         -2    1    3    3    0  502 -0.31036280386E+03 -0.95451013327E+02  0.35717516884E+02  0.32666757871E+03  0.00000000000E+00 0.  1.
         11    1    5    5    0    0 -0.53799709299E+02  0.83308825364E+02  0.36271024381E+02  0.10559524759E+03  0.00000000000E+00 0. -1.
        -11    1    5    5    0    0 -0.24247481500E+02  0.20286366866E+03 -0.16978969810E+02  0.20501193584E+03  0.00000000000E+00 0.  1.
          3    1    6    6  503    0  0.14882924354E+03  0.40054028420E+02  0.47581829393E+02  0.16130250901E+03  0.00000000000E+00 0. -1.
         -3    1    6    6    0  503  0.98610641424E+03  0.33234778510E+02  0.24632486477E+03  0.10169495315E+04  0.00000000000E+00 0.  1.
<mgrwt>
<rscale>  0 0.25758136E+04</rscale>
<asrwt>0</asrwt>
<pdfrwt beam="1">  1        1 0.24758216E+00 0.25758136E+04</pdfrwt>
<pdfrwt beam="2">  1       -1 0.15857066E+00 0.25758136E+04</pdfrwt>
<totfact> 0.14542552E+00</totfact>
</mgrwt>
</event>
<event>
12    2  0.3623523E-008  0.1734867E+04  0.7818608E-02  0.8741725E-01
          2   -1    0    0  501    0  0.00000000000E+00  0.00000000000E+00  0.10705366742E+04  0.10705366742E+04  0.00000000000E+00 0. -1.
         -2   -1    0    0    0  501 -0.00000000000E+00 -0.00000000000E+00 -0.70286318474E+03  0.70286318474E+03  0.00000000000E+00 0.  1.
         23    2    1    2    0    0  0.97450064982E+01 -0.40493927188E+03 -0.35673982580E+03  0.54733611724E+03  0.90789552641E+02 0.  0.
        254    2    1    2    0    0 -0.97450064982E+01  0.40493927188E+03  0.72441331528E+03  0.12260637417E+04  0.90243385814E+03 0.  0.
         23    2    4    4    0    0 -0.26570148131E+03  0.54008420976E+03  0.24081114235E+03  0.65517090886E+03  0.94713688214E+02 0.  0.
         23    2    4    4    0    0  0.25595647481E+03 -0.13514493788E+03  0.48360217294E+03  0.57089283286E+03  0.90937856294E+02 0.  0.
          4    1    3    3  502    0  0.16638089917E+02 -0.23882593122E+03 -0.15194658175E+03  0.28355319636E+03  0.00000000000E+00 0. -1.
         -4    1    3    3    0  502 -0.68930834183E+01 -0.16611334066E+03 -0.20479324405E+03  0.26378292089E+03  0.00000000000E+00 0.  1.
         11    1    5    5    0    0 -0.39903683621E+02  0.17112850131E+03  0.52509420042E+02  0.18339712953E+03  0.00000000000E+00 0.  1.
        -11    1    5    5    0    0 -0.22579779769E+03  0.36895570845E+03  0.18830172231E+03  0.47177377933E+03  0.00000000000E+00 0. -1.
          4    1    6    6  503    0  0.97696152012E+02 -0.68430641834E+02  0.28114324008E+03  0.30539943075E+03  0.00000000000E+00 0.  1.
         -4    1    6    6    0  503  0.15826032280E+03 -0.66714296045E+02  0.20245893285E+03  0.26549340210E+03  0.00000000000E+00 0. -1.
<mgrwt>
<rscale>  0 0.17348669E+04</rscale>
<asrwt>0</asrwt>
<pdfrwt beam="1">  1        2 0.16469795E+00 0.17348669E+04</pdfrwt>
<pdfrwt beam="2">  1       -2 0.10813280E+00 0.17348669E+04</pdfrwt>
<totfact> 0.14769721E+01</totfact>
</mgrwt>
</event>
<event>
12    2  0.3623523E-008  0.2022057E+04  0.7818608E-02  0.8596377E-01
         -1   -1    0    0    0  501 -0.00000000000E+00  0.00000000000E+00  0.56885510179E+03  0.56885510179E+03  0.00000000000E+00 0.  1.
          1   -1    0    0  501    0  0.00000000000E+00 -0.00000000000E+00 -0.17969051129E+04  0.17969051129E+04  0.00000000000E+00 0. -1.
         23    2    1    2    0    0 -0.31233670954E+03 -0.44931117159E+03  0.19971010314E+03  0.58955883106E+03  0.90888618345E+02 0.  0.
        254    2    1    2    0    0  0.31233670954E+03  0.44931117159E+03 -0.14277601143E+04  0.17762013836E+04  0.90385710281E+03 0.  0.
         23    2    4    4    0    0  0.32334510514E+03  0.60292429531E+03 -0.14403277684E+04  0.15973671002E+04  0.94698519022E+02 0.  0.
         23    2    4    4    0    0 -0.11008395597E+02 -0.15361312372E+03  0.12567654131E+02  0.17883428344E+03  0.90030986050E+02 0.  0.
          3    1    3    3  502    0 -0.78895672677E+02 -0.15139991102E+03  0.10122578659E+03  0.19847700143E+03  0.00000000000E+00 0. -1.
         -3    1    3    3    0  502 -0.23344103686E+03 -0.29791126057E+03  0.98484316556E+02  0.39108182964E+03  0.00000000000E+00 0.  1.
         11    1    5    5    0    0  0.32825475082E+03  0.57374758793E+03 -0.13735520034E+04  0.15243302077E+04  0.00000000000E+00 0.  1.
        -11    1    5    5    0    0 -0.49096456811E+01  0.29176707382E+02 -0.66775765000E+02  0.73036892498E+02  0.00000000000E+00 0. -1.
          3    1    6    6  503    0  0.53955593505E+01  0.10017499093E+02  0.87254113385E+01  0.14338589603E+02  0.00000000000E+00 0. -1.
         -3    1    6    6    0  503 -0.16403954948E+02 -0.16363062281E+03  0.38422427928E+01  0.16449569383E+03  0.00000000000E+00 0.  1.
<mgrwt>
<rscale>  0 0.20220570E+04</rscale>
<asrwt>0</asrwt>
<pdfrwt beam="1">  1        1 0.27644694E+00 0.20220570E+04</pdfrwt>
<pdfrwt beam="2">  1       -1 0.87516169E-01 0.20220570E+04</pdfrwt>
<totfact> 0.48689228E+00</totfact>
</mgrwt>
</event>
<event>
12    2  0.3623523E-008  0.1529378E+04  0.7818608E-02  0.8865149E-01
         -2   -1    0    0    0  501 -0.00000000000E+00  0.00000000000E+00  0.60426954864E+03  0.60426954864E+03  0.00000000000E+00 0. -1.
          2   -1    0    0  501    0  0.00000000000E+00 -0.00000000000E+00 -0.96769573468E+03  0.96769573468E+03  0.00000000000E+00 0.  1.
         23    2    1    2    0    0  0.20655778084E+03 -0.19601681012E+03  0.30456173464E+03  0.42852992393E+03  0.98951194143E+02 0.  0.
        254    2    1    2    0    0 -0.20655778084E+03  0.19601681012E+03 -0.66798792067E+03  0.11434353594E+04  0.88325978754E+03 0.  0.
         23    2    4    4    0    0  0.72411302681E+02  0.49104668667E+03 -0.29933314306E+03  0.58675154686E+03  0.91141658746E+02 0.  0.
         23    2    4    4    0    0 -0.27896908352E+03 -0.29502987655E+03 -0.36865477761E+03  0.55668381254E+03  0.95520387674E+02 0.  0.
          4    1    3    3  502    0  0.21244363270E+03 -0.19313542197E+03  0.30805190653E+03  0.42110517144E+03  0.00000000000E+00 0. -1.
         -4    1    3    3    0  502 -0.58858518544E+01 -0.28813881492E+01 -0.34901718953E+01  0.74247524926E+01  0.00000000000E+00 0.  1.
         11    1    5    5    0    0  0.46854687704E+02  0.46711781543E+03 -0.27444537596E+03  0.54379654251E+03  0.00000000000E+00 0. -1.
        -11    1    5    5    0    0  0.25556614977E+02  0.23928871241E+02 -0.24887767092E+02  0.42955004351E+02  0.00000000000E+00 0.  1.
          1    1    6    6  503    0 -0.23354243187E+03 -0.19091082057E+03 -0.24348568938E+03  0.38765227953E+03  0.00000000000E+00 0. -1.
         -1    1    6    6    0  503 -0.45426651648E+02 -0.10411905598E+03 -0.12516908824E+03  0.16903153300E+03  0.00000000000E+00 0.  1.
<mgrwt>
<rscale>  0 0.15293777E+04</rscale>
<asrwt>0</asrwt>
<pdfrwt beam="1">  1        2 0.14887627E+00 0.15293777E+04</pdfrwt>
<pdfrwt beam="2">  1       -2 0.92964547E-01 0.15293777E+04</pdfrwt>
<totfact> 0.24987785E+01</totfact>
</mgrwt>
</event>
<event>
12    2  0.3623523E-008  0.1336458E+04  0.7818608E-02  0.9001143E-01
          1   -1    0    0  501    0  0.00000000000E+00  0.00000000000E+00  0.19282155944E+04  0.19282155944E+04  0.00000000000E+00 0. -1.
         -1   -1    0    0    0  501 -0.00000000000E+00 -0.00000000000E+00 -0.23157663602E+03  0.23157663602E+03  0.00000000000E+00 0.  1.
         23    2    1    2    0    0 -0.15573258058E+03  0.29161419187E+03  0.69146159047E+03  0.77144312728E+03  0.87828776437E+02 0.  0.
        254    2    1    2    0    0  0.15573258058E+03 -0.29161419187E+03  0.10051773679E+04  0.13883491031E+04  0.89879932002E+03 0.  0.
         23    2    4    4    0    0 -0.17136306890E+03 -0.15151045210E+03  0.99084180724E+03  0.10209132188E+04  0.90418995853E+02 0.  0.
         23    2    4    4    0    0  0.32709564948E+03 -0.14010373978E+03  0.14335560672E+02  0.36743588437E+03  0.90459930422E+02 0.  0.
          3    1    3    3  502    0 -0.12248051301E+03  0.13743818279E+03  0.38692179874E+03  0.42848478211E+03  0.00000000000E+00 0. -1.
         -3    1    3    3    0  502 -0.33252067563E+02  0.15417600908E+03  0.30453979173E+03  0.34295834517E+03  0.00000000000E+00 0.  1.
         11    1    5    5    0    0 -0.54968628885E+02 -0.12742549067E+01  0.26141062501E+03  0.26713047140E+03  0.00000000000E+00 0.  1.
        -11    1    5    5    0    0 -0.11639444002E+03 -0.15023619719E+03  0.72943118223E+03  0.75378274736E+03  0.00000000000E+00 0. -1.
          1    1    6    6  503    0  0.26034022087E+03 -0.75352031884E+02  0.31549267982E+02  0.27285585136E+03  0.00000000000E+00 0. -1.
         -1    1    6    6    0  503  0.66755428612E+02 -0.64751707893E+02 -0.17213707310E+02  0.94580033007E+02  0.00000000000E+00 0.  1.
<mgrwt>
<rscale>  0 0.13364575E+04</rscale>
<asrwt>0</asrwt>
<pdfrwt beam="1">  1        1 0.29664854E+00 0.13364575E+04</pdfrwt>
<pdfrwt beam="2">  1       -1 0.35627176E-01 0.13364575E+04</pdfrwt>
<totfact> 0.24572424E+01</totfact>
</mgrwt>
</event>
<event>
12    2  0.3623523E-008  0.2770020E+04  0.7818608E-02  0.8312637E-01
         -2   -1    0    0    0  501 -0.00000000000E+00  0.00000000000E+00  0.61381105346E+03  0.61381105346E+03  0.00000000000E+00 0.  1.
          2   -1    0    0  501    0  0.00000000000E+00 -0.00000000000E+00 -0.31251506966E+04  0.31251506966E+04  0.00000000000E+00 0. -1.
         23    2    1    2    0    0 -0.12293045554E+04  0.61215730361E+02 -0.98344813219E+03  0.15780629142E+04  0.90417238355E+02 0.  0.
        254    2    1    2    0    0  0.12293045554E+04 -0.61215730361E+02 -0.15278915110E+04  0.21608988359E+04  0.90559055544E+03 0.  0.
         23    2    4    4    0    0  0.10132082765E+04 -0.40962290680E+03 -0.99053224872E+03  0.14776956961E+04  0.89713417670E+02 0.  0.
         23    2    4    4    0    0  0.21609627890E+03  0.34840717644E+03 -0.53735926227E+03  0.68320313976E+03  0.99631275627E+02 0.  0.
          2    1    3    3  502    0 -0.10998206669E+04  0.62986782130E+02 -0.84408547711E+03  0.13878231612E+04  0.00000000000E+00 0.  1.
         -2    1    3    3    0  502 -0.12948388848E+03 -0.17710517697E+01 -0.13936265509E+03  0.19023975303E+03  0.00000000000E+00 0. -1.
         11    1    5    5    0    0  0.14764939279E+03 -0.74648674891E+02 -0.11256143963E+03  0.20010708520E+03  0.00000000000E+00 0. -1.
        -11    1    5    5    0    0  0.86555888368E+03 -0.33497423191E+03 -0.87797080909E+03  0.12775886109E+04  0.00000000000E+00 0.  1.
          1    1    6    6  503    0  0.35806849338E+02  0.28546062984E+02 -0.11370529860E+03  0.12258019049E+03  0.00000000000E+00 0. -1.
         -1    1    6    6    0  503  0.18028942956E+03  0.31986111346E+03 -0.42365396366E+03  0.56062294926E+03  0.00000000000E+00 0.  1.
<mgrwt>
<rscale>  0 0.27700195E+04</rscale>
<asrwt>0</asrwt>
<pdfrwt beam="1">  1        2 0.48079242E+00 0.27700195E+04</pdfrwt>
<pdfrwt beam="2">  1       -2 0.94432469E-01 0.27700195E+04</pdfrwt>
<totfact> 0.11950236E+00</totfact>
</mgrwt>
</event>
<event>
12    2  0.3623523E-008  0.1302831E+04  0.7818608E-02  0.9027323E-01
         -2   -1    0    0    0  501 -0.00000000000E+00  0.00000000000E+00  0.43435898577E+03  0.43435898577E+03  0.00000000000E+00 0. -1.
          2   -1    0    0  501    0  0.00000000000E+00 -0.00000000000E+00 -0.97693910814E+03  0.97693910814E+03  0.00000000000E+00 0.  1.
         23    2    1    2    0    0 -0.11593092988E+03 -0.20387630686E+02  0.19096084107E+03  0.24246471303E+03  0.92018792947E+02 0.  0.
        254    2    1    2    0    0  0.11593092988E+03  0.20387630686E+02 -0.73354096344E+03  0.11688333809E+04  0.90234887445E+03 0.  0.
         23    2    4    4    0    0  0.19224091472E+03 -0.40628075821E+03 -0.29233139870E+03  0.54381062852E+03  0.90839029273E+02 0.  0.
         23    2    4    4    0    0 -0.76309984836E+02  0.42666838890E+03 -0.44120956474E+03  0.62502275236E+03  0.90102347805E+02 0.  0.
          3    1    3    3  502    0 -0.12040166531E+03  0.39063929664E+01  0.17695770776E+03  0.21406973455E+03  0.00000000000E+00 0. -1.
         -3    1    3    3    0  502  0.44707354262E+01 -0.24294023653E+02  0.14003133312E+02  0.28394978483E+02  0.00000000000E+00 0.  1.
         11    1    5    5    0    0  0.10416167557E+03 -0.27572441009E+03 -0.23224437466E+03  0.37524799072E+03  0.00000000000E+00 0. -1.
        -11    1    5    5    0    0  0.88079239150E+02 -0.13055634812E+03 -0.60087024036E+02  0.16856263780E+03  0.00000000000E+00 0.  1.
          1    1    6    6  503    0 -0.88801652897E+02  0.38027461116E+03 -0.36259080003E+03  0.53288516748E+03  0.00000000000E+00 0. -1.
         -1    1    6    6    0  503  0.12491668062E+02  0.46393777738E+02 -0.78618764710E+02  0.92137584884E+02  0.00000000000E+00 0.  1.
<mgrwt>
<rscale>  0 0.13028312E+04</rscale>
<asrwt>0</asrwt>
<pdfrwt beam="1">  1        2 0.15029832E+00 0.13028312E+04</pdfrwt>
<pdfrwt beam="2">  1       -2 0.66824460E-01 0.13028312E+04</pdfrwt>
<totfact> 0.52550438E+01</totfact>
</mgrwt>
</event>
<event>
12    2  0.3623523E-008  0.1481446E+04  0.7818608E-02  0.8896886E-01
          1   -1    0    0  501    0  0.00000000000E+00  0.00000000000E+00  0.13753606702E+04  0.13753606702E+04  0.00000000000E+00 0. -1.
         -1   -1    0    0    0  501 -0.00000000000E+00 -0.00000000000E+00 -0.39892835622E+03  0.39892835622E+03  0.00000000000E+00 0.  1.
         23    2    1    2    0    0  0.23350155401E+03 -0.15940446877E+03 -0.12790895920E+03  0.32732622310E+03  0.10415850468E+03 0.  0.
        254    2    1    2    0    0 -0.23350155401E+03  0.15940446877E+03  0.11043412732E+04  0.14469628033E+04  0.89117840310E+03 0.  0.
         23    2    4    4    0    0  0.26278971259E+03 -0.51870300288E+02  0.73465507832E+03  0.78722875742E+03  0.90895936745E+02 0.  0.
         23    2    4    4    0    0 -0.49629126661E+03  0.21127476906E+03  0.36968619489E+03  0.65973404592E+03  0.87401826636E+02 0.  0.
          4    1    3    3  502    0  0.12380526576E+03 -0.30165180262E+02 -0.27693094686E+02  0.13040164655E+03  0.00000000000E+00 0. -1.
         -4    1    3    3    0  502  0.10969628826E+03 -0.12923928851E+03 -0.10021586451E+03  0.19692457656E+03  0.00000000000E+00 0.  1.
         11    1    5    5    0    0  0.21125788298E+02 -0.14898587560E+02  0.16952975484E+03  0.17148937174E+03  0.00000000000E+00 0.  1.
        -11    1    5    5    0    0  0.24166392430E+03 -0.36971712729E+02  0.56512532347E+03  0.61573938568E+03  0.00000000000E+00 0. -1.
          3    1    6    6  503    0 -0.21980491143E+03  0.12252867906E+03  0.21350107193E+03  0.33001542994E+03  0.00000000000E+00 0.  1.
         -3    1    6    6    0  503 -0.27648635518E+03  0.88746089997E+02  0.15618512295E+03  0.32971861598E+03  0.00000000000E+00 0. -1.
<mgrwt>
<rscale>  0 0.14814457E+04</rscale>
<asrwt>0</asrwt>
<pdfrwt beam="1">  1        1 0.21159395E+00 0.14814457E+04</pdfrwt>
<pdfrwt beam="2">  1       -1 0.61373594E-01 0.14814457E+04</pdfrwt>
<totfact> 0.20857699E+01</totfact>
</mgrwt>
</event>
<event>
12    2  0.3623523E-008  0.1748105E+04  0.7818608E-02  0.8734394E-01
          1   -1    0    0  501    0  0.00000000000E+00  0.00000000000E+00  0.25574008918E+04  0.25574008918E+04  0.00000000000E+00 0. -1.
         -1   -1    0    0    0  501 -0.00000000000E+00 -0.00000000000E+00 -0.29872804715E+03  0.29872804715E+03  0.00000000000E+00 0.  1.
         23    2    1    2    0    0 -0.41689295158E+01 -0.64170392269E+03  0.95858818775E+03  0.11571498329E+04  0.91121444540E+02 0.  0.
        254    2    1    2    0    0  0.41689295158E+01  0.64170392269E+03  0.13000846569E+04  0.16989791061E+04  0.88572489151E+03 0.  0.
         23    2    4    4    0    0  0.34668309294E+03  0.49742611532E+03  0.11123379680E+04  0.12706583297E+04  0.98259496806E+02 0.  0.
         23    2    4    4    0    0 -0.34251416343E+03  0.14427780737E+03  0.18774668893E+03  0.42832077638E+03  0.10038839788E+03 0.  0.
          2    1    3    3  502    0 -0.25928970346E+02 -0.47786659198E+03  0.65111963187E+03  0.80807522314E+03  0.00000000000E+00 0. -1.
         -2    1    3    3    0  502  0.21760040830E+02 -0.16383733071E+03  0.30746855587E+03  0.34907460974E+03  0.00000000000E+00 0.  1.
         11    1    5    5    0    0  0.23015492192E+03  0.40153904282E+03  0.81633251377E+03  0.93840485081E+03  0.00000000000E+00 0.  1.
        -11    1    5    5    0    0  0.11652817103E+03  0.95887072498E+02  0.29600545425E+03  0.33225347893E+03  0.00000000000E+00 0. -1.
          2    1    6    6  503    0 -0.27310224539E+03  0.68408496805E+02  0.12670687509E+03  0.30873806222E+03  0.00000000000E+00 0. -1.
         -2    1    6    6    0  503 -0.69411918035E+02  0.75869310566E+02  0.61039813843E+02  0.11958271416E+03  0.00000000000E+00 0.  1.
<mgrwt>
<rscale>  0 0.17481045E+04</rscale>
<asrwt>0</asrwt>
<pdfrwt beam="1">  1        1 0.39344628E+00 0.17481045E+04</pdfrwt>
<pdfrwt beam="2">  1       -1 0.45958163E-01 0.17481045E+04</pdfrwt>
<totfact> 0.55219893E+00</totfact>
</mgrwt>
</event>
<event>
12    2  0.3623523E-008  0.1045192E+04  0.7818608E-02  0.9260322E-01
          2   -1    0    0  501    0  0.00000000000E+00  0.00000000000E+00  0.48275018149E+03  0.48275018149E+03  0.00000000000E+00 0. -1.
         -2   -1    0    0    0  501 -0.00000000000E+00 -0.00000000000E+00 -0.56573044816E+03  0.56573044816E+03  0.00000000000E+00 0.  1.
         23    2    1    2    0    0 -0.66073215757E+02 -0.70689664162E+02 -0.11181182419E+01  0.13127427648E+03  0.88707310963E+02 0.  0.
        254    2    1    2    0    0  0.66073215757E+02  0.70689664162E+02 -0.81862148424E+02  0.91720635317E+03  0.90840705881E+03 0.  0.
         23    2    4    4    0    0  0.79366909989E+02 -0.40433001373E+03 -0.97480916867E+02  0.43299650723E+03  0.90562573462E+02 0.  0.
         23    2    4    4    0    0 -0.13293694232E+02  0.47501967790E+03  0.15618768443E+02  0.48420984594E+03  0.91623208201E+02 0.  0.
          2    1    3    3  502    0 -0.85953092117E+02 -0.41550381482E+02 -0.60287745578E+01  0.95659366339E+02  0.00000000000E+00 0. -1.
         -2    1    3    3    0  502  0.19879876360E+02 -0.29139282681E+02  0.49106563159E+01  0.35614910146E+02  0.00000000000E+00 0.  1.
         11    1    5    5    0    0  0.33683843214E+02 -0.32596074260E+03 -0.98826977661E+02  0.34227441991E+03  0.00000000000E+00 0. -1.
        -11    1    5    5    0    0  0.45683066775E+02 -0.78369271130E+02  0.13460607945E+01  0.90722087316E+02  0.00000000000E+00 0.  1.
          4    1    6    6  503    0 -0.34362761862E+02  0.44025153634E+03  0.28560146702E+01  0.44159978654E+03  0.00000000000E+00 0. -1.
         -4    1    6    6    0  503  0.21069067630E+02  0.34768141556E+02  0.12762753772E+02  0.42610059398E+02  0.00000000000E+00 0.  1.
<mgrwt>
<rscale>  0 0.10451918E+04</rscale>
<asrwt>0</asrwt>
<pdfrwt beam="1">  1        2 0.74269259E-01 0.10451918E+04</pdfrwt>
<pdfrwt beam="2">  1       -2 0.87035454E-01 0.10451918E+04</pdfrwt>
<totfact> 0.72965213E+01</totfact>
</mgrwt>
</event>
<event>
12    2  0.3623523E-008  0.2087785E+04  0.7818608E-02  0.8566643E-01
          2   -1    0    0  501    0  0.00000000000E+00  0.00000000000E+00  0.17159474064E+04  0.17159474064E+04  0.00000000000E+00 0. -1.
         -2   -1    0    0    0  501 -0.00000000000E+00 -0.00000000000E+00 -0.63504969376E+03  0.63504969376E+03  0.00000000000E+00 0.  1.
         23    2    1    2    0    0 -0.82517143332E+02  0.31446147114E+03 -0.43369677545E+03  0.55031677026E+03  0.95186967704E+02 0.  0.
        254    2    1    2    0    0  0.82517143332E+02 -0.31446147114E+03  0.15145944881E+04  0.18006803299E+04  0.91801856812E+03 0.  0.
         23    2    4    4    0    0 -0.40939919397E+03 -0.11891210107E+03  0.68024985997E+03  0.80837855897E+03  0.94806301521E+02 0.  0.
         23    2    4    4    0    0  0.49191633730E+03 -0.19554937007E+03  0.83434462815E+03  0.99230177097E+03  0.91162531288E+02 0.  0.
          3    1    3    3  502    0 -0.58917431393E+02  0.25973004655E+03 -0.28475920652E+03  0.38989584058E+03  0.00000000000E+00 0. -1.
         -3    1    3    3    0  502 -0.23599711938E+02  0.54731424586E+02 -0.14893756893E+03  0.16042092968E+03  0.00000000000E+00 0.  1.
         11    1    5    5    0    0 -0.29664174974E+03 -0.12909646430E+03  0.50297635818E+03  0.59803632136E+03  0.00000000000E+00 0. -1.
        -11    1    5    5    0    0 -0.11275744423E+03  0.10184363230E+02  0.17727350179E+03  0.21034223760E+03  0.00000000000E+00 0.  1.
          3    1    6    6  503    0  0.21391852128E+03 -0.42230413830E+02  0.30222254264E+03  0.37267010462E+03  0.00000000000E+00 0. -1.
         -3    1    6    6    0  503  0.27799781602E+03 -0.15331895624E+03  0.53212208552E+03  0.61963166635E+03  0.00000000000E+00 0.  1.
<mgrwt>
<rscale>  0 0.20877853E+04</rscale>
<asrwt>0</asrwt>
<pdfrwt beam="1">  1        2 0.26399191E+00 0.20877853E+04</pdfrwt>
<pdfrwt beam="2">  1       -2 0.97699954E-01 0.20877853E+04</pdfrwt>
<totfact> 0.77352424E+00</totfact>
</mgrwt>
</event>
<event>
12    2  0.3623523E-008  0.1757844E+04  0.7818608E-02  0.8729044E-01
         -2   -1    0    0    0  501 -0.00000000000E+00  0.00000000000E+00  0.70673169759E+03  0.70673169759E+03  0.00000000000E+00 0.  1.
          2   -1    0    0  501    0  0.00000000000E+00 -0.00000000000E+00 -0.10930658239E+04  0.10930658239E+04  0.00000000000E+00 0. -1.
         23    2    1    2    0    0  0.17266620215E+03  0.61289809366E+03 -0.91479563950E+01  0.64292422849E+03  0.88375267447E+02 0.  0.
        254    2    1    2    0    0 -0.17266620215E+03 -0.61289809366E+03 -0.37718616993E+03  0.11568732930E+04  0.88917305330E+03 0.  0.
         23    2    4    4    0    0 -0.29264562343E+03  0.40688580979E+02  0.10955099229E+03  0.32821913381E+03  0.91811537117E+02 0.  0.
         23    2    4    4    0    0  0.11997942129E+03 -0.65358667464E+03 -0.48673716222E+03  0.82865415920E+03  0.90465726494E+02 0.  0.
          1    1    3    3  502    0  0.12719006470E+03  0.40925484644E+03 -0.46037109026E+02  0.43102929982E+03  0.00000000000E+00 0. -1.
         -1    1    3    3    0  502  0.45476137448E+02  0.20364324722E+03  0.36889152631E+02  0.21189492867E+03  0.00000000000E+00 0.  1.
         11    1    5    5    0    0 -0.15960895436E+03  0.67841482128E+02  0.55746865619E+02  0.18216804888E+03  0.00000000000E+00 0.  1.
        -11    1    5    5    0    0 -0.13303666908E+03 -0.27152901149E+02  0.53804126671E+02  0.14605108492E+03  0.00000000000E+00 0. -1.
          2    1    6    6  503    0  0.11017197800E+03 -0.39777693959E+03 -0.33029767257E+03  0.52864062549E+03  0.00000000000E+00 0. -1.
         -2    1    6    6    0  503  0.98074432908E+01 -0.25580973505E+03 -0.15643948965E+03  0.30001353371E+03  0.00000000000E+00 0.  1.
<mgrwt>
<rscale>  0 0.17578444E+04</rscale>
<asrwt>0</asrwt>
<pdfrwt beam="1">  1        2 0.16816397E+00 0.17578444E+04</pdfrwt>
<pdfrwt beam="2">  1       -2 0.10872795E+00 0.17578444E+04</pdfrwt>
<totfact> 0.14086620E+01</totfact>
</mgrwt>
</event>
<event>
12    2  0.3623523E-008  0.1920061E+04  0.7818608E-02  0.8644935E-01
         -2   -1    0    0    0  501 -0.00000000000E+00  0.00000000000E+00  0.12682449849E+04  0.12682449849E+04  0.00000000000E+00 0.  1.
          2   -1    0    0  501    0  0.00000000000E+00 -0.00000000000E+00 -0.72671985146E+03  0.72671985146E+03  0.00000000000E+00 0. -1.
         23    2    1    2    0    0 -0.11892779265E+02 -0.37937371927E+03  0.87834608825E+03  0.96135173481E+03  0.92948642807E+02 0.  0.
        254    2    1    2    0    0  0.11892779265E+02  0.37937371927E+03 -0.33682095478E+03  0.10336131016E+04  0.90046756250E+03 0.  0.
         23    2    4    4    0    0  0.77327295585E+02  0.32293869586E+03 -0.62795373173E+03  0.71697971918E+03  0.97288830743E+02 0.  0.
         23    2    4    4    0    0 -0.65434516319E+02  0.56435023410E+02  0.29113277696E+03  0.31663338241E+03  0.89620406407E+02 0.  0.
          1    1    3    3  502    0 -0.15247862654E+01 -0.21851362115E+02  0.14187171638E+02  0.26097563843E+02  0.00000000000E+00 0. -1.
         -1    1    3    3    0  502 -0.10367993000E+02 -0.35752235715E+03  0.86415891661E+03  0.93525417096E+03  0.00000000000E+00 0.  1.
         11    1    5    5    0    0  0.42074197876E+02  0.29536988421E+03 -0.57377170846E+03  0.64670517243E+03  0.00000000000E+00 0.  1.
        -11    1    5    5    0    0  0.35253097708E+02  0.27568811643E+02 -0.54182023278E+02  0.70274546743E+02  0.00000000000E+00 0. -1.
          1    1    6    6  503    0  0.25787913357E+00  0.38870802757E+02  0.19527246267E+03  0.19910384347E+03  0.00000000000E+00 0.  1.
         -1    1    6    6    0  503 -0.65692395453E+02  0.17564220654E+02  0.95860314286E+02  0.11752953894E+03  0.00000000000E+00 0. -1.
<mgrwt>
<rscale>  0 0.19200613E+04</rscale>
<asrwt>0</asrwt>
<pdfrwt beam="1">  1        2 0.11180305E+00 0.19200613E+04</pdfrwt>
<pdfrwt beam="2">  1       -2 0.19511461E+00 0.19200613E+04</pdfrwt>
<totfact> 0.52291297E+00</totfact>
</mgrwt>
</event>
<event>
12    2  0.3623523E-008  0.1880177E+04  0.7818608E-02  0.8664787E-01
         -1   -1    0    0    0  501 -0.00000000000E+00  0.00000000000E+00  0.42653362275E+03  0.42653362275E+03  0.00000000000E+00 0.  1.
          1   -1    0    0  501    0  0.00000000000E+00 -0.00000000000E+00 -0.20719738091E+04  0.20719738091E+04  0.00000000000E+00 0. -1.
         23    2    1    2    0    0  0.28107856731E+03 -0.26478590905E+03 -0.14617448652E+04  0.15146024477E+04  0.90585789082E+02 0.  0.
        254    2    1    2    0    0 -0.28107856731E+03  0.26478590905E+03 -0.18369532113E+03  0.98390498408E+03  0.88611980458E+03 0.  0.
         23    2    4    4    0    0 -0.25436970438E+03  0.40451924823E+03 -0.45380222403E+03  0.66531421823E+03  0.91470113959E+02 0.  0.
         23    2    4    4    0    0 -0.26708862926E+02 -0.13973333918E+03  0.27010690289E+03  0.31859076586E+03  0.91123913772E+02 0.  0.
          1    1    3    3  502    0  0.28086299452E+03 -0.25749286803E+03 -0.14567557019E+04  0.15057635186E+04  0.00000000000E+00 0. -1.
         -1    1    3    3    0  502  0.21557278907E+00 -0.72930410177E+01 -0.49891632729E+01  0.88389291815E+01  0.00000000000E+00 0.  1.
         11    1    5    5    0    0 -0.15827060663E+03  0.32366362893E+03 -0.35123841609E+03  0.50316613017E+03  0.00000000000E+00 0.  1.
        -11    1    5    5    0    0 -0.96099097755E+02  0.80855619302E+02 -0.10256380793E+03  0.16214808805E+03  0.00000000000E+00 0. -1.
          1    1    6    6  503    0 -0.58712597739E+02 -0.68000101088E+02  0.13116191241E+03  0.15897996776E+03  0.00000000000E+00 0. -1.
         -1    1    6    6    0  503  0.32003734813E+02 -0.71733238090E+02  0.13894499049E+03  0.15961079810E+03  0.00000000000E+00 0.  1.
<mgrwt>
<rscale>  0 0.18801771E+04</rscale>
<asrwt>0</asrwt>
<pdfrwt beam="1">  1        1 0.31876520E+00 0.18801771E+04</pdfrwt>
<pdfrwt beam="2">  1       -1 0.65620557E-01 0.18801771E+04</pdfrwt>
<totfact> 0.58749803E+00</totfact>
</mgrwt>
</event>
<event>
12    2  0.3623523E-008  0.1719351E+04  0.7818608E-02  0.8750404E-01
          1   -1    0    0  501    0  0.00000000000E+00  0.00000000000E+00  0.89165766790E+03  0.89165766790E+03  0.00000000000E+00 0. -1.
         -1   -1    0    0    0  501 -0.00000000000E+00 -0.00000000000E+00 -0.82884093402E+03  0.82884093402E+03  0.00000000000E+00 0.  1.
         23    2    1    2    0    0 -0.30246082965E+03 -0.86509300704E+02 -0.50661308764E+03  0.60352401337E+03  0.92833192149E+02 0.  0.
        254    2    1    2    0    0  0.30246082965E+03  0.86509300704E+02  0.56942982153E+03  0.11169745885E+04  0.90797329104E+03 0.  0.
         23    2    4    4    0    0  0.16605495758E+03 -0.88012846216E+02  0.77398095373E+03  0.80123511499E+03  0.87239226942E+02 0.  0.
         23    2    4    4    0    0  0.13640587207E+03  0.17452214692E+03 -0.20455113221E+03  0.31573947356E+03  0.93732106428E+02 0.  0.
          1    1    3    3  502    0 -0.37857569555E+02 -0.45959897011E+02 -0.77022906357E+02  0.97355204327E+02  0.00000000000E+00 0. -1.
         -1    1    3    3    0  502 -0.26460326010E+03 -0.40549403693E+02 -0.42959018128E+03  0.50616880904E+03  0.00000000000E+00 0.  1.
         11    1    5    5    0    0  0.10559385733E+03 -0.88184736642E+02  0.41529077741E+03  0.43748490292E+03  0.00000000000E+00 0.  1.
        -11    1    5    5    0    0  0.60461100243E+02  0.17189042664E+00  0.35869017632E+03  0.36375021206E+03  0.00000000000E+00 0. -1.
          3    1    6    6  503    0  0.83392499352E+02  0.57259888820E+02 -0.13728967645E+03  0.17053286802E+03  0.00000000000E+00 0. -1.
         -3    1    6    6    0  503  0.53013372723E+02  0.11726225810E+03 -0.67261455758E+02  0.14520660554E+03  0.00000000000E+00 0.  1.
<mgrwt>
<rscale>  0 0.17193515E+04</rscale>
<asrwt>0</asrwt>
<pdfrwt beam="1">  1        1 0.13717810E+00 0.17193515E+04</pdfrwt>
<pdfrwt beam="2">  1       -1 0.12751399E+00 0.17193515E+04</pdfrwt>
<totfact> 0.93532537E+00</totfact>
</mgrwt>
</event>
<event>
12    2  0.3623523E-008  0.2191493E+04  0.7818608E-02  0.8521977E-01
         -1   -1    0    0    0  501 -0.00000000000E+00  0.00000000000E+00  0.10293924596E+04  0.10293924596E+04  0.00000000000E+00 0.  1.
          1   -1    0    0  501    0  0.00000000000E+00 -0.00000000000E+00 -0.11663772559E+04  0.11663772559E+04  0.00000000000E+00 0. -1.
         23    2    1    2    0    0  0.43697052880E+03 -0.54068875444E+03 -0.64588671630E+03  0.95332085771E+03  0.91451819220E+02 0.  0.
        254    2    1    2    0    0 -0.43697052880E+03  0.54068875444E+03  0.50890192005E+03  0.12424488578E+04  0.89521529685E+03 0.  0.
         23    2    4    4    0    0  0.42140559904E+01  0.76965896148E+02 -0.23088453368E+03  0.26026335023E+03  0.92129453171E+02 0.  0.
         23    2    4    4    0    0 -0.44118458479E+03  0.46372285829E+03  0.73978645373E+03  0.98218550754E+03  0.87872902178E+02 0.  0.
          4    1    3    3  502    0  0.42579153278E+03 -0.53938314215E+03 -0.64422480058E+03  0.94194383968E+03  0.00000000000E+00 0. -1.
         -4    1    3    3    0  502  0.11178996020E+02 -0.13056122891E+01 -0.16619157162E+01  0.11377018032E+02  0.00000000000E+00 0.  1.
         11    1    5    5    0    0 -0.37513559773E+02  0.43276093704E+02 -0.16864871375E+03  0.17810804615E+03  0.00000000000E+00 0. -1.
        -11    1    5    5    0    0  0.41727615763E+02  0.33689802444E+02 -0.62235819926E+02  0.82155304076E+02  0.00000000000E+00 0.  1.
          2    1    6    6  503    0 -0.31522219728E+03  0.27652305504E+03  0.45308836118E+03  0.61734844024E+03  0.00000000000E+00 0.  1.
         -2    1    6    6    0  503 -0.12596238750E+03  0.18719980324E+03  0.28669809255E+03  0.36483706730E+03  0.00000000000E+00 0. -1.
<mgrwt>
<rscale>  0 0.21914926E+04</rscale>
<asrwt>0</asrwt>
<pdfrwt beam="1">  1        1 0.17944266E+00 0.21914926E+04</pdfrwt>
<pdfrwt beam="2">  1       -1 0.15836807E+00 0.21914926E+04</pdfrwt>
<totfact> 0.31038548E+00</totfact>
</mgrwt>
</event>
<event>
12    2  0.3623523E-008  0.1324763E+04  0.7818608E-02  0.9010155E-01
         -1   -1    0    0    0  501 -0.00000000000E+00  0.00000000000E+00  0.17348335507E+03  0.17348335507E+03  0.00000000000E+00 0.  1.
          1   -1    0    0  501    0  0.00000000000E+00 -0.00000000000E+00 -0.25290567740E+04  0.25290567740E+04  0.00000000000E+00 0. -1.
         23    2    1    2    0    0  0.20645413276E+03  0.98167131710E+02 -0.87884852340E+03  0.91272242021E+03  0.91800841998E+02 0.  0.
        254    2    1    2    0    0 -0.20645413276E+03 -0.98167131710E+02 -0.14767248955E+04  0.17898177089E+04  0.98512482417E+03 0.  0.
         23    2    4    4    0    0 -0.44858734311E+03  0.29143859698E+03 -0.75719051330E+03  0.93166205567E+03  0.92139309342E+02 0.  0.
         23    2    4    4    0    0  0.24213321036E+03 -0.38960572869E+03 -0.71953438222E+03  0.85815565319E+03  0.90996057667E+02 0.  0.
          1    1    3    3  502    0  0.17041238827E+02  0.18408650968E+02 -0.24742840525E+03  0.24869679929E+03  0.00000000000E+00 0. -1.
         -1    1    3    3    0  502  0.18941289393E+03  0.79758480742E+02 -0.63142011815E+03  0.66402562092E+03  0.00000000000E+00 0.  1.
         11    1    5    5    0    0 -0.43726984186E+03  0.26588835390E+03 -0.69150548496E+03  0.86027981905E+03  0.00000000000E+00 0. -1.
        -11    1    5    5    0    0 -0.11317501258E+02  0.25550243087E+02 -0.65685028344E+02  0.71382236621E+02  0.00000000000E+00 0.  1.
          1    1    6    6  503    0  0.23020908198E+03 -0.39235410631E+03 -0.69345028877E+03  0.82934387872E+03  0.00000000000E+00 0. -1.
         -1    1    6    6    0  503  0.11924128376E+02  0.27483776206E+01 -0.26084093445E+02  0.28811774467E+02  0.00000000000E+00 0.  1.
<mgrwt>
<rscale>  0 0.13247630E+04</rscale>
<asrwt>0</asrwt>
<pdfrwt beam="1">  1        1 0.38908563E+00 0.13247630E+04</pdfrwt>
<pdfrwt beam="2">  1       -1 0.26689749E-01 0.13247630E+04</pdfrwt>
<totfact> 0.15942232E+01</totfact>
</mgrwt>
</event>
<event>
12    2  0.3623523E-008  0.1246992E+04  0.7818608E-02  0.9072691E-01
         -1   -1    0    0    0  501 -0.00000000000E+00  0.00000000000E+00  0.18128645515E+03  0.18128645515E+03  0.00000000000E+00 0.  1.
          1   -1    0    0  501    0  0.00000000000E+00 -0.00000000000E+00 -0.21443798675E+04  0.21443798675E+04  0.00000000000E+00 0. -1.
         23    2    1    2    0    0 -0.10567553704E+03 -0.26430524875E+03 -0.57648889678E+03  0.64936568488E+03  0.91168859532E+02 0.  0.
        254    2    1    2    0    0  0.10567553704E+03  0.26430524875E+03 -0.13866045156E+04  0.16763006378E+04  0.89793494304E+03 0.  0.
         23    2    4    4    0    0  0.19386369880E+03  0.55565581660E+03 -0.69833300152E+03  0.91778663398E+03  0.91251324747E+02 0.  0.
         23    2    4    4    0    0 -0.88188161758E+02 -0.29135056785E+03 -0.68827151410E+03  0.75851400382E+03  0.94675823852E+02 0.  0.
          1    1    3    3  502    0 -0.10815719365E+03 -0.25951960003E+03 -0.57882090902E+03  0.64349207148E+03  0.00000000000E+00 0. -1.
         -1    1    3    3    0  502  0.24816566107E+01 -0.47856487267E+01  0.23320122465E+01  0.58736134012E+01  0.00000000000E+00 0.  1.
         11    1    5    5    0    0  0.86410426289E+02  0.37750186991E+03 -0.46610437015E+03  0.60599315790E+03  0.00000000000E+00 0.  1.
        -11    1    5    5    0    0  0.10745327251E+03  0.17815394669E+03 -0.23222863137E+03  0.31179347607E+03  0.00000000000E+00 0. -1.
          1    1    6    6  503    0 -0.10273069290E+03 -0.24280784892E+03 -0.52373849703E+03  0.58635421038E+03  0.00000000000E+00 0. -1.
         -1    1    6    6    0  503  0.14542531146E+02 -0.48542718926E+02 -0.16453301707E+03  0.17215979344E+03  0.00000000000E+00 0.  1.
<mgrwt>
<rscale>  0 0.12469916E+04</rscale>
<asrwt>0</asrwt>
<pdfrwt beam="1">  1        1 0.32990459E+00 0.12469916E+04</pdfrwt>
<pdfrwt beam="2">  1       -1 0.27890224E-01 0.12469916E+04</pdfrwt>
<totfact> 0.27250110E+01</totfact>
</mgrwt>
</event>
<event>
12    2  0.3623523E-008  0.2184029E+04  0.7818608E-02  0.8525105E-01
          1   -1    0    0  501    0  0.00000000000E+00  0.00000000000E+00  0.14359177002E+04  0.14359177002E+04  0.00000000000E+00 0. -1.
         -1   -1    0    0    0  501 -0.00000000000E+00 -0.00000000000E+00 -0.83047596566E+03  0.83047596566E+03  0.00000000000E+00 0.  1.
         23    2    1    2    0    0 -0.83683969179E+03 -0.13720339476E+03 -0.88491163601E+02  0.85713375904E+03  0.87875784838E+02 0.  0.
        254    2    1    2    0    0  0.83683969179E+03  0.13720339476E+03  0.69393289811E+03  0.14092599068E+04  0.88619703029E+03 0.  0.
         23    2    4    4    0    0 -0.11329052736E+03 -0.15305115839E+03  0.22225147099E+03  0.30518457519E+03  0.86501490747E+02 0.  0.
         23    2    4    4    0    0  0.95013021915E+03  0.29025455316E+03  0.47168142712E+03  0.11040753316E+04  0.97487589888E+02 0.  0.
          4    1    3    3  502    0 -0.17489472101E+03 -0.13917023386E+02  0.14193896615E+02  0.17602077627E+03  0.00000000000E+00 0. -1.
         -4    1    3    3    0  502 -0.66194497078E+03 -0.12328637138E+03 -0.10268506022E+03  0.68111298277E+03  0.00000000000E+00 0.  1.
         11    1    5    5    0    0 -0.12127538211E+03 -0.10909610612E+03  0.18790448022E+03  0.24883282011E+03  0.00000000000E+00 0.  1.
        -11    1    5    5    0    0  0.79848547491E+01 -0.43955052273E+02  0.34346990761E+02  0.56351755075E+02  0.00000000000E+00 0. -1.
          3    1    6    6  503    0  0.44193920011E+03  0.18592773815E+03  0.22562292836E+03  0.52989157968E+03  0.00000000000E+00 0. -1.
         -3    1    6    6    0  503  0.50819101903E+03  0.10432681501E+03  0.24605849876E+03  0.57418375192E+03  0.00000000000E+00 0.  1.
<mgrwt>
<rscale>  0 0.21840285E+04</rscale>
<asrwt>0</asrwt>
<pdfrwt beam="1">  1        1 0.22091041E+00 0.21840285E+04</pdfrwt>
<pdfrwt beam="2">  1       -1 0.12776553E+00 0.21840285E+04</pdfrwt>
<totfact> 0.35069237E+00</totfact>
</mgrwt>
</event>
<event>
12    2  0.3623523E-008  0.2574378E+04  0.7818608E-02  0.8376957E-01
         -2   -1    0    0    0  501 -0.00000000000E+00  0.00000000000E+00  0.11292532982E+04  0.11292532982E+04  0.00000000000E+00 0.  1.
          2   -1    0    0  501    0  0.00000000000E+00 -0.00000000000E+00 -0.14672131442E+04  0.14672131442E+04  0.00000000000E+00 0. -1.
         23    2    1    2    0    0 -0.78237778497E+03  0.71296041334E+03 -0.54189453684E+03  0.11926707331E+04  0.91576411548E+02 0.  0.
        254    2    1    2    0    0  0.78237778497E+03 -0.71296041334E+03  0.20393469077E+03  0.14037957093E+04  0.89923605687E+03 0.  0.
         23    2    4    4    0    0  0.15121453649E+03 -0.62960648781E+03 -0.14855141006E+03  0.67031698378E+03  0.89370978346E+02 0.  0.
         23    2    4    4    0    0  0.63116324847E+03 -0.83353925527E+02  0.35248610083E+03  0.73347872553E+03  0.91813214772E+02 0.  0.
          4    1    3    3  502    0 -0.57584053298E+03  0.57670072873E+03 -0.41073348266E+03  0.91262152272E+03  0.00000000000E+00 0. -1.
         -4    1    3    3    0  502 -0.20653725198E+03  0.13625968460E+03 -0.13116105418E+03  0.28004921039E+03  0.00000000000E+00 0.  1.
         11    1    5    5    0    0  0.15620008510E+03 -0.58817491413E+03 -0.15524794636E+03  0.62805264194E+03  0.00000000000E+00 0. -1.
        -11    1    5    5    0    0 -0.49855486103E+01 -0.41431573680E+02  0.66965363014E+01  0.42264341838E+02  0.00000000000E+00 0.  1.
          3    1    6    6  503    0  0.56893865187E+03 -0.83161083799E+02  0.34564697503E+03  0.67087911489E+03  0.00000000000E+00 0. -1.
         -3    1    6    6    0  503  0.62224596606E+02 -0.19284172705E+00  0.68391257938E+01  0.62599610640E+02  0.00000000000E+00 0.  1.
<mgrwt>
<rscale>  0 0.25743778E+04</rscale>
<asrwt>0</asrwt>
<pdfrwt beam="1">  1        2 0.22572510E+00 0.25743778E+04</pdfrwt>
<pdfrwt beam="2">  1       -2 0.17373128E+00 0.25743778E+04</pdfrwt>
<totfact> 0.23556858E+00</totfact>
</mgrwt>
</event>
<event>
12    2  0.3623523E-008  0.1532460E+04  0.7818608E-02  0.8863150E-01
          1   -1    0    0  501    0  0.00000000000E+00  0.00000000000E+00  0.11683624932E+04  0.11683624932E+04  0.00000000000E+00 0. -1.
         -1   -1    0    0    0  501 -0.00000000000E+00 -0.00000000000E+00 -0.50250555334E+03  0.50250555334E+03  0.00000000000E+00 0.  1.
         23    2    1    2    0    0  0.39961830854E+03 -0.17057095422E+03  0.45818920104E+03  0.63816953916E+03  0.92378427236E+02 0.  0.
        254    2    1    2    0    0 -0.39961830854E+03  0.17057095422E+03  0.20766773877E+03  0.10326985073E+04  0.91353766993E+03 0.  0.
         23    2    4    4    0    0 -0.60282763656E+03  0.32327734867E+03 -0.34506429112E+01  0.69008963488E+03  0.91117471774E+02 0.  0.
         23    2    4    4    0    0  0.20320932802E+03 -0.15270639445E+03  0.21111838168E+03  0.34260887246E+03  0.90535045708E+02 0.  0.
          2    1    3    3  502    0  0.36851918015E+03 -0.16344724273E+03  0.45201627415E+03  0.60567326125E+03  0.00000000000E+00 0. -1.
         -2    1    3    3    0  502  0.31099128388E+02 -0.71237114883E+01  0.61729268962E+01  0.32496277915E+02  0.00000000000E+00 0.  1.
         11    1    5    5    0    0 -0.24591643080E+03  0.18307749430E+03  0.21304932428E+01  0.30658897381E+03  0.00000000000E+00 0.  1.
        -11    1    5    5    0    0 -0.35691120576E+03  0.14019985437E+03 -0.55811361540E+01  0.38350066107E+03  0.00000000000E+00 0. -1.
          1    1    6    6  503    0  0.68287354328E+02 -0.50616246835E+02  0.12913433277E+03  0.15459897511E+03  0.00000000000E+00 0. -1.
         -1    1    6    6    0  503  0.13492197369E+03 -0.10209014761E+03  0.81984048916E+02  0.18800989735E+03  0.00000000000E+00 0.  1.
<mgrwt>
<rscale>  0 0.15324603E+04</rscale>
<asrwt>0</asrwt>
<pdfrwt beam="1">  1        1 0.17974808E+00 0.15324603E+04</pdfrwt>
<pdfrwt beam="2">  1       -1 0.77308547E-01 0.15324603E+04</pdfrwt>
<totfact> 0.18247378E+01</totfact>
</mgrwt>
</event>
<event>
12    2  0.3623523E-008  0.2624666E+04  0.7818608E-02  0.8359871E-01
          2   -1    0    0  501    0  0.00000000000E+00  0.00000000000E+00  0.15474632521E+04  0.15474632521E+04  0.00000000000E+00 0. -1.
         -2   -1    0    0    0  501 -0.00000000000E+00 -0.00000000000E+00 -0.11129299021E+04  0.11129299021E+04  0.00000000000E+00 0.  1.
         23    2    1    2    0    0 -0.10197821075E+04 -0.29153732375E+03  0.65890465671E+03  0.12519900490E+04  0.91510536879E+02 0.  0.
        254    2    1    2    0    0  0.10197821075E+04  0.29153732375E+03 -0.22437130674E+03  0.14084031052E+04  0.89905910021E+03 0.  0.
         23    2    4    4    0    0  0.11682121421E+04  0.18828217116E+03 -0.17610198370E+03  0.12000883883E+04  0.95028660080E+02 0.  0.
         23    2    4    4    0    0 -0.14843003460E+03  0.10325515259E+03 -0.48269323047E+02  0.20831471692E+03  0.91498590337E+02 0.  0.
          3    1    3    3  502    0 -0.96115363191E+03 -0.27807348524E+03  0.64436273516E+03  0.11901027274E+04  0.00000000000E+00 0. -1.
         -3    1    3    3    0  502 -0.58628475546E+02 -0.13463838502E+02  0.14541921547E+02  0.61887321596E+02  0.00000000000E+00 0.  1.
         11    1    5    5    0    0  0.11085838207E+04  0.19291005682E+03 -0.18247271428E+03  0.11399423972E+04  0.00000000000E+00 0. -1.
        -11    1    5    5    0    0  0.59628321381E+02 -0.46278856629E+01  0.63707305788E+01  0.60145991092E+02  0.00000000000E+00 0.  1.
          2    1    6    6  503    0 -0.10456510914E+03  0.68993397224E+02 -0.75587175118E+02  0.14631258303E+03  0.00000000000E+00 0. -1.
         -2    1    6    6    0  503 -0.43864925451E+02  0.34261755362E+02  0.27317852071E+02  0.62002133892E+02  0.00000000000E+00 0.  1.
<mgrwt>
<rscale>  0 0.26246662E+04</rscale>
<asrwt>0</asrwt>
<pdfrwt beam="1">  1        2 0.23807127E+00 0.26246662E+04</pdfrwt>
<pdfrwt beam="2">  1       -2 0.17121999E+00 0.26246662E+04</pdfrwt>
<totfact> 0.22015411E+00</totfact>
</mgrwt>
</event>
<event>
12    2  0.3623523E-008  0.2275129E+04  0.7818608E-02  0.8487793E-01
          2   -1    0    0  501    0  0.00000000000E+00  0.00000000000E+00  0.24555432471E+04  0.24555432471E+04  0.00000000000E+00 0. -1.
         -2   -1    0    0    0  501 -0.00000000000E+00 -0.00000000000E+00 -0.52699240809E+03  0.52699240809E+03  0.00000000000E+00 0.  1.
         23    2    1    2    0    0 -0.47551768988E+03  0.24009535318E+03 -0.21685567811E+03  0.58737677835E+03  0.11925704428E+03 0.  0.
        254    2    1    2    0    0  0.47551768988E+03 -0.24009535318E+03  0.21454065171E+04  0.23951588769E+04  0.92209222404E+03 0.  0.
         23    2    4    4    0    0 -0.17427975757E+03 -0.34673668933E+03  0.87278255692E+03  0.95952899729E+03  0.91360491185E+02 0.  0.
         23    2    4    4    0    0  0.64979744745E+03  0.10664133615E+03  0.12726239602E+04  0.14356298796E+04  0.88613259285E+02 0.  0.
          4    1    3    3  502    0 -0.12214742549E+02 -0.11838990194E+02  0.38179299445E+00  0.17014916698E+02  0.00000000000E+00 0. -1.
         -4    1    3    3    0  502 -0.46330294733E+03  0.25193434337E+03 -0.21723747110E+03  0.57036186165E+03  0.00000000000E+00 0.  1.
         11    1    5    5    0    0 -0.33744878283E+02 -0.12437314183E+03  0.20916303485E+03  0.24567574232E+03  0.00000000000E+00 0. -1.
        -11    1    5    5    0    0 -0.14053487929E+03 -0.22236354750E+03  0.66361952207E+03  0.71385325497E+03  0.00000000000E+00 0.  1.
          1    1    6    6  503    0  0.25386993827E+03  0.81754702132E+02  0.47324891300E+03  0.54322951920E+03  0.00000000000E+00 0. -1.
         -1    1    6    6    0  503  0.39592750917E+03  0.24886634019E+02  0.79937504721E+03  0.89240036036E+03  0.00000000000E+00 0.  1.
<mgrwt>
<rscale>  0 0.22751287E+04</rscale>
<asrwt>0</asrwt>
<pdfrwt beam="1">  1        2 0.37777588E+00 0.22751287E+04</pdfrwt>
<pdfrwt beam="2">  1       -2 0.81075756E-01 0.22751287E+04</pdfrwt>
<totfact> 0.45003904E+00</totfact>
</mgrwt>
</event>
<event>
12    2  0.3623523E-008  0.2469080E+04  0.7818608E-02  0.8414085E-01
          2   -1    0    0  501    0  0.00000000000E+00  0.00000000000E+00  0.21763812596E+04  0.21763812596E+04  0.00000000000E+00 0. -1.
         -2   -1    0    0    0  501 -0.00000000000E+00 -0.00000000000E+00 -0.70028565038E+03  0.70028565038E+03  0.00000000000E+00 0.  1.
         23    2    1    2    0    0 -0.85609888759E+03  0.56450435737E+02  0.14941410048E+04  0.17255574995E+04  0.94865087835E+02 0.  0.
        254    2    1    2    0    0  0.85609888759E+03 -0.56450435737E+02 -0.18045395645E+02  0.11511094104E+04  0.76722570433E+03 0.  0.
         23    2    4    4    0    0  0.35839824166E+03 -0.18432528209E+03  0.32552326830E+03  0.52624185882E+03  0.92412047535E+02 0.  0.
         23    2    4    4    0    0  0.49770064593E+03  0.12787484635E+03 -0.34356866395E+03  0.62486755159E+03  0.91444632896E+02 0.  0.
          1    1    3    3  502    0 -0.76630931117E+03  0.79323508109E+02  0.13426788037E+04  0.15480014694E+04  0.00000000000E+00 0. -1.
         -1    1    3    3    0  502 -0.89789576428E+02 -0.22873072372E+02  0.15146220115E+03  0.17755603018E+03  0.00000000000E+00 0.  1.
         11    1    5    5    0    0  0.32762107368E+02 -0.16836655951E+02  0.71950720115E+02  0.80831521004E+02  0.00000000000E+00 0. -1.
        -11    1    5    5    0    0  0.32563613429E+03 -0.16748862614E+03  0.25357254819E+03  0.44541033782E+03  0.00000000000E+00 0.  1.
          3    1    6    6  503    0  0.24724129972E+03  0.17523902364E+02 -0.17527801017E+03  0.30357491380E+03  0.00000000000E+00 0. -1.
         -3    1    6    6    0  503  0.25045934622E+03  0.11035094399E+03 -0.16829065378E+03  0.32129263778E+03  0.00000000000E+00 0.  1.
<mgrwt>
<rscale>  0 0.24690796E+04</rscale>
<asrwt>0</asrwt>
<pdfrwt beam="1">  1        2 0.33482788E+00 0.24690796E+04</pdfrwt>
<pdfrwt beam="2">  1       -2 0.10773626E+00 0.24690796E+04</pdfrwt>
<totfact> 0.32888342E+00</totfact>
</mgrwt>
</event>
<event>
12    2  0.3623523E-008  0.2274855E+04  0.7818608E-02  0.8487902E-01
         -1   -1    0    0    0  501 -0.00000000000E+00  0.00000000000E+00  0.84268681777E+03  0.84268681777E+03  0.00000000000E+00 0.  1.
          1   -1    0    0  501    0  0.00000000000E+00 -0.00000000000E+00 -0.15352574693E+04  0.15352574693E+04  0.00000000000E+00 0. -1.
         23    2    1    2    0    0  0.64476740904E+03 -0.57080337137E+03  0.14557565416E+03  0.87819818907E+03  0.92186157626E+02 0.  0.
        254    2    1    2    0    0 -0.64476740904E+03  0.57080337137E+03 -0.83814630574E+03  0.14997460980E+04  0.89733362148E+03 0.  0.
         23    2    4    4    0    0  0.18485747181E+03  0.11819310116E+03 -0.61305136952E+01  0.23722240230E+03  0.89972167399E+02 0.  0.
         23    2    4    4    0    0 -0.82962488085E+03  0.45261027021E+03 -0.83201579205E+03  0.12625236957E+04  0.92640727969E+02 0.  0.
          2    1    3    3  502    0  0.15924111382E+03 -0.15725340190E+03  0.77317010928E+02  0.23677897905E+03  0.00000000000E+00 0. -1.
         -2    1    3    3    0  502  0.48552629522E+03 -0.41354996947E+03  0.68258643237E+02  0.64141921002E+03  0.00000000000E+00 0.  1.
         11    1    5    5    0    0  0.84951864872E+02  0.33180021668E+02 -0.43184400579E+02  0.10090899681E+03  0.00000000000E+00 0.  1.
        -11    1    5    5    0    0  0.99905606938E+02  0.85013079496E+02  0.37053886884E+02  0.13631340549E+03  0.00000000000E+00 0. -1.
          3    1    6    6  503    0 -0.71864719938E+03  0.37490990112E+03 -0.74900629085E+03  0.11036401836E+04  0.00000000000E+00 0. -1.
         -3    1    6    6    0  503 -0.11097768147E+03  0.77700369087E+02 -0.83009501195E+02  0.15888351214E+03  0.00000000000E+00 0.  1.
<mgrwt>
<rscale>  0 0.22748549E+04</rscale>
<asrwt>0</asrwt>
<pdfrwt beam="1">  1        1 0.23619346E+00 0.22748549E+04</pdfrwt>
<pdfrwt beam="2">  1       -1 0.12964413E+00 0.22748549E+04</pdfrwt>
<totfact> 0.28606440E+00</totfact>
</mgrwt>
</event>
<event>
12    2  0.3623523E-008  0.1065808E+04  0.7818608E-02  0.9239174E-01
          2   -1    0    0  501    0  0.00000000000E+00  0.00000000000E+00  0.22045724065E+04  0.22045724065E+04  0.00000000000E+00 0.  1.
         -2   -1    0    0    0  501 -0.00000000000E+00 -0.00000000000E+00 -0.12881717994E+03  0.12881717994E+03  0.00000000000E+00 0. -1.
         23    2    1    2    0    0 -0.51640390011E+02  0.65399598706E+02  0.46290757939E+03  0.47989432483E+03  0.95243364919E+02 0.  0.
        254    2    1    2    0    0  0.51640390011E+02 -0.65399598706E+02  0.16128476472E+04  0.18534952616E+04  0.90951817708E+03 0.  0.
         23    2    4    4    0    0 -0.39125522532E+03 -0.16718951896E+03  0.61921824440E+03  0.75714229166E+03  0.93809535937E+02 0.  0.
         23    2    4    4    0    0  0.44289561533E+03  0.10178992026E+03  0.99362940279E+03  0.10963529700E+04  0.90403156614E+02 0.  0.
          2    1    3    3  502    0 -0.78578483795E+02  0.60294363366E+02  0.35499210627E+03  0.36855038174E+03  0.00000000000E+00 0.  1.
         -2    1    3    3    0  502  0.26938093783E+02  0.51052353401E+01  0.10791547312E+03  0.11134394309E+03  0.00000000000E+00 0. -1.
         11    1    5    5    0    0 -0.30760836850E+03 -0.11414504853E+03  0.40571129455E+03  0.52177931638E+03  0.00000000000E+00 0.  1.
        -11    1    5    5    0    0 -0.83646856819E+02 -0.53044470429E+02  0.21350694985E+03  0.23536297528E+03  0.00000000000E+00 0. -1.
          1    1    6    6  503    0  0.18503355858E+03  0.87034900909E+02  0.46648179659E+03  0.50933069643E+03  0.00000000000E+00 0. -1.
         -1    1    6    6    0  503  0.25786205674E+03  0.14755019347E+02  0.52714760620E+03  0.58702227353E+03  0.00000000000E+00 0.  1.
<mgrwt>
<rscale>  0 0.10658082E+04</rscale>
<asrwt>0</asrwt>
<pdfrwt beam="1">  1        2 0.33916496E+00 0.10658082E+04</pdfrwt>
<pdfrwt beam="2">  1       -2 0.19818029E-01 0.10658082E+04</pdfrwt>
<totfact> 0.11149221E+02</totfact>
</mgrwt>
</event>
<event>
12    2  0.3623523E-008  0.1394799E+04  0.7818608E-02  0.8957592E-01
         -2   -1    0    0    0  501 -0.00000000000E+00  0.00000000000E+00  0.47783449468E+03  0.47783449468E+03  0.00000000000E+00 0. -1.
          2   -1    0    0  501    0  0.00000000000E+00 -0.00000000000E+00 -0.10178546785E+04  0.10178546785E+04  0.00000000000E+00 0.  1.
         23    2    1    2    0    0  0.15824888247E+03 -0.35854573802E+03 -0.63720155487E+02  0.40761596080E+03  0.92156162171E+02 0.  0.
        254    2    1    2    0    0 -0.15824888247E+03  0.35854573802E+03 -0.47630002831E+03  0.10880732124E+04  0.89635029059E+03 0.  0.
         23    2    4    4    0    0  0.15242438269E+03 -0.12193911671E+03 -0.45997510240E+03  0.50789832522E+03  0.91001501679E+02 0.  0.
         23    2    4    4    0    0 -0.31067326516E+03  0.48048485472E+03 -0.16324925907E+02  0.58017488714E+03  0.94619359330E+02 0.  0.
          1    1    3    3  502    0  0.79803490273E+01 -0.14695356070E+02 -0.25403245328E+02  0.30413226298E+02  0.00000000000E+00 0. -1.
         -1    1    3    3    0  502  0.15026853345E+03 -0.34385038195E+03 -0.38316910159E+02  0.37720273450E+03  0.00000000000E+00 0.  1.
         11    1    5    5    0    0 -0.33083134589E+01 -0.20925850146E+02 -0.10713736719E+03  0.10921195718E+03  0.00000000000E+00 0. -1.
        -11    1    5    5    0    0  0.15573269615E+03 -0.10101326656E+03 -0.35283773521E+03  0.39868636803E+03  0.00000000000E+00 0.  1.
          2    1    6    6  503    0 -0.58947994593E+01  0.52668424808E+02 -0.14301968427E+02  0.54893150149E+02  0.00000000000E+00 0. -1.
         -2    1    6    6    0  503 -0.30477846570E+03  0.42781642992E+03 -0.20229574800E+01  0.52528173699E+03  0.00000000000E+00 0.  1.
<mgrwt>
<rscale>  0 0.13947990E+04</rscale>
<asrwt>0</asrwt>
<pdfrwt beam="1">  1        2 0.15659303E+00 0.13947990E+04</pdfrwt>
<pdfrwt beam="2">  1       -2 0.73513000E-01 0.13947990E+04</pdfrwt>
<totfact> 0.39882733E+01</totfact>
</mgrwt>
</event>
<event>
12    2  0.3623523E-008  0.1489468E+04  0.7818608E-02  0.8891487E-01
         -2   -1    0    0    0  501 -0.00000000000E+00  0.00000000000E+00  0.10221134822E+04  0.10221134822E+04  0.00000000000E+00 0.  1.
          2   -1    0    0  501    0  0.00000000000E+00 -0.00000000000E+00 -0.54262944577E+03  0.54262944577E+03  0.00000000000E+00 0. -1.
         23    2    1    2    0    0  0.29936512391E+03 -0.27833670848E+02 -0.22781254620E+03  0.38819594032E+03  0.91669739986E+02 0.  0.
        254    2    1    2    0    0 -0.29936512391E+03  0.27833670848E+02  0.70729658261E+03  0.11765469876E+04  0.89084239216E+03 0.  0.
         23    2    4    4    0    0 -0.47544882335E+03 -0.28992722161E+03  0.42699025959E+03  0.70756483943E+03  0.90652869501E+02 0.  0.
         23    2    4    4    0    0  0.17608369944E+03  0.31776089246E+03  0.28030632302E+03  0.46898214820E+03  0.96928667667E+02 0.  0.
          3    1    3    3  502    0  0.29024413643E+03 -0.45983740363E+02 -0.21588196634E+03  0.36463843257E+03  0.00000000000E+00 0. -1.
         -3    1    3    3    0  502  0.91209874777E+01  0.18150069515E+02 -0.11930579861E+02  0.23557507759E+02  0.00000000000E+00 0.  1.
         11    1    5    5    0    0 -0.33953785258E+03 -0.15872100112E+03  0.29770883638E+03  0.47865317380E+03  0.00000000000E+00 0. -1.
        -11    1    5    5    0    0 -0.13591097078E+03 -0.13120622049E+03  0.12928142321E+03  0.22891166563E+03  0.00000000000E+00 0.  1.
          2    1    6    6  503    0 -0.37624588403E+01  0.21207420185E+01  0.23999680888E+02  0.24385207113E+02  0.00000000000E+00 0. -1.
         -2    1    6    6    0  503  0.17984615828E+03  0.31564015044E+03  0.25630664213E+03  0.44459694108E+03  0.00000000000E+00 0.  1.
<mgrwt>
<rscale>  0 0.14894682E+04</rscale>
<asrwt>0</asrwt>
<pdfrwt beam="1">  1        2 0.83481453E-01 0.14894682E+04</pdfrwt>
<pdfrwt beam="2">  1       -2 0.15724823E+00 0.14894682E+04</pdfrwt>
<totfact> 0.14269683E+01</totfact>
</mgrwt>
</event>
<event>
12    2  0.3623523E-008  0.1690908E+04  0.7818608E-02  0.8766567E-01
         -1   -1    0    0    0  501 -0.00000000000E+00  0.00000000000E+00  0.96137396260E+03  0.96137396260E+03  0.00000000000E+00 0.  1.
          1   -1    0    0  501    0  0.00000000000E+00 -0.00000000000E+00 -0.74351114983E+03  0.74351114983E+03  0.00000000000E+00 0. -1.
         23    2    1    2    0    0 -0.52282862626E+03 -0.19431265220E+03  0.30490620768E+03  0.64250996058E+03  0.93509757340E+02 0.  0.
        254    2    1    2    0    0  0.52282862626E+03  0.19431265220E+03 -0.87043394910E+02  0.10623751519E+04  0.89997623938E+03 0.  0.
         23    2    4    4    0    0  0.66883814207E+03  0.10350425279E+03  0.20390538394E+03  0.71254787727E+03  0.89941543060E+02 0.  0.
         23    2    4    4    0    0 -0.14600951581E+03  0.90808399410E+02 -0.29094877885E+03  0.34982727459E+03  0.90349244718E+02 0.  0.
          1    1    3    3  502    0 -0.24399844967E+02 -0.97709650787E+01  0.41998923551E+02  0.49545269930E+02  0.00000000000E+00 0. -1.
         -1    1    3    3    0  502 -0.49842878129E+03 -0.18454168712E+03  0.26290728413E+03  0.59296469065E+03  0.00000000000E+00 0.  1.
         11    1    5    5    0    0  0.15323164272E+02 -0.11079445611E+02  0.19559678307E+01  0.19009978656E+02  0.00000000000E+00 0. -1.
        -11    1    5    5    0    0  0.65351497780E+03  0.11458369840E+03  0.20194941611E+03  0.69353789861E+03  0.00000000000E+00 0.  1.
          3    1    6    6  503    0 -0.54772909906E+02  0.54812864358E+02 -0.57135403111E+02  0.96275521537E+02  0.00000000000E+00 0. -1.
         -3    1    6    6    0  503 -0.91236605906E+02  0.35995535052E+02 -0.23381337574E+03  0.25355175305E+03  0.00000000000E+00 0.  1.
<mgrwt>
<rscale>  0 0.16909078E+04</rscale>
<asrwt>0</asrwt>
<pdfrwt beam="1">  1        1 0.11438633E+00 0.16909078E+04</pdfrwt>
<pdfrwt beam="2">  1       -1 0.14790369E+00 0.16909078E+04</pdfrwt>
<totfact> 0.85685676E+00</totfact>
</mgrwt>
</event>
<event>
12    2  0.3623523E-008  0.1413254E+04  0.7818608E-02  0.8944280E-01
         -2   -1    0    0    0  501 -0.00000000000E+00  0.00000000000E+00  0.66078995604E+03  0.66078995604E+03  0.00000000000E+00 0.  1.
          2   -1    0    0  501    0  0.00000000000E+00 -0.00000000000E+00 -0.75564331730E+03  0.75564331730E+03  0.00000000000E+00 0. -1.
         23    2    1    2    0    0  0.19065984229E+03  0.71470894992E+02  0.32932640264E+03  0.39837461618E+03  0.93740018385E+02 0.  0.
        254    2    1    2    0    0 -0.19065984229E+03 -0.71470894992E+02 -0.42417976390E+03  0.10180586572E+04  0.90280434926E+03 0.  0.
         23    2    4    4    0    0  0.52355454637E+02 -0.80106793454E+02  0.25699664964E+03  0.28910527179E+03  0.91522610659E+02 0.  0.
         23    2    4    4    0    0 -0.24301529693E+03  0.86358984627E+01 -0.68117641354E+03  0.72895338538E+03  0.90778402799E+02 0.  0.
          4    1    3    3  502    0  0.17885755817E+03  0.53841808181E+02  0.32757593102E+03  0.37708746599E+03  0.00000000000E+00 0.  1.
         -4    1    3    3    0  502  0.11802284113E+02  0.17629086811E+02  0.17504716174E+01  0.21287150184E+02  0.00000000000E+00 0. -1.
         11    1    5    5    0    0  0.35321507693E+02 -0.73433179801E+02  0.25821761528E+03  0.27076997182E+03  0.00000000000E+00 0. -1.
        -11    1    5    5    0    0  0.17033946944E+02 -0.66736136533E+01 -0.12209656389E+01  0.18335299964E+02  0.00000000000E+00 0.  1.
          3    1    6    6  503    0 -0.21319925799E+03  0.53691266900E+01 -0.47595290049E+03  0.52154953228E+03  0.00000000000E+00 0. -1.
         -3    1    6    6    0  503 -0.29816038931E+02  0.32667717727E+01 -0.20522351305E+03  0.20740385311E+03  0.00000000000E+00 0.  1.
<mgrwt>
<rscale>  0 0.14132537E+04</rscale>
<asrwt>0</asrwt>
<pdfrwt beam="1">  1        2 0.11625282E+00 0.14132537E+04</pdfrwt>
<pdfrwt beam="2">  1       -2 0.10165999E+00 0.14132537E+04</pdfrwt>
<totfact> 0.28686286E+01</totfact>
</mgrwt>
</event>
<event>
12    2  0.3623523E-008  0.1981564E+04  0.7818608E-02  0.8615289E-01
         -1   -1    0    0    0  501 -0.00000000000E+00  0.00000000000E+00  0.79310333800E+03  0.79310333800E+03  0.00000000000E+00 0.  1.
          1   -1    0    0  501    0  0.00000000000E+00 -0.00000000000E+00 -0.12377316075E+04  0.12377316075E+04  0.00000000000E+00 0. -1.
         23    2    1    2    0    0 -0.42009620974E+03 -0.75647597143E+02 -0.85138388368E+03  0.95687680858E+03  0.92494999995E+02 0.  0.
        254    2    1    2    0    0  0.42009620974E+03  0.75647597143E+02  0.40675561419E+03  0.10739581369E+04  0.89762607235E+03 0.  0.
         23    2    4    4    0    0  0.17384414140E+03 -0.16645744941E+03  0.61160902118E+03  0.66224361942E+03  0.81062622215E+02 0.  0.
         23    2    4    4    0    0  0.24625206834E+03  0.24210504655E+03 -0.20485340699E+03  0.41171451748E+03  0.91043895020E+02 0.  0.
          1    1    3    3  502    0 -0.36548345370E+03 -0.35452781747E+02 -0.74748214301E+03  0.83280526462E+03  0.00000000000E+00 0. -1.
         -1    1    3    3    0  502 -0.54612756038E+02 -0.40194815396E+02 -0.10390174067E+03  0.12407154396E+03  0.00000000000E+00 0.  1.
         11    1    5    5    0    0  0.16703809568E+03 -0.12647584523E+03  0.46299647371E+03  0.50819641823E+03  0.00000000000E+00 0.  1.
        -11    1    5    5    0    0  0.68060457217E+01 -0.39981604186E+02  0.14861254746E+03  0.15404720119E+03  0.00000000000E+00 0. -1.
          4    1    6    6  503    0  0.14015756944E+02 -0.54539789550E+01  0.39697204043E+00  0.15044763738E+02  0.00000000000E+00 0. -1.
         -4    1    6    6    0  503  0.23223631140E+03  0.24755902551E+03 -0.20525037903E+03  0.39666975374E+03  0.00000000000E+00 0.  1.
<mgrwt>
<rscale>  0 0.19815641E+04</rscale>
<asrwt>0</asrwt>
<pdfrwt beam="1">  1        1 0.19042025E+00 0.19815641E+04</pdfrwt>
<pdfrwt beam="2">  1       -1 0.12201590E+00 0.19815641E+04</pdfrwt>
<totfact> 0.55378900E+00</totfact>
</mgrwt>
</event>
<event>
12    2  0.3623523E-008  0.1514658E+04  0.7818608E-02  0.8874763E-01
          2   -1    0    0  501    0  0.00000000000E+00  0.00000000000E+00  0.12560224791E+04  0.12560224791E+04  0.00000000000E+00 0. -1.
         -2   -1    0    0    0  501 -0.00000000000E+00 -0.00000000000E+00 -0.45663796874E+03  0.45663796874E+03  0.00000000000E+00 0.  1.
         23    2    1    2    0    0 -0.40250538549E+03 -0.24207411777E+03  0.37907044990E+03  0.61029798545E+03  0.90325861251E+02 0.  0.
        254    2    1    2    0    0  0.40250538549E+03  0.24207411777E+03  0.42031406046E+03  0.11023624624E+04  0.90439406523E+03 0.  0.
         23    2    4    4    0    0  0.62486640085E+03  0.38249117666E+03  0.27075518635E+03  0.78600995296E+03  0.88009977141E+02 0.  0.
         23    2    4    4    0    0 -0.22236101537E+03 -0.14041705889E+03  0.14955887411E+03  0.31635250943E+03  0.92464489494E+02 0.  0.
          2    1    3    3  502    0 -0.22080140368E+03 -0.15161893778E+03  0.26809205781E+03  0.37896558369E+03  0.00000000000E+00 0. -1.
         -2    1    3    3    0  502 -0.18170398180E+03 -0.90455179995E+02  0.11097839209E+03  0.23133240176E+03  0.00000000000E+00 0.  1.
         11    1    5    5    0    0  0.18622802528E+03  0.15965670689E+03  0.75075453543E+02  0.25652965750E+03  0.00000000000E+00 0. -1.
        -11    1    5    5    0    0  0.43863837557E+03  0.22283446977E+03  0.19567973281E+03  0.52948029546E+03  0.00000000000E+00 0.  1.
          4    1    6    6  503    0 -0.21211836385E+03 -0.14111703059E+03  0.16068713083E+03  0.30121183679E+03  0.00000000000E+00 0. -1.
         -4    1    6    6    0  503 -0.10242651512E+02  0.69997169917E+00 -0.11128256724E+02  0.15140672643E+02  0.00000000000E+00 0.  1.
<mgrwt>
<rscale>  0 0.15146584E+04</rscale>
<asrwt>0</asrwt>
<pdfrwt beam="1">  1        2 0.19323423E+00 0.15146584E+04</pdfrwt>
<pdfrwt beam="2">  1       -2 0.70251996E-01 0.15146584E+04</pdfrwt>
<totfact> 0.31230042E+01</totfact>
</mgrwt>
</event>
<event>
12    2  0.3623523E-008  0.1459236E+04  0.7818608E-02  0.8912023E-01
          1   -1    0    0  501    0  0.00000000000E+00  0.00000000000E+00  0.99893774221E+03  0.99893774221E+03  0.00000000000E+00 0. -1.
         -1   -1    0    0    0  501 -0.00000000000E+00 -0.00000000000E+00 -0.53290834261E+03  0.53290834261E+03  0.00000000000E+00 0.  1.
         23    2    1    2    0    0 -0.34525544324E+03  0.23913893500E+03  0.30476571750E+03  0.52655266231E+03  0.89368967200E+02 0.  0.
        254    2    1    2    0    0  0.34525544324E+03 -0.23913893500E+03  0.16126368210E+03  0.10052934225E+04  0.89901064447E+03 0.  0.
         23    2    4    4    0    0 -0.17373635600E+02  0.19184804306E+03  0.34504753934E+03  0.40587986771E+03  0.92591294224E+02 0.  0.
         23    2    4    4    0    0  0.36262907884E+03 -0.43098697806E+03 -0.18378385724E+03  0.59941355481E+03  0.90942176254E+02 0.  0.
          1    1    3    3  502    0 -0.18491429631E+03  0.13548306758E+03  0.21974956372E+03  0.31755130190E+03  0.00000000000E+00 0. -1.
         -1    1    3    3    0  502 -0.16034114694E+03  0.10365586742E+03  0.85016153781E+02  0.20900136041E+03  0.00000000000E+00 0.  1.
         11    1    5    5    0    0  0.77515532440E+01  0.15975885177E+01 -0.29752163181E+01  0.84552219903E+01  0.00000000000E+00 0.  1.
        -11    1    5    5    0    0 -0.25125188844E+02  0.19025045454E+03  0.34802275566E+03  0.39742464572E+03  0.00000000000E+00 0. -1.
          2    1    6    6  503    0  0.27019491143E+03 -0.26897284732E+03 -0.15080617205E+03  0.40999290761E+03  0.00000000000E+00 0. -1.
         -2    1    6    6    0  503  0.92434167414E+02 -0.16201413074E+03 -0.32977685188E+02  0.18942064720E+03  0.00000000000E+00 0.  1.
<mgrwt>
<rscale>  0 0.14592358E+04</rscale>
<asrwt>0</asrwt>
<pdfrwt beam="1">  1        1 0.15368273E+00 0.14592358E+04</pdfrwt>
<pdfrwt beam="2">  1       -1 0.81985899E-01 0.14592358E+04</pdfrwt>
<totfact> 0.21782537E+01</totfact>
</mgrwt>
</event>
<event>
12    2  0.3623523E-008  0.1852983E+04  0.7818608E-02  0.8678621E-01
          1   -1    0    0  501    0  0.00000000000E+00  0.00000000000E+00  0.19021379628E+04  0.19021379628E+04  0.00000000000E+00 0. -1.
         -1   -1    0    0    0  501 -0.00000000000E+00 -0.00000000000E+00 -0.45127434931E+03  0.45127434931E+03  0.00000000000E+00 0.  1.
         23    2    1    2    0    0  0.11882390146E+03 -0.17859173257E+02  0.14258301623E+04  0.14338048714E+04  0.91469602027E+02 0.  0.
        254    2    1    2    0    0 -0.11882390146E+03  0.17859173257E+02  0.25033451208E+02  0.91960744066E+03  0.91137977903E+03 0.  0.
         23    2    4    4    0    0 -0.44620107614E+03  0.54488817247E+01 -0.21287500122E+03  0.50301834658E+03  0.92663909856E+02 0.  0.
         23    2    4    4    0    0  0.32737717468E+03  0.12410291532E+02  0.23790845243E+03  0.41658909409E+03  0.98062284991E+02 0.  0.
          3    1    3    3  502    0  0.11831767608E+03 -0.42982330846E+02  0.11865350945E+04  0.11931940679E+04  0.00000000000E+00 0. -1.
         -3    1    3    3    0  502  0.50622538441E+00  0.25123157589E+02  0.23929506779E+03  0.24061080354E+03  0.00000000000E+00 0.  1.
         11    1    5    5    0    0 -0.29210084410E+03  0.30531396085E+02 -0.99580274578E+02  0.31011497925E+03  0.00000000000E+00 0.  1.
        -11    1    5    5    0    0 -0.15410023204E+03 -0.25082514360E+02 -0.11329472665E+03  0.19290336733E+03  0.00000000000E+00 0. -1.
          3    1    6    6  503    0  0.12834936646E+02  0.23411826486E+02  0.25227471825E+02  0.36732472729E+02  0.00000000000E+00 0. -1.
         -3    1    6    6    0  503  0.31454223803E+03 -0.11001534954E+02  0.21268098061E+03  0.37985662136E+03  0.00000000000E+00 0.  1.
<mgrwt>
<rscale>  0 0.18529825E+04</rscale>
<asrwt>0</asrwt>
<pdfrwt beam="1">  1        1 0.29263661E+00 0.18529825E+04</pdfrwt>
<pdfrwt beam="2">  1       -1 0.69426824E-01 0.18529825E+04</pdfrwt>
<totfact> 0.68445651E+00</totfact>
</mgrwt>
</event>
<event>
12    2  0.3623523E-008  0.1701305E+04  0.7818608E-02  0.8760621E-01
          2   -1    0    0  501    0  0.00000000000E+00  0.00000000000E+00  0.11848915143E+04  0.11848915143E+04  0.00000000000E+00 0. -1.
         -2   -1    0    0    0  501 -0.00000000000E+00 -0.00000000000E+00 -0.61069678686E+03  0.61069678686E+03  0.00000000000E+00 0.  1.
         23    2    1    2    0    0  0.58692713924E+03  0.11880180741E+03  0.30999141157E+03  0.68052557800E+03  0.91777180360E+02 0.  0.
        254    2    1    2    0    0 -0.58692713924E+03 -0.11880180741E+03  0.26420331588E+03  0.11150627232E+04  0.90275364760E+03 0.  0.
         23    2    4    4    0    0 -0.60222816306E+03 -0.52464807474E+01 -0.18965880967E+03  0.63809098201E+03  0.92105110090E+02 0.  0.
         23    2    4    4    0    0  0.15301023813E+02 -0.11355532666E+03  0.45386212555E+03  0.47697174116E+03  0.91554788584E+02 0.  0.
          3    1    3    3  502    0  0.19058195502E+03  0.38541835101E+02  0.15025404763E+03  0.24573000114E+03  0.00000000000E+00 0. -1.
         -3    1    3    3    0  502  0.39634518423E+03  0.80259972311E+02  0.15973736394E+03  0.43479557686E+03  0.00000000000E+00 0.  1.
         11    1    5    5    0    0 -0.29485193828E+02 -0.20131210412E+02 -0.18052672276E+02  0.40006765228E+02  0.00000000000E+00 0.  1.
        -11    1    5    5    0    0 -0.57274296923E+03  0.14884729665E+02 -0.17160613739E+03  0.59808421679E+03  0.00000000000E+00 0. -1.
          1    1    6    6  503    0  0.32922590243E+02 -0.10971448876E+03  0.43870563339E+03  0.45341349645E+03  0.00000000000E+00 0. -1.
         -1    1    6    6    0  503 -0.17621566430E+02 -0.38408379029E+01  0.15156492154E+02  0.23558244707E+02  0.00000000000E+00 0.  1.
<mgrwt>
<rscale>  0 0.17013047E+04</rscale>
<asrwt>0</asrwt>
<pdfrwt beam="1">  1        2 0.18229100E+00 0.17013047E+04</pdfrwt>
<pdfrwt beam="2">  1       -2 0.93953352E-01 0.17013047E+04</pdfrwt>
<totfact> 0.17602840E+01</totfact>
</mgrwt>
</event>
<event>
12    2  0.3623523E-008  0.2946000E+04  0.7818608E-02  0.8259321E-01
          1   -1    0    0  501    0  0.00000000000E+00  0.00000000000E+00  0.17543825902E+04  0.17543825902E+04  0.00000000000E+00 0. -1.
         -1   -1    0    0    0  501 -0.00000000000E+00 -0.00000000000E+00 -0.12367480082E+04  0.12367480082E+04  0.00000000000E+00 0.  1.
         23    2    1    2    0    0 -0.78844402987E+02 -0.88565932324E+03 -0.77360830398E+03  0.11819916905E+04  0.89586113877E+02 0.  0.
        254    2    1    2    0    0  0.78844402987E+02  0.88565932324E+03  0.12912428861E+04  0.18091389079E+04  0.90281034574E+03 0.  0.
         23    2    4    4    0    0  0.43171753171E+03  0.23990340498E+03  0.35523594688E+03  0.61520545888E+03  0.91386584162E+02 0.  0.
         23    2    4    4    0    0 -0.35287312873E+03  0.64575591826E+03  0.93600693919E+03  0.11939334490E+04  0.88588596573E+02 0.  0.
          1    1    3    3  502    0  0.37965657953E+01 -0.39773037558E+03 -0.37310794559E+03  0.54535621812E+03  0.00000000000E+00 0. -1.
         -1    1    3    3    0  502 -0.82640968783E+02 -0.48792894766E+03 -0.40050035839E+03  0.63663547243E+03  0.00000000000E+00 0.  1.
         11    1    5    5    0    0  0.37959966288E+03  0.21038515937E+03  0.34504270697E+03  0.55444773331E+03  0.00000000000E+00 0.  1.
        -11    1    5    5    0    0  0.52117868832E+02  0.29518245612E+02  0.10193239907E+02  0.60757725561E+02  0.00000000000E+00 0. -1.
          4    1    6    6  503    0 -0.15865136447E+03  0.38187545798E+03  0.51759337858E+03  0.66249681237E+03  0.00000000000E+00 0. -1.
         -4    1    6    6    0  503 -0.19422176425E+03  0.26388046028E+03  0.41841356061E+03  0.53143663661E+03  0.00000000000E+00 0.  1.
<mgrwt>
<rscale>  0 0.29460001E+04</rscale>
<asrwt>0</asrwt>
<pdfrwt beam="1">  1        1 0.26990501E+00 0.29460001E+04</pdfrwt>
<pdfrwt beam="2">  1       -1 0.19026892E+00 0.29460001E+04</pdfrwt>
<totfact> 0.65826093E-01</totfact>
</mgrwt>
</event>
<event>
12    2  0.3623523E-008  0.1418532E+04  0.7818608E-02  0.8940512E-01
          2   -1    0    0  501    0  0.00000000000E+00  0.00000000000E+00  0.14212156647E+04  0.14212156647E+04  0.00000000000E+00 0. -1.
         -2   -1    0    0    0  501 -0.00000000000E+00 -0.00000000000E+00 -0.35396330355E+03  0.35396330355E+03  0.00000000000E+00 0.  1.
         23    2    1    2    0    0 -0.30458864897E+03 -0.26589750566E+03  0.19543289121E+03  0.45873604939E+03  0.93643042699E+02 0.  0.
        254    2    1    2    0    0  0.30458864897E+03  0.26589750566E+03  0.87181946998E+03  0.13164429189E+04  0.89970942081E+03 0.  0.
         23    2    4    4    0    0  0.54448435355E+03  0.10550491588E+03  0.84062931585E+03  0.10112995536E+04  0.92057818710E+02 0.  0.
         23    2    4    4    0    0 -0.23989570458E+03  0.16039258978E+03  0.31190154137E+02  0.30514336527E+03  0.94148370788E+02 0.  0.
          2    1    3    3  502    0 -0.35770814295E+02 -0.18959793539E+02 -0.73837537845E+01  0.41152700352E+02  0.00000000000E+00 0. -1.
         -2    1    3    3    0  502 -0.26881783468E+03 -0.24693771212E+03  0.20281664499E+03  0.41758334904E+03  0.00000000000E+00 0.  1.
         11    1    5    5    0    0  0.44132069689E+03  0.12112910817E+03  0.67339303365E+03  0.81418326937E+03  0.00000000000E+00 0.  1.
        -11    1    5    5    0    0  0.10316365667E+03 -0.15624192294E+02  0.16723628219E+03  0.19711628427E+03  0.00000000000E+00 0. -1.
          3    1    6    6  503    0 -0.52167308784E+01 -0.50689482621E+01 -0.12728238065E+02  0.14660032803E+02  0.00000000000E+00 0. -1.
         -3    1    6    6    0  503 -0.23467897370E+03  0.16546153804E+03  0.43918392202E+02  0.29048333247E+03  0.00000000000E+00 0.  1.
<mgrwt>
<rscale>  0 0.14185319E+04</rscale>
<asrwt>0</asrwt>
<pdfrwt beam="1">  1        2 0.21864856E+00 0.14185319E+04</pdfrwt>
<pdfrwt beam="2">  1       -2 0.54455894E-01 0.14185319E+04</pdfrwt>
<totfact> 0.43404973E+01</totfact>
</mgrwt>
</event>
<event>
12    2  0.3623523E-008  0.1555557E+04  0.7818608E-02  0.8848326E-01
          1   -1    0    0  501    0  0.00000000000E+00  0.00000000000E+00  0.25783833842E+04  0.25783833842E+04  0.00000000000E+00 0. -1.
         -1   -1    0    0    0  501 -0.00000000000E+00 -0.00000000000E+00 -0.23461965925E+03  0.23461965925E+03  0.00000000000E+00 0.  1.
         23    2    1    2    0    0  0.25806897651E+03 -0.31670873206E+03  0.13108242644E+04  0.13759838302E+04  0.90372734862E+02 0.  0.
        254    2    1    2    0    0 -0.25806897651E+03  0.31670873206E+03  0.10329394605E+04  0.14370192132E+04  0.91167772401E+03 0.  0.
         23    2    4    4    0    0  0.24456120079E+03 -0.60370218952E+02  0.63170885016E+03  0.68587565477E+03  0.88964027385E+02 0.  0.
         23    2    4    4    0    0 -0.50263017730E+03  0.37707895101E+03  0.40123061036E+03  0.75114355845E+03  0.91678854021E+02 0.  0.
          2    1    3    3  502    0  0.10350857834E+03 -0.96806902044E+02  0.58696376515E+03  0.60383115494E+03  0.00000000000E+00 0. -1.
         -2    1    3    3    0  502  0.15456039818E+03 -0.21990183002E+03  0.72386049925E+03  0.77215267526E+03  0.00000000000E+00 0.  1.
         11    1    5    5    0    0  0.93218241430E+02 -0.66212011267E+02  0.30635142642E+03  0.32699368104E+03  0.00000000000E+00 0.  1.
        -11    1    5    5    0    0  0.15134295936E+03  0.58417923154E+01  0.32535742374E+03  0.35888197373E+03  0.00000000000E+00 0. -1.
          1    1    6    6  503    0 -0.23582955152E+03  0.12604773877E+03  0.19288086259E+03  0.32970689555E+03  0.00000000000E+00 0. -1.
         -1    1    6    6    0  503 -0.26680062578E+03  0.25103121224E+03  0.20834974776E+03  0.42143666289E+03  0.00000000000E+00 0.  1.
<mgrwt>
<rscale>  0 0.15555570E+04</rscale>
<asrwt>0</asrwt>
<pdfrwt beam="1">  1        1 0.39667435E+00 0.15555570E+04</pdfrwt>
<pdfrwt beam="2">  1       -1 0.36095334E-01 0.15555570E+04</pdfrwt>
<totfact> 0.84689174E+00</totfact>
</mgrwt>
</event>
<event>
12    2  0.3623523E-008  0.1408962E+04  0.7818608E-02  0.8947357E-01
          1   -1    0    0  501    0  0.00000000000E+00  0.00000000000E+00  0.10039727868E+04  0.10039727868E+04  0.00000000000E+00 0. -1.
         -1   -1    0    0    0  501 -0.00000000000E+00 -0.00000000000E+00 -0.49432975615E+03  0.49432975615E+03  0.00000000000E+00 0.  1.
         23    2    1    2    0    0 -0.29394644972E+02 -0.17053418868E+03  0.56071622164E+03  0.59311989653E+03  0.86270364486E+02 0.  0.
        254    2    1    2    0    0  0.29394644972E+02  0.17053418868E+03 -0.51073191034E+02  0.90518264637E+03  0.88701814964E+03 0.  0.
         23    2    4    4    0    0 -0.39870645443E+03 -0.51785954916E+02  0.10633895585E+02  0.41212052222E+03  0.89897848533E+02 0.  0.
         23    2    4    4    0    0  0.42810109940E+03  0.22232014359E+03 -0.61707086619E+02  0.49306212414E+03  0.81275433988E+02 0.  0.
          3    1    3    3  502    0 -0.10343518817E+02 -0.16821715562E+03  0.44544002442E+03  0.47625708937E+03  0.00000000000E+00 0. -1.
         -3    1    3    3    0  502 -0.19051126155E+02 -0.23170330551E+01  0.11527619722E+03  0.11686280716E+03  0.00000000000E+00 0.  1.
         11    1    5    5    0    0 -0.11866756159E+01  0.85925911199E+01 -0.44694936922E+01  0.97579298540E+01  0.00000000000E+00 0.  1.
        -11    1    5    5    0    0 -0.39751977882E+03 -0.60378546036E+02  0.15103389278E+02  0.40236259237E+03  0.00000000000E+00 0. -1.
          2    1    6    6  503    0  0.39178836122E+03  0.20289276595E+03 -0.32162668604E+02  0.44237770255E+03  0.00000000000E+00 0. -1.
         -2    1    6    6    0  503  0.36312738180E+02  0.19427377641E+02 -0.29544418015E+02  0.50684421591E+02  0.00000000000E+00 0.  1.
<mgrwt>
<rscale>  0 0.14089622E+04</rscale>
<asrwt>0</asrwt>
<pdfrwt beam="1">  1        1 0.15445735E+00 0.14089622E+04</pdfrwt>
<pdfrwt beam="2">  1       -1 0.76050732E-01 0.14089622E+04</pdfrwt>
<totfact> 0.25423879E+01</totfact>
</mgrwt>
</event>
<event>
12    2  0.3623523E-008  0.1389615E+04  0.7818608E-02  0.8961370E-01
         -2   -1    0    0    0  501 -0.00000000000E+00  0.00000000000E+00  0.12697371895E+04  0.12697371895E+04  0.00000000000E+00 0.  1.
          2   -1    0    0  501    0  0.00000000000E+00 -0.00000000000E+00 -0.38020286778E+03  0.38020286778E+03  0.00000000000E+00 0. -1.
         23    2    1    2    0    0  0.14587113944E+03  0.27418237791E+03 -0.60933087393E+01  0.32359413538E+03  0.90673427006E+02 0.  0.
        254    2    1    2    0    0 -0.14587113944E+03 -0.27418237791E+03  0.89562763049E+03  0.13263459219E+04  0.92768005606E+03 0.  0.
         23    2    4    4    0    0  0.29645598680E+03 -0.13742561309E+03  0.30062138440E+02  0.34034684684E+03  0.90334338657E+02 0.  0.
         23    2    4    4    0    0 -0.44232712624E+03 -0.13675676482E+03  0.86556549205E+03  0.98599907508E+03  0.92923924249E+02 0.  0.
          3    1    3    3  502    0  0.97069110901E+02  0.10965173585E+03 -0.32367988957E+02  0.14997867240E+03  0.00000000000E+00 0. -1.
         -3    1    3    3    0  502  0.48802028537E+02  0.16453064206E+03  0.26274680217E+02  0.17361546298E+03  0.00000000000E+00 0.  1.
         11    1    5    5    0    0  0.20515133153E+03 -0.10510451586E+03 -0.19895826871E+02  0.23136523509E+03  0.00000000000E+00 0.  1.
        -11    1    5    5    0    0  0.91304655273E+02 -0.32321097235E+02  0.49957965312E+02  0.10898161175E+03  0.00000000000E+00 0. -1.
          1    1    6    6  503    0 -0.80278953518E+02  0.66406372172E+01  0.11467768387E+03  0.14014199806E+03  0.00000000000E+00 0. -1.
         -1    1    6    6    0  503 -0.36204817272E+03 -0.14339740203E+03  0.75088780817E+03  0.84585707702E+03  0.00000000000E+00 0.  1.
<mgrwt>
<rscale>  0 0.13896154E+04</rscale>
<asrwt>0</asrwt>
<pdfrwt beam="1">  1        2 0.58492750E-01 0.13896154E+04</pdfrwt>
<pdfrwt beam="2">  1       -2 0.19534418E+00 0.13896154E+04</pdfrwt>
<totfact> 0.11696964E+01</totfact>
</mgrwt>
</event>
<event>
12    2  0.3623523E-008  0.1425147E+04  0.7818608E-02  0.8935815E-01
         -1   -1    0    0    0  501 -0.00000000000E+00  0.00000000000E+00  0.14875593126E+03  0.14875593126E+03  0.00000000000E+00 0.  1.
          1   -1    0    0  501    0  0.00000000000E+00 -0.00000000000E+00 -0.34133814104E+04  0.34133814104E+04  0.00000000000E+00 0. -1.
         23    2    1    2    0    0  0.22358633969E+03 -0.34982216560E+03 -0.73664905964E+03  0.85036744440E+03  0.90036407060E+02 0.  0.
        254    2    1    2    0    0 -0.22358633969E+03  0.34982216560E+03 -0.25279764195E+04  0.27117698972E+04  0.88919334190E+03 0.  0.
         23    2    4    4    0    0 -0.21100030110E+03 -0.25830074424E+03 -0.12015385575E+04  0.12498132362E+04  0.84248553567E+02 0.  0.
         23    2    4    4    0    0 -0.12586038591E+02  0.60812290984E+03 -0.13264378620E+04  0.14619566610E+04  0.88926908793E+02 0.  0.
          3    1    3    3  502    0  0.16986752418E+02 -0.60350742139E+01 -0.70688731706E+02  0.72951138913E+02  0.00000000000E+00 0. -1.
         -3    1    3    3    0  502  0.20659958727E+03 -0.34378709139E+03 -0.66596032793E+03  0.77741630549E+03  0.00000000000E+00 0.  1.
         11    1    5    5    0    0 -0.21898926594E+03 -0.24618224035E+03 -0.11514052236E+04  0.11976209680E+04  0.00000000000E+00 0. -1.
        -11    1    5    5    0    0  0.79889648444E+01 -0.12118503892E+02 -0.50133333897E+02  0.52192268235E+02  0.00000000000E+00 0.  1.
          4    1    6    6  503    0  0.17306934281E+02  0.22108237202E+03 -0.39757853833E+03  0.45524239623E+03  0.00000000000E+00 0. -1.
         -4    1    6    6    0  503 -0.29892972871E+02  0.38704053783E+03 -0.92885932364E+03  0.10067142648E+04  0.00000000000E+00 0.  1.
<mgrwt>
<rscale>  0 0.14251466E+04</rscale>
<asrwt>0</asrwt>
<pdfrwt beam="1">  1        1 0.52513564E+00 0.14251466E+04</pdfrwt>
<pdfrwt beam="2">  1       -1 0.22885526E-01 0.14251466E+04</pdfrwt>
<totfact> 0.46895028E+00</totfact>
</mgrwt>
</event>
<event>
12    2  0.3623523E-008  0.2843118E+04  0.7818608E-02  0.8290006E-01
          2   -1    0    0  501    0  0.00000000000E+00  0.00000000000E+00  0.20395488139E+04  0.20395488139E+04  0.00000000000E+00 0. -1.
         -2   -1    0    0    0  501 -0.00000000000E+00 -0.00000000000E+00 -0.99082207796E+03  0.99082207796E+03  0.00000000000E+00 0.  1.
         23    2    1    2    0    0  0.78514013992E+02 -0.22000032306E+03 -0.86699753974E+03  0.90251736798E+03  0.91039953095E+02 0.  0.
        254    2    1    2    0    0 -0.78514013992E+02  0.22000032306E+03  0.19157242757E+04  0.21278535239E+04  0.89621232203E+03 0.  0.
         23    2    4    4    0    0  0.38242128233E+03 -0.19060063879E+02  0.70116098679E+03  0.80384411520E+03  0.89046667200E+02 0.  0.
         23    2    4    4    0    0 -0.46093529632E+03  0.23906038693E+03  0.12145632889E+04  0.13240094087E+04  0.90695730685E+02 0.  0.
          1    1    3    3  502    0 -0.16195514450E+02 -0.80180867095E+02 -0.28924808853E+03  0.30059228675E+03  0.00000000000E+00 0. -1.
         -1    1    3    3    0  502  0.94709528442E+02 -0.13981945596E+03 -0.57774945121E+03  0.60192508123E+03  0.00000000000E+00 0.  1.
         11    1    5    5    0    0  0.27893376352E+03  0.18665209816E+02  0.54799765962E+03  0.61518604457E+03  0.00000000000E+00 0.  1.
        -11    1    5    5    0    0  0.10348751881E+03 -0.37725273695E+02  0.15316332717E+03  0.18865807063E+03  0.00000000000E+00 0. -1.
          3    1    6    6  503    0 -0.57229057058E+02  0.67338624971E+02  0.19942084532E+03  0.21812457205E+03  0.00000000000E+00 0. -1.
         -3    1    6    6    0  503 -0.40370623926E+03  0.17172176196E+03  0.10151424436E+04  0.11058848366E+04  0.00000000000E+00 0.  1.
<mgrwt>
<rscale>  0 0.28431180E+04</rscale>
<asrwt>0</asrwt>
<pdfrwt beam="1">  1        2 0.31377674E+00 0.28431180E+04</pdfrwt>
<pdfrwt beam="2">  1       -2 0.15243417E+00 0.28431180E+04</pdfrwt>
<totfact> 0.15808218E+00</totfact>
</mgrwt>
</event>
<event>
12    2  0.4393398E-008  0.1764061E+04  0.7818608E-02  0.8725648E-01
         -1   -1    0    0    0  501 -0.00000000000E+00  0.00000000000E+00  0.75367349138E+03  0.75367349138E+03  0.00000000000E+00 0.  1.
          1   -1    0    0  501    0  0.00000000000E+00 -0.00000000000E+00 -0.10322476398E+04  0.10322476398E+04  0.00000000000E+00 0. -1.
         23    2    1    2    0    0 -0.57723278255E+03  0.11995589399E+02  0.41800822777E+02  0.58599423180E+03  0.91106264906E+02 0.  0.
        254    2    1    2    0    0  0.57723278255E+03 -0.11995589399E+02 -0.32037497120E+03  0.11999268994E+04  0.10019195887E+04 0.  0.
         23    2    4    4    0    0  0.40088061998E+03  0.34749312119E+03 -0.51497349113E+03  0.74482071067E+03  0.90019185253E+02 0.  0.
         23    2    4    4    0    0  0.17635216256E+03 -0.35948871059E+03  0.19459851993E+03  0.45510618872E+03  0.94450202597E+02 0.  0.
          1    1    3    3  502    0 -0.13802452952E+02  0.15928830962E+00 -0.14028731623E+02  0.19680914389E+02  0.00000000000E+00 0. -1.
         -1    1    3    3    0  502 -0.56343032959E+03  0.11836301090E+02  0.55829554399E+02  0.56631331741E+03  0.00000000000E+00 0.  1.
         11    1    5    5    0    0  0.30426163162E+03  0.22057683045E+03 -0.39515593453E+03  0.54532329054E+03  0.00000000000E+00 0. -1.
        -11    1    5    5    0    0  0.96618988364E+02  0.12691629074E+03 -0.11981755660E+03  0.19949742013E+03  0.00000000000E+00 0.  1.
          2    1    6    6  503    0  0.18668904323E+03 -0.34635866446E+03  0.19318714913E+03  0.43833594183E+03  0.00000000000E+00 0. -1.
         -2    1    6    6    0  503 -0.10336880668E+02 -0.13130046128E+02  0.14113708010E+01  0.16770246891E+02  0.00000000000E+00 0.  1.
<mgrwt>
<rscale>  0 0.17640609E+04</rscale>
<asrwt>0</asrwt>
<pdfrwt beam="1">  1        1 0.15880733E+00 0.17640609E+04</pdfrwt>
<pdfrwt beam="2">  1       -1 0.11594977E+00 0.17640609E+04</pdfrwt>
<totfact> 0.90983553E+00</totfact>
</mgrwt>
</event>
<event>
12    2  0.3623523E-008  0.1594285E+04  0.7818608E-02  0.8824067E-01
          2   -1    0    0  501    0  0.00000000000E+00  0.00000000000E+00  0.20757576081E+04  0.20757576081E+04  0.00000000000E+00 0. -1.
         -2   -1    0    0    0  501 -0.00000000000E+00 -0.00000000000E+00 -0.30612249946E+03  0.30612249946E+03  0.00000000000E+00 0.  1.
         23    2    1    2    0    0  0.17512914968E+02  0.15116194082E+03  0.13092353845E+04  0.13212131615E+04  0.91379929546E+02 0.  0.
        254    2    1    2    0    0 -0.17512914968E+02 -0.15116194082E+03  0.46039972416E+03  0.10606669461E+04  0.94333972141E+03 0.  0.
         23    2    4    4    0    0  0.39362232091E+03  0.11440318568E+03  0.65184563059E+02  0.42552907339E+03  0.93804821997E+02 0.  0.
         23    2    4    4    0    0 -0.41113523587E+03 -0.26556512650E+03  0.39521516110E+03  0.63513787271E+03  0.87453274326E+02 0.  0.
          1    1    3    3  502    0  0.16634745036E+00  0.15824146742E+03  0.11362033739E+04  0.11471697767E+04  0.00000000000E+00 0. -1.
         -1    1    3    3    0  502  0.17346567517E+02 -0.70795265964E+01  0.17303201059E+03  0.17404338480E+03  0.00000000000E+00 0.  1.
         11    1    5    5    0    0  0.38630685747E+03  0.12333956384E+03  0.72371956067E+02  0.41192637226E+03  0.00000000000E+00 0.  1.
        -11    1    5    5    0    0  0.73154634348E+01 -0.89363781568E+01 -0.71873930085E+01  0.13602701132E+02  0.00000000000E+00 0. -1.
          1    1    6    6  503    0 -0.25210469638E+03 -0.20481817456E+03  0.23080218900E+03  0.39846820828E+03  0.00000000000E+00 0. -1.
         -1    1    6    6    0  503 -0.15903053950E+03 -0.60746951944E+02  0.16441297210E+03  0.23666966443E+03  0.00000000000E+00 0.  1.
<mgrwt>
<rscale>  0 0.15942849E+04</rscale>
<asrwt>0</asrwt>
<pdfrwt beam="1">  1        2 0.31934732E+00 0.15942849E+04</pdfrwt>
<pdfrwt beam="2">  1       -2 0.47095770E-01 0.15942849E+04</pdfrwt>
<totfact> 0.24862845E+01</totfact>
</mgrwt>
</event>
<event>
12    2  0.3623523E-008  0.1660633E+04  0.7818608E-02  0.8784141E-01
         -1   -1    0    0    0  501 -0.00000000000E+00  0.00000000000E+00  0.63771623148E+03  0.63771623148E+03  0.00000000000E+00 0.  1.
          1   -1    0    0  501    0  0.00000000000E+00 -0.00000000000E+00 -0.10810848891E+04  0.10810848891E+04  0.00000000000E+00 0. -1.
         23    2    1    2    0    0 -0.25284594906E+03 -0.39622507418E+03  0.20150577065E+03  0.51949263734E+03  0.91338060423E+02 0.  0.
        254    2    1    2    0    0  0.25284594906E+03  0.39622507418E+03 -0.64487442824E+03  0.11993084832E+04  0.89529460311E+03 0.  0.
         23    2    4    4    0    0 -0.17176730260E+03  0.48255872930E+03 -0.52782923709E+03  0.74116029243E+03  0.91367073264E+02 0.  0.
         23    2    4    4    0    0  0.42461325166E+03 -0.86333655124E+02 -0.11704519115E+03  0.45814819079E+03  0.91925374433E+02 0.  0.
          3    1    3    3  502    0 -0.30922170940E+02 -0.16694201638E+02 -0.16346508932E+01  0.35178816176E+02  0.00000000000E+00 0. -1.
         -3    1    3    3    0  502 -0.22192377812E+03 -0.37953087254E+03  0.20314042154E+03  0.48431382116E+03  0.00000000000E+00 0.  1.
         11    1    5    5    0    0 -0.11519134355E+03  0.41418806431E+03 -0.41414070649E+03  0.59693661558E+03  0.00000000000E+00 0.  1.
        -11    1    5    5    0    0 -0.56575959055E+02  0.68370664992E+02 -0.11368853060E+03  0.14422367685E+03  0.00000000000E+00 0. -1.
          2    1    6    6  503    0  0.36085014450E+03 -0.10380573969E+03 -0.11204849087E+03  0.39184604462E+03  0.00000000000E+00 0.  1.
         -2    1    6    6    0  503  0.63763107156E+02  0.17472084563E+02 -0.49967002761E+01  0.66302146170E+02  0.00000000000E+00 0. -1.
<mgrwt>
<rscale>  0 0.16606329E+04</rscale>
<asrwt>0</asrwt>
<pdfrwt beam="1">  1        1 0.16632075E+00 0.16606329E+04</pdfrwt>
<pdfrwt beam="2">  1       -1 0.98110191E-01 0.16606329E+04</pdfrwt>
<totfact> 0.12456728E+01</totfact>
</mgrwt>
</event>
<event>
12    2  0.3623523E-008  0.1851464E+04  0.7818608E-02  0.8679400E-01
          2   -1    0    0  501    0  0.00000000000E+00  0.00000000000E+00  0.84065236042E+03  0.84065236042E+03  0.00000000000E+00 0.  1.
         -2   -1    0    0    0  501 -0.00000000000E+00 -0.00000000000E+00 -0.10194219789E+04  0.10194219789E+04  0.00000000000E+00 0. -1.
         23    2    1    2    0    0 -0.67009257919E+03  0.89861149828E+01 -0.26187967922E+03  0.72515745516E+03  0.90374517686E+02 0.  0.
        254    2    1    2    0    0  0.67009257919E+03 -0.89861149828E+01  0.83110060716E+02  0.11349168842E+04  0.91215362570E+03 0.  0.
         23    2    4    4    0    0  0.68067620855E+03  0.94028320493E+02 -0.27922011602E+03  0.74729859796E+03  0.91268260535E+02 0.  0.
         23    2    4    4    0    0 -0.10583629363E+02 -0.10301443548E+03  0.36233017673E+03  0.38761828623E+03  0.90778806561E+02 0.  0.
          4    1    3    3  502    0 -0.54331379704E+03  0.20719257717E+02 -0.24627552701E+03  0.59688424749E+03  0.00000000000E+00 0. -1.
         -4    1    3    3    0  502 -0.12677878215E+03 -0.11733142734E+02 -0.15604152206E+02  0.12827320768E+03  0.00000000000E+00 0.  1.
         11    1    5    5    0    0  0.13581239850E+02  0.16801790069E+02 -0.77179299648E+01  0.22941592541E+02  0.00000000000E+00 0.  1.
        -11    1    5    5    0    0  0.66709496870E+03  0.77226530424E+02 -0.27150218605E+03  0.72435700542E+03  0.00000000000E+00 0. -1.
          4    1    6    6  503    0 -0.70374862445E+01 -0.82367102868E+02  0.35637680861E+03  0.36583916625E+03  0.00000000000E+00 0. -1.
         -4    1    6    6    0  503 -0.35461431183E+01 -0.20647332608E+02  0.59533681166E+01  0.21779119973E+02  0.00000000000E+00 0.  1.
<mgrwt>
<rscale>  0 0.18514637E+04</rscale>
<asrwt>0</asrwt>
<pdfrwt beam="1">  1        2 0.12933113E+00 0.18514637E+04</pdfrwt>
<pdfrwt beam="2">  1       -2 0.15683415E+00 0.18514637E+04</pdfrwt>
<totfact> 0.80536043E+00</totfact>
</mgrwt>
</event>
<event>
12    2  0.3623523E-008  0.1599180E+04  0.7818608E-02  0.8821052E-01
          1   -1    0    0  501    0  0.00000000000E+00  0.00000000000E+00  0.56547385913E+03  0.56547385913E+03  0.00000000000E+00 0. -1.
         -1   -1    0    0    0  501 -0.00000000000E+00 -0.00000000000E+00 -0.11306349935E+04  0.11306349935E+04  0.00000000000E+00 0.  1.
         23    2    1    2    0    0  0.96750066572E+02 -0.36788873337E+03 -0.60537584593E+03  0.72075702018E+03  0.91148624673E+02 0.  0.
        254    2    1    2    0    0 -0.96750066572E+02  0.36788873337E+03  0.40214711557E+02  0.97535183245E+03  0.89721306193E+03 0.  0.
         23    2    4    4    0    0 -0.45940111700E+03  0.31943874062E+02  0.53558439735E+02  0.47242784937E+03  0.90828238979E+02 0.  0.
         23    2    4    4    0    0  0.36265105043E+03  0.33594485931E+03 -0.13343728178E+02  0.50292398308E+03  0.91540946025E+02 0.  0.
          4    1    3    3  502    0  0.10789278025E+02 -0.21813802122E+03 -0.33029269199E+03  0.39597205357E+03  0.00000000000E+00 0.  1.
         -4    1    3    3    0  502  0.85960788548E+02 -0.14975071215E+03 -0.27508315394E+03  0.32478496661E+03  0.00000000000E+00 0. -1.
         11    1    5    5    0    0 -0.19072696306E+02 -0.16249020887E+02 -0.52000171958E+01  0.25589814438E+02  0.00000000000E+00 0. -1.
        -11    1    5    5    0    0 -0.44032842070E+03  0.48192894949E+02  0.58758456930E+02  0.44683803493E+03  0.00000000000E+00 0.  1.
          1    1    6    6  503    0  0.12347030161E+03  0.17519837278E+03 -0.13274866606E+02  0.21474544766E+03  0.00000000000E+00 0. -1.
         -1    1    6    6    0  503  0.23918074882E+03  0.16074648653E+03 -0.68861571479E-01  0.28817853543E+03  0.00000000000E+00 0.  1.
<mgrwt>
<rscale>  0 0.15991805E+04</rscale>
<asrwt>0</asrwt>
<pdfrwt beam="1">  1        1 0.86995979E-01 0.15991805E+04</pdfrwt>
<pdfrwt beam="2">  1       -1 0.17394384E+00 0.15991805E+04</pdfrwt>
<totfact> 0.82381071E+00</totfact>
</mgrwt>
</event>
<event>
12    2  0.3623523E-008  0.2911408E+04  0.7818608E-02  0.8269491E-01
         -2   -1    0    0    0  501 -0.00000000000E+00  0.00000000000E+00  0.16224215514E+04  0.16224215514E+04  0.00000000000E+00 0. -1.
          2   -1    0    0  501    0  0.00000000000E+00 -0.00000000000E+00 -0.13061178936E+04  0.13061178936E+04  0.00000000000E+00 0.  1.
         23    2    1    2    0    0  0.68550654785E+03  0.72751010565E+03  0.10050344828E+04  0.14204779904E+04  0.92050141785E+02 0.  0.
        254    2    1    2    0    0 -0.68550654785E+03 -0.72751010565E+03 -0.68873082494E+03  0.15080614546E+04  0.89482345779E+03 0.  0.
         23    2    4    4    0    0 -0.25172991796E+03 -0.26356022816E+03 -0.77451438314E+03  0.86062621616E+03  0.89291706155E+02 0.  0.
         23    2    4    4    0    0 -0.43377662990E+03 -0.46394987749E+03  0.85783558195E+02  0.64743523843E+03  0.91661963947E+02 0.  0.
          3    1    3    3  502    0  0.13566910226E+03  0.16351382822E+03  0.26551515834E+03  0.34006054848E+03  0.00000000000E+00 0. -1.
         -3    1    3    3    0  502  0.54983744559E+03  0.56399627743E+03  0.73951932446E+03  0.10804174419E+04  0.00000000000E+00 0.  1.
         11    1    5    5    0    0 -0.25451278039E+03 -0.26451362822E+03 -0.74054357562E+03  0.82652828281E+03  0.00000000000E+00 0.  1.
        -11    1    5    5    0    0  0.27828624344E+01  0.95340006137E+00 -0.33970807514E+02  0.34097933341E+02  0.00000000000E+00 0. -1.
          2    1    6    6  503    0 -0.74759536602E+02 -0.38568360945E+02 -0.68044460673E+00  0.84124727541E+02  0.00000000000E+00 0. -1.
         -2    1    6    6    0  503 -0.35901709329E+03 -0.42538151655E+03  0.86464002801E+02  0.56331051089E+03  0.00000000000E+00 0.  1.
<mgrwt>
<rscale>  0 0.29114078E+04</rscale>
<asrwt>0</asrwt>
<pdfrwt beam="1">  1        2 0.20094121E+00 0.29114078E+04</pdfrwt>
<pdfrwt beam="2">  1       -2 0.24960332E+00 0.29114078E+04</pdfrwt>
<totfact> 0.91363597E-01</totfact>
</mgrwt>
</event>
<event>
12    2  0.3623523E-008  0.1709023E+04  0.7818608E-02  0.8756235E-01
          1   -1    0    0  501    0  0.00000000000E+00  0.00000000000E+00  0.83438419500E+03  0.83438419500E+03  0.00000000000E+00 0. -1.
         -1   -1    0    0    0  501 -0.00000000000E+00 -0.00000000000E+00 -0.87512434549E+03  0.87512434549E+03  0.00000000000E+00 0.  1.
         23    2    1    2    0    0 -0.54308660905E+03  0.39437757415E+02 -0.28199255352E+03  0.61991703044E+03  0.90988585804E+02 0.  0.
        254    2    1    2    0    0  0.54308660905E+03 -0.39437757415E+02  0.24125240303E+03  0.10895915101E+04  0.91241905678E+03 0.  0.
         23    2    4    4    0    0 -0.41451901905E+01 -0.84418931543E+02 -0.29277765841E+03  0.31829769485E+03  0.91928921885E+02 0.  0.
         23    2    4    4    0    0  0.54723179924E+03  0.44981174128E+02  0.53403006144E+03  0.77129381520E+03  0.90664738023E+02 0.  0.
          3    1    3    3  502    0 -0.30748136146E+03  0.13233018431E+01 -0.20327802936E+03  0.36860344002E+03  0.00000000000E+00 0. -1.
         -3    1    3    3    0  502 -0.23560524759E+03  0.38114455572E+02 -0.78714524160E+02  0.25131359042E+03  0.00000000000E+00 0.  1.
         11    1    5    5    0    0  0.16207834801E+02 -0.16292848376E+02 -0.20046074021E+03  0.20177378220E+03  0.00000000000E+00 0. -1.
        -11    1    5    5    0    0 -0.20353024991E+02 -0.68126083167E+02 -0.92316918201E+02  0.11652391265E+03  0.00000000000E+00 0.  1.
          3    1    6    6  503    0  0.53730854923E+03  0.36505347621E+02  0.50008792011E+03  0.73492927913E+03  0.00000000000E+00 0. -1.
         -3    1    6    6    0  503  0.99232500094E+01  0.84758265070E+01  0.33942141327E+02  0.36364536070E+02  0.00000000000E+00 0.  1.
<mgrwt>
<rscale>  0 0.17090230E+04</rscale>
<asrwt>0</asrwt>
<pdfrwt beam="1">  1        1 0.12836680E+00 0.17090230E+04</pdfrwt>
<pdfrwt beam="2">  1       -1 0.13463451E+00 0.17090230E+04</pdfrwt>
<totfact> 0.91092694E+00</totfact>
</mgrwt>
</event>
<event>
12    2  0.3623523E-008  0.2191310E+04  0.7818608E-02  0.8522054E-01
         -3   -1    0    0    0  501 -0.00000000000E+00  0.00000000000E+00  0.14554120333E+04  0.14554120333E+04  0.00000000000E+00 0.  1.
          3   -1    0    0  501    0  0.00000000000E+00 -0.00000000000E+00 -0.82482487760E+03  0.82482487760E+03  0.00000000000E+00 0. -1.
         23    2    1    2    0    0 -0.14594416494E+03 -0.65707586650E+03 -0.38196718771E+03  0.77937981065E+03  0.92117116460E+02 0.  0.
        254    2    1    2    0    0  0.14594416494E+03  0.65707586650E+03  0.10125543434E+04  0.15008571003E+04  0.87991894138E+03 0.  0.
         23    2    4    4    0    0 -0.10842611984E+03  0.39697947192E+03  0.22852683323E+01  0.42310551624E+03  0.98306311251E+02 0.  0.
         23    2    4    4    0    0  0.25437028478E+03  0.26009639458E+03  0.10102690751E+04  0.10777515840E+04  0.92468894899E+02 0.  0.
          1    1    3    3  502    0 -0.29400575177E+02 -0.52278296492E+02 -0.58068155688E+02  0.83482482054E+02  0.00000000000E+00 0.  1.
         -1    1    3    3    0  502 -0.11654358976E+03 -0.60479757001E+03 -0.32389903202E+03  0.69589732860E+03  0.00000000000E+00 0. -1.
         11    1    5    5    0    0 -0.79734115337E+02  0.29812191281E+03  0.44607393450E+02  0.31180767084E+03  0.00000000000E+00 0.  1.
        -11    1    5    5    0    0 -0.28692004506E+02  0.98857559114E+02 -0.42322125117E+02  0.11129784540E+03  0.00000000000E+00 0. -1.
          3    1    6    6  503    0  0.43054529248E+02  0.66543243090E+02  0.33398544913E+03  0.34326079869E+03  0.00000000000E+00 0. -1.
         -3    1    6    6    0  503  0.21131575553E+03  0.19355315149E+03  0.67628362595E+03  0.73449078532E+03  0.00000000000E+00 0.  1.
<mgrwt>
<rscale>  0 0.21913102E+04</rscale>
<asrwt>0</asrwt>
<pdfrwt beam="1">  1        3 0.12689614E+00 0.21913102E+04</pdfrwt>
<pdfrwt beam="2">  1       -3 0.22390954E+00 0.21913102E+04</pdfrwt>
<totfact> 0.12290160E-01</totfact>
</mgrwt>
</event>
<event>
12    2  0.3623523E-008  0.1683002E+04  0.7818608E-02  0.8771119E-01
         -1   -1    0    0    0  501 -0.00000000000E+00  0.00000000000E+00  0.29431503938E+03  0.29431503938E+03  0.00000000000E+00 0.  1.
          1   -1    0    0  501    0  0.00000000000E+00 -0.00000000000E+00 -0.24060052932E+04  0.24060052932E+04  0.00000000000E+00 0. -1.
         23    2    1    2    0    0  0.19161704936E+03 -0.11376717456E+03 -0.16532443273E+04  0.16707757655E+04  0.92815889435E+02 0.  0.
        254    2    1    2    0    0 -0.19161704936E+03  0.11376717456E+03 -0.45844592651E+03  0.10295445670E+04  0.89449946024E+03 0.  0.
         23    2    4    4    0    0 -0.46402216024E+03  0.30237616331E+03 -0.18668164394E+03  0.59157512689E+03  0.91450452390E+02 0.  0.
         23    2    4    4    0    0  0.27240511088E+03 -0.18860898874E+03 -0.27176428256E+03  0.43796944014E+03  0.90462755613E+02 0.  0.
          2    1    3    3  502    0  0.29574608314E+02 -0.43123122199E+01 -0.51422307882E+03  0.51509089322E+03  0.00000000000E+00 0. -1.
         -2    1    3    3    0  502  0.16204244105E+03 -0.10945486234E+03 -0.11390212484E+04  0.11556848723E+04  0.00000000000E+00 0.  1.
         11    1    5    5    0    0 -0.10792191562E+03  0.10303618515E+03 -0.19172285421E+02  0.15043660409E+03  0.00000000000E+00 0.  1.
        -11    1    5    5    0    0 -0.35610024462E+03  0.19933997816E+03 -0.16750935852E+03  0.44113852280E+03  0.00000000000E+00 0. -1.
          2    1    6    6  503    0  0.27970176959E+03 -0.18451037631E+03 -0.26560475180E+03  0.42757811340E+03  0.00000000000E+00 0. -1.
         -2    1    6    6    0  503 -0.72966587131E+01 -0.40986124374E+01 -0.61595307653E+01  0.10391326746E+02  0.00000000000E+00 0.  1.
<mgrwt>
<rscale>  0 0.16830015E+04</rscale>
<asrwt>0</asrwt>
<pdfrwt beam="1">  1        1 0.37015466E+00 0.16830015E+04</pdfrwt>
<pdfrwt beam="2">  1       -1 0.45279237E-01 0.16830015E+04</pdfrwt>
<totfact> 0.72689687E+00</totfact>
</mgrwt>
</event>
<event>
12    2  0.3623523E-008  0.1410085E+04  0.7818608E-02  0.8946551E-01
          1   -1    0    0  501    0  0.00000000000E+00  0.00000000000E+00  0.10077330323E+04  0.10077330323E+04  0.00000000000E+00 0. -1.
         -1   -1    0    0    0  501 -0.00000000000E+00 -0.00000000000E+00 -0.49327017457E+03  0.49327017457E+03  0.00000000000E+00 0.  1.
         23    2    1    2    0    0  0.16000808037E+03 -0.35685232276E+03  0.29652229980E+03  0.49911983684E+03  0.90823847091E+02 0.  0.
        254    2    1    2    0    0 -0.16000808037E+03  0.35685232276E+03  0.21794055791E+03  0.10018833700E+04  0.89628457216E+03 0.  0.
         23    2    4    4    0    0 -0.14069674148E+02  0.60444108258E+03  0.31089460020E+03  0.68582413006E+03  0.90290126228E+02 0.  0.
         23    2    4    4    0    0 -0.14593840623E+03 -0.24758875982E+03 -0.92954042300E+02  0.31605923996E+03  0.93031052786E+02 0.  0.
          4    1    3    3  502    0  0.11571368339E+03 -0.30303675702E+03  0.27747364230E+03  0.42686362553E+03  0.00000000000E+00 0. -1.
         -4    1    3    3    0  502  0.44294396981E+02 -0.53815565742E+02  0.19048657502E+02  0.72256211309E+02  0.00000000000E+00 0.  1.
         11    1    5    5    0    0 -0.95943022577E+01  0.60529358542E+03  0.30362468679E+03  0.67724465713E+03  0.00000000000E+00 0.  1.
        -11    1    5    5    0    0 -0.44753718900E+01 -0.85250283891E+00  0.72699134172E+01  0.85794729289E+01  0.00000000000E+00 0. -1.
          4    1    6    6  503    0 -0.50426823736E+02 -0.17458604407E+03 -0.51184336364E+02  0.18879350525E+03  0.00000000000E+00 0. -1.
         -4    1    6    6    0  503 -0.95511582490E+02 -0.73002715749E+02 -0.41769705936E+02  0.12726573471E+03  0.00000000000E+00 0.  1.
<mgrwt>
<rscale>  0 0.14100846E+04</rscale>
<asrwt>0</asrwt>
<pdfrwt beam="1">  1        1 0.15503585E+00 0.14100846E+04</pdfrwt>
<pdfrwt beam="2">  1       -1 0.75887720E-01 0.14100846E+04</pdfrwt>
<totfact> 0.25364409E+01</totfact>
</mgrwt>
</event>
<event>
12    2  0.3623523E-008  0.2108046E+04  0.7818608E-02  0.8557707E-01
          2   -1    0    0  501    0  0.00000000000E+00  0.00000000000E+00  0.84588631302E+03  0.84588631302E+03  0.00000000000E+00 0. -1.
         -2   -1    0    0    0  501 -0.00000000000E+00 -0.00000000000E+00 -0.13133738439E+04  0.13133738439E+04  0.00000000000E+00 0.  1.
         23    2    1    2    0    0  0.65469883742E+03  0.52042699396E+02 -0.76902024880E+03  0.10154174352E+04  0.91331343807E+02 0.  0.
        254    2    1    2    0    0 -0.65469883742E+03 -0.52042699396E+02  0.30153271791E+03  0.11438427217E+04  0.88663136750E+03 0.  0.
         23    2    4    4    0    0 -0.40177971779E+03 -0.34664632929E+03 -0.13221883159E+03  0.55467072579E+03  0.92667013466E+02 0.  0.
         23    2    4    4    0    0 -0.25291911963E+03  0.29460362989E+03  0.43375154950E+03  0.58917199596E+03  0.90685469110E+02 0.  0.
          3    1    3    3  502    0  0.76527107760E+02  0.51863289999E+01 -0.49898231458E+02  0.91504807159E+02  0.00000000000E+00 0. -1.
         -3    1    3    3    0  502  0.57817172966E+03  0.46856370397E+02 -0.71912201735E+03  0.92391262804E+03  0.00000000000E+00 0.  1.
         11    1    5    5    0    0  0.28249833124E+01 -0.13332617696E+02  0.13787110729E+01  0.13698177600E+02  0.00000000000E+00 0. -1.
        -11    1    5    5    0    0 -0.40460470110E+03 -0.33331371159E+03 -0.13359754266E+03  0.54097254819E+03  0.00000000000E+00 0.  1.
          2    1    6    6  503    0 -0.70403271300E+02  0.62542466846E+02  0.55388900485E+02  0.10925251057E+03  0.00000000000E+00 0. -1.
         -2    1    6    6    0  503 -0.18251584833E+03  0.23206116305E+03  0.37836264901E+03  0.47991948539E+03  0.00000000000E+00 0.  1.
<mgrwt>
<rscale>  0 0.21080464E+04</rscale>
<asrwt>0</asrwt>
<pdfrwt beam="1">  1        2 0.13013636E+00 0.21080464E+04</pdfrwt>
<pdfrwt beam="2">  1       -2 0.20205751E+00 0.21080464E+04</pdfrwt>
<totfact> 0.37920672E+00</totfact>
</mgrwt>
</event>
<event>
12    2  0.3623523E-008  0.1729029E+04  0.7818608E-02  0.8744979E-01
         -2   -1    0    0    0  501 -0.00000000000E+00  0.00000000000E+00  0.64294087363E+03  0.64294087363E+03  0.00000000000E+00 0.  1.
          2   -1    0    0  501    0  0.00000000000E+00 -0.00000000000E+00 -0.11624482967E+04  0.11624482967E+04  0.00000000000E+00 0. -1.
         23    2    1    2    0    0  0.40707743143E+03  0.45730746890E+03 -0.53316714649E+02  0.62072219745E+03  0.87242295127E+02 0.  0.
        254    2    1    2    0    0 -0.40707743143E+03 -0.45730746890E+03 -0.46619070845E+03  0.11846669729E+04  0.90069967456E+03 0.  0.
         23    2    4    4    0    0  0.36258301204E+02  0.19746870405E+03  0.62402826874E+02  0.22921484449E+03  0.91305961731E+02 0.  0.
         23    2    4    4    0    0 -0.44333573264E+03 -0.65477617294E+03 -0.52859353532E+03  0.95545212841E+03  0.90549630677E+02 0.  0.
          4    1    3    3  502    0  0.39968250600E+03  0.42584360661E+03 -0.61848518641E+02  0.58729389759E+03  0.00000000000E+00 0. -1.
         -4    1    3    3    0  502  0.73949254381E+01  0.31463862293E+02  0.85318039927E+01  0.33428299867E+02  0.00000000000E+00 0.  1.
         11    1    5    5    0    0 -0.17350077920E+02  0.78765371626E+02 -0.81881480892E+01  0.81068210417E+02  0.00000000000E+00 0. -1.
        -11    1    5    5    0    0  0.53608379124E+02  0.11870333242E+03  0.70590974963E+02  0.14814663407E+03  0.00000000000E+00 0.  1.
          2    1    6    6  503    0 -0.58363819122E+02 -0.41432469147E+02 -0.53586767477E+02  0.89412116241E+02  0.00000000000E+00 0. -1.
         -2    1    6    6    0  503 -0.38497191352E+03 -0.61334370380E+03 -0.47500676785E+03  0.86604001217E+03  0.00000000000E+00 0.  1.
<mgrwt>
<rscale>  0 0.17290292E+04</rscale>
<asrwt>0</asrwt>
<pdfrwt beam="1">  1        2 0.17883820E+00 0.17290292E+04</pdfrwt>
<pdfrwt beam="2">  1       -2 0.98913980E-01 0.17290292E+04</pdfrwt>
<totfact> 0.16059243E+01</totfact>
</mgrwt>
</event>
<event>
12    2  0.3623523E-008  0.1128692E+04  0.7818608E-02  0.9177669E-01
          2   -1    0    0  501    0  0.00000000000E+00  0.00000000000E+00  0.21298563794E+04  0.21298563794E+04  0.00000000000E+00 0. -1.
         -2   -1    0    0    0  501 -0.00000000000E+00 -0.00000000000E+00 -0.14953425645E+03  0.14953425645E+03  0.00000000000E+00 0.  1.
         23    2    1    2    0    0 -0.51859195638E+02 -0.13885258957E+03  0.26369498187E+03  0.31546321413E+03  0.89513005791E+02 0.  0.
        254    2    1    2    0    0  0.51859195638E+02  0.13885258957E+03  0.17166271411E+04  0.19639274218E+04  0.94246101164E+03 0.  0.
         23    2    4    4    0    0  0.76941891118E+02 -0.31294642657E+03  0.22770919467E+03  0.40511861629E+03  0.91728378444E+02 0.  0.
         23    2    4    4    0    0 -0.25082695479E+02  0.45179901614E+03  0.14889179465E+04  0.15588088055E+04  0.90866650214E+02 0.  0.
          3    1    3    3  502    0  0.31420929443E+01 -0.84555134195E+02  0.19294564737E+03  0.21068333182E+03  0.00000000000E+00 0. -1.
         -3    1    3    3    0  502 -0.55001288583E+02 -0.54297455376E+02  0.70749334498E+02  0.10477988231E+03  0.00000000000E+00 0.  1.
         11    1    5    5    0    0  0.80458528134E+01  0.46730023790E+01  0.11379722925E+02  0.14699346672E+02  0.00000000000E+00 0.  1.
        -11    1    5    5    0    0  0.68896038304E+02 -0.31761942895E+03  0.21632947175E+03  0.39041926962E+03  0.00000000000E+00 0. -1.
          1    1    6    6  503    0  0.30832664236E+02  0.19641936675E+03  0.70109614380E+03  0.72874345531E+03  0.00000000000E+00 0. -1.
         -1    1    6    6    0  503 -0.55915359715E+02  0.25537964940E+03  0.78782180267E+03  0.83006535016E+03  0.00000000000E+00 0.  1.
<mgrwt>
<rscale>  0 0.11286921E+04</rscale>
<asrwt>0</asrwt>
<pdfrwt beam="1">  1        2 0.32767019E+00 0.11286921E+04</pdfrwt>
<pdfrwt beam="2">  1       -2 0.23005272E-01 0.11286921E+04</pdfrwt>
<totfact> 0.93709494E+01</totfact>
</mgrwt>
</event>
<event>
12    2  0.3623523E-008  0.1927454E+04  0.7818608E-02  0.8641310E-01
         -2   -1    0    0    0  501 -0.00000000000E+00  0.00000000000E+00  0.10488941884E+04  0.10488941884E+04  0.00000000000E+00 0.  1.
          2   -1    0    0  501    0  0.00000000000E+00 -0.00000000000E+00 -0.88547504086E+03  0.88547504086E+03  0.00000000000E+00 0. -1.
         23    2    1    2    0    0  0.48501009856E+03 -0.97205531323E+02 -0.50459936347E+03  0.71245550284E+03  0.91041830473E+02 0.  0.
        254    2    1    2    0    0 -0.48501009856E+03  0.97205531323E+02  0.66801851102E+03  0.12219137264E+04  0.89562308632E+03 0.  0.
         23    2    4    4    0    0 -0.16890704641E+03 -0.93802091051E+02 -0.18894034228E+03  0.28424043311E+03  0.88123483038E+02 0.  0.
         23    2    4    4    0    0 -0.31610305215E+03  0.19100762237E+03  0.85695885330E+03  0.93767329332E+03  0.91911247265E+02 0.  0.
          3    1    3    3  502    0  0.26510290218E+03 -0.72349210447E+02 -0.33705927937E+03  0.43488264486E+03  0.00000000000E+00 0. -1.
         -3    1    3    3    0  502  0.21990719638E+03 -0.24856320875E+02 -0.16754008410E+03  0.27757285798E+03  0.00000000000E+00 0.  1.
         11    1    5    5    0    0 -0.30874375110E+02  0.10637301843E+02 -0.75530622146E+01  0.33517577147E+02  0.00000000000E+00 0. -1.
        -11    1    5    5    0    0 -0.13803267130E+03 -0.10443939289E+03 -0.18138728006E+03  0.25072285597E+03  0.00000000000E+00 0.  1.
          2    1    6    6  503    0  0.26722781466E+01  0.17090217816E+02  0.45069831248E+02  0.48275317754E+02  0.00000000000E+00 0. -1.
         -2    1    6    6    0  503 -0.31877533029E+03  0.17391740456E+03  0.81188902206E+03  0.88939797557E+03  0.00000000000E+00 0.  1.
<mgrwt>
<rscale>  0 0.19274539E+04</rscale>
<asrwt>0</asrwt>
<pdfrwt beam="1">  1        2 0.13622693E+00 0.19274539E+04</pdfrwt>
<pdfrwt beam="2">  1       -2 0.16136834E+00 0.19274539E+04</pdfrwt>
<totfact> 0.68965944E+00</totfact>
</mgrwt>
</event>
<event>
12    2  0.3623523E-008  0.2265116E+04  0.7818608E-02  0.8491804E-01
         -1   -1    0    0    0  501 -0.00000000000E+00  0.00000000000E+00  0.11613610619E+04  0.11613610619E+04  0.00000000000E+00 0.  1.
          1   -1    0    0  501    0  0.00000000000E+00 -0.00000000000E+00 -0.11044692604E+04  0.11044692604E+04  0.00000000000E+00 0. -1.
         23    2    1    2    0    0  0.23506482840E+03  0.87404978815E+03  0.32269064797E+03  0.96494809536E+03  0.88187679130E+02 0.  0.
        254    2    1    2    0    0 -0.23506482840E+03 -0.87404978815E+03 -0.26579884645E+03  0.13008822270E+04  0.89578291794E+03 0.  0.
         23    2    4    4    0    0  0.32716846917E+03 -0.26747992367E+03 -0.18564343315E+02  0.43297320022E+03  0.92392859459E+02 0.  0.
         23    2    4    4    0    0 -0.56223329757E+03 -0.60656986447E+03 -0.24723450314E+03  0.86790902679E+03  0.90043866282E+02 0.  0.
          1    1    3    3  502    0  0.17182641018E+03  0.58880159692E+03  0.17655473704E+03  0.63826578394E+03  0.00000000000E+00 0. -1.
         -1    1    3    3    0  502  0.63238418215E+02  0.28524819122E+03  0.14613591093E+03  0.32668231143E+03  0.00000000000E+00 0.  1.
         11    1    5    5    0    0  0.20383006134E+03 -0.17680298530E+03 -0.55550253570E+02  0.27548470047E+03  0.00000000000E+00 0.  1.
        -11    1    5    5    0    0  0.12333840783E+03 -0.90676938371E+02  0.36985910255E+02  0.15748849976E+03  0.00000000000E+00 0. -1.
          1    1    6    6  503    0 -0.44429994077E+02 -0.65823361588E+02 -0.49408642091E+02  0.93530493517E+02  0.00000000000E+00 0. -1.
         -1    1    6    6    0  503 -0.51780330349E+03 -0.54074650289E+03 -0.19782586105E+03  0.77437853327E+03  0.00000000000E+00 0.  1.
<mgrwt>
<rscale>  0 0.22651160E+04</rscale>
<asrwt>0</asrwt>
<pdfrwt beam="1">  1        1 0.16991835E+00 0.22651160E+04</pdfrwt>
<pdfrwt beam="2">  1       -1 0.17867093E+00 0.22651160E+04</pdfrwt>
<totfact> 0.24266620E+00</totfact>
</mgrwt>
</event>
<event>
12    2  0.3623523E-008  0.1628558E+04  0.7818608E-02  0.8803193E-01
          2   -1    0    0  501    0  0.00000000000E+00  0.00000000000E+00  0.10776712534E+04  0.10776712534E+04  0.00000000000E+00 0. -1.
         -2   -1    0    0    0  501 -0.00000000000E+00 -0.00000000000E+00 -0.61526235653E+03  0.61526235653E+03  0.00000000000E+00 0.  1.
         23    2    1    2    0    0 -0.53086255670E+03  0.18619651229E+03  0.17644740799E+03  0.59646890866E+03  0.90317639033E+02 0.  0.
        254    2    1    2    0    0  0.53086255670E+03 -0.18619651229E+03  0.28596148890E+03  0.10964647013E+04  0.89664746291E+03 0.  0.
         23    2    4    4    0    0  0.25845124568E+03 -0.27577990332E+03 -0.26375834824E+03  0.47013203331E+03  0.92758077855E+02 0.  0.
         23    2    4    4    0    0  0.27241131102E+03  0.89583391029E+02  0.54971983714E+03  0.62633266798E+03  0.88699522625E+02 0.  0.
          3    1    3    3  502    0 -0.13697003599E+03  0.69066829490E+02  0.85387384317E+02  0.17556202065E+03  0.00000000000E+00 0. -1.
         -3    1    3    3    0  502 -0.39389252071E+03  0.11712968280E+03  0.91060023671E+02  0.42090688801E+03  0.00000000000E+00 0.  1.
         11    1    5    5    0    0  0.13991905929E+02 -0.57335887532E+02 -0.22809983033E+02  0.63273001799E+02  0.00000000000E+00 0.  1.
        -11    1    5    5    0    0  0.24445933975E+03 -0.21844401579E+03 -0.24094836521E+03  0.40685903151E+03  0.00000000000E+00 0. -1.
          2    1    6    6  503    0  0.20274210152E+03  0.61274470764E+02  0.47614182064E+03  0.52112374141E+03  0.00000000000E+00 0. -1.
         -2    1    6    6    0  503  0.69669209495E+02  0.28308920264E+02  0.73578016504E+02  0.10520892657E+03  0.00000000000E+00 0.  1.
<mgrwt>
<rscale>  0 0.16285583E+04</rscale>
<asrwt>0</asrwt>
<pdfrwt beam="1">  1        2 0.16579558E+00 0.16285583E+04</pdfrwt>
<pdfrwt beam="2">  1       -2 0.94655747E-01 0.16285583E+04</pdfrwt>
<totfact> 0.20233222E+01</totfact>
</mgrwt>
</event>
<event>
12    2  0.3623523E-008  0.1693473E+04  0.7818608E-02  0.8765096E-01
          1   -1    0    0  501    0  0.00000000000E+00  0.00000000000E+00  0.31045302064E+04  0.31045302064E+04  0.00000000000E+00 0. -1.
         -1   -1    0    0    0  501 -0.00000000000E+00 -0.00000000000E+00 -0.23094088562E+03  0.23094088562E+03  0.00000000000E+00 0.  1.
         23    2    1    2    0    0  0.32873902253E+03 -0.17521117531E+03  0.17006633967E+04  0.17433439813E+04  0.90685981229E+02 0.  0.
        254    2    1    2    0    0 -0.32873902253E+03  0.17521117531E+03  0.11729259240E+04  0.15921271107E+04  0.10101213850E+04 0.  0.
         23    2    4    4    0    0  0.15348950656E+03 -0.30751386420E+03  0.59528471917E+03  0.69344080794E+03  0.91501103451E+02 0.  0.
         23    2    4    4    0    0 -0.48222852909E+03  0.48272503951E+03  0.57764120484E+03  0.89868630276E+03  0.91650920380E+02 0.  0.
          4    1    3    3  502    0  0.97637059817E+02 -0.57587435196E+02  0.34633216944E+03  0.36441086664E+03  0.00000000000E+00 0.  1.
         -4    1    3    3    0  502  0.23110196271E+03 -0.11762374011E+03  0.13543312273E+04  0.13789331146E+04  0.00000000000E+00 0. -1.
         11    1    5    5    0    0  0.11595781378E+03 -0.14435213289E+03  0.35784292475E+03  0.40290856487E+03  0.00000000000E+00 0. -1.
        -11    1    5    5    0    0  0.37531692777E+02 -0.16316173131E+03  0.23744179442E+03  0.29053224307E+03  0.00000000000E+00 0.  1.
          4    1    6    6  503    0 -0.22048851418E+03  0.23436369479E+03  0.33096162955E+03  0.46160278005E+03  0.00000000000E+00 0.  1.
         -4    1    6    6    0  503 -0.26174001491E+03  0.24836134472E+03  0.24667957529E+03  0.43708352271E+03  0.00000000000E+00 0. -1.
<mgrwt>
<rscale>  0 0.16934733E+04</rscale>
<asrwt>0</asrwt>
<pdfrwt beam="1">  1        1 0.47762000E+00 0.16934733E+04</pdfrwt>
<pdfrwt beam="2">  1       -1 0.35529369E-01 0.16934733E+04</pdfrwt>
<totfact> 0.36186824E+00</totfact>
</mgrwt>
</event>
<event>
12    2  0.3623523E-008  0.2596189E+04  0.7818608E-02  0.8369497E-01
          2   -1    0    0  501    0  0.00000000000E+00  0.00000000000E+00  0.16893225505E+04  0.16893225505E+04  0.00000000000E+00 0. -1.
         -2   -1    0    0    0  501 -0.00000000000E+00 -0.00000000000E+00 -0.99747029469E+03  0.99747029469E+03  0.00000000000E+00 0.  1.
         23    2    1    2    0    0  0.47520002906E+03 -0.10312627416E+04  0.17028236035E+03  0.11518519105E+04  0.91917525812E+02 0.  0.
        254    2    1    2    0    0 -0.47520002906E+03  0.10312627416E+04  0.52156989546E+03  0.15349409347E+04  0.89145420938E+03 0.  0.
         23    2    4    4    0    0 -0.16088419021E+03  0.10877567284E+04  0.46830158416E+03  0.11985156726E+04  0.89638277124E+02 0.  0.
         23    2    4    4    0    0 -0.31431583885E+03 -0.56493986829E+02  0.53268311299E+02  0.33642526217E+03  0.91424432939E+02 0.  0.
          2    1    3    3  502    0  0.46421635056E+03 -0.10262488893E+04  0.17274848634E+03  0.11395286931E+04  0.00000000000E+00 0. -1.
         -2    1    3    3    0  502  0.10983678500E+02 -0.50138523154E+01 -0.24661259949E+01  0.12323217350E+02  0.00000000000E+00 0.  1.
         11    1    5    5    0    0 -0.52639748431E+02  0.16712825771E+03  0.55661657041E+02  0.18385053088E+03  0.00000000000E+00 0.  1.
        -11    1    5    5    0    0 -0.10824444178E+03  0.92062847072E+03  0.41263992712E+03  0.10146651417E+04  0.00000000000E+00 0. -1.
          2    1    6    6  503    0 -0.16428705695E+03 -0.33472286354E+02 -0.18217476672E+02  0.16864906609E+03  0.00000000000E+00 0. -1.
         -2    1    6    6    0  503 -0.15002878190E+03 -0.23021700475E+02  0.71485787971E+02  0.16777619609E+03  0.00000000000E+00 0.  1.
<mgrwt>
<rscale>  0 0.25961888E+04</rscale>
<asrwt>0</asrwt>
<pdfrwt beam="1">  1        2 0.25989578E+00 0.25961888E+04</pdfrwt>
<pdfrwt beam="2">  1       -2 0.15345697E+00 0.25961888E+04</pdfrwt>
<totfact> 0.24810013E+00</totfact>
</mgrwt>
</event>
<event>
12    2  0.3623523E-008  0.1563105E+04  0.7818608E-02  0.8843540E-01
         -1   -1    0    0    0  501 -0.00000000000E+00  0.00000000000E+00  0.35249374051E+03  0.35249374051E+03  0.00000000000E+00 0.  1.
          1   -1    0    0  501    0  0.00000000000E+00 -0.00000000000E+00 -0.17328648404E+04  0.17328648404E+04  0.00000000000E+00 0. -1.
         23    2    1    2    0    0 -0.12088752215E+03 -0.27941561069E+03  0.94024010787E+02  0.33147109269E+03  0.91354770959E+02 0.  0.
        254    2    1    2    0    0  0.12088752215E+03  0.27941561069E+03 -0.14743951107E+04  0.17538874882E+04  0.89977413968E+03 0.  0.
         23    2    4    4    0    0 -0.30534448108E+03 -0.75278482884E+02 -0.26866111392E+03  0.42367058264E+03  0.91738031127E+02 0.  0.
         23    2    4    4    0    0  0.42623200323E+03  0.35469409357E+03 -0.12057339968E+04  0.13302169056E+04  0.90558955042E+02 0.  0.
          1    1    3    3  502    0 -0.34550711575E+02 -0.25211779089E+02 -0.93668616293E+01  0.43784969704E+02  0.00000000000E+00 0. -1.
         -1    1    3    3    0  502 -0.86336810571E+02 -0.25420383160E+03  0.10339087242E+03  0.28768612298E+03  0.00000000000E+00 0.  1.
         11    1    5    5    0    0 -0.28973984806E+03 -0.90400161523E+02 -0.26196522216E+03  0.40093284522E+03  0.00000000000E+00 0. -1.
        -11    1    5    5    0    0 -0.15604633022E+02  0.15121678639E+02 -0.66958917542E+01  0.22737737420E+02  0.00000000000E+00 0.  1.
          1    1    6    6  503    0  0.24339960717E+03  0.24290748315E+03 -0.66697047903E+03  0.75039791713E+03  0.00000000000E+00 0. -1.
         -1    1    6    6    0  503  0.18283239606E+03  0.11178661042E+03 -0.53876351772E+03  0.57981898843E+03  0.00000000000E+00 0.  1.
<mgrwt>
<rscale>  0 0.15631046E+04</rscale>
<asrwt>0</asrwt>
<pdfrwt beam="1">  1        1 0.26659459E+00 0.15631046E+04</pdfrwt>
<pdfrwt beam="2">  1       -1 0.54229806E-01 0.15631046E+04</pdfrwt>
<totfact> 0.14958863E+01</totfact>
</mgrwt>
</event>
<event>
12    2  0.3623523E-008  0.1688083E+04  0.7818608E-02  0.8768190E-01
         -1   -1    0    0    0  501 -0.00000000000E+00  0.00000000000E+00  0.77257732342E+03  0.77257732342E+03  0.00000000000E+00 0.  1.
          1   -1    0    0  501    0  0.00000000000E+00 -0.00000000000E+00 -0.92211610058E+03  0.92211610058E+03  0.00000000000E+00 0. -1.
         23    2    1    2    0    0 -0.53601781671E+03 -0.11206251745E+03  0.16976959017E+03  0.58059029613E+03  0.91598420064E+02 0.  0.
        254    2    1    2    0    0  0.53601781671E+03  0.11206251745E+03 -0.31930836733E+03  0.11141031279E+04  0.91618493680E+03 0.  0.
         23    2    4    4    0    0 -0.23128700442E+03  0.15576461820E+03 -0.92073654418E+02  0.30737375157E+03  0.90800719266E+02 0.  0.
         23    2    4    4    0    0  0.76730482113E+03 -0.43702100745E+02 -0.22723471291E+03  0.80672937630E+03  0.92250255816E+02 0.  0.
          3    1    3    3  502    0 -0.14553966824E+03 -0.22222062169E+02  0.48762842680E+01  0.14730713909E+03  0.00000000000E+00 0. -1.
         -3    1    3    3    0  502 -0.39047814847E+03 -0.89840455285E+02  0.16489330590E+03  0.43328315703E+03  0.00000000000E+00 0.  1.
         11    1    5    5    0    0 -0.41450816770E+02  0.41632095952E+01  0.11586869176E+02  0.43240699143E+02  0.00000000000E+00 0. -1.
        -11    1    5    5    0    0 -0.18983618765E+03  0.15160140860E+03 -0.10366052359E+03  0.26413305242E+03  0.00000000000E+00 0.  1.
          3    1    6    6  503    0  0.30514323891E+03 -0.25758743482E+02 -0.13710300474E+03  0.33551921410E+03  0.00000000000E+00 0. -1.
         -3    1    6    6    0  503  0.46216158222E+03 -0.17943357263E+02 -0.90131708174E+02  0.47121016221E+03  0.00000000000E+00 0.  1.
<mgrwt>
<rscale>  0 0.16880829E+04</rscale>
<asrwt>0</asrwt>
<pdfrwt beam="1">  1        1 0.14186402E+00 0.16880829E+04</pdfrwt>
<pdfrwt beam="2">  1       -1 0.11885805E+00 0.16880829E+04</pdfrwt>
<totfact> 0.10539927E+01</totfact>
</mgrwt>
</event>
<event>
12    2  0.3623523E-008  0.2111511E+04  0.7818608E-02  0.8556189E-01
         -2   -1    0    0    0  501 -0.00000000000E+00  0.00000000000E+00  0.70455920631E+03  0.70455920631E+03  0.00000000000E+00 0.  1.
          2   -1    0    0  501    0  0.00000000000E+00 -0.00000000000E+00 -0.15820104249E+04  0.15820104249E+04  0.00000000000E+00 0. -1.
         23    2    1    2    0    0  0.40817014299E+03  0.89791074863E+02  0.45022352699E+03  0.62069113670E+03  0.88831076636E+02 0.  0.
        254    2    1    2    0    0 -0.40817014299E+03 -0.89791074863E+02 -0.13276747456E+04  0.16658784945E+04  0.91529537616E+03 0.  0.
         23    2    4    4    0    0 -0.40268892705E+02 -0.44311682915E+03 -0.83607688250E+03  0.95143002035E+03  0.90666543888E+02 0.  0.
         23    2    4    4    0    0 -0.36790125028E+03  0.35332575429E+03 -0.49159786305E+03  0.71444847412E+03  0.92616114224E+02 0.  0.
          3    1    3    3  502    0  0.58325398443E+02  0.45401806775E+02  0.91985155606E+02  0.11800188564E+03  0.00000000000E+00 0. -1.
         -3    1    3    3    0  502  0.34984474455E+03  0.44389268088E+02  0.35823837138E+03  0.50268925107E+03  0.00000000000E+00 0.  1.
         11    1    5    5    0    0 -0.54941692813E+02 -0.19378191571E+03 -0.32043966126E+03  0.37848592705E+03  0.00000000000E+00 0. -1.
        -11    1    5    5    0    0  0.14672800108E+02 -0.24933491344E+03 -0.51563722124E+03  0.57294409330E+03  0.00000000000E+00 0.  1.
          1    1    6    6  503    0 -0.57991972016E+02  0.94244751122E+02 -0.14352329486E+03  0.18122935220E+03  0.00000000000E+00 0. -1.
         -1    1    6    6    0  503 -0.30990927827E+03  0.25908100317E+03 -0.34807456819E+03  0.53321912192E+03  0.00000000000E+00 0.  1.
<mgrwt>
<rscale>  0 0.21115113E+04</rscale>
<asrwt>0</asrwt>
<pdfrwt beam="1">  1        2 0.24338622E+00 0.21115113E+04</pdfrwt>
<pdfrwt beam="2">  1       -2 0.10839372E+00 0.21115113E+04</pdfrwt>
<totfact> 0.71553736E+00</totfact>
</mgrwt>
</event>
<event>
12    2  0.3623523E-008  0.1282944E+04  0.7818608E-02  0.9043201E-01
          1   -1    0    0  501    0  0.00000000000E+00  0.00000000000E+00  0.74693980758E+03  0.74693980758E+03  0.00000000000E+00 0. -1.
         -1   -1    0    0    0  501 -0.00000000000E+00 -0.00000000000E+00 -0.55089603144E+03  0.55089603144E+03  0.00000000000E+00 0.  1.
         23    2    1    2    0    0 -0.93731848687E+02  0.29641378730E+03  0.85907463182E+02  0.33483104144E+03  0.89916301772E+02 0.  0.
        254    2    1    2    0    0  0.93731848687E+02 -0.29641378730E+03  0.11013631296E+03  0.96300479757E+03  0.90476595867E+03 0.  0.
         23    2    4    4    0    0 -0.23894949076E+03 -0.39020345619E+03  0.30325459291E+03  0.55659795550E+03  0.92099617729E+02 0.  0.
         23    2    4    4    0    0  0.33268133945E+03  0.93789668893E+02 -0.19311827995E+03  0.40640684207E+03  0.91643197363E+02 0.  0.
          1    1    3    3  502    0 -0.28973576962E+02  0.22635798973E+03  0.62124196838E+02  0.23650966896E+03  0.00000000000E+00 0. -1.
         -1    1    3    3    0  502 -0.64758271725E+02  0.70055797567E+02  0.23783266344E+02  0.98321372486E+02  0.00000000000E+00 0.  1.
         11    1    5    5    0    0 -0.19384922463E+03 -0.23767063693E+03  0.21650789916E+03  0.37542046288E+03  0.00000000000E+00 0. -1.
        -11    1    5    5    0    0 -0.45100266140E+02 -0.15253281926E+03  0.86746693749E+02  0.18117749262E+03  0.00000000000E+00 0.  1.
          4    1    6    6  503    0  0.15278896871E+03  0.88303150901E+02 -0.79368165010E+02  0.19349734116E+03  0.00000000000E+00 0. -1.
         -4    1    6    6    0  503  0.17989237074E+03  0.54865179915E+01 -0.11375011494E+03  0.21290950092E+03  0.00000000000E+00 0.  1.
<mgrwt>
<rscale>  0 0.12829438E+04</rscale>
<asrwt>0</asrwt>
<pdfrwt beam="1">  1        1 0.11491382E+00 0.12829438E+04</pdfrwt>
<pdfrwt beam="2">  1       -1 0.84753235E-01 0.12829438E+04</pdfrwt>
<totfact> 0.33425595E+01</totfact>
</mgrwt>
</event>
<event>
12    2  0.3623523E-008  0.2551706E+04  0.7818608E-02  0.8384793E-01
          2   -1    0    0  501    0  0.00000000000E+00  0.00000000000E+00  0.17249339113E+04  0.17249339113E+04  0.00000000000E+00 0. -1.
         -2   -1    0    0    0  501 -0.00000000000E+00 -0.00000000000E+00 -0.94368887665E+03  0.94368887665E+03  0.00000000000E+00 0.  1.
         23    2    1    2    0    0 -0.10011262736E+04  0.45191365533E+03  0.55604515534E+03  0.12344499455E+04  0.90557637016E+02 0.  0.
        254    2    1    2    0    0  0.10011262736E+04 -0.45191365533E+03  0.22519987930E+03  0.14341728425E+04  0.89423542143E+03 0.  0.
         23    2    4    4    0    0  0.32918337573E+03 -0.39971915652E+03  0.47652817508E+03  0.70963420073E+03  0.91457630913E+02 0.  0.
         23    2    4    4    0    0  0.67194289783E+03 -0.52194498813E+02 -0.25132829578E+03  0.72453864174E+03  0.86941402484E+02 0.  0.
          3    1    3    3  502    0 -0.99910915169E+03  0.44651917806E+03  0.55796068636E+03  0.12283804789E+04  0.00000000000E+00 0. -1.
         -3    1    3    3    0  502 -0.20171218698E+01  0.53944772756E+01 -0.19155310195E+01  0.60694665994E+01  0.00000000000E+00 0.  1.
         11    1    5    5    0    0  0.55543098087E+02 -0.98257887920E+02  0.62738913759E+02  0.12913488910E+03  0.00000000000E+00 0.  1.
        -11    1    5    5    0    0  0.27364027765E+03 -0.30146126860E+03  0.41378926132E+03  0.58049931163E+03  0.00000000000E+00 0. -1.
          3    1    6    6  503    0  0.32043383432E+03 -0.66095429974E+02 -0.13617811694E+03  0.35438810304E+03  0.00000000000E+00 0. -1.
         -3    1    6    6    0  503  0.35150906350E+03  0.13900931160E+02 -0.11515017884E+03  0.37015053870E+03  0.00000000000E+00 0.  1.
<mgrwt>
<rscale>  0 0.25517061E+04</rscale>
<asrwt>0</asrwt>
<pdfrwt beam="1">  1        2 0.26537445E+00 0.25517061E+04</pdfrwt>
<pdfrwt beam="2">  1       -2 0.14518290E+00 0.25517061E+04</pdfrwt>
<totfact> 0.27554189E+00</totfact>
</mgrwt>
</event>
<event>
12    2  0.3623523E-008  0.2150717E+04  0.7818608E-02  0.8539225E-01
          2   -1    0    0  501    0  0.00000000000E+00  0.00000000000E+00  0.10665075576E+04  0.10665075576E+04  0.00000000000E+00 0. -1.
         -2   -1    0    0    0  501 -0.00000000000E+00 -0.00000000000E+00 -0.10842830282E+04  0.10842830282E+04  0.00000000000E+00 0.  1.
         23    2    1    2    0    0 -0.60430505462E+03 -0.52386095550E+03  0.37475786151E+03  0.88794537843E+03  0.91589522180E+02 0.  0.
        254    2    1    2    0    0  0.60430505462E+03  0.52386095550E+03 -0.39253333214E+03  0.12628452074E+04  0.89503111748E+03 0.  0.
         23    2    4    4    0    0 -0.12627524414E+03  0.90293521678E+01  0.14745947049E+03  0.21460275686E+03  0.91011435159E+02 0.  0.
         23    2    4    4    0    0  0.73058029876E+03  0.51483160334E+03 -0.53999280263E+03  0.10482424505E+04  0.91765219262E+02 0.  0.
          1    1    3    3  502    0 -0.58837932710E+03 -0.49482095049E+03  0.34222589845E+03  0.84152039261E+03  0.00000000000E+00 0. -1.
         -1    1    3    3    0  502 -0.15925727516E+02 -0.29040005014E+02  0.32531963057E+02  0.46424985821E+02  0.00000000000E+00 0.  1.
         11    1    5    5    0    0 -0.36159109590E+02  0.44704403607E+02  0.40907743551E+02  0.70564923231E+02  0.00000000000E+00 0. -1.
        -11    1    5    5    0    0 -0.90116134554E+02 -0.35675051439E+02  0.10655172694E+03  0.14403783363E+03  0.00000000000E+00 0.  1.
          3    1    6    6  503    0  0.30128189899E+03  0.15828010645E+03 -0.19821221553E+03  0.39384191898E+03  0.00000000000E+00 0. -1.
         -3    1    6    6    0  503  0.42929839977E+03  0.35655149689E+03 -0.34178058710E+03  0.65440053155E+03  0.00000000000E+00 0.  1.
<mgrwt>
<rscale>  0 0.21507171E+04</rscale>
<asrwt>0</asrwt>
<pdfrwt beam="1">  1        2 0.16407809E+00 0.21507171E+04</pdfrwt>
<pdfrwt beam="2">  1       -2 0.16681277E+00 0.21507171E+04</pdfrwt>
<totfact> 0.47115783E+00</totfact>
</mgrwt>
</event>
<event>
12    2  0.3623523E-008  0.1959924E+04  0.7818608E-02  0.8625590E-01
         -2   -1    0    0    0  501 -0.00000000000E+00  0.00000000000E+00  0.12057480463E+04  0.12057480463E+04  0.00000000000E+00 0.  1.
          2   -1    0    0  501    0  0.00000000000E+00 -0.00000000000E+00 -0.79645609056E+03  0.79645609056E+03  0.00000000000E+00 0. -1.
         23    2    1    2    0    0 -0.72417633615E+03 -0.20990407236E+03  0.16838402366E+02  0.75956644202E+03  0.90369035659E+02 0.  0.
        254    2    1    2    0    0  0.72417633615E+03  0.20990407236E+03  0.39245355337E+03  0.12426376949E+04  0.90644225612E+03 0.  0.
         23    2    4    4    0    0  0.20167218093E+03  0.36146930449E+03  0.52537303283E+03  0.67503377062E+03  0.91225222440E+02 0.  0.
         23    2    4    4    0    0  0.52250415522E+03 -0.15156523212E+03 -0.13291947946E+03  0.56760392423E+03  0.92325592160E+02 0.  0.
          2    1    3    3  502    0 -0.11044549088E+03 -0.16572537459E+02  0.31153917922E+02  0.11594577205E+03  0.00000000000E+00 0. -1.
         -2    1    3    3    0  502 -0.61373084527E+03 -0.19333153491E+03 -0.14315515557E+02  0.64362066997E+03  0.00000000000E+00 0.  1.
         11    1    5    5    0    0  0.17152483739E+03  0.22211190464E+03  0.33055006425E+03  0.43361020859E+03  0.00000000000E+00 0.  1.
        -11    1    5    5    0    0  0.30147343540E+02  0.13935739985E+03  0.19482296858E+03  0.24142356203E+03  0.00000000000E+00 0. -1.
          1    1    6    6  503    0  0.16130042781E+03 -0.46290847614E+02  0.22513322299E+01  0.16782651484E+03  0.00000000000E+00 0. -1.
         -1    1    6    6    0  503  0.36120372741E+03 -0.10527438451E+03 -0.13517081169E+03  0.39977740939E+03  0.00000000000E+00 0.  1.
<mgrwt>
<rscale>  0 0.19599239E+04</rscale>
<asrwt>0</asrwt>
<pdfrwt beam="1">  1        2 0.12253171E+00 0.19599239E+04</pdfrwt>
<pdfrwt beam="2">  1       -2 0.18549970E+00 0.19599239E+04</pdfrwt>
<totfact> 0.53662948E+00</totfact>
</mgrwt>
</event>
<event>
12    2  0.3623523E-008  0.1133489E+04  0.7818608E-02  0.9173152E-01
          2   -1    0    0  501    0  0.00000000000E+00  0.00000000000E+00  0.21397285102E+04  0.21397285102E+04  0.00000000000E+00 0. -1.
         -2   -1    0    0    0  501 -0.00000000000E+00 -0.00000000000E+00 -0.15011226908E+03  0.15011226908E+03  0.00000000000E+00 0.  1.
         23    2    1    2    0    0  0.15935582507E+02  0.16995048658E+03  0.54075134738E+03  0.57416805244E+03  0.90110055384E+02 0.  0.
        254    2    1    2    0    0 -0.15935582507E+02 -0.16995048658E+03  0.14488648938E+04  0.17156727269E+04  0.90287668849E+03 0.  0.
         23    2    4    4    0    0 -0.37338773112E+03  0.14810361890E+03  0.84334580844E+03  0.93857735578E+03  0.91335756832E+02 0.  0.
         23    2    4    4    0    0  0.35745214861E+03 -0.31805410548E+03  0.60551908535E+03  0.77709537110E+03  0.91068109157E+02 0.  0.
          1    1    3    3  502    0  0.10876829312E+02  0.29830603877E+02  0.27164821490E+02  0.41786335926E+02  0.00000000000E+00 0.  1.
         -1    1    3    3    0  502  0.50587531957E+01  0.14011988270E+03  0.51358652589E+03  0.53238171652E+03  0.00000000000E+00 0. -1.
         11    1    5    5    0    0 -0.84278765251E+02  0.59773805038E+02  0.29279485535E+03  0.31049097468E+03  0.00000000000E+00 0.  1.
        -11    1    5    5    0    0 -0.28910896587E+03  0.88329813865E+02  0.55055095310E+03  0.62808638109E+03  0.00000000000E+00 0. -1.
          1    1    6    6  503    0  0.25395394144E+03 -0.16725371838E+03  0.38458278158E+03  0.49027576584E+03  0.00000000000E+00 0. -1.
         -1    1    6    6    0  503  0.10349820717E+03 -0.15080038710E+03  0.22093630377E+03  0.28681960526E+03  0.00000000000E+00 0.  1.
<mgrwt>
<rscale>  0 0.11334893E+04</rscale>
<asrwt>0</asrwt>
<pdfrwt beam="1">  1        2 0.32918898E+00 0.11334893E+04</pdfrwt>
<pdfrwt beam="2">  1       -2 0.23094197E-01 0.11334893E+04</pdfrwt>
<totfact> 0.91862023E+01</totfact>
</mgrwt>
</event>
<event>
12    2  0.3623523E-008  0.3611560E+04  0.7818608E-02  0.8087849E-01
          2   -1    0    0  501    0  0.00000000000E+00  0.00000000000E+00  0.18399641807E+04  0.18399641807E+04  0.00000000000E+00 0. -1.
         -2   -1    0    0    0  501 -0.00000000000E+00 -0.00000000000E+00 -0.17722308541E+04  0.17722308541E+04  0.00000000000E+00 0.  1.
         23    2    1    2    0    0  0.27905631372E+03  0.13309556098E+04  0.10422659849E+04  0.17159116260E+04  0.93375926256E+02 0.  0.
        254    2    1    2    0    0 -0.27905631372E+03 -0.13309556098E+04 -0.97453265837E+03  0.18962834088E+04  0.89267104951E+03 0.  0.
         23    2    4    4    0    0 -0.36930618201E+03 -0.30333708513E+03 -0.18474214157E+02  0.48673047308E+03  0.90359357831E+02 0.  0.
         23    2    4    4    0    0  0.90249868292E+02 -0.10276185247E+04 -0.95605844422E+03  0.14095529357E+04  0.92988487298E+02 0.  0.
          4    1    3    3  502    0  0.12522802938E+03  0.59972765339E+03  0.41132359427E+03  0.73793117348E+03  0.00000000000E+00 0. -1.
         -4    1    3    3    0  502  0.15382828434E+03  0.73122795640E+03  0.63094239063E+03  0.97798045255E+03  0.00000000000E+00 0.  1.
         11    1    5    5    0    0 -0.17344257066E+03 -0.16857426726E+03 -0.49764329881E+02  0.24693338663E+03  0.00000000000E+00 0.  1.
        -11    1    5    5    0    0 -0.19586361135E+03 -0.13476281787E+03  0.31290115724E+02  0.23979708645E+03  0.00000000000E+00 0. -1.
          1    1    6    6  503    0  0.15638163646E+02 -0.66532291595E+03 -0.63200410021E+03  0.91778446126E+03  0.00000000000E+00 0. -1.
         -1    1    6    6    0  503  0.74611704647E+02 -0.36229560871E+03 -0.32405434401E+03  0.49176847442E+03  0.00000000000E+00 0.  1.
<mgrwt>
<rscale>  0 0.36115599E+04</rscale>
<asrwt>0</asrwt>
<pdfrwt beam="1">  1        2 0.28307141E+00 0.36115599E+04</pdfrwt>
<pdfrwt beam="2">  1       -2 0.27265090E+00 0.36115599E+04</pdfrwt>
<totfact> 0.31174495E-01</totfact>
</mgrwt>
</event>
<event>
12    2  0.3623523E-008  0.1765261E+04  0.7818608E-02  0.8724994E-01
         -1   -1    0    0    0  501 -0.00000000000E+00  0.00000000000E+00  0.75832557966E+03  0.75832557966E+03  0.00000000000E+00 0.  1.
          1   -1    0    0  501    0  0.00000000000E+00 -0.00000000000E+00 -0.10273118114E+04  0.10273118114E+04  0.00000000000E+00 0. -1.
         23    2    1    2    0    0  0.36558414940E+03  0.26356445868E+03  0.37330386743E+03  0.59296037293E+03  0.95541782784E+02 0.  0.
        254    2    1    2    0    0 -0.36558414940E+03 -0.26356445868E+03 -0.64229009917E+03  0.11926770181E+04  0.89823376906E+03 0.  0.
         23    2    4    4    0    0  0.93482949486E+02  0.17042987237E+03 -0.49029812602E+03  0.53550758926E+03  0.92686150735E+02 0.  0.
         23    2    4    4    0    0 -0.45906709889E+03 -0.43399433105E+03 -0.15199197315E+03  0.65716942886E+03  0.98368783998E+02 0.  0.
          1    1    3    3  502    0  0.47747185449E+02  0.28382094431E+00  0.33084878642E+02  0.58090304418E+02  0.00000000000E+00 0. -1.
         -1    1    3    3    0  502  0.31783696395E+03  0.26328063774E+03  0.34021898879E+03  0.53487006852E+03  0.00000000000E+00 0.  1.
         11    1    5    5    0    0 -0.11425450429E+02  0.23309771979E+02 -0.23726940481E+02  0.35168936461E+02  0.00000000000E+00 0. -1.
        -11    1    5    5    0    0  0.10490839991E+03  0.14712010039E+03 -0.46657118554E+03  0.50033865280E+03  0.00000000000E+00 0.  1.
          1    1    6    6  503    0 -0.12807734059E+03 -0.16250431349E+03 -0.13974259270E+02  0.20738065724E+03  0.00000000000E+00 0. -1.
         -1    1    6    6    0  503 -0.33098975830E+03 -0.27149001756E+03 -0.13801771388E+03  0.44978877162E+03  0.00000000000E+00 0.  1.
<mgrwt>
<rscale>  0 0.17652613E+04</rscale>
<asrwt>0</asrwt>
<pdfrwt beam="1">  1        1 0.15804797E+00 0.17652613E+04</pdfrwt>
<pdfrwt beam="2">  1       -1 0.11666548E+00 0.17652613E+04</pdfrwt>
<totfact> 0.90425468E+00</totfact>
</mgrwt>
</event>
<event>
12    2  0.3623523E-008  0.1944480E+04  0.7818608E-02  0.8633027E-01
          1   -1    0    0  501    0  0.00000000000E+00  0.00000000000E+00  0.35444539070E+03  0.35444539070E+03  0.00000000000E+00 0. -1.
         -1   -1    0    0    0  501 -0.00000000000E+00 -0.00000000000E+00 -0.26668433688E+04  0.26668433688E+04  0.00000000000E+00 0.  1.
         23    2    1    2    0    0 -0.48570818405E+03  0.46232226882E+03 -0.32911507308E+03  0.75424706810E+03  0.10448726295E+03 0.  0.
        254    2    1    2    0    0  0.48570818405E+03 -0.46232226882E+03 -0.19832829050E+04  0.22670416914E+04  0.86971985656E+03 0.  0.
         23    2    4    4    0    0  0.54937837643E+03 -0.66368131210E+03 -0.16226737060E+04  0.18394748898E+04  0.91150588282E+02 0.  0.
         23    2    4    4    0    0 -0.63670192386E+02  0.20135904329E+03 -0.36060919904E+03  0.42756680156E+03  0.90415804208E+02 0.  0.
          1    1    3    3  502    0 -0.34384710498E+03  0.38326795879E+03 -0.27017898217E+03  0.58148245223E+03  0.00000000000E+00 0. -1.
         -1    1    3    3    0  502 -0.14186107906E+03  0.79054310023E+02 -0.58936090906E+02  0.17276461587E+03  0.00000000000E+00 0.  1.
         11    1    5    5    0    0  0.46150331052E+03 -0.57368290098E+03 -0.14452393804E+04  0.16219784966E+04  0.00000000000E+00 0. -1.
        -11    1    5    5    0    0  0.87875065912E+02 -0.89998411122E+02 -0.17743432554E+03  0.21749639329E+03  0.00000000000E+00 0.  1.
          1    1    6    6  503    0 -0.61086181592E+01  0.15577276791E+03 -0.23303067039E+03  0.28036719455E+03  0.00000000000E+00 0. -1.
         -1    1    6    6    0  503 -0.57561574227E+02  0.45586275374E+02 -0.12757852866E+03  0.14719960701E+03  0.00000000000E+00 0.  1.
<mgrwt>
<rscale>  0 0.19444797E+04</rscale>
<asrwt>0</asrwt>
<pdfrwt beam="1">  1        1 0.54530060E-01 0.19444797E+04</pdfrwt>
<pdfrwt beam="2">  1       -1 0.41028360E+00 0.19444797E+04</pdfrwt>
<totfact> 0.40012542E-01</totfact>
</mgrwt>
</event>
<event>
12    2  0.3623523E-008  0.1926534E+04  0.7818608E-02  0.8641760E-01
          1   -1    0    0  501    0  0.00000000000E+00  0.00000000000E+00  0.22662037066E+04  0.22662037066E+04  0.00000000000E+00 0. -1.
         -1   -1    0    0    0  501 -0.00000000000E+00 -0.00000000000E+00 -0.40944390075E+03  0.40944390075E+03  0.00000000000E+00 0.  1.
         23    2    1    2    0    0 -0.43782231442E+03  0.57884396726E+03  0.48059143767E+03  0.87647189632E+03  0.10240184397E+03 0.  0.
        254    2    1    2    0    0  0.43782231442E+03 -0.57884396726E+03  0.13761683682E+04  0.17991757110E+04  0.90357354106E+03 0.  0.
         23    2    4    4    0    0  0.69703591761E+03 -0.32351787569E+03  0.10335120830E+04  0.12911548340E+04  0.91709832137E+02 0.  0.
         23    2    4    4    0    0 -0.25921360319E+03 -0.25532609157E+03  0.34265628512E+03  0.50802087698E+03  0.91042718557E+02 0.  0.
          2    1    3    3  502    0 -0.22962298362E+03  0.34477013623E+03  0.32601348435E+03  0.52714130308E+03  0.00000000000E+00 0. -1.
         -2    1    3    3    0  502 -0.20819933080E+03  0.23407383103E+03  0.15457795332E+03  0.34933059324E+03  0.00000000000E+00 0.  1.
         11    1    5    5    0    0  0.52176506810E+03 -0.25912992265E+03  0.83998721541E+03  0.10222356016E+04  0.00000000000E+00 0.  1.
        -11    1    5    5    0    0  0.17527084951E+03 -0.64387953038E+02  0.19352486764E+03  0.26891923244E+03  0.00000000000E+00 0. -1.
          3    1    6    6  503    0 -0.14167933865E+03 -0.10722610646E+03  0.21939104216E+03  0.28231702444E+03  0.00000000000E+00 0. -1.
         -3    1    6    6    0  503 -0.11753426453E+03 -0.14809998511E+03  0.12326524295E+03  0.22570385254E+03  0.00000000000E+00 0.  1.
<mgrwt>
<rscale>  0 0.19265340E+04</rscale>
<asrwt>0</asrwt>
<pdfrwt beam="1">  1        1 0.34864672E+00 0.19265340E+04</pdfrwt>
<pdfrwt beam="2">  1       -1 0.62991371E-01 0.19265340E+04</pdfrwt>
<totfact> 0.46853735E+00</totfact>
</mgrwt>
</event>
<event>
12    2  0.3623523E-008  0.3303463E+04  0.7818608E-02  0.8162015E-01
         -2   -1    0    0    0  501 -0.00000000000E+00  0.00000000000E+00  0.14375856156E+04  0.14375856156E+04  0.00000000000E+00 0.  1.
          2   -1    0    0  501    0  0.00000000000E+00 -0.00000000000E+00 -0.18977766737E+04  0.18977766737E+04  0.00000000000E+00 0. -1.
         23    2    1    2    0    0  0.24125800115E+03 -0.57508246261E+03  0.11946516444E+04  0.13506929060E+04  0.90848846081E+02 0.  0.
        254    2    1    2    0    0 -0.24125800115E+03  0.57508246261E+03 -0.16548427025E+04  0.19846693834E+04  0.90082347294E+03 0.  0.
         23    2    4    4    0    0 -0.49669736272E+03  0.23034144243E+03 -0.13211240491E+04  0.14331923424E+04  0.94372066430E+02 0.  0.
         23    2    4    4    0    0  0.25543936156E+03  0.34474102018E+03 -0.33371865337E+03  0.55147704098E+03  0.93076037127E+02 0.  0.
          2    1    3    3  502    0  0.90453359694E+02 -0.30182734788E+03  0.66622986345E+03  0.73698289611E+03  0.00000000000E+00 0. -1.
         -2    1    3    3    0  502  0.15080464146E+03 -0.27325511473E+03  0.52842178095E+03  0.61371000986E+03  0.00000000000E+00 0.  1.
         11    1    5    5    0    0 -0.32201710938E+03  0.10460682105E+03 -0.75096554019E+03  0.82376383041E+03  0.00000000000E+00 0. -1.
        -11    1    5    5    0    0 -0.17468025334E+03  0.12573462138E+03 -0.57015850891E+03  0.60942851197E+03  0.00000000000E+00 0.  1.
          3    1    6    6  503    0  0.26165530439E+03  0.34282888856E+03 -0.32253042946E+03  0.53853599979E+03  0.00000000000E+00 0. -1.
         -3    1    6    6    0  503 -0.62159428302E+01  0.19121316251E+01 -0.11188223919E+02  0.12941041190E+02  0.00000000000E+00 0.  1.
<mgrwt>
<rscale>  0 0.33034627E+04</rscale>
<asrwt>0</asrwt>
<pdfrwt beam="1">  1        2 0.29196564E+00 0.33034627E+04</pdfrwt>
<pdfrwt beam="2">  1       -2 0.22116702E+00 0.33034627E+04</pdfrwt>
<totfact> 0.61787412E-01</totfact>
</mgrwt>
</event>
<event>
12    2  0.3623523E-008  0.1940175E+04  0.7818608E-02  0.8635113E-01
         -2   -1    0    0    0  501 -0.00000000000E+00  0.00000000000E+00  0.11741941832E+04  0.11741941832E+04  0.00000000000E+00 0.  1.
          2   -1    0    0  501    0  0.00000000000E+00 -0.00000000000E+00 -0.80145994968E+03  0.80145994968E+03  0.00000000000E+00 0. -1.
         23    2    1    2    0    0  0.27910761901E+02  0.18287496882E+03 -0.57713569086E+03  0.61315593278E+03  0.93017887446E+02 0.  0.
        254    2    1    2    0    0 -0.27910761901E+02 -0.18287496882E+03  0.94986992440E+03  0.13624982001E+04  0.95912783674E+03 0.  0.
         23    2    4    4    0    0 -0.39132291387E+03 -0.24194572326E+03  0.85205878107E+03  0.97274440081E+03  0.92499443163E+02 0.  0.
         23    2    4    4    0    0  0.36341215197E+03  0.59070754438E+02  0.97811143332E+02  0.38975379932E+03  0.82360537213E+02 0.  0.
          4    1    3    3  502    0  0.54451798590E+02  0.16783704652E+03 -0.48484504080E+03  0.51595444192E+03  0.00000000000E+00 0. -1.
         -4    1    3    3    0  502 -0.26541036689E+02  0.15037922309E+02 -0.92290650060E+02  0.97201490855E+02  0.00000000000E+00 0.  1.
         11    1    5    5    0    0 -0.34209649741E+03 -0.21227398339E+03  0.66825653957E+03  0.78016476480E+03  0.00000000000E+00 0.  1.
        -11    1    5    5    0    0 -0.49226416467E+02 -0.29671739877E+02  0.18380224150E+03  0.19257963601E+03  0.00000000000E+00 0. -1.
          3    1    6    6  503    0  0.16338477841E+03  0.91951812597E+01  0.51225077641E+01  0.16372347804E+03  0.00000000000E+00 0. -1.
         -3    1    6    6    0  503  0.20002737356E+03  0.49875573178E+02  0.92688635568E+02  0.22603032128E+03  0.00000000000E+00 0.  1.
<mgrwt>
<rscale>  0 0.19401748E+04</rscale>
<asrwt>0</asrwt>
<pdfrwt beam="1">  1        2 0.12330153E+00 0.19401748E+04</pdfrwt>
<pdfrwt beam="2">  1       -2 0.18064526E+00 0.19401748E+04</pdfrwt>
<totfact> 0.57544431E+00</totfact>
</mgrwt>
</event>
<event>
12    2  0.3623523E-008  0.1290472E+04  0.7818608E-02  0.9037155E-01
         -1   -1    0    0    0  501 -0.00000000000E+00  0.00000000000E+00  0.36565530295E+03  0.36565530295E+03  0.00000000000E+00 0.  1.
          1   -1    0    0  501    0  0.00000000000E+00 -0.00000000000E+00 -0.11385842598E+04  0.11385842598E+04  0.00000000000E+00 0. -1.
         23    2    1    2    0    0  0.17880699541E+03 -0.70023999991E+02 -0.52035961216E+03  0.56184866054E+03  0.89579513330E+02 0.  0.
        254    2    1    2    0    0 -0.17880699541E+03  0.70023999991E+02 -0.25256934465E+03  0.94239090217E+03  0.88737480044E+03 0.  0.
         23    2    4    4    0    0  0.68882914423E+02 -0.35449056459E+03  0.24390525773E+02  0.37100247003E+03  0.81483242071E+02 0.  0.
         23    2    4    4    0    0 -0.24768990983E+03  0.42451456458E+03 -0.27695987043E+03  0.57138843214E+03  0.90636987934E+02 0.  0.
          1    1    3    3  502    0  0.15896670310E+03 -0.87887828704E+02 -0.41229489893E+03  0.45053497846E+03  0.00000000000E+00 0. -1.
         -1    1    3    3    0  502  0.19840292315E+02  0.17863828714E+02 -0.10806471323E+03  0.11131368209E+03  0.00000000000E+00 0.  1.
         11    1    5    5    0    0  0.78376338649E+02 -0.21910632456E+03 -0.21631229083E+01  0.23271250723E+03  0.00000000000E+00 0. -1.
        -11    1    5    5    0    0 -0.94934242263E+01 -0.13538424003E+03  0.26553648681E+02  0.13828996280E+03  0.00000000000E+00 0.  1.
          2    1    6    6  503    0 -0.75520647951E+02  0.62564313182E+02 -0.68353059634E+02  0.11953996115E+03  0.00000000000E+00 0. -1.
         -2    1    6    6    0  503 -0.17216926188E+03  0.36195025140E+03 -0.20860681079E+03  0.45184847099E+03  0.00000000000E+00 0.  1.
<mgrwt>
<rscale>  0 0.12904718E+04</rscale>
<asrwt>0</asrwt>
<pdfrwt beam="1">  1        1 0.17516681E+00 0.12904718E+04</pdfrwt>
<pdfrwt beam="2">  1       -1 0.56254662E-01 0.12904718E+04</pdfrwt>
<totfact> 0.37287745E+01</totfact>
</mgrwt>
</event>
<event>
12    2  0.3623523E-008  0.2460203E+04  0.7818608E-02  0.8417302E-01
          2   -1    0    0  501    0  0.00000000000E+00  0.00000000000E+00  0.36697558741E+04  0.36697558741E+04  0.00000000000E+00 0.  1.
         -2   -1    0    0    0  501 -0.00000000000E+00 -0.00000000000E+00 -0.41232968235E+03  0.41232968235E+03  0.00000000000E+00 0. -1.
         23    2    1    2    0    0 -0.72815662050E+02 -0.43658943721E+03 -0.19587210089E+03  0.49231709386E+03  0.89987686238E+02 0.  0.
        254    2    1    2    0    0  0.72815662050E+02  0.43658943721E+03  0.34532982926E+04  0.35897684626E+04  0.87478915163E+03 0.  0.
         23    2    4    4    0    0 -0.13778623726E+03  0.21743679542E+02  0.82977079884E+02  0.18633804981E+03  0.91535994241E+02 0.  0.
         23    2    4    4    0    0  0.21060189931E+03  0.41484575767E+03  0.33703212127E+04  0.34034304128E+04  0.88449618083E+02 0.  0.
          2    1    3    3  502    0 -0.55484449164E+02 -0.11737764568E+03 -0.78796757649E+02  0.15187154052E+03  0.00000000000E+00 0. -1.
         -2    1    3    3    0  502 -0.17331212885E+02 -0.31921179153E+03 -0.11707534324E+03  0.34044555333E+03  0.00000000000E+00 0.  1.
         11    1    5    5    0    0 -0.14116718721E+03  0.97990033861E+00  0.85666034393E+02  0.16512965935E+03  0.00000000000E+00 0. -1.
        -11    1    5    5    0    0  0.33809499484E+01  0.20763779204E+02 -0.26889545092E+01  0.21208390456E+02  0.00000000000E+00 0.  1.
          1    1    6    6  503    0  0.20953865765E+03  0.41488324209E+03  0.33704601794E+04  0.34023574731E+04  0.00000000000E+00 0. -1.
         -1    1    6    6    0  503  0.10632416552E+01 -0.37484418931E-01 -0.13896665764E+00  0.10729397145E+01  0.00000000000E+00 0.  1.
<mgrwt>
<rscale>  0 0.24602027E+04</rscale>
<asrwt>0</asrwt>
<pdfrwt beam="1">  1        2 0.56457781E+00 0.24602027E+04</pdfrwt>
<pdfrwt beam="2">  1       -2 0.63435338E-01 0.24602027E+04</pdfrwt>
<totfact> 0.12675092E+00</totfact>
</mgrwt>
</event>
<event>
12    2  0.3623523E-008  0.4058299E+04  0.7818608E-02  0.7992888E-01
         -2   -1    0    0    0  501 -0.00000000000E+00  0.00000000000E+00  0.15579406559E+04  0.15579406559E+04  0.00000000000E+00 0.  1.
          2   -1    0    0  501    0  0.00000000000E+00 -0.00000000000E+00 -0.26428785037E+04  0.26428785037E+04  0.00000000000E+00 0. -1.
         23    2    1    2    0    0  0.75339590804E+03 -0.46150857770E+03  0.12585069894E+04  0.15405023790E+04  0.93339036930E+02 0.  0.
        254    2    1    2    0    0 -0.75339590804E+03  0.46150857770E+03 -0.23434448372E+04  0.26603167805E+04  0.89719346090E+03 0.  0.
         23    2    4    4    0    0 -0.74518898912E+03  0.65687874418E+03 -0.21517348325E+04  0.23718371583E+04  0.94087204589E+02 0.  0.
         23    2    4    4    0    0 -0.82069189205E+01 -0.19537016648E+03 -0.19171000468E+03  0.28847962222E+03  0.90724368675E+02 0.  0.
          2    1    3    3  502    0  0.17639350128E+03 -0.63876619604E+02  0.25728051408E+03  0.31841506364E+03  0.00000000000E+00 0. -1.
         -2    1    3    3    0  502  0.57700240676E+03 -0.39763195809E+03  0.10012264753E+04  0.12220873154E+04  0.00000000000E+00 0.  1.
         11    1    5    5    0    0 -0.45847023211E+02  0.29913360768E+02 -0.17399653033E+03  0.18240491018E+03  0.00000000000E+00 0. -1.
        -11    1    5    5    0    0 -0.69934196591E+03  0.62696538341E+03 -0.19777383022E+04  0.21894322481E+04  0.00000000000E+00 0.  1.
          2    1    6    6  503    0  0.12469913187E+02 -0.18017304828E+02  0.53528752287E+01  0.22556047557E+02  0.00000000000E+00 0. -1.
         -2    1    6    6    0  503 -0.20676832108E+02 -0.17735286165E+03 -0.19706287991E+03  0.26592357466E+03  0.00000000000E+00 0.  1.
<mgrwt>
<rscale>  0 0.40582991E+04</rscale>
<asrwt>0</asrwt>
<pdfrwt beam="1">  1        2 0.40659669E+00 0.40582991E+04</pdfrwt>
<pdfrwt beam="2">  1       -2 0.23968318E+00 0.40582991E+04</pdfrwt>
<totfact> 0.16773635E-01</totfact>
</mgrwt>
</event>
<event>
12    2  0.3623523E-008  0.2119413E+04  0.7818608E-02  0.8552740E-01
          2   -1    0    0  501    0  0.00000000000E+00  0.00000000000E+00  0.18175750728E+04  0.18175750728E+04  0.00000000000E+00 0. -1.
         -2   -1    0    0    0  501 -0.00000000000E+00 -0.00000000000E+00 -0.61784374566E+03  0.61784374566E+03  0.00000000000E+00 0.  1.
         23    2    1    2    0    0  0.59442460180E+03  0.20325384265E+03 -0.19113050959E+03  0.66315145959E+03  0.92662046605E+02 0.  0.
        254    2    1    2    0    0 -0.59442460180E+03 -0.20325384265E+03  0.13908618368E+04  0.17722673589E+04  0.90098957301E+03 0.  0.
         23    2    4    4    0    0 -0.53248808118E+03 -0.40867850188E+03  0.13797780013E+04  0.15378408390E+04  0.10298271088E+03 0.  0.
         23    2    4    4    0    0 -0.61936520625E+02  0.20542465922E+03  0.11083835450E+02  0.23442651988E+03  0.93795088422E+02 0.  0.
          4    1    3    3  502    0  0.30075293528E+03  0.97981814132E+02 -0.48067122928E+02  0.31994251403E+03  0.00000000000E+00 0. -1.
         -4    1    3    3    0  502  0.29367166653E+03  0.10527202852E+03 -0.14306338667E+03  0.34320894556E+03  0.00000000000E+00 0.  1.
         11    1    5    5    0    0 -0.27749201722E+03 -0.19651899535E+03  0.58545921211E+03  0.67704063704E+03  0.00000000000E+00 0. -1.
        -11    1    5    5    0    0 -0.25499606395E+03 -0.21215950653E+03  0.79431878922E+03  0.86080020199E+03  0.00000000000E+00 0.  1.
          4    1    6    6  503    0 -0.38248456792E+02  0.24350384461E+02 -0.19336783402E+02  0.49292969709E+02  0.00000000000E+00 0. -1.
         -4    1    6    6    0  503 -0.23688063834E+02  0.18107427476E+03  0.30420618852E+02  0.18513355018E+03  0.00000000000E+00 0.  1.
<mgrwt>
<rscale>  0 0.21194126E+04</rscale>
<asrwt>0</asrwt>
<pdfrwt beam="1">  1        2 0.27962693E+00 0.21194126E+04</pdfrwt>
<pdfrwt beam="2">  1       -2 0.95052884E-01 0.21194126E+04</pdfrwt>
<totfact> 0.72255298E+00</totfact>
</mgrwt>
</event>
<event>
12    2  0.3623523E-008  0.2094068E+04  0.7818608E-02  0.8563861E-01
         -2   -1    0    0    0  501 -0.00000000000E+00  0.00000000000E+00  0.57441028627E+03  0.57441028627E+03  0.00000000000E+00 0.  1.
          2   -1    0    0  501    0  0.00000000000E+00 -0.00000000000E+00 -0.19085309165E+04  0.19085309165E+04  0.00000000000E+00 0. -1.
         23    2    1    2    0    0 -0.76736274991E+03  0.12996085861E+03 -0.19253330496E+03  0.80697716534E+03  0.91693277489E+02 0.  0.
        254    2    1    2    0    0  0.76736274991E+03 -0.12996085861E+03 -0.11415873253E+04  0.16759640374E+04  0.94862975857E+03 0.  0.
         23    2    4    4    0    0 -0.11817361377E+03 -0.24488309885E+03 -0.11088845915E+03  0.30920614661E+03  0.96847589718E+02 0.  0.
         23    2    4    4    0    0  0.88553636368E+03  0.11492224024E+03 -0.10306988661E+04  0.13667578908E+04  0.91132907518E+02 0.  0.
          3    1    3    3  502    0 -0.22856013314E+03  0.17715823142E+02 -0.94426862241E+02  0.24793147675E+03  0.00000000000E+00 0. -1.
         -3    1    3    3    0  502 -0.53880261678E+03  0.11224503546E+03 -0.98106442719E+02  0.55904568859E+03  0.00000000000E+00 0.  1.
         11    1    5    5    0    0 -0.14286352814E+02  0.70108494133E+01 -0.32641554880E+01  0.16245202285E+02  0.00000000000E+00 0. -1.
        -11    1    5    5    0    0 -0.10388726096E+03 -0.25189394826E+03 -0.10762430367E+03  0.29296094432E+03  0.00000000000E+00 0.  1.
          4    1    6    6  503    0  0.23963307305E+03  0.44705692632E+02 -0.34171467181E+03  0.41975174281E+03  0.00000000000E+00 0. -1.
         -4    1    6    6    0  503  0.64590329063E+03  0.70216547610E+02 -0.68898419431E+03  0.94700614803E+03  0.00000000000E+00 0.  1.
<mgrwt>
<rscale>  0 0.20940676E+04</rscale>
<asrwt>0</asrwt>
<pdfrwt beam="1">  1        2 0.29362014E+00 0.20940676E+04</pdfrwt>
<pdfrwt beam="2">  1       -2 0.88370814E-01 0.20940676E+04</pdfrwt>
<totfact> 0.76327806E+00</totfact>
</mgrwt>
</event>
<event>
12    2  0.3623523E-008  0.2230239E+04  0.7818608E-02  0.8505946E-01
          1   -1    0    0  501    0  0.00000000000E+00  0.00000000000E+00  0.15724500992E+04  0.15724500992E+04  0.00000000000E+00 0. -1.
         -1   -1    0    0    0  501 -0.00000000000E+00 -0.00000000000E+00 -0.79079880833E+03  0.79079880833E+03  0.00000000000E+00 0.  1.
         23    2    1    2    0    0  0.22340875249E+03  0.79091232887E+03  0.76713615041E+03  0.11277638077E+04  0.88879412739E+02 0.  0.
        254    2    1    2    0    0 -0.22340875249E+03 -0.79091232887E+03  0.14515140408E+02  0.12354850998E+04  0.92236595766E+03 0.  0.
         23    2    4    4    0    0  0.80242543400E+02  0.17178505666E+03  0.64806940435E+02  0.21951910018E+03  0.89664509992E+02 0.  0.
         23    2    4    4    0    0 -0.30365129589E+03 -0.96269738553E+03 -0.50291800028E+02  0.10159659996E+04  0.10328253299E+03 0.  0.
          2    1    3    3  502    0  0.21562967326E+02  0.18926679704E+02  0.28209665847E+02  0.40236376722E+02  0.00000000000E+00 0.  1.
         -2    1    3    3    0  502  0.20184578517E+03  0.77198564917E+03  0.73892648457E+03  0.10875274310E+04  0.00000000000E+00 0. -1.
         11    1    5    5    0    0  0.61116832960E+02  0.53546677875E+02  0.57458204996E+02  0.99518637973E+02  0.00000000000E+00 0. -1.
        -11    1    5    5    0    0  0.19125710440E+02  0.11823837878E+03  0.73487354392E+01  0.12000046220E+03  0.00000000000E+00 0.  1.
          4    1    6    6  503    0 -0.17636833239E+03 -0.51735835948E+03 -0.77171087249E+02  0.55201525115E+03  0.00000000000E+00 0. -1.
         -4    1    6    6    0  503 -0.12728296350E+03 -0.44533902605E+03  0.26879287221E+02  0.46395074846E+03  0.00000000000E+00 0.  1.
<mgrwt>
<rscale>  0 0.22302391E+04</rscale>
<asrwt>0</asrwt>
<pdfrwt beam="1">  1        1 0.24191540E+00 0.22302391E+04</pdfrwt>
<pdfrwt beam="2">  1       -1 0.12166136E+00 0.22302391E+04</pdfrwt>
<totfact> 0.31722425E+00</totfact>
</mgrwt>
</event>
<event>
12    2  0.3623523E-008  0.1441387E+04  0.7818608E-02  0.8924393E-01
         -2   -1    0    0    0  501 -0.00000000000E+00  0.00000000000E+00  0.43154200080E+03  0.43154200080E+03  0.00000000000E+00 0.  1.
          2   -1    0    0  501    0  0.00000000000E+00 -0.00000000000E+00 -0.12035891366E+04  0.12035891366E+04  0.00000000000E+00 0. -1.
         23    2    1    2    0    0  0.22472437108E+03  0.55887022470E+02 -0.64845244928E+03  0.69481779629E+03  0.93041865983E+02 0.  0.
        254    2    1    2    0    0 -0.22472437108E+03 -0.55887022470E+02 -0.12359468652E+03  0.94031334112E+03  0.90293362475E+03 0.  0.
         23    2    4    4    0    0 -0.39433485423E+03 -0.75670091649E+02  0.27667287839E+03  0.49584645461E+03  0.89943787320E+02 0.  0.
         23    2    4    4    0    0  0.16961048315E+03  0.19783069179E+02 -0.40026756492E+03  0.44446688651E+03  0.90430104824E+02 0.  0.
          1    1    3    3  502    0  0.22510722188E+03  0.34642527778E+02 -0.60494366665E+03  0.64639786966E+03  0.00000000000E+00 0. -1.
         -1    1    3    3    0  502 -0.38285079942E+00  0.21244494692E+02 -0.43508782630E+02  0.48419926636E+02  0.00000000000E+00 0.  1.
         11    1    5    5    0    0 -0.25741503795E+02  0.84115989801E+01  0.44780199308E+02  0.52332076828E+02  0.00000000000E+00 0. -1.
        -11    1    5    5    0    0 -0.36859335043E+03 -0.84081690630E+02  0.23189267908E+03  0.44351437778E+03  0.00000000000E+00 0.  1.
          4    1    6    6  503    0 -0.90913444768E+01  0.96223153032E+01 -0.17745967940E+02  0.22139577103E+02  0.00000000000E+00 0. -1.
         -4    1    6    6    0  503  0.17870182763E+03  0.10160753876E+02 -0.38252159698E+03  0.42232730941E+03  0.00000000000E+00 0.  1.
<mgrwt>
<rscale>  0 0.14413872E+04</rscale>
<asrwt>0</asrwt>
<pdfrwt beam="1">  1        2 0.18516755E+00 0.14413872E+04</pdfrwt>
<pdfrwt beam="2">  1       -2 0.66391079E-01 0.14413872E+04</pdfrwt>
<totfact> 0.38147625E+01</totfact>
</mgrwt>
</event>
<event>
12    2  0.3623523E-008  0.1486086E+04  0.7818608E-02  0.8893758E-01
         -1   -1    0    0    0  501 -0.00000000000E+00  0.00000000000E+00  0.92451278042E+03  0.92451278042E+03  0.00000000000E+00 0.  1.
          1   -1    0    0  501    0  0.00000000000E+00 -0.00000000000E+00 -0.59719370801E+03  0.59719370801E+03  0.00000000000E+00 0. -1.
         23    2    1    2    0    0  0.10353064622E+03  0.29838348017E+03 -0.24264870446E+03  0.40868360272E+03  0.91611120568E+02 0.  0.
        254    2    1    2    0    0 -0.10353064622E+03 -0.29838348017E+03  0.56996777688E+03  0.11130228857E+04  0.90233329844E+03 0.  0.
         23    2    4    4    0    0 -0.46009794872E+03 -0.23360331400E+03  0.51639136026E+03  0.73564310317E+03  0.90830102695E+02 0.  0.
         23    2    4    4    0    0  0.35656730250E+03 -0.64780166168E+02  0.53576416618E+02  0.37737978254E+03  0.90599981835E+02 0.  0.
          1    1    3    3  502    0  0.68237688638E+02  0.26510734553E+03 -0.17308388595E+03  0.32387701119E+03  0.00000000000E+00 0. -1.
         -1    1    3    3    0  502  0.35292957584E+02  0.33276134636E+02 -0.69564818516E+02  0.84806591527E+02  0.00000000000E+00 0.  1.
         11    1    5    5    0    0 -0.11384452212E+03 -0.63598354451E+02  0.18944210379E+03  0.22998616610E+03  0.00000000000E+00 0.  1.
        -11    1    5    5    0    0 -0.34625342660E+03 -0.17000495955E+03  0.32694925647E+03  0.50565693707E+03  0.00000000000E+00 0. -1.
          3    1    6    6  503    0  0.34786625472E+03 -0.78484327736E+02  0.55955464289E+02  0.36097331599E+03  0.00000000000E+00 0. -1.
         -3    1    6    6    0  503  0.87010477836E+01  0.13704161568E+02 -0.23790476713E+01  0.16406466549E+02  0.00000000000E+00 0.  1.
<mgrwt>
<rscale>  0 0.14860864E+04</rscale>
<asrwt>0</asrwt>
<pdfrwt beam="1">  1        1 0.91875955E-01 0.14860864E+04</pdfrwt>
<pdfrwt beam="2">  1       -1 0.14223274E+00 0.14860864E+04</pdfrwt>
<totfact> 0.13428902E+01</totfact>
</mgrwt>
</event>
<event>
12    2  0.3623523E-008  0.2509578E+04  0.7818608E-02  0.8399581E-01
         -2   -1    0    0    0  501 -0.00000000000E+00  0.00000000000E+00  0.19248212433E+04  0.19248212433E+04  0.00000000000E+00 0.  1.
          2   -1    0    0  501    0  0.00000000000E+00 -0.00000000000E+00 -0.81799572527E+03  0.81799572527E+03  0.00000000000E+00 0. -1.
         23    2    1    2    0    0 -0.73690820439E+03 -0.76033881674E+03  0.19712921586E+03  0.10809354661E+04  0.91720968907E+02 0.  0.
        254    2    1    2    0    0  0.73690820439E+03  0.76033881674E+03  0.90969630216E+03  0.16618815025E+04  0.90175049110E+03 0.  0.
         23    2    4    4    0    0  0.74389271751E+02 -0.11119646364E+02  0.57556834785E+03  0.58744000539E+03  0.90274174541E+02 0.  0.
         23    2    4    4    0    0  0.66251893264E+03  0.77145846310E+03  0.33412795431E+03  0.10744414971E+04  0.93292788782E+02 0.  0.
          4    1    3    3  502    0 -0.34164736417E+03 -0.35536967447E+03  0.13831510024E+03  0.51199765032E+03  0.00000000000E+00 0. -1.
         -4    1    3    3    0  502 -0.39526084022E+03 -0.40496914227E+03  0.58814115616E+02  0.56893781575E+03  0.00000000000E+00 0.  1.
         11    1    5    5    0    0  0.34892859611E+02  0.27174771448E+02  0.42207761799E+03  0.42438837809E+03  0.00000000000E+00 0.  1.
        -11    1    5    5    0    0  0.39496412140E+02 -0.38294417812E+02  0.15349072987E+03  0.16305162729E+03  0.00000000000E+00 0. -1.
          4    1    6    6  503    0  0.36523926143E+03  0.35473382467E+03  0.15830261272E+03  0.53319369993E+03  0.00000000000E+00 0.  1.
         -4    1    6    6    0  503  0.29727967121E+03  0.41672463843E+03  0.17582534159E+03  0.54124779717E+03  0.00000000000E+00 0. -1.
<mgrwt>
<rscale>  0 0.25095781E+04</rscale>
<asrwt>0</asrwt>
<pdfrwt beam="1">  1        2 0.12584550E+00 0.25095781E+04</pdfrwt>
<pdfrwt beam="2">  1       -2 0.29612634E+00 0.25095781E+04</pdfrwt>
<totfact> 0.10003096E+00</totfact>
</mgrwt>
</event>
<event>
12    2  0.3623523E-008  0.2966364E+04  0.7818608E-02  0.8253402E-01
         -1   -1    0    0    0  501 -0.00000000000E+00  0.00000000000E+00  0.63141094260E+03  0.63141094260E+03  0.00000000000E+00 0.  1.
          1   -1    0    0  501    0  0.00000000000E+00 -0.00000000000E+00 -0.34839894135E+04  0.34839894135E+04  0.00000000000E+00 0. -1.
         23    2    1    2    0    0  0.50425598349E+03 -0.32272581137E+03  0.37596305837E+03  0.71287159906E+03  0.91715043910E+02 0.  0.
        254    2    1    2    0    0 -0.50425598349E+03  0.32272581137E+03 -0.32285415293E+04  0.34025287570E+04  0.89179341224E+03 0.  0.
         23    2    4    4    0    0  0.40288247505E+01 -0.26361935627E+03 -0.62849660588E+03  0.68765220377E+03  0.91357393291E+02 0.  0.
         23    2    4    4    0    0 -0.50828480824E+03  0.58634516764E+03 -0.26000449234E+04  0.27148765533E+04  0.90371422614E+02 0.  0.
          3    1    3    3  502    0  0.18075557083E+02 -0.34927146963E+02  0.37092382671E+02  0.54059931660E+02  0.00000000000E+00 0. -1.
         -3    1    3    3    0  502  0.48618042641E+03 -0.28779866440E+03  0.33887067570E+03  0.65881166740E+03  0.00000000000E+00 0.  1.
         11    1    5    5    0    0  0.36094772448E+02 -0.22813851559E+03 -0.50982570284E+03  0.55970730044E+03  0.00000000000E+00 0.  1.
        -11    1    5    5    0    0 -0.32065947698E+02 -0.35480840680E+02 -0.11867090305E+03  0.12794490332E+03  0.00000000000E+00 0. -1.
          4    1    6    6  503    0 -0.13483536964E+03  0.99389933756E+02 -0.57064409612E+03  0.59472146445E+03  0.00000000000E+00 0. -1.
         -4    1    6    6    0  503 -0.37344943860E+03  0.48695523388E+03 -0.20294008273E+04  0.21201550888E+04  0.00000000000E+00 0.  1.
<mgrwt>
<rscale>  0 0.29663641E+04</rscale>
<asrwt>0</asrwt>
<pdfrwt beam="1">  1        1 0.53599836E+00 0.29663641E+04</pdfrwt>
<pdfrwt beam="2">  1       -1 0.97140146E-01 0.29663641E+04</pdfrwt>
<totfact> 0.22340145E-01</totfact>
</mgrwt>
</event>
<event>
12    2  0.3623523E-008  0.2796719E+04  0.7818608E-02  0.8304288E-01
         -2   -1    0    0    0  501 -0.00000000000E+00  0.00000000000E+00  0.10984222534E+04  0.10984222534E+04  0.00000000000E+00 0.  1.
          2   -1    0    0  501    0  0.00000000000E+00 -0.00000000000E+00 -0.17801984961E+04  0.17801984961E+04  0.00000000000E+00 0. -1.
         23    2    1    2    0    0 -0.93738074464E+03  0.23466665667E+02 -0.11574102176E+04  0.14922905862E+04  0.89996871224E+02 0.  0.
        254    2    1    2    0    0  0.93738074464E+03 -0.23466665667E+02  0.47563397490E+03  0.13863301633E+04  0.90357639350E+03 0.  0.
         23    2    4    4    0    0  0.21463900088E+03  0.27429316834E+03  0.47836990202E+03  0.59934669463E+03  0.95247332270E+02 0.  0.
         23    2    4    4    0    0  0.72274174376E+03 -0.29775983401E+03 -0.27359271243E+01  0.78698346871E+03  0.91208266085E+02 0.  0.
          4    1    3    3  502    0 -0.72565054310E+03  0.42302639171E+02 -0.84799845668E+03  0.11168973124E+04  0.00000000000E+00 0. -1.
         -4    1    3    3    0  502 -0.21173020154E+03 -0.18835973503E+02 -0.30941176097E+03  0.37539327374E+03  0.00000000000E+00 0.  1.
         11    1    5    5    0    0  0.22271413813E+03  0.27314671710E+03  0.46223503820E+03  0.58126753473E+03  0.00000000000E+00 0.  1.
        -11    1    5    5    0    0 -0.80751372570E+01  0.11464512393E+01  0.16134863817E+02  0.18079159896E+02  0.00000000000E+00 0. -1.
          1    1    6    6  503    0  0.40269158543E+03 -0.12352878323E+03 -0.24569163184E+02  0.42192833164E+03  0.00000000000E+00 0. -1.
         -1    1    6    6    0  503  0.32005015833E+03 -0.17423105078E+03  0.21833236060E+02  0.36505513707E+03  0.00000000000E+00 0.  1.
<mgrwt>
<rscale>  0 0.27967193E+04</rscale>
<asrwt>0</asrwt>
<pdfrwt beam="1">  1        2 0.27387669E+00 0.27967193E+04</pdfrwt>
<pdfrwt beam="2">  1       -2 0.16898804E+00 0.27967193E+04</pdfrwt>
<totfact> 0.16695279E+00</totfact>
</mgrwt>
</event>
<event>
12    2  0.3623523E-008  0.2551679E+04  0.7818608E-02  0.8384803E-01
         -1   -1    0    0    0  501 -0.00000000000E+00  0.00000000000E+00  0.51381366316E+03  0.51381366316E+03  0.00000000000E+00 0. -1.
          1   -1    0    0  501    0  0.00000000000E+00 -0.00000000000E+00 -0.31680088267E+04  0.31680088267E+04  0.00000000000E+00 0.  1.
         23    2    1    2    0    0 -0.97944138073E+02  0.10092787164E+04 -0.49488303428E+03  0.11319818195E+04  0.90758143021E+02 0.  0.
        254    2    1    2    0    0  0.97944138073E+02 -0.10092787164E+04 -0.21593121293E+04  0.25498406704E+04  0.90045654589E+03 0.  0.
         23    2    4    4    0    0  0.40134597305E+03 -0.53021252832E+03 -0.64755551889E+03  0.93261077464E+03  0.90723710596E+02 0.  0.
         23    2    4    4    0    0 -0.30340183497E+03 -0.47906618808E+03 -0.15117566104E+04  0.16172298957E+04  0.92018479331E+02 0.  0.
          4    1    3    3  502    0 -0.44099373638E+02  0.79351698433E+03 -0.40667276471E+03  0.89274671477E+03  0.00000000000E+00 0. -1.
         -4    1    3    3    0  502 -0.53844764435E+02  0.21576173208E+03 -0.88210269570E+02  0.23923510475E+03  0.00000000000E+00 0.  1.
         11    1    5    5    0    0  0.20354869213E+03 -0.34252693207E+03 -0.38011414431E+03  0.55067552330E+03  0.00000000000E+00 0.  1.
        -11    1    5    5    0    0  0.19779728092E+03 -0.18768559625E+03 -0.26744137459E+03  0.38193525134E+03  0.00000000000E+00 0. -1.
          1    1    6    6  503    0 -0.28366027747E+03 -0.40794831102E+03 -0.13716357906E+04  0.14588590472E+04  0.00000000000E+00 0.  1.
         -1    1    6    6    0  503 -0.19741557500E+02 -0.71117877066E+02 -0.14012081980E+03  0.15837084855E+03  0.00000000000E+00 0. -1.
<mgrwt>
<rscale>  0 0.25516788E+04</rscale>
<asrwt>0</asrwt>
<pdfrwt beam="1">  1        1 0.48738596E+00 0.25516788E+04</pdfrwt>
<pdfrwt beam="2">  1       -1 0.79048257E-01 0.25516788E+04</pdfrwt>
<totfact> 0.63574245E-01</totfact>
</mgrwt>
</event>
<event>
12    2  0.3623523E-008  0.1453584E+04  0.7818608E-02  0.8915919E-01
          1   -1    0    0  501    0  0.00000000000E+00  0.00000000000E+00  0.67090322558E+03  0.67090322558E+03  0.00000000000E+00 0. -1.
         -1   -1    0    0    0  501 -0.00000000000E+00 -0.00000000000E+00 -0.78733705281E+03  0.78733705281E+03  0.00000000000E+00 0.  1.
         23    2    1    2    0    0 -0.22676142955E+03 -0.18568455284E+03  0.29544554025E+03  0.42555463804E+03  0.88933591008E+02 0.  0.
        254    2    1    2    0    0  0.22676142955E+03  0.18568455284E+03 -0.41187936747E+03  0.10326856404E+04  0.90049737331E+03 0.  0.
         23    2    4    4    0    0  0.56417266099E+03  0.17450334521E+03 -0.25133539522E+03  0.64776061932E+03  0.87647761836E+02 0.  0.
         23    2    4    4    0    0 -0.33741123144E+03  0.11181207637E+02 -0.16054397225E+03  0.38492502103E+03  0.91768983214E+02 0.  0.
          1    1    3    3  502    0 -0.12531059860E+03 -0.11353424653E+03  0.22832717953E+03  0.28412333972E+03  0.00000000000E+00 0. -1.
         -1    1    3    3    0  502 -0.10145083095E+03 -0.72150306310E+02  0.67118360712E+02  0.14143129832E+03  0.00000000000E+00 0.  1.
         11    1    5    5    0    0  0.51024165798E+03  0.18283244794E+03 -0.22107522031E+03  0.58536185953E+03  0.00000000000E+00 0.  1.
        -11    1    5    5    0    0  0.53931003012E+02 -0.83291027290E+01 -0.30260174906E+02  0.62398759791E+02  0.00000000000E+00 0. -1.
          4    1    6    6  503    0 -0.17703172771E+03 -0.39860543137E+02 -0.79244849013E+02  0.19801222591E+03  0.00000000000E+00 0.  1.
         -4    1    6    6    0  503 -0.16037950374E+03  0.51041750774E+02 -0.81299123240E+02  0.18691279512E+03  0.00000000000E+00 0. -1.
<mgrwt>
<rscale>  0 0.14535845E+04</rscale>
<asrwt>0</asrwt>
<pdfrwt beam="1">  1        1 0.10321588E+00 0.14535845E+04</pdfrwt>
<pdfrwt beam="2">  1       -1 0.12112878E+00 0.14535845E+04</pdfrwt>
<totfact> 0.17070544E+01</totfact>
</mgrwt>
</event>
<event>
12    2  0.3623523E-008  0.1311038E+04  0.7818608E-02  0.9020858E-01
          2   -1    0    0  501    0  0.00000000000E+00  0.00000000000E+00  0.21880254709E+04  0.21880254709E+04  0.00000000000E+00 0. -1.
         -2   -1    0    0    0  501 -0.00000000000E+00 -0.00000000000E+00 -0.19638933658E+03  0.19638933658E+03  0.00000000000E+00 0.  1.
         23    2    1    2    0    0 -0.27655513411E+03 -0.14072752469E+03  0.29460252702E+03  0.43875141287E+03  0.97083340313E+02 0.  0.
        254    2    1    2    0    0  0.27655513411E+03  0.14072752469E+03  0.16970336073E+04  0.19456633946E+04  0.89966438318E+03 0.  0.
         23    2    4    4    0    0  0.22459003812E+03 -0.32078618331E+03  0.11724020758E+04  0.12389741494E+04  0.84769421547E+02 0.  0.
         23    2    4    4    0    0  0.51965095990E+02  0.46151370800E+03  0.52463153141E+03  0.70668924515E+03  0.92066126150E+02 0.  0.
          3    1    3    3  502    0 -0.23478965168E+03 -0.84367130364E+02  0.26068468310E+03  0.36083306005E+03  0.00000000000E+00 0.  1.
         -3    1    3    3    0  502 -0.41765482422E+02 -0.56360394321E+02  0.33917843920E+02  0.77918352820E+02  0.00000000000E+00 0. -1.
         11    1    5    5    0    0  0.61854915457E+02 -0.87800213454E+02  0.21578268151E+03  0.24103334560E+03  0.00000000000E+00 0.  1.
        -11    1    5    5    0    0  0.16273512266E+03 -0.23298596986E+03  0.95661939433E+03  0.99794080381E+03  0.00000000000E+00 0. -1.
          3    1    6    6  503    0 -0.13560005645E+02  0.25678199371E+03  0.31232898451E+03  0.40456181309E+03  0.00000000000E+00 0. -1.
         -3    1    6    6    0  503  0.65525101635E+02  0.20473171429E+03  0.21230254690E+03  0.30212743206E+03  0.00000000000E+00 0.  1.
<mgrwt>
<rscale>  0 0.13110376E+04</rscale>
<asrwt>0</asrwt>
<pdfrwt beam="1">  1        2 0.33661929E+00 0.13110376E+04</pdfrwt>
<pdfrwt beam="2">  1       -2 0.30213746E-01 0.13110376E+04</pdfrwt>
<totfact> 0.52081505E+01</totfact>
</mgrwt>
</event>
<event>
12    2  0.3623523E-008  0.1864871E+04  0.7818608E-02  0.8672543E-01
          1   -1    0    0  501    0  0.00000000000E+00  0.00000000000E+00  0.15440144749E+04  0.15440144749E+04  0.00000000000E+00 0. -1.
         -1   -1    0    0    0  501 -0.00000000000E+00 -0.00000000000E+00 -0.56310066172E+03  0.56310066172E+03  0.00000000000E+00 0.  1.
         23    2    1    2    0    0 -0.19808590833E+03 -0.55267205086E+03  0.82098467388E+03  0.10150969167E+04  0.10826584296E+03 0.  0.
        254    2    1    2    0    0  0.19808590833E+03  0.55267205086E+03  0.15992913933E+03  0.10920182199E+04  0.90677562833E+03 0.  0.
         23    2    4    4    0    0  0.43906616324E+03  0.63369069348E+03  0.23526851353E+03  0.81153833452E+03  0.94340893735E+02 0.  0.
         23    2    4    4    0    0 -0.24098025491E+03 -0.81018642626E+02 -0.75339374197E+02  0.28047988539E+03  0.91419041186E+02 0.  0.
          4    1    3    3  502    0 -0.15672849222E+03 -0.40242318828E+03  0.51823045357E+03  0.67458953872E+03  0.00000000000E+00 0. -1.
         -4    1    3    3    0  502 -0.41357416105E+02 -0.15024886258E+03  0.30275422031E+03  0.34050737803E+03  0.00000000000E+00 0.  1.
         11    1    5    5    0    0  0.28393063693E+03  0.42780182641E+03  0.11079692007E+03  0.52526847113E+03  0.00000000000E+00 0.  1.
        -11    1    5    5    0    0  0.15513552631E+03  0.20588886708E+03  0.12447159345E+03  0.28626986339E+03  0.00000000000E+00 0. -1.
          2    1    6    6  503    0 -0.14642772601E+01  0.45421910152E+01 -0.19509765461E+02  0.20084983332E+02  0.00000000000E+00 0. -1.
         -2    1    6    6    0  503 -0.23951597765E+03 -0.85560833641E+02 -0.55829608735E+02  0.26039490205E+03  0.00000000000E+00 0.  1.
<mgrwt>
<rscale>  0 0.18648706E+04</rscale>
<asrwt>0</asrwt>
<pdfrwt beam="1">  1        1 0.23754069E+00 0.18648706E+04</pdfrwt>
<pdfrwt beam="2">  1       -1 0.86630872E-01 0.18648706E+04</pdfrwt>
<totfact> 0.75168954E+00</totfact>
</mgrwt>
</event>
<event>
12    2  0.3623523E-008  0.1059569E+04  0.7818608E-02  0.9245520E-01
          2   -1    0    0  501    0  0.00000000000E+00  0.00000000000E+00  0.29671823286E+04  0.29671823286E+04  0.00000000000E+00 0. -1.
         -2   -1    0    0    0  501 -0.00000000000E+00 -0.00000000000E+00 -0.94591961348E+02  0.94591961348E+02  0.00000000000E+00 0.  1.
         23    2    1    2    0    0  0.56004264629E+02  0.12592239354E+03  0.33258170424E+03  0.37112918446E+03  0.90185113555E+02 0.  0.
        254    2    1    2    0    0 -0.56004264629E+02 -0.12592239354E+03  0.25400086630E+04  0.26906451055E+04  0.87688890328E+03 0.  0.
         23    2    4    4    0    0  0.22445880950E+03  0.23560460013E+03  0.16566242368E+04  0.16908262474E+04  0.92726761408E+02 0.  0.
         23    2    4    4    0    0 -0.28046307413E+03 -0.36152699367E+03  0.88338442623E+03  0.99981885808E+03  0.99540953214E+02 0.  0.
          4    1    3    3  502    0  0.67433977457E+02  0.12852034358E+03  0.32775609413E+03  0.35845345202E+03  0.00000000000E+00 0. -1.
         -4    1    3    3    0  502 -0.11429712828E+02 -0.25979500386E+01  0.48256101135E+01  0.12675732432E+02  0.00000000000E+00 0.  1.
         11    1    5    5    0    0  0.27773977862E+02  0.42672339095E+02  0.46433993207E+03  0.46712299760E+03  0.00000000000E+00 0.  1.
        -11    1    5    5    0    0  0.19668483164E+03  0.19293226103E+03  0.11922843047E+04  0.12237032498E+04  0.00000000000E+00 0. -1.
          4    1    6    6  503    0 -0.26129541438E+03 -0.35291596856E+03  0.87099127961E+03  0.97542338684E+03  0.00000000000E+00 0. -1.
         -4    1    6    6    0  503 -0.19167659751E+02 -0.86110251095E+01  0.12393146615E+02  0.24395471235E+02  0.00000000000E+00 0.  1.
<mgrwt>
<rscale>  0 0.10595690E+04</rscale>
<asrwt>0</asrwt>
<pdfrwt beam="1">  1        2 0.45648952E+00 0.10595690E+04</pdfrwt>
<pdfrwt beam="2">  1       -2 0.14552612E-01 0.10595690E+04</pdfrwt>
<totfact> 0.68500060E+01</totfact>
</mgrwt>
</event>
<event>
12    2  0.3623523E-008  0.2429680E+04  0.7818608E-02  0.8428475E-01
          1   -1    0    0  501    0  0.00000000000E+00  0.00000000000E+00  0.86414816806E+03  0.86414816806E+03  0.00000000000E+00 0. -1.
         -1   -1    0    0    0  501 -0.00000000000E+00 -0.00000000000E+00 -0.17078511623E+04  0.17078511623E+04  0.00000000000E+00 0.  1.
         23    2    1    2    0    0  0.70689238901E+03 -0.30343065952E+03 -0.11110489226E+04  0.13544440147E+04  0.91224259916E+02 0.  0.
        254    2    1    2    0    0 -0.70689238901E+03  0.30343065952E+03  0.26734592843E+03  0.12175553157E+04  0.90509672769E+03 0.  0.
         23    2    4    4    0    0 -0.79614965393E+03  0.40205865807E+03  0.42327538495E+03  0.99141029881E+03  0.90702222227E+02 0.  0.
         23    2    4    4    0    0  0.89257264913E+02 -0.98627998547E+02 -0.15592945651E+03  0.22614501685E+03  0.95567943373E+02 0.  0.
          1    1    3    3  502    0  0.20688758009E+02  0.60601219677E+01 -0.24872518751E+02  0.32914920253E+02  0.00000000000E+00 0. -1.
         -1    1    3    3    0  502  0.68620363100E+03 -0.30949078149E+03 -0.10861764039E+04  0.13215290944E+04  0.00000000000E+00 0.  1.
         11    1    5    5    0    0 -0.69470586907E+03  0.37254305658E+03  0.34801916521E+03  0.86169711203E+03  0.00000000000E+00 0.  1.
        -11    1    5    5    0    0 -0.10144378486E+03  0.29515601494E+02  0.75256219731E+02  0.12971318678E+03  0.00000000000E+00 0. -1.
          2    1    6    6  503    0  0.54924257190E+01  0.16935986753E+02 -0.34196179342E+02  0.38553509168E+02  0.00000000000E+00 0. -1.
         -2    1    6    6    0  503  0.83764839194E+02 -0.11556398530E+03 -0.12173327717E+03  0.18759150768E+03  0.00000000000E+00 0.  1.
<mgrwt>
<rscale>  0 0.24296802E+04</rscale>
<asrwt>0</asrwt>
<pdfrwt beam="1">  1        1 0.13294587E+00 0.24296802E+04</pdfrwt>
<pdfrwt beam="2">  1       -1 0.26274633E+00 0.24296802E+04</pdfrwt>
<totfact> 0.10029667E+00</totfact>
</mgrwt>
</event>
<event>
12    2  0.3623523E-008  0.2696818E+04  0.7818608E-02  0.8336038E-01
          1   -1    0    0  501    0  0.00000000000E+00  0.00000000000E+00  0.19240744026E+04  0.19240744026E+04  0.00000000000E+00 0. -1.
         -1   -1    0    0    0  501 -0.00000000000E+00 -0.00000000000E+00 -0.94497768834E+03  0.94497768834E+03  0.00000000000E+00 0.  1.
         23    2    1    2    0    0  0.10040752523E+04  0.20945980237E+03  0.10858913975E+04  0.14964439027E+04  0.90242481694E+02 0.  0.
        254    2    1    2    0    0 -0.10040752523E+04 -0.20945980237E+03 -0.10679468326E+03  0.13726081883E+04  0.90587394986E+03 0.  0.
         23    2    4    4    0    0  0.40871964369E+02 -0.23495001152E+03 -0.19285609224E+03  0.31975512999E+03  0.90431440638E+02 0.  0.
         23    2    4    4    0    0 -0.10449472167E+04  0.25490209149E+02  0.86061408980E+02  0.10528530583E+04  0.92350202072E+02 0.  0.
          1    1    3    3  502    0  0.37252880830E+03  0.57935963898E+02  0.45634761310E+03  0.59193532832E+03  0.00000000000E+00 0.  1.
         -1    1    3    3    0  502  0.63154644401E+03  0.15152383847E+03  0.62954378441E+03  0.90450857434E+03  0.00000000000E+00 0. -1.
         11    1    5    5    0    0 -0.15340424628E+02 -0.68189327737E+02 -0.19115905967E+02  0.72460547238E+02  0.00000000000E+00 0.  1.
        -11    1    5    5    0    0  0.56212388996E+02 -0.16676068378E+03 -0.17374018627E+03  0.24729458275E+03  0.00000000000E+00 0. -1.
          3    1    6    6  503    0 -0.51886917774E+03 -0.25153051640E+01  0.86463701106E+02  0.52602996300E+03  0.00000000000E+00 0. -1.
         -3    1    6    6    0  503 -0.52607803895E+03  0.28005514313E+02 -0.40229212530E+00  0.52682309529E+03  0.00000000000E+00 0.  1.
<mgrwt>
<rscale>  0 0.26968184E+04</rscale>
<asrwt>0</asrwt>
<pdfrwt beam="1">  1        1 0.29601145E+00 0.26968184E+04</pdfrwt>
<pdfrwt beam="2">  1       -1 0.14538118E+00 0.26968184E+04</pdfrwt>
<totfact> 0.11118387E+00</totfact>
</mgrwt>
</event>
<event>
12    2  0.3623523E-008  0.1607953E+04  0.7818608E-02  0.8815677E-01
         -2   -1    0    0    0  501 -0.00000000000E+00  0.00000000000E+00  0.61563691682E+03  0.61563691682E+03  0.00000000000E+00 0.  1.
          2   -1    0    0  501    0  0.00000000000E+00 -0.00000000000E+00 -0.10499344966E+04  0.10499344966E+04  0.00000000000E+00 0. -1.
         23    2    1    2    0    0  0.27703781160E+03 -0.92036088720E+02  0.32343492001E+03  0.44571204257E+03  0.93960027283E+02 0.  0.
        254    2    1    2    0    0 -0.27703781160E+03  0.92036088720E+02 -0.75773249977E+03  0.12198593708E+04  0.91031739118E+03 0.  0.
         23    2    4    4    0    0 -0.39916205798E+03 -0.13243257514E+03 -0.83398617493E+03  0.93847176895E+03  0.91255606063E+02 0.  0.
         23    2    4    4    0    0  0.12212424638E+03  0.22446866386E+03  0.76253675159E+02  0.28138760188E+03  0.89798924868E+02 0.  0.
          1    1    3    3  502    0  0.32834024564E+01  0.94317156795E+01  0.30661092196E+02  0.32246558995E+02  0.00000000000E+00 0. -1.
         -1    1    3    3    0  502  0.27375440914E+03 -0.10146780440E+03  0.29277382781E+03  0.41346548358E+03  0.00000000000E+00 0.  1.
         11    1    5    5    0    0 -0.36648580176E+03 -0.91885136377E+02 -0.71845201121E+03  0.81174381032E+03  0.00000000000E+00 0.  1.
        -11    1    5    5    0    0 -0.32676256226E+02 -0.40547438760E+02 -0.11553416372E+03  0.12672795863E+03  0.00000000000E+00 0. -1.
          3    1    6    6  503    0 -0.33104846665E+01  0.67806304650E+02  0.37126183663E+01  0.67988512222E+02  0.00000000000E+00 0. -1.
         -3    1    6    6    0  503  0.12543473105E+03  0.15666235921E+03  0.72541056793E+02  0.21339908966E+03  0.00000000000E+00 0.  1.
<mgrwt>
<rscale>  0 0.16079533E+04</rscale>
<asrwt>0</asrwt>
<pdfrwt beam="1">  1        2 0.16152838E+00 0.16079533E+04</pdfrwt>
<pdfrwt beam="2">  1       -2 0.94713374E-01 0.16079533E+04</pdfrwt>
<totfact> 0.21062643E+01</totfact>
</mgrwt>
</event>
<event>
12    2  0.3623523E-008  0.1778788E+04  0.7818608E-02  0.8717662E-01
          2   -1    0    0  501    0  0.00000000000E+00  0.00000000000E+00  0.23583581952E+04  0.23583581952E+04  0.00000000000E+00 0. -1.
         -2   -1    0    0    0  501 -0.00000000000E+00 -0.00000000000E+00 -0.33541192700E+03  0.33541192700E+03  0.00000000000E+00 0.  1.
         23    2    1    2    0    0  0.21719696367E+03 -0.24925227249E+02  0.16903635414E+04  0.17068822753E+04  0.91227252901E+02 0.  0.
        254    2    1    2    0    0 -0.21719696367E+03  0.24925227249E+02  0.33258272684E+03  0.98688784693E+03  0.90307284548E+03 0.  0.
         23    2    4    4    0    0 -0.17583179984E+01 -0.26840334918E+03 -0.19183570469E+03  0.34219239130E+03  0.90836366798E+02 0.  0.
         23    2    4    4    0    0 -0.21543864568E+03  0.29332857643E+03  0.52441843153E+03  0.64469545563E+03  0.90344205077E+02 0.  0.
          2    1    3    3  502    0  0.21702724918E+03 -0.70179475658E+01  0.16079639698E+04  0.16225591535E+04  0.00000000000E+00 0. -1.
         -2    1    3    3    0  502  0.16971449019E+00 -0.17907279683E+02  0.82399571593E+02  0.84323121784E+02  0.00000000000E+00 0.  1.
         11    1    5    5    0    0 -0.26716415953E+02 -0.21969464211E+03 -0.18210423684E+03  0.28660330726E+03  0.00000000000E+00 0. -1.
        -11    1    5    5    0    0  0.24958097955E+02 -0.48708707070E+02 -0.97314678463E+01  0.55589084040E+02  0.00000000000E+00 0.  1.
          4    1    6    6  503    0 -0.15861984613E+03  0.24521042047E+03  0.35535394154E+03  0.45996176978E+03  0.00000000000E+00 0. -1.
         -4    1    6    6    0  503 -0.56818799549E+02  0.48118155965E+02  0.16906448999E+03  0.18473368586E+03  0.00000000000E+00 0.  1.
<mgrwt>
<rscale>  0 0.17787878E+04</rscale>
<asrwt>0</asrwt>
<pdfrwt beam="1">  1        2 0.36282433E+00 0.17787878E+04</pdfrwt>
<pdfrwt beam="2">  1       -2 0.51601836E-01 0.17787878E+04</pdfrwt>
<totfact> 0.14099350E+01</totfact>
</mgrwt>
</event>
<event>
12    2  0.3623523E-008  0.1877291E+04  0.7818608E-02  0.8666244E-01
         -4   -1    0    0    0  501 -0.00000000000E+00  0.00000000000E+00  0.46849757119E+03  0.46849757119E+03  0.00000000000E+00 0.  1.
          4   -1    0    0  501    0  0.00000000000E+00 -0.00000000000E+00 -0.18805966285E+04  0.18805966285E+04  0.00000000000E+00 0. -1.
         23    2    1    2    0    0  0.28048347006E+03 -0.31165971998E+03 -0.12784721306E+04  0.13485961743E+04  0.91749084449E+02 0.  0.
        254    2    1    2    0    0 -0.28048347006E+03  0.31165971998E+03 -0.13362692672E+03  0.10004980254E+04  0.89851955199E+03 0.  0.
         23    2    4    4    0    0 -0.26421023374E+03 -0.27296772549E+03  0.14487409818E+02  0.39075163553E+03  0.90324575031E+02 0.  0.
         23    2    4    4    0    0 -0.16273236319E+02  0.58462744546E+03 -0.14811433653E+03  0.60974638990E+03  0.88310447318E+02 0.  0.
          1    1    3    3  502    0  0.21156080841E+03 -0.21331075058E+03 -0.77993521235E+03  0.83579805421E+03  0.00000000000E+00 0. -1.
         -1    1    3    3    0  502  0.68922661648E+02 -0.98348969398E+02 -0.49853691826E+03  0.51279812006E+03  0.00000000000E+00 0.  1.
         11    1    5    5    0    0 -0.14436146204E+03 -0.18403149958E+03  0.45599494955E+02  0.23830052140E+03  0.00000000000E+00 0.  1.
        -11    1    5    5    0    0 -0.11984877170E+03 -0.88936225902E+02 -0.31112085137E+02  0.15245111413E+03  0.00000000000E+00 0. -1.
          3    1    6    6  503    0 -0.35139862830E+02  0.46850264210E+03 -0.89351284827E+02  0.47823967602E+03  0.00000000000E+00 0. -1.
         -3    1    6    6    0  503  0.18866626511E+02  0.11612480336E+03 -0.58763051708E+02  0.13150671389E+03  0.00000000000E+00 0.  1.
<mgrwt>
<rscale>  0 0.18772906E+04</rscale>
<asrwt>0</asrwt>
<pdfrwt beam="1">  1        4 0.28932256E+00 0.18772906E+04</pdfrwt>
<pdfrwt beam="2">  1       -4 0.72076550E-01 0.18772906E+04</pdfrwt>
<totfact> 0.11883038E-01</totfact>
</mgrwt>
</event>
<event>
12    2  0.3623523E-008  0.1768100E+04  0.7818608E-02  0.8723450E-01
          2   -1    0    0  501    0  0.00000000000E+00  0.00000000000E+00  0.99985737237E+03  0.99985737237E+03  0.00000000000E+00 0. -1.
         -2   -1    0    0    0  501 -0.00000000000E+00 -0.00000000000E+00 -0.78165604882E+03  0.78165604882E+03  0.00000000000E+00 0.  1.
         23    2    1    2    0    0  0.14048611110E+03 -0.55885800155E+03  0.39828255338E+03  0.70664312099E+03  0.93042435478E+02 0.  0.
        254    2    1    2    0    0 -0.14048611110E+03  0.55885800155E+03 -0.18008122983E+03  0.10748703002E+04  0.88930214192E+03 0.  0.
         23    2    4    4    0    0 -0.32138992386E+03  0.37977463440E+03  0.25178193312E+03  0.56492235152E+03  0.90680016036E+02 0.  0.
         23    2    4    4    0    0  0.18090381276E+03  0.17908336715E+03 -0.43186316295E+03  0.50994794869E+03  0.93509769507E+02 0.  0.
          1    1    3    3  502    0  0.79267613685E+02 -0.36761551525E+03  0.20678384055E+03  0.42916672558E+03  0.00000000000E+00 0.  1.
         -1    1    3    3    0  502  0.61218497416E+02 -0.19124248630E+03  0.19149871283E+03  0.27747639541E+03  0.00000000000E+00 0. -1.
         11    1    5    5    0    0 -0.18595009506E+03  0.27962913932E+03  0.18764144551E+03  0.38468065390E+03  0.00000000000E+00 0.  1.
        -11    1    5    5    0    0 -0.13543982881E+03  0.10014549508E+03  0.64140487606E+02  0.18024169762E+03  0.00000000000E+00 0. -1.
          1    1    6    6  503    0  0.61291889811E+02  0.95663509720E+02 -0.11770104421E+03  0.16359015452E+03  0.00000000000E+00 0. -1.
         -1    1    6    6    0  503  0.11961192295E+03  0.83419857430E+02 -0.31416211874E+03  0.34635779416E+03  0.00000000000E+00 0.  1.
<mgrwt>
<rscale>  0 0.17681002E+04</rscale>
<asrwt>0</asrwt>
<pdfrwt beam="1">  1        2 0.15382421E+00 0.17681002E+04</pdfrwt>
<pdfrwt beam="2">  1       -2 0.12025478E+00 0.17681002E+04</pdfrwt>
<totfact> 0.12595884E+01</totfact>
</mgrwt>
</event>
<event>
12    2  0.3623523E-008  0.2185627E+04  0.7818608E-02  0.8524434E-01
         -1   -1    0    0    0  501 -0.00000000000E+00  0.00000000000E+00  0.10548201373E+04  0.10548201373E+04  0.00000000000E+00 0.  1.
          1   -1    0    0  501    0  0.00000000000E+00 -0.00000000000E+00 -0.11321751411E+04  0.11321751411E+04  0.00000000000E+00 0. -1.
         23    2    1    2    0    0 -0.86448353939E+03 -0.18227298913E+03 -0.11317223721E+03  0.89596281638E+03  0.96882302898E+02 0.  0.
        254    2    1    2    0    0  0.86448353939E+03  0.18227298913E+03  0.35817233432E+02  0.12910324621E+04  0.94070543290E+03 0.  0.
         23    2    4    4    0    0  0.31400186286E+03  0.20476268265E+03 -0.41998845404E+03  0.57023338645E+03  0.90834395464E+02 0.  0.
         23    2    4    4    0    0  0.55048167652E+03 -0.22489693523E+02  0.45580568747E+03  0.72079907563E+03  0.90865946294E+02 0.  0.
          4    1    3    3  502    0 -0.61404504685E+03 -0.11484956245E+03 -0.12183164095E+03  0.63646263856E+03  0.00000000000E+00 0. -1.
         -4    1    3    3    0  502 -0.25043849254E+03 -0.67423426679E+02  0.86594037380E+01  0.25950017781E+03  0.00000000000E+00 0.  1.
         11    1    5    5    0    0  0.38244502603E+02  0.36990496724E+02 -0.21428756208E+02  0.57359658471E+02  0.00000000000E+00 0. -1.
        -11    1    5    5    0    0  0.27575736026E+03  0.16777218593E+03 -0.39855969783E+03  0.51287372797E+03  0.00000000000E+00 0.  1.
          3    1    6    6  503    0  0.17304232686E+03 -0.43405049434E+02  0.17491023704E+03  0.24984242279E+03  0.00000000000E+00 0. -1.
         -3    1    6    6    0  503  0.37743934966E+03  0.20915355911E+02  0.28089545043E+03  0.47095665285E+03  0.00000000000E+00 0.  1.
<mgrwt>
<rscale>  0 0.21856268E+04</rscale>
<asrwt>0</asrwt>
<pdfrwt beam="1">  1        1 0.17418079E+00 0.21856268E+04</pdfrwt>
<pdfrwt beam="2">  1       -1 0.16228002E+00 0.21856268E+04</pdfrwt>
<totfact> 0.30752652E+00</totfact>
</mgrwt>
</event>
<event>
12    2  0.3623523E-008  0.2636748E+04  0.7818608E-02  0.8355825E-01
         -2   -1    0    0    0  501 -0.00000000000E+00  0.00000000000E+00  0.95201402189E+03  0.95201402189E+03  0.00000000000E+00 0.  1.
          2   -1    0    0  501    0  0.00000000000E+00 -0.00000000000E+00 -0.18257184949E+04  0.18257184949E+04  0.00000000000E+00 0. -1.
         23    2    1    2    0    0  0.33834552887E+03 -0.17871085663E+03 -0.15384741722E+04  0.15885468839E+04  0.10081248243E+03 0.  0.
        254    2    1    2    0    0 -0.33834552887E+03  0.17871085663E+03  0.66476969917E+03  0.11891856329E+04  0.90875103819E+03 0.  0.
         23    2    4    4    0    0 -0.60672014729E+03  0.21849652220E+03  0.62332802564E+03  0.90143427708E+03  0.90530994751E+02 0.  0.
         23    2    4    4    0    0  0.26837461842E+03 -0.39785665570E+02  0.41441673533E+02  0.28775135583E+03  0.86461526011E+02 0.  0.
          2    1    3    3  502    0  0.31721806175E+03 -0.17492483996E+03 -0.13130650168E+04  0.13621181067E+04  0.00000000000E+00 0. -1.
         -2    1    3    3    0  502  0.21127467123E+02 -0.37860166708E+01 -0.22540915545E+03  0.22642877721E+03  0.00000000000E+00 0.  1.
         11    1    5    5    0    0 -0.13309499103E+03  0.71926929153E+02  0.10489331658E+03  0.18409336663E+03  0.00000000000E+00 0.  1.
        -11    1    5    5    0    0 -0.47362515627E+03  0.14656959305E+03  0.51843470906E+03  0.71734091046E+03  0.00000000000E+00 0. -1.
          1    1    6    6  503    0  0.61786819284E+02  0.15376996313E+02 -0.17345035798E+02  0.65991767059E+02  0.00000000000E+00 0. -1.
         -1    1    6    6    0  503  0.20658779914E+03 -0.55162661882E+02  0.58786709331E+02  0.22175958877E+03  0.00000000000E+00 0.  1.
<mgrwt>
<rscale>  0 0.26367477E+04</rscale>
<asrwt>0</asrwt>
<pdfrwt beam="1">  1        2 0.28087977E+00 0.26367477E+04</pdfrwt>
<pdfrwt beam="2">  1       -2 0.14646370E+00 0.26367477E+04</pdfrwt>
<totfact> 0.23502086E+00</totfact>
</mgrwt>
</event>
<event>
12    2  0.4270075E-008  0.1512042E+04  0.7818608E-02  0.8876485E-01
         -1   -1    0    0    0  501 -0.00000000000E+00  0.00000000000E+00  0.59780175591E+03  0.59780175591E+03  0.00000000000E+00 0.  1.
          1   -1    0    0  501    0  0.00000000000E+00 -0.00000000000E+00 -0.95611545159E+03  0.95611545159E+03  0.00000000000E+00 0. -1.
         23    2    1    2    0    0 -0.92052064854E+02 -0.45072485913E+02  0.36962448950E+03  0.39391613236E+03  0.89680234532E+02 0.  0.
        254    2    1    2    0    0  0.92052064854E+02  0.45072485913E+02 -0.72793818518E+03  0.11600010751E+04  0.89733125503E+03 0.  0.
         23    2    4    4    0    0 -0.36838330075E+03 -0.12994799532E+03 -0.32425228194E+03  0.51571248207E+03  0.90703274817E+02 0.  0.
         23    2    4    4    0    0  0.46043536561E+03  0.17502048123E+03 -0.40368590324E+03  0.64428859307E+03  0.97532496787E+02 0.  0.
          3    1    3    3  502    0  0.10017592910E+02 -0.19623663430E+02  0.23739096681E+02  0.32388038615E+02  0.00000000000E+00 0. -1.
         -3    1    3    3    0  502 -0.10206965776E+03 -0.25448822484E+02  0.34588539282E+03  0.36152809374E+03  0.00000000000E+00 0.  1.
         11    1    5    5    0    0 -0.19025423776E+03 -0.30171799381E+02 -0.19481345779E+03  0.27396951619E+03  0.00000000000E+00 0.  1.
        -11    1    5    5    0    0 -0.17812906299E+03 -0.99776195938E+02 -0.12943882415E+03  0.24174296589E+03  0.00000000000E+00 0. -1.
          4    1    6    6  503    0  0.13453701877E+03  0.93735198161E+02 -0.16191289207E+03  0.23043932263E+03  0.00000000000E+00 0. -1.
         -4    1    6    6    0  503  0.32589834683E+03  0.81285283071E+02 -0.24177301117E+03  0.41384927044E+03  0.00000000000E+00 0.  1.
<mgrwt>
<rscale>  0 0.15120417E+04</rscale>
<asrwt>0</asrwt>
<pdfrwt beam="1">  1        1 0.14709468E+00 0.15120417E+04</pdfrwt>
<pdfrwt beam="2">  1       -1 0.91969502E-01 0.15120417E+04</pdfrwt>
<totfact> 0.18240417E+01</totfact>
</mgrwt>
</event>
<event>
12    2  0.3623523E-008  0.1500502E+04  0.7818608E-02  0.8884119E-01
         -1   -1    0    0    0  501 -0.00000000000E+00  0.00000000000E+00  0.10133960199E+04  0.10133960199E+04  0.00000000000E+00 0.  1.
          1   -1    0    0  501    0  0.00000000000E+00 -0.00000000000E+00 -0.55543558650E+03  0.55543558650E+03  0.00000000000E+00 0. -1.
         23    2    1    2    0    0  0.26271173415E+03 -0.28531642233E+03  0.43768802065E+03  0.59173860135E+03  0.90337438488E+02 0.  0.
        254    2    1    2    0    0 -0.26271173415E+03  0.28531642233E+03  0.20272412771E+02  0.97709300507E+03  0.89659179883E+03 0.  0.
         23    2    4    4    0    0 -0.31368346312E+03  0.57863981349E+03 -0.10919409491E+02  0.66444935824E+03  0.90290461155E+02 0.  0.
         23    2    4    4    0    0  0.50971728964E+02 -0.29332339116E+03  0.31191822262E+02  0.31264364683E+03  0.90201946630E+02 0.  0.
          3    1    3    3  502    0  0.90983915876E+00 -0.83829916747E+01  0.40205287885E+02  0.41080013762E+02  0.00000000000E+00 0. -1.
         -3    1    3    3    0  502  0.26180189500E+03 -0.27693343066E+03  0.39748273277E+03  0.55065858759E+03  0.00000000000E+00 0.  1.
         11    1    5    5    0    0 -0.12655796263E+03  0.18544749340E+03 -0.39909313822E+02  0.22803605865E+03  0.00000000000E+00 0.  1.
        -11    1    5    5    0    0 -0.18712550048E+03  0.39319232009E+03  0.28989904331E+02  0.43641329959E+03  0.00000000000E+00 0. -1.
          3    1    6    6  503    0  0.22797744221E+02 -0.27523272764E+03  0.37061764055E+02  0.27865097498E+03  0.00000000000E+00 0. -1.
         -3    1    6    6    0  503  0.28173984743E+02 -0.18090663520E+02 -0.58699417933E+01  0.33992671850E+02  0.00000000000E+00 0.  1.
<mgrwt>
<rscale>  0 0.15005015E+04</rscale>
<asrwt>0</asrwt>
<pdfrwt beam="1">  1        1 0.85451629E-01 0.15005015E+04</pdfrwt>
<pdfrwt beam="2">  1       -1 0.15590708E+00 0.15005015E+04</pdfrwt>
<totfact> 0.11620809E+01</totfact>
</mgrwt>
</event>
<event>
12    2  0.3623523E-008  0.1613780E+04  0.7818608E-02  0.8812127E-01
          1   -1    0    0  501    0  0.00000000000E+00  0.00000000000E+00  0.79209263967E+03  0.79209263967E+03  0.00000000000E+00 0. -1.
         -1   -1    0    0    0  501 -0.00000000000E+00 -0.00000000000E+00 -0.82196341116E+03  0.82196341116E+03  0.00000000000E+00 0.  1.
         23    2    1    2    0    0  0.26702631920E+03 -0.10763051738E+03  0.49361364339E+03  0.57887443338E+03  0.92486741035E+02 0.  0.
        254    2    1    2    0    0 -0.26702631920E+03  0.10763051738E+03 -0.52348441488E+03  0.10351816175E+04  0.84538610414E+03 0.  0.
         23    2    4    4    0    0  0.17053497218E+03  0.10300924937E+03  0.12040773705E+03  0.25189153720E+03  0.96219754636E+02 0.  0.
         23    2    4    4    0    0 -0.43756129137E+03  0.46212680091E+01 -0.64389215193E+03  0.78329008025E+03  0.86400270129E+02 0.  0.
          1    1    3    3  502    0  0.49026762883E+02 -0.38705456244E+02  0.18171163877E+03  0.19214800412E+03  0.00000000000E+00 0. -1.
         -1    1    3    3    0  502  0.21799955631E+03 -0.68925061133E+02  0.31190200462E+03  0.38672642926E+03  0.00000000000E+00 0.  1.
         11    1    5    5    0    0  0.95349423463E+02  0.10362103880E+03  0.10367588981E+03  0.17486429699E+03  0.00000000000E+00 0.  1.
        -11    1    5    5    0    0  0.75185548713E+02 -0.61178943206E+00  0.16731847241E+02  0.77027240206E+02  0.00000000000E+00 0. -1.
          4    1    6    6  503    0 -0.12794323136E+03  0.36503561856E+02 -0.16222630127E+03  0.20980789619E+03  0.00000000000E+00 0. -1.
         -4    1    6    6    0  503 -0.30961806001E+03 -0.31882293847E+02 -0.48166585066E+03  0.57348218406E+03  0.00000000000E+00 0.  1.
<mgrwt>
<rscale>  0 0.16137796E+04</rscale>
<asrwt>0</asrwt>
<pdfrwt beam="1">  1        1 0.12186041E+00 0.16137796E+04</pdfrwt>
<pdfrwt beam="2">  1       -1 0.12645591E+00 0.16137796E+04</pdfrwt>
<totfact> 0.11708777E+01</totfact>
</mgrwt>
</event>
<event>
12    2  0.3623523E-008  0.1806099E+04  0.7818608E-02  0.8703063E-01
          1   -1    0    0  501    0  0.00000000000E+00  0.00000000000E+00  0.48659844316E+03  0.48659844316E+03  0.00000000000E+00 0. -1.
         -1   -1    0    0    0  501 -0.00000000000E+00 -0.00000000000E+00 -0.16759174948E+04  0.16759174948E+04  0.00000000000E+00 0.  1.
         23    2    1    2    0    0  0.68955774691E+03  0.90167358689E+02 -0.42473442236E+03  0.81987952953E+03  0.90460347693E+02 0.  0.
        254    2    1    2    0    0 -0.68955774691E+03 -0.90167358689E+02 -0.76458462926E+03  0.13426364084E+04  0.85700806939E+03 0.  0.
         23    2    4    4    0    0  0.55497577812E+01 -0.31201429352E+03 -0.77141812535E+02  0.33597918920E+03  0.97710987942E+02 0.  0.
         23    2    4    4    0    0 -0.69510750469E+03  0.22184693483E+03 -0.68744281672E+03  0.10066572192E+04  0.91600355619E+02 0.  0.
          1    1    3    3  502    0  0.29976118776E+03  0.45320197231E+02 -0.13360989156E+03  0.33130392857E+03  0.00000000000E+00 0. -1.
         -1    1    3    3    0  502  0.38979655915E+03  0.44847161458E+02 -0.29112453080E+03  0.48857560095E+03  0.00000000000E+00 0.  1.
         11    1    5    5    0    0 -0.31352743896E+02 -0.25354652515E+03 -0.43743336128E+02  0.25919551389E+03  0.00000000000E+00 0. -1.
        -11    1    5    5    0    0  0.36902501678E+02 -0.58467768369E+02 -0.33398476406E+02  0.76783675312E+02  0.00000000000E+00 0.  1.
          2    1    6    6  503    0 -0.15369871106E+03  0.90098611250E+02 -0.16877143055E+03  0.24540751679E+03  0.00000000000E+00 0. -1.
         -2    1    6    6    0  503 -0.54140879363E+03  0.13174832358E+03 -0.51867138618E+03  0.76124970241E+03  0.00000000000E+00 0.  1.
<mgrwt>
<rscale>  0 0.18060995E+04</rscale>
<asrwt>0</asrwt>
<pdfrwt beam="1">  1        1 0.74861299E-01 0.18060995E+04</pdfrwt>
<pdfrwt beam="2">  1       -1 0.25783346E+00 0.18060995E+04</pdfrwt>
<totfact> 0.26904482E+00</totfact>
</mgrwt>
</event>
<event>
12    2  0.3623523E-008  0.1215674E+04  0.7818608E-02  0.9099247E-01
          2   -1    0    0  501    0  0.00000000000E+00  0.00000000000E+00  0.18985504312E+04  0.18985504312E+04  0.00000000000E+00 0. -1.
         -2   -1    0    0    0  501 -0.00000000000E+00 -0.00000000000E+00 -0.19460400749E+03  0.19460400749E+03  0.00000000000E+00 0.  1.
         23    2    1    2    0    0  0.16667434144E+03 -0.16495720680E+03  0.15489752414E+03  0.29514770753E+03  0.90153813590E+02 0.  0.
        254    2    1    2    0    0 -0.16667434144E+03  0.16495720680E+03  0.15490488996E+04  0.17980067312E+04  0.88220433906E+03 0.  0.
         23    2    4    4    0    0 -0.45601133699E+03  0.52811524545E+02  0.13225392523E+04  0.14030460651E+04  0.93235134429E+02 0.  0.
         23    2    4    4    0    0  0.28933699556E+03  0.11214568226E+03  0.22650964730E+03  0.39496066610E+03  0.91622903235E+02 0.  0.
          1    1    3    3  502    0  0.77094487993E+02 -0.13234203193E+03  0.73920032003E+02  0.17006511878E+03  0.00000000000E+00 0. -1.
         -1    1    3    3    0  502  0.89579853442E+02 -0.32615174873E+02  0.80977492142E+02  0.12508258875E+03  0.00000000000E+00 0.  1.
         11    1    5    5    0    0 -0.32451606342E+03  0.76420357710E+02  0.99217727962E+03  0.10466931263E+04  0.00000000000E+00 0. -1.
        -11    1    5    5    0    0 -0.13149527357E+03 -0.23608833165E+02  0.33036197266E+03  0.35635293875E+03  0.00000000000E+00 0.  1.
          2    1    6    6  503    0  0.28549613030E+03  0.11842223947E+03  0.20167592483E+03  0.36905967793E+03  0.00000000000E+00 0. -1.
         -2    1    6    6    0  503  0.38408652546E+01 -0.62765572085E+01  0.24833722472E+02  0.25900988168E+02  0.00000000000E+00 0.  1.
<mgrwt>
<rscale>  0 0.12156735E+04</rscale>
<asrwt>0</asrwt>
<pdfrwt beam="1">  1        2 0.29208467E+00 0.12156735E+04</pdfrwt>
<pdfrwt beam="2">  1       -2 0.29939079E-01 0.12156735E+04</pdfrwt>
<totfact> 0.77242701E+01</totfact>
</mgrwt>
</event>
<event>
12    2  0.6125152E-008  0.1813422E+04  0.7818608E-02  0.8699194E-01
          1   -1    0    0  501    0  0.00000000000E+00  0.00000000000E+00  0.11365064868E+04  0.11365064868E+04  0.00000000000E+00 0. -1.
         -1   -1    0    0    0  501 -0.00000000000E+00 -0.00000000000E+00 -0.72337921933E+03  0.72337921933E+03  0.00000000000E+00 0.  1.
         23    2    1    2    0    0 -0.23052869295E+03 -0.53277186972E+03  0.51097212581E+03  0.77865627310E+03  0.90684810404E+02 0.  0.
        254    2    1    2    0    0  0.23052869295E+03  0.53277186972E+03 -0.97844858374E+02  0.10812294330E+04  0.90691461949E+03 0.  0.
         23    2    4    4    0    0  0.34098970617E+03 -0.13311517293E+03  0.59827117167E+02  0.38214582457E+03  0.91991946997E+02 0.  0.
         23    2    4    4    0    0 -0.11046101322E+03  0.66588704265E+03 -0.15767197554E+03  0.69908360843E+03  0.90830890624E+02 0.  0.
          3    1    3    3  502    0 -0.19378388944E+03 -0.45790596907E+03  0.47562866420E+03  0.68807899149E+03  0.00000000000E+00 0. -1.
         -3    1    3    3    0  502 -0.36744803511E+02 -0.74865900653E+02  0.35343461612E+02  0.90577281613E+02  0.00000000000E+00 0.  1.
         11    1    5    5    0    0  0.33201517528E+03 -0.14356270366E+03  0.64839011325E+02  0.36748935207E+03  0.00000000000E+00 0. -1.
        -11    1    5    5    0    0  0.89745308895E+01  0.10447530731E+02 -0.50118941572E+01  0.14656472499E+02  0.00000000000E+00 0.  1.
          4    1    6    6  503    0 -0.11545987384E+03  0.66167408983E+03 -0.16238703538E+03  0.69102325061E+03  0.00000000000E+00 0. -1.
         -4    1    6    6    0  503  0.49988606179E+01  0.42129528252E+01  0.47150598413E+01  0.80603578265E+01  0.00000000000E+00 0.  1.
<mgrwt>
<rscale>  0 0.18134224E+04</rscale>
<asrwt>0</asrwt>
<pdfrwt beam="1">  1        1 0.17484715E+00 0.18134224E+04</pdfrwt>
<pdfrwt beam="2">  1       -1 0.11128911E+00 0.18134224E+04</pdfrwt>
<totfact> 0.83307084E+00</totfact>
</mgrwt>
</event>
<event>
12    2  0.3623523E-008  0.1842289E+04  0.7818608E-02  0.8684128E-01
          2   -1    0    0  501    0  0.00000000000E+00  0.00000000000E+00  0.24352073317E+04  0.24352073317E+04  0.00000000000E+00 0.  1.
         -2   -1    0    0    0  501 -0.00000000000E+00 -0.00000000000E+00 -0.34843327022E+03  0.34843327022E+03  0.00000000000E+00 0. -1.
         23    2    1    2    0    0  0.33073300382E+03 -0.28324607699E+03 -0.22664283554E+02  0.44610976040E+03  0.94274008253E+02 0.  0.
        254    2    1    2    0    0 -0.33073300382E+03  0.28324607699E+03  0.21094383450E+04  0.23375308415E+04  0.90813415506E+03 0.  0.
         23    2    4    4    0    0 -0.25073213700E+03  0.47949668731E+03  0.20124845634E+04  0.20860995291E+04  0.94516928378E+02 0.  0.
         23    2    4    4    0    0 -0.80000866820E+02 -0.19625061032E+03  0.96953781585E+02  0.25143131236E+03  0.94356919885E+02 0.  0.
          2    1    3    3  502    0  0.78345019345E+02 -0.12112396703E+03  0.86218440908E+01  0.14451053125E+03  0.00000000000E+00 0.  1.
         -2    1    3    3    0  502  0.25238798447E+03 -0.16212210996E+03 -0.31286127645E+02  0.30159922915E+03  0.00000000000E+00 0. -1.
         11    1    5    5    0    0 -0.21285972817E+03  0.35405433985E+03  0.13960171173E+04  0.14558597224E+04  0.00000000000E+00 0. -1.
        -11    1    5    5    0    0 -0.37872408831E+02  0.12544234746E+03  0.61646744608E+03  0.63023980671E+03  0.00000000000E+00 0.  1.
          2    1    6    6  503    0 -0.55964991100E+02 -0.19033477697E+03  0.10617448773E+03  0.22501650917E+03  0.00000000000E+00 0. -1.
         -2    1    6    6    0  503 -0.24035875720E+02 -0.59158333487E+01 -0.92207061490E+01  0.26414803193E+02  0.00000000000E+00 0.  1.
<mgrwt>
<rscale>  0 0.18422891E+04</rscale>
<asrwt>0</asrwt>
<pdfrwt beam="1">  1        2 0.37464727E+00 0.18422891E+04</pdfrwt>
<pdfrwt beam="2">  1       -2 0.53605120E-01 0.18422891E+04</pdfrwt>
<totfact> 0.11717158E+01</totfact>
</mgrwt>
</event>
<event>
12    2  0.3623523E-008  0.1173269E+04  0.7818608E-02  0.9136581E-01
         -2   -1    0    0    0  501 -0.00000000000E+00  0.00000000000E+00  0.11513269250E+04  0.11513269250E+04  0.00000000000E+00 0.  1.
          2   -1    0    0  501    0  0.00000000000E+00 -0.00000000000E+00 -0.29890748337E+03  0.29890748337E+03  0.00000000000E+00 0. -1.
         23    2    1    2    0    0 -0.20090374086E+03 -0.13115481056E+03  0.21249104000E+03  0.33290307253E+03  0.90045078688E+02 0.  0.
        254    2    1    2    0    0  0.20090374086E+03  0.13115481056E+03  0.63992840161E+03  0.11173313358E+04  0.88394403523E+03 0.  0.
         23    2    4    4    0    0 -0.17430011642E+03  0.38752943519E+03  0.19958470739E+03  0.47804765037E+03  0.90199262042E+02 0.  0.
         23    2    4    4    0    0  0.37520385728E+03 -0.25637462463E+03  0.44034369421E+03  0.63928368546E+03  0.90968009727E+02 0.  0.
          1    1    3    3  502    0 -0.16115091253E+03 -0.87408519810E+02  0.10779403701E+03  0.21267209587E+03  0.00000000000E+00 0. -1.
         -1    1    3    3    0  502 -0.39752828324E+02 -0.43746290745E+02  0.10469700299E+03  0.12023097666E+03  0.00000000000E+00 0.  1.
         11    1    5    5    0    0 -0.28467444086E+02  0.18020781241E+02  0.33401509105E+02  0.47442646847E+02  0.00000000000E+00 0.  1.
        -11    1    5    5    0    0 -0.14583267234E+03  0.36950865395E+03  0.16618319829E+03  0.43060500352E+03  0.00000000000E+00 0. -1.
          3    1    6    6  503    0  0.31882656596E+03 -0.20482198850E+03  0.40647101764E+03  0.55571675727E+03  0.00000000000E+00 0. -1.
         -3    1    6    6    0  503  0.56377291318E+02 -0.51552636133E+02  0.33872676575E+02  0.83566928189E+02  0.00000000000E+00 0.  1.
<mgrwt>
<rscale>  0 0.11732693E+04</rscale>
<asrwt>0</asrwt>
<pdfrwt beam="1">  1        2 0.45985767E-01 0.11732693E+04</pdfrwt>
<pdfrwt beam="2">  1       -2 0.17712722E+00 0.11732693E+04</pdfrwt>
<totfact> 0.20664494E+01</totfact>
</mgrwt>
</event>
<event>
12    2  0.3623523E-008  0.1730795E+04  0.7818608E-02  0.8743993E-01
         -3   -1    0    0    0  501 -0.00000000000E+00  0.00000000000E+00  0.20001530162E+04  0.20001530162E+04  0.00000000000E+00 0.  1.
          3   -1    0    0  501    0  0.00000000000E+00 -0.00000000000E+00 -0.37442763565E+03  0.37442763565E+03  0.00000000000E+00 0. -1.
         23    2    1    2    0    0 -0.38616108721E+03  0.18524246753E+03  0.12191154119E+04  0.12951915229E+04  0.88563742109E+02 0.  0.
        254    2    1    2    0    0  0.38616108721E+03 -0.18524246753E+03  0.40660996868E+03  0.10793891290E+04  0.90350100613E+03 0.  0.
         23    2    4    4    0    0 -0.17108908595E+03  0.15556746004E+03 -0.78032409088E+02  0.26104016699E+03  0.92629379584E+02 0.  0.
         23    2    4    4    0    0  0.55725017315E+03 -0.34080992757E+03  0.48464237777E+03  0.81834896199E+03  0.90208796999E+02 0.  0.
          3    1    3    3  502    0  0.26886366820E+01  0.10631110857E+02  0.25912250853E+02  0.28137057941E+02  0.00000000000E+00 0. -1.
         -3    1    3    3    0  502 -0.38884972389E+03  0.17461135667E+03  0.11932031611E+04  0.12670544650E+04  0.00000000000E+00 0.  1.
         11    1    5    5    0    0 -0.49155064478E+01 -0.76725570326E+01  0.85832303126E+01  0.12518074039E+02  0.00000000000E+00 0. -1.
        -11    1    5    5    0    0 -0.16617357950E+03  0.16324001707E+03 -0.86615639401E+02  0.24852209295E+03  0.00000000000E+00 0.  1.
          3    1    6    6  503    0  0.15060012447E+03 -0.47234633004E+02  0.11302009827E+03  0.19412637806E+03  0.00000000000E+00 0. -1.
         -3    1    6    6    0  503  0.40665004868E+03 -0.29357529456E+03  0.37162227950E+03  0.62422258393E+03  0.00000000000E+00 0.  1.
<mgrwt>
<rscale>  0 0.17307947E+04</rscale>
<asrwt>0</asrwt>
<pdfrwt beam="1">  1        3 0.57604253E-01 0.17307947E+04</pdfrwt>
<pdfrwt beam="2">  1       -3 0.30771584E+00 0.17307947E+04</pdfrwt>
<totfact> 0.25358550E-01</totfact>
</mgrwt>
</event>
<event>
12    2  0.3623523E-008  0.2043255E+04  0.7818608E-02  0.8586660E-01
         -1   -1    0    0    0  501 -0.00000000000E+00  0.00000000000E+00  0.83223295502E+03  0.83223295502E+03  0.00000000000E+00 0.  1.
          1   -1    0    0  501    0  0.00000000000E+00 -0.00000000000E+00 -0.12541238114E+04  0.12541238114E+04  0.00000000000E+00 0. -1.
         23    2    1    2    0    0 -0.17624374376E+03  0.11671982578E+03 -0.98153006194E+03  0.10080069682E+04  0.89394689263E+02 0.  0.
        254    2    1    2    0    0  0.17624374376E+03 -0.11671982578E+03  0.55963920560E+03  0.10783497982E+04  0.89719388756E+03 0.  0.
         23    2    4    4    0    0 -0.34489895365E+03 -0.19876303549E+01  0.34423215480E+03  0.49570657138E+03  0.90939483249E+02 0.  0.
         23    2    4    4    0    0  0.52114269741E+03 -0.11473219542E+03  0.21540705080E+03  0.58264322681E+03  0.91212633337E+02 0.  0.
          4    1    3    3  502    0 -0.17522938225E+03  0.94494795061E+02 -0.77039191655E+03  0.79569988550E+03  0.00000000000E+00 0. -1.
         -4    1    3    3    0  502 -0.10143615187E+01  0.22225030716E+02 -0.21113814539E+03  0.21230708269E+03  0.00000000000E+00 0.  1.
         11    1    5    5    0    0 -0.21160662220E+03 -0.24489790142E+02  0.26125567242E+03  0.33709292302E+03  0.00000000000E+00 0.  1.
        -11    1    5    5    0    0 -0.13329233145E+03  0.22502159787E+02  0.82976482375E+02  0.15861364836E+03  0.00000000000E+00 0. -1.
          4    1    6    6  503    0  0.18947836828E+03 -0.85980085076E+02  0.93507789370E+02  0.22811912184E+03  0.00000000000E+00 0. -1.
         -4    1    6    6    0  503  0.33166432913E+03 -0.28752110347E+02  0.12189926143E+03  0.35452410497E+03  0.00000000000E+00 0.  1.
<mgrwt>
<rscale>  0 0.20432554E+04</rscale>
<asrwt>0</asrwt>
<pdfrwt beam="1">  1        1 0.19294212E+00 0.20432554E+04</pdfrwt>
<pdfrwt beam="2">  1       -1 0.12803584E+00 0.20432554E+04</pdfrwt>
<totfact> 0.47537894E+00</totfact>
</mgrwt>
</event>
<event>
12    2  0.3623523E-008  0.2629746E+04  0.7818608E-02  0.8358167E-01
         -1   -1    0    0    0  501 -0.00000000000E+00  0.00000000000E+00  0.16021136374E+04  0.16021136374E+04  0.00000000000E+00 0.  1.
          1   -1    0    0  501    0  0.00000000000E+00 -0.00000000000E+00 -0.10791312552E+04  0.10791312552E+04  0.00000000000E+00 0. -1.
         23    2    1    2    0    0  0.40218869333E+03 -0.34404471825E+03 -0.81841406107E+03  0.97890008329E+03  0.91221074983E+02 0.  0.
        254    2    1    2    0    0 -0.40218869333E+03  0.34404471825E+03  0.13413964433E+04  0.17023448093E+04  0.90471593248E+03 0.  0.
         23    2    4    4    0    0 -0.19285686806E+02 -0.36941075558E+02 -0.11033627406E+03  0.15030293904E+03  0.93168124006E+02 0.  0.
         23    2    4    4    0    0 -0.38290300652E+03  0.38098579381E+03  0.14517327173E+04  0.15520418703E+04  0.97679050692E+02 0.  0.
          3    1    3    3  502    0  0.37714168276E+03 -0.34539556540E+03 -0.78901418368E+03  0.94025386334E+03  0.00000000000E+00 0. -1.
         -3    1    3    3    0  502  0.25047010568E+02  0.13508471499E+01 -0.29399877385E+02  0.38646219954E+02  0.00000000000E+00 0.  1.
         11    1    5    5    0    0 -0.51659468621E+01 -0.62773181886E+02 -0.10169740159E+03  0.11962240953E+03  0.00000000000E+00 0.  1.
        -11    1    5    5    0    0 -0.14119739943E+02  0.25832106328E+02 -0.86388724684E+01  0.30680529509E+02  0.00000000000E+00 0. -1.
          4    1    6    6  503    0 -0.51458519161E+02  0.10756455894E+03  0.31243199704E+03  0.33441271852E+03  0.00000000000E+00 0. -1.
         -4    1    6    6    0  503 -0.33144448736E+03  0.27342123487E+03  0.11393007203E+04  0.12176291517E+04  0.00000000000E+00 0.  1.
<mgrwt>
<rscale>  0 0.26297459E+04</rscale>
<asrwt>0</asrwt>
<pdfrwt beam="1">  1        1 0.16602019E+00 0.26297459E+04</pdfrwt>
<pdfrwt beam="2">  1       -1 0.24647902E+00 0.26297459E+04</pdfrwt>
<totfact> 0.84911882E-01</totfact>
</mgrwt>
</event>
<event>
12    2  0.3623523E-008  0.3673603E+04  0.7818608E-02  0.8073837E-01
          2   -1    0    0  501    0  0.00000000000E+00  0.00000000000E+00  0.28398202828E+04  0.28398202828E+04  0.00000000000E+00 0. -1.
         -2   -1    0    0    0  501 -0.00000000000E+00 -0.00000000000E+00 -0.11880470574E+04  0.11880470574E+04  0.00000000000E+00 0.  1.
         23    2    1    2    0    0  0.42811309040E+02 -0.13764572180E+04 -0.35498758953E+03  0.14263756201E+04  0.10983596730E+03 0.  0.
        254    2    1    2    0    0 -0.42811309040E+02  0.13764572180E+04  0.20067608150E+04  0.26014917200E+04  0.91880515864E+03 0.  0.
         23    2    4    4    0    0  0.23474680771E+03  0.69864819155E+03  0.42447972100E+03  0.85553688204E+03  0.92438972886E+02 0.  0.
         23    2    4    4    0    0 -0.27755811675E+03  0.67780902649E+03  0.15822810940E+04  0.17459548380E+04  0.91001381080E+02 0.  0.
          1    1    3    3  502    0  0.30367193288E+02 -0.64361493138E+03 -0.11057488319E+03  0.65375006778E+03  0.00000000000E+00 0. -1.
         -1    1    3    3    0  502  0.12444115752E+02 -0.73284228666E+03 -0.24441270635E+03  0.77262555236E+03  0.00000000000E+00 0.  1.
         11    1    5    5    0    0  0.22598245415E+03  0.68089879181E+03  0.39207948673E+03  0.81756807557E+03  0.00000000000E+00 0. -1.
        -11    1    5    5    0    0  0.87643535577E+01  0.17749399739E+02  0.32400234267E+02  0.37968806473E+02  0.00000000000E+00 0.  1.
          1    1    6    6  503    0 -0.23515256959E+03  0.51322787574E+03  0.12845880132E+04  0.14031628369E+04  0.00000000000E+00 0. -1.
         -1    1    6    6    0  503 -0.42405547162E+02  0.16458115075E+03  0.29769308082E+03  0.34279200105E+03  0.00000000000E+00 0.  1.
<mgrwt>
<rscale>  0 0.36736032E+04</rscale>
<asrwt>0</asrwt>
<pdfrwt beam="1">  1        2 0.43689543E+00 0.36736032E+04</pdfrwt>
<pdfrwt beam="2">  1       -2 0.18277647E+00 0.36736032E+04</pdfrwt>
<totfact> 0.30732179E-01</totfact>
</mgrwt>
</event>
<event>
12    2  0.3623523E-008  0.1612230E+04  0.7818608E-02  0.8813070E-01
         -2   -1    0    0    0  501 -0.00000000000E+00  0.00000000000E+00  0.27078552218E+03  0.27078552218E+03  0.00000000000E+00 0.  1.
          2   -1    0    0  501    0  0.00000000000E+00 -0.00000000000E+00 -0.23997641424E+04  0.23997641424E+04  0.00000000000E+00 0. -1.
         23    2    1    2    0    0 -0.34962462756E+03 -0.29306433378E+03 -0.12480220274E+04  0.13319847987E+04  0.92197825967E+02 0.  0.
        254    2    1    2    0    0  0.34962462756E+03  0.29306433378E+03 -0.88095659284E+03  0.13385648659E+04  0.89863635464E+03 0.  0.
         23    2    4    4    0    0  0.39700430271E+03 -0.58071755138E+02 -0.29950393611E+02  0.41231559923E+03  0.90124259671E+02 0.  0.
         23    2    4    4    0    0 -0.47379675151E+02  0.35113608892E+03 -0.85100619923E+03  0.92624926669E+03  0.90469698582E+02 0.  0.
          3    1    3    3  502    0 -0.27650755651E+03 -0.26762619306E+03 -0.97475394657E+03  0.10479625300E+04  0.00000000000E+00 0. -1.
         -3    1    3    3    0  502 -0.73117071042E+02 -0.25438140719E+02 -0.27326808084E+03  0.28402226865E+03  0.00000000000E+00 0.  1.
         11    1    5    5    0    0  0.61918251726E+02 -0.71494365399E+01  0.28230900996E+02  0.68424908554E+02  0.00000000000E+00 0.  1.
        -11    1    5    5    0    0  0.33508605098E+03 -0.50922318598E+02 -0.58181294607E+02  0.34389069068E+03  0.00000000000E+00 0. -1.
          1    1    6    6  503    0 -0.71818559962E+02  0.28739998336E+03 -0.66075152052E+03  0.72411962262E+03  0.00000000000E+00 0. -1.
         -1    1    6    6    0  503  0.24438884811E+02  0.63736105553E+02 -0.19025467870E+03  0.20212964406E+03  0.00000000000E+00 0.  1.
<mgrwt>
<rscale>  0 0.16122300E+04</rscale>
<asrwt>0</asrwt>
<pdfrwt beam="1">  1        2 0.36919447E+00 0.16122300E+04</pdfrwt>
<pdfrwt beam="2">  1       -2 0.41659313E-01 0.16122300E+04</pdfrwt>
<totfact> 0.20833023E+01</totfact>
</mgrwt>
</event>
<event>
12    2  0.3623523E-008  0.1626409E+04  0.7818608E-02  0.8804486E-01
          2   -1    0    0  501    0  0.00000000000E+00  0.00000000000E+00  0.10805810311E+04  0.10805810311E+04  0.00000000000E+00 0. -1.
         -2   -1    0    0    0  501 -0.00000000000E+00 -0.00000000000E+00 -0.61198688022E+03  0.61198688022E+03  0.00000000000E+00 0.  1.
         23    2    1    2    0    0 -0.32247849391E+03 -0.35336458892E+02 -0.31151225670E+03  0.45918607116E+03  0.92579249893E+02 0.  0.
        254    2    1    2    0    0  0.32247849391E+03  0.35336458892E+02  0.78010640760E+03  0.12333818402E+04  0.89856758909E+03 0.  0.
         23    2    4    4    0    0 -0.23762278207E+02  0.23567354760E+03  0.78282262177E+03  0.82306648312E+03  0.92306617184E+02 0.  0.
         23    2    4    4    0    0  0.34624077212E+03 -0.20033708871E+03 -0.27162141706E+01  0.41031535706E+03  0.91289063071E+02 0.  0.
          4    1    3    3  502    0 -0.63028262165E+02 -0.37731758712E+02 -0.10198409917E+03  0.12568613261E+03  0.00000000000E+00 0. -1.
         -4    1    3    3    0  502 -0.25945023174E+03  0.23952998199E+01 -0.20952815753E+03  0.33349993854E+03  0.00000000000E+00 0.  1.
         11    1    5    5    0    0 -0.52704698745E+02  0.19227016646E+03  0.66430640311E+03  0.69357667160E+03  0.00000000000E+00 0. -1.
        -11    1    5    5    0    0  0.28942420538E+02  0.43403381136E+02  0.11851621866E+03  0.12948981152E+03  0.00000000000E+00 0.  1.
          2    1    6    6  503    0  0.28352410767E+03 -0.19750743524E+03 -0.16913269674E+02  0.34594965717E+03  0.00000000000E+00 0. -1.
         -2    1    6    6    0  503  0.62716664448E+02 -0.28296534684E+01  0.14197055503E+02  0.64365699897E+02  0.00000000000E+00 0.  1.
<mgrwt>
<rscale>  0 0.16264088E+04</rscale>
<asrwt>0</asrwt>
<pdfrwt beam="1">  1        2 0.16624324E+00 0.16264088E+04</pdfrwt>
<pdfrwt beam="2">  1       -2 0.94151828E-01 0.16264088E+04</pdfrwt>
<totfact> 0.20405133E+01</totfact>
</mgrwt>
</event>
<event>
12    2  0.3623523E-008  0.2357778E+04  0.7818608E-02  0.8455482E-01
         -1   -1    0    0    0  501 -0.00000000000E+00  0.00000000000E+00  0.77622552119E+03  0.77622552119E+03  0.00000000000E+00 0.  1.
          1   -1    0    0  501    0  0.00000000000E+00 -0.00000000000E+00 -0.17904329688E+04  0.17904329688E+04  0.00000000000E+00 0. -1.
         23    2    1    2    0    0  0.28592603739E+03  0.95777415666E+02 -0.14774263668E+04  0.15105000506E+04  0.88852244206E+02 0.  0.
        254    2    1    2    0    0 -0.28592603739E+03 -0.95777415666E+02  0.46321891923E+03  0.10561584394E+04  0.89998437192E+03 0.  0.
         23    2    4    4    0    0  0.27633761622E+03  0.45709957986E+02  0.35241239045E+03  0.45921432177E+03  0.90727184332E+02 0.  0.
         23    2    4    4    0    0 -0.56226365360E+03 -0.14148737365E+03  0.11080652878E+03  0.59694411759E+03  0.88910627291E+02 0.  0.
          3    1    3    3  502    0  0.53763281317E+02  0.11421330692E+01 -0.43685641598E+03  0.44015374935E+03  0.00000000000E+00 0. -1.
         -3    1    3    3    0  502  0.23216275607E+03  0.94635282597E+02 -0.10405699509E+04  0.10703463013E+04  0.00000000000E+00 0.  1.
         11    1    5    5    0    0  0.47911727750E+02  0.40950803088E+02  0.10483821642E+03  0.12232560464E+03  0.00000000000E+00 0.  1.
        -11    1    5    5    0    0  0.22842588847E+03  0.47591548979E+01  0.24757417404E+03  0.33688871713E+03  0.00000000000E+00 0. -1.
          3    1    6    6  503    0 -0.46260646812E+03 -0.10595564743E+03  0.56258802669E+02  0.47790835570E+03  0.00000000000E+00 0. -1.
         -3    1    6    6    0  503 -0.99657185485E+02 -0.35531726223E+02  0.54547726107E+02  0.11903576190E+03  0.00000000000E+00 0.  1.
<mgrwt>
<rscale>  0 0.23577784E+04</rscale>
<asrwt>0</asrwt>
<pdfrwt beam="1">  1        1 0.27545122E+00 0.23577784E+04</pdfrwt>
<pdfrwt beam="2">  1       -1 0.11941931E+00 0.23577784E+04</pdfrwt>
<totfact> 0.23299783E+00</totfact>
</mgrwt>
</event>
<event>
12    2  0.3623523E-008  0.1110560E+04  0.7818608E-02  0.9194960E-01
         -3   -1    0    0    0  501 -0.00000000000E+00  0.00000000000E+00  0.86720121900E+03  0.86720121900E+03  0.00000000000E+00 0.  1.
          3   -1    0    0  501    0  0.00000000000E+00 -0.00000000000E+00 -0.35555259306E+03  0.35555259306E+03  0.00000000000E+00 0. -1.
         23    2    1    2    0    0 -0.10120272315E+03  0.35554695753E+02  0.25745076446E+03  0.29234443416E+03  0.87625592738E+02 0.  0.
        254    2    1    2    0    0  0.10120272315E+03 -0.35554695753E+02  0.25419786149E+03  0.93040937790E+03  0.88856003181E+03 0.  0.
         23    2    4    4    0    0  0.43260624675E+03 -0.20776754773E+02  0.35995907537E+03  0.57053187558E+03  0.91412509267E+02 0.  0.
         23    2    4    4    0    0 -0.33140352359E+03 -0.14777940980E+02 -0.10576121388E+03  0.35987750232E+03  0.90992853134E+02 0.  0.
          2    1    3    3  502    0 -0.10584601249E+01 -0.22635151484E+02  0.44209850963E+02  0.49678781614E+02  0.00000000000E+00 0. -1.
         -2    1    3    3    0  502 -0.10014426303E+03  0.58189847236E+02  0.21324091349E+03  0.24266565255E+03  0.00000000000E+00 0.  1.
         11    1    5    5    0    0  0.38565342809E+02 -0.29401951993E+02  0.40983678778E+02  0.63493482919E+02  0.00000000000E+00 0.  1.
        -11    1    5    5    0    0  0.39404090394E+03  0.86251972207E+01  0.31897539659E+03  0.50703839266E+03  0.00000000000E+00 0. -1.
          4    1    6    6  503    0 -0.10085665476E+03 -0.23632622385E+02  0.54999677993E+01  0.10373434964E+03  0.00000000000E+00 0. -1.
         -4    1    6    6    0  503 -0.23054686883E+03  0.88546814057E+01 -0.11126118168E+03  0.25614315267E+03  0.00000000000E+00 0.  1.
<mgrwt>
<rscale>  0 0.11105596E+04</rscale>
<asrwt>0</asrwt>
<pdfrwt beam="1">  1        3 0.54700399E-01 0.11105596E+04</pdfrwt>
<pdfrwt beam="2">  1       -3 0.13341557E+00 0.11105596E+04</pdfrwt>
<totfact> 0.37282521E+00</totfact>
</mgrwt>
</event>
<event>
12    2  0.3623523E-008  0.1380184E+04  0.7818608E-02  0.8968289E-01
          2   -1    0    0  501    0  0.00000000000E+00  0.00000000000E+00  0.10449840028E+04  0.10449840028E+04  0.00000000000E+00 0. -1.
         -2   -1    0    0    0  501 -0.00000000000E+00 -0.00000000000E+00 -0.45572626579E+03  0.45572626579E+03  0.00000000000E+00 0.  1.
         23    2    1    2    0    0  0.12292987345E+03  0.30914420272E+03 -0.49896492471E+02  0.34826004967E+03  0.90075026356E+02 0.  0.
        254    2    1    2    0    0 -0.12292987345E+03 -0.30914420272E+03  0.63915422943E+03  0.11524502189E+04  0.89941174449E+03 0.  0.
         23    2    4    4    0    0 -0.19615453428E+02 -0.39679946011E+03  0.81612003060E+03  0.91224538028E+03  0.91132606397E+02 0.  0.
         23    2    4    4    0    0 -0.10331442002E+03  0.87655257388E+02 -0.17696580116E+03  0.24020483860E+03  0.89577654423E+02 0.  0.
          4    1    3    3  502    0  0.62959552796E+02  0.16737103913E+03 -0.71949830536E+02  0.19275307557E+03  0.00000000000E+00 0. -1.
         -4    1    3    3    0  502  0.59970320652E+02  0.14177316359E+03  0.22053338065E+02  0.15550697409E+03  0.00000000000E+00 0.  1.
         11    1    5    5    0    0  0.21765626863E+01 -0.25492733713E+03  0.60943074071E+03  0.66060465663E+03  0.00000000000E+00 0. -1.
        -11    1    5    5    0    0 -0.21792016114E+02 -0.14187212298E+03  0.20668928988E+03  0.25164072365E+03  0.00000000000E+00 0.  1.
          4    1    6    6  503    0 -0.11509963574E+03  0.87307590057E+02 -0.17692543320E+03  0.22841442674E+03  0.00000000000E+00 0. -1.
         -4    1    6    6    0  503  0.11785215724E+02  0.34766733110E+00 -0.40367966067E-01  0.11790411859E+02  0.00000000000E+00 0.  1.
<mgrwt>
<rscale>  0 0.13801835E+04</rscale>
<asrwt>0</asrwt>
<pdfrwt beam="1">  1        2 0.16076677E+00 0.13801835E+04</pdfrwt>
<pdfrwt beam="2">  1       -2 0.70111733E-01 0.13801835E+04</pdfrwt>
<totfact> 0.42582726E+01</totfact>
</mgrwt>
</event>
<event>
12    2  0.3623523E-008  0.1935060E+04  0.7818608E-02  0.8637599E-01
         -2   -1    0    0    0  501 -0.00000000000E+00  0.00000000000E+00  0.70757991924E+03  0.70757991924E+03  0.00000000000E+00 0.  1.
          2   -1    0    0  501    0  0.00000000000E+00 -0.00000000000E+00 -0.13229802388E+04  0.13229802388E+04  0.00000000000E+00 0. -1.
         23    2    1    2    0    0 -0.57725172662E+02  0.53052561836E+03 -0.80535562822E+03  0.97284483229E+03  0.11419173576E+03 0.  0.
        254    2    1    2    0    0  0.57725172662E+02 -0.53052561836E+03  0.18995530865E+03  0.10577153257E+04  0.89324636228E+03 0.  0.
         23    2    4    4    0    0 -0.66299449847E+02 -0.14467579959E+03 -0.33868601452E+03  0.38526058598E+03  0.91601302614E+02 0.  0.
         23    2    4    4    0    0  0.12402462251E+03 -0.38584981878E+03  0.52864132317E+03  0.67245473977E+03  0.92040962764E+02 0.  0.
          1    1    3    3  502    0 -0.39671491697E+02  0.36923121338E+03 -0.64752900830E+03  0.74645785734E+03  0.00000000000E+00 0. -1.
         -1    1    3    3    0  502 -0.18053680964E+02  0.16129440498E+03 -0.15782661992E+03  0.22638697495E+03  0.00000000000E+00 0.  1.
         11    1    5    5    0    0 -0.30756734204E+02 -0.40986555702E+02 -0.21027528329E+03  0.21642913207E+03  0.00000000000E+00 0.  1.
        -11    1    5    5    0    0 -0.35542715643E+02 -0.10368924388E+03 -0.12841073123E+03  0.16883145391E+03  0.00000000000E+00 0. -1.
          1    1    6    6  503    0  0.46219542527E+02 -0.17762457640E+03  0.31247650873E+03  0.36239247338E+03  0.00000000000E+00 0. -1.
         -1    1    6    6    0  503  0.77805079983E+02 -0.20822524237E+03  0.21616481444E+03  0.31006226638E+03  0.00000000000E+00 0.  1.
<mgrwt>
<rscale>  0 0.19350599E+04</rscale>
<asrwt>0</asrwt>
<pdfrwt beam="1">  1        2 0.20353542E+00 0.19350599E+04</pdfrwt>
<pdfrwt beam="2">  1       -2 0.10885845E+00 0.19350599E+04</pdfrwt>
<totfact> 0.10089380E+01</totfact>
</mgrwt>
</event>
<event>
12    2  0.3623523E-008  0.2876655E+04  0.7818608E-02  0.8279857E-01
          1   -1    0    0  501    0  0.00000000000E+00  0.00000000000E+00  0.25845398436E+04  0.25845398436E+04  0.00000000000E+00 0. -1.
         -1   -1    0    0    0  501 -0.00000000000E+00 -0.00000000000E+00 -0.80044647277E+03  0.80044647277E+03  0.00000000000E+00 0.  1.
         23    2    1    2    0    0 -0.82315427779E+03 -0.46839995080E+03  0.18171808685E+04  0.20510117244E+04  0.86725462294E+02 0.  0.
        254    2    1    2    0    0  0.82315427779E+03  0.46839995080E+03 -0.33087497689E+02  0.13339745920E+04  0.93883542249E+03 0.  0.
         23    2    4    4    0    0  0.75889540481E+03  0.58619972332E+03  0.25949410043E+03  0.99769212018E+03  0.92195593363E+02 0.  0.
         23    2    4    4    0    0  0.64258872979E+02 -0.11779977252E+03 -0.29258159812E+03  0.33628247178E+03  0.97344337818E+02 0.  0.
          4    1    3    3  502    0 -0.56093946369E+02 -0.22613533802E+02  0.78882000284E+02  0.99399560859E+02  0.00000000000E+00 0. -1.
         -4    1    3    3    0  502 -0.76706033142E+03 -0.44578641700E+03  0.17382988682E+04  0.19516121635E+04  0.00000000000E+00 0.  1.
         11    1    5    5    0    0  0.56095422209E+03  0.48238592532E+03  0.19947809675E+03  0.76626192082E+03  0.00000000000E+00 0. -1.
        -11    1    5    5    0    0  0.19794118273E+03  0.10381379801E+03  0.60016003682E+02  0.23143019936E+03  0.00000000000E+00 0.  1.
          2    1    6    6  503    0 -0.31928564240E+01 -0.82058977723E+02 -0.10178879724E+03  0.13078543268E+03  0.00000000000E+00 0. -1.
         -2    1    6    6    0  503  0.67451729403E+02 -0.35740794799E+02 -0.19079280088E+03  0.20549703910E+03  0.00000000000E+00 0.  1.
<mgrwt>
<rscale>  0 0.28766549E+04</rscale>
<asrwt>0</asrwt>
<pdfrwt beam="1">  1        1 0.39762151E+00 0.28766549E+04</pdfrwt>
<pdfrwt beam="2">  1       -1 0.12314561E+00 0.28766549E+04</pdfrwt>
<totfact> 0.59063829E-01</totfact>
</mgrwt>
</event>
<event>
12    2  0.3623523E-008  0.2877115E+04  0.7818608E-02  0.8279719E-01
          2   -1    0    0  501    0  0.00000000000E+00  0.00000000000E+00  0.23636996454E+04  0.23636996454E+04  0.00000000000E+00 0. -1.
         -2   -1    0    0    0  501 -0.00000000000E+00 -0.00000000000E+00 -0.87551182738E+03  0.87551182738E+03  0.00000000000E+00 0.  1.
         23    2    1    2    0    0 -0.11992098438E+04  0.55446045293E+02  0.12820246285E+03  0.12105428788E+04  0.88315777158E+02 0.  0.
        254    2    1    2    0    0  0.11992098438E+04 -0.55446045293E+02  0.13599853552E+04  0.20286685940E+04  0.90816165102E+03 0.  0.
         23    2    4    4    0    0  0.10660286169E+04  0.22079505973E+03  0.70556664282E+03  0.13004730042E+04  0.90764952374E+02 0.  0.
         23    2    4    4    0    0  0.13318122691E+03 -0.27624110502E+03  0.65441871237E+03  0.72819558982E+03  0.89210866129E+02 0.  0.
          2    1    3    3  502    0 -0.76909664541E+03  0.43887550760E+02  0.40395685084E+02  0.77140623439E+03  0.00000000000E+00 0. -1.
         -2    1    3    3    0  502 -0.43011319842E+03  0.11558494533E+02  0.87806777763E+02  0.43913664442E+03  0.00000000000E+00 0.  1.
         11    1    5    5    0    0  0.12222216087E+03  0.45839885205E+02  0.59788100034E+02  0.14357635108E+03  0.00000000000E+00 0.  1.
        -11    1    5    5    0    0  0.94380645605E+03  0.17495517452E+03  0.64577854278E+03  0.11568966531E+04  0.00000000000E+00 0. -1.
          4    1    6    6  503    0  0.10312144539E+03 -0.13961440500E+03  0.43045117694E+03  0.46412760133E+03  0.00000000000E+00 0.  1.
         -4    1    6    6    0  503  0.30059781517E+02 -0.13662670002E+03  0.22396753543E+03  0.26406798849E+03  0.00000000000E+00 0. -1.
<mgrwt>
<rscale>  0 0.28771145E+04</rscale>
<asrwt>0</asrwt>
<pdfrwt beam="1">  1        2 0.36364610E+00 0.28771145E+04</pdfrwt>
<pdfrwt beam="2">  1       -2 0.13469413E+00 0.28771145E+04</pdfrwt>
<totfact> 0.14306961E+00</totfact>
</mgrwt>
</event>
<event>
12    2  0.3623523E-008  0.2127251E+04  0.7818608E-02  0.8549333E-01
          2   -1    0    0  501    0  0.00000000000E+00  0.00000000000E+00  0.15460898921E+04  0.15460898921E+04  0.00000000000E+00 0. -1.
         -2   -1    0    0    0  501 -0.00000000000E+00 -0.00000000000E+00 -0.73171624993E+03  0.73171624993E+03  0.00000000000E+00 0.  1.
         23    2    1    2    0    0  0.54877494381E+03  0.47384331137E+03 -0.18543039777E+03  0.75420656311E+03  0.93603871384E+02 0.  0.
        254    2    1    2    0    0 -0.54877494381E+03 -0.47384331137E+03  0.99980403993E+03  0.15235995789E+04  0.89222538403E+03 0.  0.
         23    2    4    4    0    0 -0.54909133332E+03 -0.64040122940E+03  0.48784753800E+03  0.97864150607E+03  0.90160690669E+02 0.  0.
         23    2    4    4    0    0  0.31638950524E+00  0.16655791803E+03  0.51195650193E+03  0.54495807283E+03  0.84487875560E+02 0.  0.
          1    1    3    3  502    0  0.71619346420E+02  0.87731771236E+02 -0.58277053881E+02  0.12736722292E+03  0.00000000000E+00 0. -1.
         -1    1    3    3    0  502  0.47715559739E+03  0.38611154013E+03 -0.12715334389E+03  0.62683934019E+03  0.00000000000E+00 0.  1.
         11    1    5    5    0    0 -0.49677949114E+03 -0.53790550256E+03  0.43817367808E+03  0.85330437985E+03  0.00000000000E+00 0. -1.
        -11    1    5    5    0    0 -0.52311842179E+02 -0.10249572684E+03  0.49673859915E+02  0.12533712623E+03  0.00000000000E+00 0.  1.
          1    1    6    6  503    0 -0.87922218579E+01  0.12582284984E+03  0.25341387397E+03  0.28306763189E+03  0.00000000000E+00 0. -1.
         -1    1    6    6    0  503  0.91086113631E+01  0.40735068190E+02  0.25854262796E+03  0.26189044094E+03  0.00000000000E+00 0.  1.
<mgrwt>
<rscale>  0 0.21272509E+04</rscale>
<asrwt>0</asrwt>
<pdfrwt beam="1">  1        2 0.23785998E+00 0.21272509E+04</pdfrwt>
<pdfrwt beam="2">  1       -2 0.11257173E+00 0.21272509E+04</pdfrwt>
<totfact> 0.68299245E+00</totfact>
</mgrwt>
</event>
<event>
12    2  0.3623523E-008  0.2293389E+04  0.7818608E-02  0.8480532E-01
         -2   -1    0    0    0  501 -0.00000000000E+00  0.00000000000E+00  0.13006007210E+04  0.13006007210E+04  0.00000000000E+00 0.  1.
          2   -1    0    0  501    0  0.00000000000E+00 -0.00000000000E+00 -0.10110007079E+04  0.10110007079E+04  0.00000000000E+00 0. -1.
         23    2    1    2    0    0  0.12649219474E+03 -0.92639125768E+03  0.36477694597E+03  0.10079056161E+04  0.92792634148E+02 0.  0.
        254    2    1    2    0    0 -0.12649219474E+03  0.92639125768E+03 -0.75176932959E+02  0.13036958128E+04  0.90541159896E+03 0.  0.
         23    2    4    4    0    0  0.11841659766E+03 -0.21525520497E+02 -0.26224537417E+03  0.30265930413E+03  0.91346480339E+02 0.  0.
         23    2    4    4    0    0 -0.24490879240E+03  0.94791677818E+03  0.18706844121E+03  0.10010365087E+04  0.92482188152E+02 0.  0.
          3    1    3    3  502    0 -0.33164764195E+01 -0.24880218130E+03  0.77973930951E+02  0.26075555285E+03  0.00000000000E+00 0. -1.
         -3    1    3    3    0  502  0.12980867116E+03 -0.67758907638E+03  0.28680301502E+03  0.74715006322E+03  0.00000000000E+00 0.  1.
         11    1    5    5    0    0  0.10111277332E+03 -0.45400730242E+02 -0.24397413238E+03  0.26797088742E+03  0.00000000000E+00 0.  1.
        -11    1    5    5    0    0  0.17303824347E+02  0.23875209745E+02 -0.18271241785E+02  0.34688416709E+02  0.00000000000E+00 0. -1.
          2    1    6    6  503    0 -0.25073258634E+03  0.87452205981E+03  0.17477129340E+03  0.92639120675E+03  0.00000000000E+00 0.  1.
         -2    1    6    6    0  503  0.58237939426E+01  0.73394718366E+02  0.12297147810E+02  0.74645301956E+02  0.00000000000E+00 0. -1.
<mgrwt>
<rscale>  0 0.22933890E+04</rscale>
<asrwt>0</asrwt>
<pdfrwt beam="1">  1        2 0.15553857E+00 0.22933890E+04</pdfrwt>
<pdfrwt beam="2">  1       -2 0.20009242E+00 0.22933890E+04</pdfrwt>
<totfact> 0.29850107E+00</totfact>
</mgrwt>
</event>
<event>
12    2  0.3623523E-008  0.1575246E+04  0.7818608E-02  0.8835901E-01
          1   -1    0    0  501    0  0.00000000000E+00  0.00000000000E+00  0.28099873683E+03  0.28099873683E+03  0.00000000000E+00 0. -1.
         -1   -1    0    0    0  501 -0.00000000000E+00 -0.00000000000E+00 -0.22076622934E+04  0.22076622934E+04  0.00000000000E+00 0.  1.
         23    2    1    2    0    0 -0.34747561267E+03 -0.23958382822E+03 -0.11565717378E+04  0.12337541562E+04  0.79695804916E+02 0.  0.
        254    2    1    2    0    0  0.34747561267E+03  0.23958382822E+03 -0.77009181878E+03  0.12549068740E+04  0.89644304939E+03 0.  0.
         23    2    4    4    0    0  0.52149638791E+03 -0.86307614739E+02 -0.20716620557E+03  0.57546927172E+03  0.94018928984E+02 0.  0.
         23    2    4    4    0    0 -0.17402077523E+03  0.32589144296E+03 -0.56292561321E+03  0.67943760223E+03  0.90894150035E+02 0.  0.
          3    1    3    3  502    0 -0.18723131844E+03 -0.10864847625E+03 -0.48723014680E+03  0.53315408087E+03  0.00000000000E+00 0. -1.
         -3    1    3    3    0  502 -0.16024429424E+03 -0.13093535197E+03 -0.66934159096E+03  0.70060007538E+03  0.00000000000E+00 0.  1.
         11    1    5    5    0    0  0.20061755768E+03 -0.78257287675E+02 -0.96173329786E+02  0.23584087196E+03  0.00000000000E+00 0. -1.
        -11    1    5    5    0    0  0.32087883022E+03 -0.80503270636E+01 -0.11099287579E+03  0.33962839976E+03  0.00000000000E+00 0.  1.
          3    1    6    6  503    0  0.91711353567E+00  0.72228074443E+02 -0.10119693194E+03  0.12433243692E+03  0.00000000000E+00 0. -1.
         -3    1    6    6    0  503 -0.17493788877E+03  0.25366336852E+03 -0.46172868127E+03  0.55510516531E+03  0.00000000000E+00 0.  1.
<mgrwt>
<rscale>  0 0.15752464E+04</rscale>
<asrwt>0</asrwt>
<pdfrwt beam="1">  1        1 0.43230574E-01 0.15752464E+04</pdfrwt>
<pdfrwt beam="2">  1       -1 0.33964036E+00 0.15752464E+04</pdfrwt>
<totfact> 0.16767704E+00</totfact>
</mgrwt>
</event>
<event>
12    2  0.3623523E-008  0.2622433E+04  0.7818608E-02  0.8360621E-01
         -2   -1    0    0    0  501 -0.00000000000E+00  0.00000000000E+00  0.15951086947E+04  0.15951086947E+04  0.00000000000E+00 0.  1.
          2   -1    0    0  501    0  0.00000000000E+00 -0.00000000000E+00 -0.10778508139E+04  0.10778508139E+04  0.00000000000E+00 0. -1.
         23    2    1    2    0    0  0.61433034136E+03 -0.40593614359E+03 -0.67896639104E+03  0.10058278671E+04  0.92241081437E+02 0.  0.
        254    2    1    2    0    0 -0.61433034136E+03  0.40593614359E+03  0.11962242719E+04  0.16671316415E+04  0.89788054900E+03 0.  0.
         23    2    4    4    0    0 -0.41549793382E+03 -0.23208657644E+03  0.45084593450E+03  0.66180666415E+03  0.90682369217E+02 0.  0.
         23    2    4    4    0    0 -0.19883240754E+03  0.63802272004E+03  0.74537833741E+03  0.10053249773E+04  0.92098461208E+02 0.  0.
          3    1    3    3  502    0  0.55107822078E+03 -0.39429765606E+03 -0.61407160536E+03  0.91446256539E+03  0.00000000000E+00 0. -1.
         -3    1    3    3    0  502  0.63252120580E+02 -0.11638487533E+02 -0.64894785680E+02  0.91365301720E+02  0.00000000000E+00 0.  1.
         11    1    5    5    0    0 -0.28589613398E+03 -0.12217785302E+03  0.32928941761E+03  0.45287475945E+03  0.00000000000E+00 0. -1.
        -11    1    5    5    0    0 -0.12960179984E+03 -0.10990872342E+03  0.12155651689E+03  0.20893190471E+03  0.00000000000E+00 0.  1.
          4    1    6    6  503    0 -0.72897845762E+02  0.32789839519E+03  0.31881507465E+03  0.46311392260E+03  0.00000000000E+00 0. -1.
         -4    1    6    6    0  503 -0.12593456178E+03  0.31012432484E+03  0.42656326276E+03  0.54221105471E+03  0.00000000000E+00 0.  1.
<mgrwt>
<rscale>  0 0.26224334E+04</rscale>
<asrwt>0</asrwt>
<pdfrwt beam="1">  1        2 0.16582320E+00 0.26224334E+04</pdfrwt>
<pdfrwt beam="2">  1       -2 0.24540134E+00 0.26224334E+04</pdfrwt>
<totfact> 0.13617738E+00</totfact>
</mgrwt>
</event>
<event>
12    2  0.3623523E-008  0.1170323E+04  0.7818608E-02  0.9139237E-01
          1   -1    0    0  501    0  0.00000000000E+00  0.00000000000E+00  0.86287473814E+03  0.86287473814E+03  0.00000000000E+00 0. -1.
         -1   -1    0    0    0  501 -0.00000000000E+00 -0.00000000000E+00 -0.39682931709E+03  0.39682931709E+03  0.00000000000E+00 0.  1.
         23    2    1    2    0    0 -0.83137590931E+02  0.11954051368E+03  0.26670550169E+03  0.31895007853E+03  0.96930565484E+02 0.  0.
        254    2    1    2    0    0  0.83137590931E+02 -0.11954051368E+03  0.19933991936E+03  0.94075397669E+03  0.90778843779E+03 0.  0.
         23    2    4    4    0    0 -0.10363926806E+03 -0.41975086000E+03  0.33108536201E+03  0.55253285326E+03  0.93504837566E+02 0.  0.
         23    2    4    4    0    0  0.18677685899E+03  0.30021034632E+03 -0.13174544265E+03  0.38822112343E+03  0.91361545144E+02 0.  0.
          3    1    3    3  502    0 -0.37555186221E+02  0.80636841424E+02  0.23474361371E+03  0.25103238115E+03  0.00000000000E+00 0. -1.
         -3    1    3    3    0  502 -0.45582404710E+02  0.38903672256E+02  0.31961887977E+02  0.67917697379E+02  0.00000000000E+00 0.  1.
         11    1    5    5    0    0 -0.11348581353E+03 -0.27943675965E+03  0.23095908762E+03  0.37987633866E+03  0.00000000000E+00 0. -1.
        -11    1    5    5    0    0  0.98465454732E+01 -0.14031410034E+03  0.10012627439E+03  0.17265651461E+03  0.00000000000E+00 0.  1.
          2    1    6    6  503    0  0.16343433213E+03  0.27183638434E+03 -0.84268024171E+02  0.32818729510E+03  0.00000000000E+00 0. -1.
         -2    1    6    6    0  503  0.23342526860E+02  0.28373961976E+02 -0.47477418479E+02  0.60033828329E+02  0.00000000000E+00 0.  1.
<mgrwt>
<rscale>  0 0.11703230E+04</rscale>
<asrwt>0</asrwt>
<pdfrwt beam="1">  1        1 0.13274996E+00 0.11703230E+04</pdfrwt>
<pdfrwt beam="2">  1       -1 0.61050664E-01 0.11703230E+04</pdfrwt>
<totfact> 0.52721085E+01</totfact>
</mgrwt>
</event>
<event>
12    2  0.3623523E-008  0.2371231E+04  0.7818608E-02  0.8450353E-01
         -1   -1    0    0    0  501 -0.00000000000E+00  0.00000000000E+00  0.16215042641E+04  0.16215042641E+04  0.00000000000E+00 0.  1.
          1   -1    0    0  501    0  0.00000000000E+00 -0.00000000000E+00 -0.86690114571E+03  0.86690114571E+03  0.00000000000E+00 0. -1.
         23    2    1    2    0    0  0.24311804405E+03  0.41730723327E+03 -0.60890610923E+03  0.78237652463E+03  0.89970362601E+02 0.  0.
        254    2    1    2    0    0 -0.24311804405E+03 -0.41730723327E+03  0.13635092276E+04  0.17060288852E+04  0.90450286511E+03 0.  0.
         23    2    4    4    0    0 -0.98978802151E+02 -0.65219478148E+02  0.13014294420E+04  0.13099870597E+04  0.91088531052E+02 0.  0.
         23    2    4    4    0    0 -0.14413924190E+03 -0.35208775512E+03  0.62079785589E+02  0.39604182545E+03  0.90847781279E+02 0.  0.
          1    1    3    3  502    0  0.18513195274E+03  0.32505992563E+03 -0.52603104754E+03  0.64548157073E+03  0.00000000000E+00 0. -1.
         -1    1    3    3    0  502  0.57986091316E+02  0.92247307636E+02 -0.82875061692E+02  0.13689495390E+03  0.00000000000E+00 0.  1.
         11    1    5    5    0    0 -0.32848039231E+01  0.13981501259E+02  0.40831905530E+02  0.43284140554E+02  0.00000000000E+00 0.  1.
        -11    1    5    5    0    0 -0.95693998228E+02 -0.79200979407E+02  0.12605975365E+04  0.12667029192E+04  0.00000000000E+00 0. -1.
          4    1    6    6  503    0 -0.77105280346E+02 -0.28029797062E+03  0.27907253669E+02  0.29204621449E+03  0.00000000000E+00 0. -1.
         -4    1    6    6    0  503 -0.67033961556E+02 -0.71789784500E+02  0.34172531920E+02  0.10399561096E+03  0.00000000000E+00 0.  1.
<mgrwt>
<rscale>  0 0.23712308E+04</rscale>
<asrwt>0</asrwt>
<pdfrwt beam="1">  1        1 0.13336941E+00 0.23712308E+04</pdfrwt>
<pdfrwt beam="2">  1       -1 0.24946220E+00 0.23712308E+04</pdfrwt>
<totfact> 0.12238110E+00</totfact>
</mgrwt>
</event>
<event>
12    2  0.3623523E-008  0.1277962E+04  0.7818608E-02  0.9047227E-01
          2   -1    0    0  501    0  0.00000000000E+00  0.00000000000E+00  0.32166508339E+04  0.32166508339E+04  0.00000000000E+00 0. -1.
         -2   -1    0    0    0  501 -0.00000000000E+00 -0.00000000000E+00 -0.12693221432E+03  0.12693221432E+03  0.00000000000E+00 0.  1.
         23    2    1    2    0    0  0.13856313972E+03  0.14658455783E+02  0.55734296719E+02  0.17531753645E+03  0.90638362412E+02 0.  0.
        254    2    1    2    0    0 -0.13856313972E+03 -0.14658455783E+02  0.30339843228E+04  0.31682655117E+04  0.90190402359E+03 0.  0.
         23    2    4    4    0    0 -0.48140479085E+03 -0.17611533297E+03  0.18518331796E+04  0.19235411973E+04  0.89204426589E+02 0.  0.
         23    2    4    4    0    0  0.34284165113E+03  0.16145687719E+03  0.11821511433E+04  0.12447243144E+04  0.90821651903E+02 0.  0.
          3    1    3    3  502    0 -0.18557916690E+01 -0.21186478675E+02  0.83096112992E+01  0.22833319542E+02  0.00000000000E+00 0. -1.
         -3    1    3    3    0  502  0.14041893139E+03  0.35844934458E+02  0.47424685420E+02  0.15248421691E+03  0.00000000000E+00 0.  1.
         11    1    5    5    0    0  0.31574830760E+01  0.19455131459E+01  0.83050222105E+01  0.90954996945E+01  0.00000000000E+00 0. -1.
        -11    1    5    5    0    0 -0.48456227392E+03 -0.17806084612E+03  0.18435281573E+04  0.19144456976E+04  0.00000000000E+00 0.  1.
          4    1    6    6  503    0  0.11722027214E+03  0.16738491348E+02  0.29211438077E+03  0.31520085778E+03  0.00000000000E+00 0. -1.
         -4    1    6    6    0  503  0.22562137899E+03  0.14471838584E+03  0.89003676250E+03  0.92952345665E+03  0.00000000000E+00 0.  1.
<mgrwt>
<rscale>  0 0.12779618E+04</rscale>
<asrwt>0</asrwt>
<pdfrwt beam="1">  1        2 0.49486929E+00 0.12779618E+04</pdfrwt>
<pdfrwt beam="2">  1       -2 0.19528036E-01 0.12779618E+04</pdfrwt>
<totfact> 0.28115683E+01</totfact>
</mgrwt>
</event>
<event>
12    2  0.3623523E-008  0.1720425E+04  0.7818608E-02  0.8749800E-01
          1   -1    0    0  501    0  0.00000000000E+00  0.00000000000E+00  0.24214136981E+04  0.24214136981E+04  0.00000000000E+00 0. -1.
         -1   -1    0    0    0  501 -0.00000000000E+00 -0.00000000000E+00 -0.30559252538E+03  0.30559252538E+03  0.00000000000E+00 0.  1.
         23    2    1    2    0    0  0.40738043038E+02  0.30089918386E+03  0.16329063131E+04  0.16633118201E+04  0.89572743551E+02 0.  0.
        254    2    1    2    0    0 -0.40738043038E+02 -0.30089918386E+03  0.48291485963E+03  0.10636944034E+04  0.89779681178E+03 0.  0.
         23    2    4    4    0    0  0.20064838651E+03  0.13336357560E+03  0.49560234894E+03  0.55848493344E+03  0.90764058377E+02 0.  0.
         23    2    4    4    0    0 -0.24138642954E+03 -0.43426275946E+03 -0.12687489314E+02  0.50520946999E+03  0.90686733097E+02 0.  0.
          3    1    3    3  502    0 -0.19916473473E+02  0.11967224886E+03  0.50784294169E+03  0.52213270965E+03  0.00000000000E+00 0. -1.
         -3    1    3    3    0  502  0.60654516511E+02  0.18122693500E+03  0.11250633715E+04  0.11411791104E+04  0.00000000000E+00 0.  1.
         11    1    5    5    0    0  0.75644761753E+02  0.31902775528E+01  0.17276888887E+03  0.18863031785E+03  0.00000000000E+00 0. -1.
        -11    1    5    5    0    0  0.12500362475E+03  0.13017329805E+03  0.32283346007E+03  0.36985461558E+03  0.00000000000E+00 0.  1.
          4    1    6    6  503    0 -0.18769791804E+03 -0.26991003635E+03 -0.36090362616E+02  0.33073320129E+03  0.00000000000E+00 0. -1.
         -4    1    6    6    0  503 -0.53688511499E+02 -0.16435272312E+03  0.23402873301E+02  0.17447626871E+03  0.00000000000E+00 0.  1.
<mgrwt>
<rscale>  0 0.17204254E+04</rscale>
<asrwt>0</asrwt>
<pdfrwt beam="1">  1        1 0.37252517E+00 0.17204254E+04</pdfrwt>
<pdfrwt beam="2">  1       -1 0.47014236E-01 0.17204254E+04</pdfrwt>
<totfact> 0.65880315E+00</totfact>
</mgrwt>
</event>
<event>
12    2  0.3623523E-008  0.1999308E+04  0.7818608E-02  0.8606944E-01
         -2   -1    0    0    0  501 -0.00000000000E+00  0.00000000000E+00  0.66707165122E+03  0.66707165122E+03  0.00000000000E+00 0.  1.
          2   -1    0    0  501    0  0.00000000000E+00 -0.00000000000E+00 -0.14980521692E+04  0.14980521692E+04  0.00000000000E+00 0. -1.
         23    2    1    2    0    0  0.18814941698E+03  0.55194762766E+03  0.13183737145E+03  0.60474581090E+03  0.91049527743E+02 0.  0.
        254    2    1    2    0    0 -0.18814941698E+03 -0.55194762766E+03 -0.96281788941E+03  0.15603780095E+04  0.10806085589E+04 0.  0.
         23    2    4    4    0    0 -0.57441982928E+03 -0.13236561180E+03 -0.71827127796E+03  0.93318860337E+03  0.86304954957E+02 0.  0.
         23    2    4    4    0    0  0.38627041230E+03 -0.41958201587E+03 -0.24454661144E+03  0.62718940613E+03  0.91157043272E+02 0.  0.
          2    1    3    3  502    0  0.77425921560E+02  0.19354626407E+03  0.90859857083E+02  0.22739930363E+03  0.00000000000E+00 0. -1.
         -2    1    3    3    0  502  0.11072349542E+03  0.35840136360E+03  0.40977514365E+02  0.37734650727E+03  0.00000000000E+00 0.  1.
         11    1    5    5    0    0 -0.36529007528E+03 -0.44272513288E+02 -0.41956810465E+03  0.55806297939E+03  0.00000000000E+00 0.  1.
        -11    1    5    5    0    0 -0.20912975400E+03 -0.88093098508E+02 -0.29870317332E+03  0.37512562397E+03  0.00000000000E+00 0. -1.
          1    1    6    6  503    0  0.15709128101E+03 -0.11196869227E+03 -0.64232067017E+02  0.20332342967E+03  0.00000000000E+00 0. -1.
         -1    1    6    6    0  503  0.22917913129E+03 -0.30761332359E+03 -0.18031454443E+03  0.42386597646E+03  0.00000000000E+00 0.  1.
<mgrwt>
<rscale>  0 0.19993080E+04</rscale>
<asrwt>0</asrwt>
<pdfrwt beam="1">  1        2 0.23046956E+00 0.19993080E+04</pdfrwt>
<pdfrwt beam="2">  1       -2 0.10262641E+00 0.19993080E+04</pdfrwt>
<totfact> 0.91823539E+00</totfact>
</mgrwt>
</event>
<event>
12    2  0.3623523E-008  0.2877690E+04  0.7818608E-02  0.8279547E-01
         -1   -1    0    0    0  501 -0.00000000000E+00  0.00000000000E+00  0.78348215214E+03  0.78348215214E+03  0.00000000000E+00 0.  1.
          1   -1    0    0  501    0  0.00000000000E+00 -0.00000000000E+00 -0.26424013163E+04  0.26424013163E+04  0.00000000000E+00 0. -1.
         23    2    1    2    0    0  0.75208444557E+03  0.16381526387E+03 -0.20805088993E+04  0.22202681269E+04  0.92772955070E+02 0.  0.
        254    2    1    2    0    0 -0.75208444557E+03 -0.16381526387E+03  0.22158973516E+03  0.12056153415E+04  0.90107707055E+03 0.  0.
         23    2    4    4    0    0 -0.22043748799E+03 -0.33049083595E+03  0.44056401388E+03  0.59980312086E+03  0.88601663092E+02 0.  0.
         23    2    4    4    0    0 -0.53164695758E+03  0.16667557209E+03 -0.21897427872E+03  0.60581222068E+03  0.92894984480E+02 0.  0.
          4    1    3    3  502    0  0.65739948664E+02  0.41449858017E+02 -0.23112481636E+03  0.24384116206E+03  0.00000000000E+00 0.  1.
         -4    1    3    3    0  502  0.68634449691E+03  0.12236540585E+03 -0.18493840829E+04  0.19764269648E+04  0.00000000000E+00 0. -1.
         11    1    5    5    0    0 -0.31403609537E+02 -0.13164758220E+02  0.63000077183E+02  0.71613597005E+02  0.00000000000E+00 0.  1.
        -11    1    5    5    0    0 -0.18903387845E+03 -0.31732607773E+03  0.37756393670E+03  0.52818952386E+03  0.00000000000E+00 0. -1.
          3    1    6    6  503    0 -0.50865877577E+03  0.17812310292E+03 -0.21252100068E+03  0.57933303521E+03  0.00000000000E+00 0. -1.
         -3    1    6    6    0  503 -0.22988181816E+02 -0.11447530833E+02 -0.64532780446E+01  0.26479185465E+02  0.00000000000E+00 0.  1.
<mgrwt>
<rscale>  0 0.28776895E+04</rscale>
<asrwt>0</asrwt>
<pdfrwt beam="1">  1        1 0.40652328E+00 0.28776895E+04</pdfrwt>
<pdfrwt beam="2">  1       -1 0.12053571E+00 0.28776895E+04</pdfrwt>
<totfact> 0.56713218E-01</totfact>
</mgrwt>
</event>
<event>
12    2  0.3623523E-008  0.1344697E+04  0.7818608E-02  0.8994852E-01
          2   -1    0    0  501    0  0.00000000000E+00  0.00000000000E+00  0.15926623689E+04  0.15926623689E+04  0.00000000000E+00 0. -1.
         -2   -1    0    0    0  501 -0.00000000000E+00 -0.00000000000E+00 -0.28383460933E+03  0.28383460933E+03  0.00000000000E+00 0.  1.
         23    2    1    2    0    0 -0.20283059433E+03 -0.10777456759E+03  0.22009520483E+02  0.24827775608E+03  0.91661430025E+02 0.  0.
        254    2    1    2    0    0  0.20283059433E+03  0.10777456759E+03  0.12868182391E+04  0.16282192222E+04  0.97079402942E+03 0.  0.
         23    2    4    4    0    0  0.51546851960E+01  0.52280065385E+03  0.66289486032E+03  0.84893800587E+03  0.88989030328E+02 0.  0.
         23    2    4    4    0    0  0.19767590913E+03 -0.41502608626E+03  0.62392337881E+03  0.77928121633E+03  0.81709327358E+02 0.  0.
          3    1    3    3  502    0 -0.15257953483E+03 -0.35625058199E+02  0.31579198136E+02  0.15983399192E+03  0.00000000000E+00 0.  1.
         -3    1    3    3    0  502 -0.50251059503E+02 -0.72149509393E+02 -0.95696776524E+01  0.88443764151E+02  0.00000000000E+00 0. -1.
         11    1    5    5    0    0 -0.26198996705E+02  0.95224998385E+02  0.16080002348E+03  0.18870833393E+03  0.00000000000E+00 0. -1.
        -11    1    5    5    0    0  0.31353681901E+02  0.42757565546E+03  0.50209483684E+03  0.66022967193E+03  0.00000000000E+00 0.  1.
          3    1    6    6  503    0  0.41418299290E+02 -0.11243630900E+03  0.22375177918E+03  0.25381540099E+03  0.00000000000E+00 0. -1.
         -3    1    6    6    0  503  0.15625760984E+03 -0.30258977726E+03  0.40017159963E+03  0.52546581534E+03  0.00000000000E+00 0.  1.
<mgrwt>
<rscale>  0 0.13446973E+04</rscale>
<asrwt>0</asrwt>
<pdfrwt beam="1">  1        2 0.24502497E+00 0.13446973E+04</pdfrwt>
<pdfrwt beam="2">  1       -2 0.43666864E-01 0.13446973E+04</pdfrwt>
<totfact> 0.54692566E+01</totfact>
</mgrwt>
</event>
<event>
12    2  0.3623523E-008  0.1886417E+04  0.7818608E-02  0.8661647E-01
         -1   -1    0    0    0  501 -0.00000000000E+00  0.00000000000E+00  0.52529174347E+03  0.52529174347E+03  0.00000000000E+00 0.  1.
          1   -1    0    0  501    0  0.00000000000E+00 -0.00000000000E+00 -0.16936148924E+04  0.16936148924E+04  0.00000000000E+00 0. -1.
         23    2    1    2    0    0  0.53182059454E+03 -0.29972630595E+03 -0.86597949676E+01  0.61777834078E+03  0.94372045853E+02 0.  0.
        254    2    1    2    0    0 -0.53182059454E+03  0.29972630595E+03 -0.11596633540E+04  0.16011282951E+04  0.91984983536E+03 0.  0.
         23    2    4    4    0    0  0.14333299051E+02 -0.83761701982E+02  0.10838065338E+03  0.16542489347E+03  0.91638218956E+02 0.  0.
         23    2    4    4    0    0 -0.54615389359E+03  0.38348800793E+03 -0.12680440074E+04  0.14357034016E+04  0.89227379162E+02 0.  0.
          2    1    3    3  502    0  0.17031987318E+02  0.40265819112E+01  0.92323479848E+01  0.19787324306E+02  0.00000000000E+00 0. -1.
         -2    1    3    3    0  502  0.51478860722E+03 -0.30375288786E+03 -0.17892142952E+02  0.59799101647E+03  0.00000000000E+00 0.  1.
         11    1    5    5    0    0  0.17911817456E+02  0.14008245732E+02  0.40167033001E+02  0.46156848822E+02  0.00000000000E+00 0.  1.
        -11    1    5    5    0    0 -0.35785184055E+01 -0.97769947714E+02  0.68213620376E+02  0.11926804465E+03  0.00000000000E+00 0. -1.
          1    1    6    6  503    0 -0.40414705075E+03  0.27217736024E+03 -0.10027643583E+04  0.11148774427E+04  0.00000000000E+00 0. -1.
         -1    1    6    6    0  503 -0.14200684284E+03  0.11131064769E+03 -0.26527964905E+03  0.32082595890E+03  0.00000000000E+00 0.  1.
<mgrwt>
<rscale>  0 0.18864166E+04</rscale>
<asrwt>0</asrwt>
<pdfrwt beam="1">  1        1 0.26055613E+00 0.18864166E+04</pdfrwt>
<pdfrwt beam="2">  1       -1 0.80814116E-01 0.18864166E+04</pdfrwt>
<totfact> 0.68829985E+00</totfact>
</mgrwt>
</event>
<event>
12    2  0.3623523E-008  0.2021356E+04  0.7818608E-02  0.8596701E-01
         -1   -1    0    0    0  501 -0.00000000000E+00  0.00000000000E+00  0.66783913325E+03  0.66783913325E+03  0.00000000000E+00 0.  1.
          1   -1    0    0  501    0  0.00000000000E+00 -0.00000000000E+00 -0.15295152793E+04  0.15295152793E+04  0.00000000000E+00 0. -1.
         23    2    1    2    0    0 -0.15641679414E+03 -0.31093415058E+03  0.44225772635E+03  0.57105811220E+03  0.96794687431E+02 0.  0.
        254    2    1    2    0    0  0.15641679414E+03  0.31093415058E+03 -0.13039338724E+04  0.16262963003E+04  0.90744137743E+03 0.  0.
         23    2    4    4    0    0  0.22169552861E+03  0.57708493833E+03 -0.60678911905E+03  0.87138566106E+03  0.94572733084E+02 0.  0.
         23    2    4    4    0    0 -0.65278734477E+02 -0.26615078776E+03 -0.69714475333E+03  0.75491063928E+03  0.93710784896E+02 0.  0.
          2    1    3    3  502    0 -0.16783644455E+03 -0.26812035931E+03  0.39850573425E+03  0.50878720446E+03  0.00000000000E+00 0.  1.
         -2    1    3    3    0  502  0.11419650412E+02 -0.42813791268E+02  0.43751992099E+02  0.62270907741E+02  0.00000000000E+00 0. -1.
         11    1    5    5    0    0  0.12995501764E+03  0.21365370274E+03 -0.25985019049E+03  0.36063601152E+03  0.00000000000E+00 0. -1.
        -11    1    5    5    0    0  0.91740510976E+02  0.36343123559E+03 -0.34693892856E+03  0.51074964954E+03  0.00000000000E+00 0.  1.
          2    1    6    6  503    0 -0.89497149607E+02 -0.21890241530E+03 -0.57378054255E+03  0.62060625055E+03  0.00000000000E+00 0. -1.
         -2    1    6    6    0  503  0.24218415130E+02 -0.47248372455E+02 -0.12336421078E+03  0.13430438873E+03  0.00000000000E+00 0.  1.
<mgrwt>
<rscale>  0 0.20213561E+04</rscale>
<asrwt>0</asrwt>
<pdfrwt beam="1">  1        1 0.23531004E+00 0.20213561E+04</pdfrwt>
<pdfrwt beam="2">  1       -1 0.10274448E+00 0.20213561E+04</pdfrwt>
<totfact> 0.51741933E+00</totfact>
</mgrwt>
</event>
<event>
12    2  0.3623523E-008  0.1203987E+04  0.7818608E-02  0.9109374E-01
         -2   -1    0    0    0  501 -0.00000000000E+00  0.00000000000E+00  0.28093536832E+03  0.28093536832E+03  0.00000000000E+00 0.  1.
          2   -1    0    0  501    0  0.00000000000E+00 -0.00000000000E+00 -0.12899635605E+04  0.12899635605E+04  0.00000000000E+00 0. -1.
         23    2    1    2    0    0  0.16273731589E+02 -0.32814082959E+03 -0.26195472395E+03  0.42991411692E+03  0.90910022243E+02 0.  0.
        254    2    1    2    0    0 -0.16273731589E+02  0.32814082959E+03 -0.74707346825E+03  0.11409848119E+04  0.79736211077E+03 0.  0.
         23    2    4    4    0    0  0.77155293290E+02 -0.12162153501E+03  0.82861470689E+02  0.18803835000E+03  0.88020796894E+02 0.  0.
         23    2    4    4    0    0 -0.93429024879E+02  0.44976236460E+03 -0.82993493894E+03  0.95294646192E+03  0.91103178422E+02 0.  0.
          3    1    3    3  502    0 -0.31683961845E+02 -0.14616146829E+03 -0.87342988530E+02  0.17319308848E+03  0.00000000000E+00 0. -1.
         -3    1    3    3    0  502  0.47957693434E+02 -0.18197936130E+03 -0.17461173542E+03  0.25672102844E+03  0.00000000000E+00 0.  1.
         11    1    5    5    0    0 -0.19180516092E+02 -0.17268989564E+02  0.20356775290E+02  0.32871089096E+02  0.00000000000E+00 0. -1.
        -11    1    5    5    0    0  0.96335809382E+02 -0.10435254544E+03  0.62504695398E+02  0.15516726090E+03  0.00000000000E+00 0.  1.
          3    1    6    6  503    0 -0.38688624769E+01  0.22641648368E+03 -0.43689725297E+03  0.49209613068E+03  0.00000000000E+00 0. -1.
         -3    1    6    6    0  503 -0.89560162402E+02  0.22334588091E+03 -0.39303768597E+03  0.46085033124E+03  0.00000000000E+00 0.  1.
<mgrwt>
<rscale>  0 0.12039874E+04</rscale>
<asrwt>0</asrwt>
<pdfrwt beam="1">  1        2 0.19845593E+00 0.12039874E+04</pdfrwt>
<pdfrwt beam="2">  1       -2 0.43220826E-01 0.12039874E+04</pdfrwt>
<totfact> 0.83856865E+01</totfact>
</mgrwt>
</event>
<event>
12    2  0.3623523E-008  0.1495776E+04  0.7818608E-02  0.8887266E-01
          2   -1    0    0  501    0  0.00000000000E+00  0.00000000000E+00  0.22276389106E+04  0.22276389106E+04  0.00000000000E+00 0. -1.
         -2   -1    0    0    0  501 -0.00000000000E+00 -0.00000000000E+00 -0.25108950494E+03  0.25108950494E+03  0.00000000000E+00 0.  1.
         23    2    1    2    0    0 -0.28345296265E+03  0.38443995743E+03  0.65421980660E+03  0.81487364003E+03  0.88745878619E+02 0.  0.
        254    2    1    2    0    0  0.28345296265E+03 -0.38443995743E+03  0.13223295990E+04  0.16638547755E+04  0.88978507659E+03 0.  0.
         23    2    4    4    0    0  0.41690154041E+03 -0.20600763392E+02  0.11558890602E+04  0.12325530606E+04  0.94213809727E+02 0.  0.
         23    2    4    4    0    0 -0.13344857776E+03 -0.36383919404E+03  0.16644053887E+03  0.43130171488E+03  0.90173356681E+02 0.  0.
          4    1    3    3  502    0 -0.25844488594E+03  0.36872776755E+03  0.63881953894E+03  0.78156530691E+03  0.00000000000E+00 0. -1.
         -4    1    3    3    0  502 -0.25008076710E+02  0.15712189887E+02  0.15400267656E+02  0.33308333127E+02  0.00000000000E+00 0.  1.
         11    1    5    5    0    0  0.36095560402E+03  0.15489987174E+02  0.98248750021E+03  0.10468097133E+04  0.00000000000E+00 0. -1.
        -11    1    5    5    0    0  0.55945936393E+02 -0.36090750566E+02  0.17340155997E+03  0.18574334732E+03  0.00000000000E+00 0.  1.
          3    1    6    6  503    0 -0.34204939683E+02 -0.19019533072E+03  0.11466533193E+03  0.22470509579E+03  0.00000000000E+00 0.  1.
         -3    1    6    6    0  503 -0.99243638077E+02 -0.17364386332E+03  0.51775206937E+02  0.20659661909E+03  0.00000000000E+00 0. -1.
<mgrwt>
<rscale>  0 0.14957764E+04</rscale>
<asrwt>0</asrwt>
<pdfrwt beam="1">  1        2 0.34271366E+00 0.14957764E+04</pdfrwt>
<pdfrwt beam="2">  1       -2 0.38629156E-01 0.14957764E+04</pdfrwt>
<totfact> 0.30523200E+01</totfact>
</mgrwt>
</event>
<event>
12    2  0.3623523E-008  0.2764932E+04  0.7818608E-02  0.8314239E-01
         -1   -1    0    0    0  501 -0.00000000000E+00  0.00000000000E+00  0.15381107086E+04  0.15381107086E+04  0.00000000000E+00 0.  1.
          1   -1    0    0  501    0  0.00000000000E+00 -0.00000000000E+00 -0.12425716093E+04  0.12425716093E+04  0.00000000000E+00 0. -1.
         23    2    1    2    0    0 -0.43803202293E+03  0.11455100752E+04  0.26508286007E+03  0.12580717860E+04  0.91707744790E+02 0.  0.
        254    2    1    2    0    0  0.43803202293E+03 -0.11455100752E+04  0.30456239290E+02  0.15226105319E+04  0.90185911530E+03 0.  0.
         23    2    4    4    0    0  0.78862841121E+02 -0.81944928006E+03  0.38693547911E+03  0.91371442781E+03  0.86246856728E+02 0.  0.
         23    2    4    4    0    0  0.35916918181E+03 -0.32606079515E+03 -0.35647923982E+03  0.60889610409E+03  0.91426877143E+02 0.  0.
          2    1    3    3  502    0 -0.34627894992E+03  0.89899232180E+03  0.16932587505E+03  0.97814495744E+03  0.00000000000E+00 0. -1.
         -2    1    3    3    0  502 -0.91753073002E+02  0.24651775341E+03  0.95756985023E+02  0.27992682854E+03  0.00000000000E+00 0.  1.
         11    1    5    5    0    0  0.72423619287E+02 -0.35825975505E+03  0.14882536407E+03  0.39464442440E+03  0.00000000000E+00 0.  1.
        -11    1    5    5    0    0  0.64392218333E+01 -0.46118952501E+03  0.23811011505E+03  0.51907000342E+03  0.00000000000E+00 0. -1.
          2    1    6    6  503    0  0.28011070195E+02 -0.27517255280E+02 -0.20446131519E+01  0.39319204399E+02  0.00000000000E+00 0. -1.
         -2    1    6    6    0  503  0.33115811161E+03 -0.29854353987E+03 -0.35443462667E+03  0.56957689970E+03  0.00000000000E+00 0.  1.
<mgrwt>
<rscale>  0 0.27649323E+04</rscale>
<asrwt>0</asrwt>
<pdfrwt beam="1">  1        1 0.19116486E+00 0.27649323E+04</pdfrwt>
<pdfrwt beam="2">  1       -1 0.23663242E+00 0.27649323E+04</pdfrwt>
<totfact> 0.73709632E-01</totfact>
</mgrwt>
</event>
<event>
12    2  0.3623523E-008  0.1288149E+04  0.7818608E-02  0.9039016E-01
         -2   -1    0    0    0  501 -0.00000000000E+00  0.00000000000E+00  0.19805716110E+03  0.19805716110E+03  0.00000000000E+00 0.  1.
          2   -1    0    0  501    0  0.00000000000E+00 -0.00000000000E+00 -0.20945062694E+04  0.20945062694E+04  0.00000000000E+00 0. -1.
         23    2    1    2    0    0  0.28670151753E+03  0.13537271348E+03 -0.53648093786E+03  0.62712282515E+03  0.70339956114E+02 0.  0.
        254    2    1    2    0    0 -0.28670151753E+03 -0.13537271348E+03 -0.13599681704E+04  0.16654406053E+04  0.90755465601E+03 0.  0.
         23    2    4    4    0    0 -0.39976491321E+03 -0.51570803068E+02 -0.14258077743E+04  0.14846249896E+04  0.93338185742E+02 0.  0.
         23    2    4    4    0    0  0.11306339568E+03 -0.83801910414E+02  0.65839603841E+02  0.18081561578E+03  0.92484278901E+02 0.  0.
          1    1    3    3  502    0  0.88304748017E+02  0.65812198366E+02 -0.23557778099E+03  0.26004973538E+03  0.00000000000E+00 0. -1.
         -1    1    3    3    0  502  0.19839676951E+03  0.69560515116E+02 -0.30090315687E+03  0.36707308977E+03  0.00000000000E+00 0.  1.
         11    1    5    5    0    0 -0.26598078876E+03 -0.41614100105E+02 -0.78366361796E+03  0.82861702821E+03  0.00000000000E+00 0. -1.
        -11    1    5    5    0    0 -0.13378412445E+03 -0.99567029631E+01 -0.64214415631E+03  0.65600796136E+03  0.00000000000E+00 0.  1.
          1    1    6    6  503    0  0.86265821989E+02 -0.41433107766E+02 -0.28917916167E+01  0.95743704343E+02  0.00000000000E+00 0. -1.
         -1    1    6    6    0  503  0.26797573687E+02 -0.42368802649E+02  0.68731395458E+02  0.85071911434E+02  0.00000000000E+00 0.  1.
<mgrwt>
<rscale>  0 0.12881490E+04</rscale>
<asrwt>0</asrwt>
<pdfrwt beam="1">  1        2 0.32223171E+00 0.12881490E+04</pdfrwt>
<pdfrwt beam="2">  1       -2 0.30470335E-01 0.12881490E+04</pdfrwt>
<totfact> 0.57904786E+01</totfact>
</mgrwt>
</event>
<event>
12    2  0.3623523E-008  0.1275741E+04  0.7818608E-02  0.9049027E-01
          2   -1    0    0  501    0  0.00000000000E+00  0.00000000000E+00  0.96283353730E+03  0.96283353730E+03  0.00000000000E+00 0. -1.
         -2   -1    0    0    0  501 -0.00000000000E+00 -0.00000000000E+00 -0.42258475364E+03  0.42258475364E+03  0.00000000000E+00 0.  1.
         23    2    1    2    0    0 -0.21912430337E+03  0.96274779338E+02 -0.75693649163E+02  0.26751837810E+03  0.92478433360E+02 0.  0.
        254    2    1    2    0    0  0.21912430337E+03 -0.96274779338E+02  0.61594243283E+03  0.11178999128E+04  0.90168222844E+03 0.  0.
         23    2    4    4    0    0  0.17981502100E+03  0.77694517284E+02 -0.18974843276E+03  0.28763528366E+03  0.91431443587E+02 0.  0.
         23    2    4    4    0    0  0.39309282368E+02 -0.17396929662E+03  0.80569086559E+03  0.83026462917E+03  0.91602662179E+02 0.  0.
          1    1    3    3  502    0 -0.98170923659E+02  0.88469510624E+02 -0.18308567196E+02  0.13341509733E+03  0.00000000000E+00 0. -1.
         -1    1    3    3    0  502 -0.12095337971E+03  0.78052687143E+01 -0.57385081967E+02  0.13410328078E+03  0.00000000000E+00 0.  1.
         11    1    5    5    0    0  0.14340499796E+03  0.91119176038E+02 -0.12064624557E+03  0.20838237510E+03  0.00000000000E+00 0. -1.
        -11    1    5    5    0    0  0.36410023044E+02 -0.13424658755E+02 -0.69102187192E+02  0.79252908562E+02  0.00000000000E+00 0.  1.
          1    1    6    6  503    0 -0.20429041856E+02 -0.97747369779E+02  0.32834619747E+03  0.34319545371E+03  0.00000000000E+00 0. -1.
         -1    1    6    6    0  503  0.59738324224E+02 -0.76221926843E+02  0.47734466811E+03  0.48706917547E+03  0.00000000000E+00 0.  1.
<mgrwt>
<rscale>  0 0.12757410E+04</rscale>
<asrwt>0</asrwt>
<pdfrwt beam="1">  1        2 0.14812824E+00 0.12757410E+04</pdfrwt>
<pdfrwt beam="2">  1       -2 0.65013039E-01 0.12757410E+04</pdfrwt>
<totfact> 0.57062571E+01</totfact>
</mgrwt>
</event>
<event>
12    2  0.3623523E-008  0.1964989E+04  0.7818608E-02  0.8623167E-01
          3   -1    0    0  501    0  0.00000000000E+00  0.00000000000E+00  0.94625855824E+03  0.94625855824E+03  0.00000000000E+00 0. -1.
         -3   -1    0    0    0  501 -0.00000000000E+00 -0.00000000000E+00 -0.10201182236E+04  0.10201182236E+04  0.00000000000E+00 0.  1.
         23    2    1    2    0    0  0.76119446163E+03  0.24887467027E+02 -0.98935776353E+02  0.77348844214E+03  0.91976561480E+02 0.  0.
        254    2    1    2    0    0 -0.76119446163E+03 -0.24887467027E+02  0.25076110958E+02  0.11928883397E+04  0.91777850558E+03 0.  0.
         23    2    4    4    0    0 -0.85227460497E+03  0.15991244059E+03  0.21714298508E+03  0.89839773906E+03  0.89573604592E+02 0.  0.
         23    2    4    4    0    0  0.91080143347E+02 -0.18479990762E+03 -0.19206687412E+03  0.29449060068E+03  0.85955985150E+02 0.  0.
          1    1    3    3  502    0  0.63030433674E+02 -0.17877689157E+02 -0.24978635675E+02  0.70116899382E+02  0.00000000000E+00 0. -1.
         -1    1    3    3    0  502  0.69816402795E+03  0.42765156185E+02 -0.73957140678E+02  0.70337154276E+03  0.00000000000E+00 0.  1.
         11    1    5    5    0    0 -0.94134107526E+02  0.36315356224E+02  0.48528954007E+02  0.11196023702E+03  0.00000000000E+00 0. -1.
        -11    1    5    5    0    0 -0.75814049745E+03  0.12359708437E+03  0.16861403107E+03  0.78643750204E+03  0.00000000000E+00 0.  1.
          1    1    6    6  503    0  0.49307425016E+02 -0.19983712152E+02 -0.46775069441E+02  0.70841217058E+02  0.00000000000E+00 0. -1.
         -1    1    6    6    0  503  0.41772718331E+02 -0.16481619547E+03 -0.14529180468E+03  0.22364938362E+03  0.00000000000E+00 0.  1.
<mgrwt>
<rscale>  0 0.19649892E+04</rscale>
<asrwt>0</asrwt>
<pdfrwt beam="1">  1        3 0.14557824E+00 0.19649892E+04</pdfrwt>
<pdfrwt beam="2">  1       -3 0.15694126E+00 0.19649892E+04</pdfrwt>
<totfact> 0.24382477E-01</totfact>
</mgrwt>
</event>
<event>
12    2  0.3623523E-008  0.1962304E+04  0.7818608E-02  0.8624450E-01
          2   -1    0    0  501    0  0.00000000000E+00  0.00000000000E+00  0.76650554660E+03  0.76650554660E+03  0.00000000000E+00 0. -1.
         -2   -1    0    0    0  501 -0.00000000000E+00 -0.00000000000E+00 -0.12559069734E+04  0.12559069734E+04  0.00000000000E+00 0.  1.
         23    2    1    2    0    0 -0.44278895491E+03  0.61658096124E+03 -0.39215387047E+03  0.85931014531E+03  0.91624927553E+02 0.  0.
        254    2    1    2    0    0  0.44278895491E+03 -0.61658096124E+03 -0.97247556323E+02  0.11631023747E+04  0.87585153217E+03 0.  0.
         23    2    4    4    0    0  0.64505769192E+03 -0.66372182891E+03 -0.10521379459E+03  0.93485166634E+03  0.79067081677E+02 0.  0.
         23    2    4    4    0    0 -0.20226873701E+03  0.47140867669E+02  0.79662382647E+01  0.22825070833E+03  0.94339925402E+02 0.  0.
          3    1    3    3  502    0 -0.44124690484E+03  0.59008620061E+03 -0.36881918078E+03  0.82397096022E+03  0.00000000000E+00 0. -1.
         -3    1    3    3    0  502 -0.15420500646E+01  0.26494760636E+02 -0.23334689686E+02  0.35339185083E+02  0.00000000000E+00 0.  1.
         11    1    5    5    0    0  0.30676762920E+03 -0.28650835114E+03 -0.13763938013E+02  0.41997959425E+03  0.00000000000E+00 0.  1.
        -11    1    5    5    0    0  0.33829006273E+03 -0.37721347777E+03 -0.91449856575E+02  0.51487207209E+03  0.00000000000E+00 0. -1.
          1    1    6    6  503    0 -0.63751029480E+02  0.61778095447E+02  0.78825579424E+00  0.88776957506E+02  0.00000000000E+00 0. -1.
         -1    1    6    6    0  503 -0.13851770753E+03 -0.14637227778E+02  0.71779824705E+01  0.13947375083E+03  0.00000000000E+00 0.  1.
<mgrwt>
<rscale>  0 0.19623044E+04</rscale>
<asrwt>0</asrwt>
<pdfrwt beam="1">  1        2 0.11792393E+00 0.19623044E+04</pdfrwt>
<pdfrwt beam="2">  1       -2 0.19321646E+00 0.19623044E+04</pdfrwt>
<totfact> 0.50072733E+00</totfact>
</mgrwt>
</event>
<event>
12    2  0.3623523E-008  0.1612015E+04  0.7818608E-02  0.8813200E-01
         -1   -1    0    0    0  501 -0.00000000000E+00  0.00000000000E+00  0.30402360483E+03  0.30402360483E+03  0.00000000000E+00 0.  1.
          1   -1    0    0  501    0  0.00000000000E+00 -0.00000000000E+00 -0.21368351220E+04  0.21368351220E+04  0.00000000000E+00 0. -1.
         23    2    1    2    0    0 -0.30395308278E+02  0.12618204147E+03  0.17066610944E+03  0.23319366285E+03  0.91687409876E+02 0.  0.
        254    2    1    2    0    0  0.30395308278E+02 -0.12618204147E+03 -0.20034776266E+04  0.22076650639E+04  0.91815938267E+03 0.  0.
         23    2    4    4    0    0 -0.28204740305E+03 -0.14482949601E+03 -0.22638053317E+03  0.40029318418E+03  0.91979166238E+02 0.  0.
         23    2    4    4    0    0  0.31244271133E+03  0.18647454532E+02 -0.17770970934E+04  0.18073718797E+04  0.10271736428E+03 0.  0.
          2    1    3    3  502    0  0.69037933285E+01  0.78113885576E+02  0.14942164115E+03  0.16874912837E+03  0.00000000000E+00 0.  1.
         -2    1    3    3    0  502 -0.37299101607E+02  0.48068155898E+02  0.21244468287E+02  0.64444534484E+02  0.00000000000E+00 0. -1.
         11    1    5    5    0    0 -0.35316719429E+02  0.12535407431E+02 -0.24582894872E+02  0.44818811128E+02  0.00000000000E+00 0.  1.
        -11    1    5    5    0    0 -0.24673068362E+03 -0.15736490344E+03 -0.20179763830E+03  0.35547437305E+03  0.00000000000E+00 0. -1.
          1    1    6    6  503    0  0.15594461696E+03 -0.30423443702E+01 -0.11568921144E+04  0.11673591323E+04  0.00000000000E+00 0. -1.
         -1    1    6    6    0  503  0.15649809437E+03  0.21689798903E+02 -0.62020497903E+03  0.64001274747E+03  0.00000000000E+00 0.  1.
<mgrwt>
<rscale>  0 0.16120153E+04</rscale>
<asrwt>0</asrwt>
<pdfrwt beam="1">  1        1 0.32874385E+00 0.16120153E+04</pdfrwt>
<pdfrwt beam="2">  1       -1 0.46772864E-01 0.16120153E+04</pdfrwt>
<totfact> 0.10510632E+01</totfact>
</mgrwt>
</event>
<event>
12    2  0.3623523E-008  0.2121475E+04  0.7818608E-02  0.8551842E-01
          1   -1    0    0  501    0  0.00000000000E+00  0.00000000000E+00  0.18861744023E+04  0.18861744023E+04  0.00000000000E+00 0. -1.
         -1   -1    0    0    0  501 -0.00000000000E+00 -0.00000000000E+00 -0.59653253794E+03  0.59653253794E+03  0.00000000000E+00 0.  1.
         23    2    1    2    0    0  0.61965634841E+03 -0.11068612309E+03 -0.16847811711E+03  0.65839504023E+03  0.94200557822E+02 0.  0.
        254    2    1    2    0    0 -0.61965634841E+03  0.11068612309E+03  0.14581199814E+04  0.18243119000E+04  0.89764949741E+03 0.  0.
         23    2    4    4    0    0 -0.50712947939E+03  0.42520260718E+03  0.12600460950E+04  0.14264455815E+04  0.95148670413E+02 0.  0.
         23    2    4    4    0    0 -0.11252686901E+03 -0.31451648409E+03  0.19807388645E+03  0.39786631848E+03  0.86495247707E+02 0.  0.
          3    1    3    3  502    0  0.31728819471E+02  0.84844968856E+01 -0.25830854650E+02  0.41784419637E+02  0.00000000000E+00 0. -1.
         -3    1    3    3    0  502  0.58792752893E+03 -0.11917061998E+03 -0.14264726246E+03  0.61661062060E+03  0.00000000000E+00 0.  1.
         11    1    5    5    0    0 -0.18815783828E+03  0.15478159944E+03  0.36937156902E+03  0.44248849887E+03  0.00000000000E+00 0. -1.
        -11    1    5    5    0    0 -0.31897164111E+03  0.27042100773E+03  0.89067452597E+03  0.98395708264E+03  0.00000000000E+00 0.  1.
          1    1    6    6  503    0 -0.22978908387E+02 -0.72808975278E+02  0.90903903747E+02  0.11871266499E+03  0.00000000000E+00 0. -1.
         -1    1    6    6    0  503 -0.89547960627E+02 -0.24170750881E+03  0.10716998270E+03  0.27915365349E+03  0.00000000000E+00 0.  1.
<mgrwt>
<rscale>  0 0.21214753E+04</rscale>
<asrwt>0</asrwt>
<pdfrwt beam="1">  1        1 0.29018068E+00 0.21214753E+04</pdfrwt>
<pdfrwt beam="2">  1       -1 0.91774237E-01 0.21214753E+04</pdfrwt>
<totfact> 0.37799951E+00</totfact>
</mgrwt>
</event>
<event>
12    2  0.3623523E-008  0.1299434E+04  0.7818608E-02  0.9030014E-01
          2   -1    0    0  501    0  0.00000000000E+00  0.00000000000E+00  0.45046989039E+03  0.45046989039E+03  0.00000000000E+00 0. -1.
         -2   -1    0    0    0  501 -0.00000000000E+00 -0.00000000000E+00 -0.93709314302E+03  0.93709314302E+03  0.00000000000E+00 0.  1.
         23    2    1    2    0    0 -0.27001475710E+03  0.10263992309E+03  0.36888397107E+02  0.30478898401E+03  0.89959146668E+02 0.  0.
        254    2    1    2    0    0  0.27001475710E+03 -0.10263992309E+03 -0.52351164974E+03  0.10827740494E+04  0.90271383715E+03 0.  0.
         23    2    4    4    0    0 -0.22850061487E+03  0.59349763386E+02  0.92232711331E+02  0.26906059108E+03  0.90287336993E+02 0.  0.
         23    2    4    4    0    0  0.49851537197E+03 -0.16198968647E+03 -0.61574436107E+03  0.81371345832E+03  0.90720667163E+02 0.  0.
          1    1    3    3  502    0 -0.40335162859E+02  0.84959388502E+01 -0.25982086767E+02  0.48725508438E+02  0.00000000000E+00 0. -1.
         -1    1    3    3    0  502 -0.22967959424E+03  0.94143984236E+02  0.62870483874E+02  0.25606347557E+03  0.00000000000E+00 0.  1.
         11    1    5    5    0    0 -0.17304364334E+03  0.75070731038E+02  0.43495199153E+02  0.19357569452E+03  0.00000000000E+00 0. -1.
        -11    1    5    5    0    0 -0.55456971530E+02 -0.15720967652E+02  0.48737512178E+02  0.75484896559E+02  0.00000000000E+00 0.  1.
          4    1    6    6  503    0  0.42222938666E+03 -0.10898712302E+03 -0.47235648212E+03  0.64286584459E+03  0.00000000000E+00 0. -1.
         -4    1    6    6    0  503  0.76285985314E+02 -0.53002563454E+02 -0.14338787895E+03  0.17084761373E+03  0.00000000000E+00 0.  1.
<mgrwt>
<rscale>  0 0.12994341E+04</rscale>
<asrwt>0</asrwt>
<pdfrwt beam="1">  1        2 0.69303060E-01 0.12994341E+04</pdfrwt>
<pdfrwt beam="2">  1       -2 0.14416818E+00 0.12994341E+04</pdfrwt>
<totfact> 0.22631371E+01</totfact>
</mgrwt>
</event>
<event>
12    2  0.3623523E-008  0.1259916E+04  0.7818608E-02  0.9061970E-01
          1   -1    0    0  501    0  0.00000000000E+00  0.00000000000E+00  0.27086628766E+03  0.27086628766E+03  0.00000000000E+00 0. -1.
         -1   -1    0    0    0  501 -0.00000000000E+00 -0.00000000000E+00 -0.14651036192E+04  0.14651036192E+04  0.00000000000E+00 0.  1.
         23    2    1    2    0    0  0.14333920039E+03  0.12845594550E+03  0.86127548887E+01  0.21256099220E+03  0.89782735295E+02 0.  0.
        254    2    1    2    0    0 -0.14333920039E+03 -0.12845594550E+03 -0.12028500865E+04  0.15234089147E+04  0.91481109227E+03 0.  0.
         23    2    4    4    0    0 -0.47846778344E+03  0.62818439706E+02 -0.42465398125E+03  0.64934992553E+03  0.91906179542E+02 0.  0.
         23    2    4    4    0    0  0.33512858305E+03 -0.19127438520E+03 -0.77819610522E+03  0.87405898917E+03  0.97431415587E+02 0.  0.
          3    1    3    3  502    0  0.43996565559E+02  0.31729557336E+02  0.43561047418E+02  0.69570305748E+02  0.00000000000E+00 0. -1.
         -3    1    3    3    0  502  0.99342634833E+02  0.96726388163E+02 -0.34948292529E+02  0.14299068646E+03  0.00000000000E+00 0.  1.
         11    1    5    5    0    0 -0.25264927873E+03  0.64845321490E+02 -0.18318997626E+03  0.31873992716E+03  0.00000000000E+00 0. -1.
        -11    1    5    5    0    0 -0.22581850471E+03 -0.20268817841E+01 -0.24146400499E+03  0.33060999837E+03  0.00000000000E+00 0.  1.
          2    1    6    6  503    0  0.31661071439E+03 -0.19336420896E+03 -0.76777483072E+03  0.85270760079E+03  0.00000000000E+00 0. -1.
         -2    1    6    6    0  503  0.18517868660E+02  0.20898237517E+01 -0.10421274509E+02  0.21351388372E+02  0.00000000000E+00 0.  1.
<mgrwt>
<rscale>  0 0.12599162E+04</rscale>
<asrwt>0</asrwt>
<pdfrwt beam="1">  1        1 0.41671738E-01 0.12599162E+04</pdfrwt>
<pdfrwt beam="2">  1       -1 0.22540055E+00 0.12599162E+04</pdfrwt>
<totfact> 0.10005728E+01</totfact>
</mgrwt>
</event>
<event>
12    2  0.3623523E-008  0.2456821E+04  0.7818608E-02  0.8418532E-01
          1   -1    0    0  501    0  0.00000000000E+00  0.00000000000E+00  0.10218058318E+04  0.10218058318E+04  0.00000000000E+00 0. -1.
         -1   -1    0    0    0  501 -0.00000000000E+00 -0.00000000000E+00 -0.14767901313E+04  0.14767901313E+04  0.00000000000E+00 0.  1.
         23    2    1    2    0    0 -0.16095326138E+03 -0.16779590513E+03 -0.12458483320E+04  0.12709061299E+04  0.94883647414E+02 0.  0.
        254    2    1    2    0    0  0.16095326138E+03  0.16779590513E+03  0.79086403246E+03  0.12276898332E+04  0.90977744017E+03 0.  0.
         23    2    4    4    0    0  0.33231800184E+03  0.55170697844E+02  0.90967995274E+03  0.97432547735E+03  0.91178172546E+02 0.  0.
         23    2    4    4    0    0 -0.17136474046E+03  0.11262520729E+03 -0.11881592027E+03  0.25336435588E+03  0.89587735383E+02 0.  0.
          1    1    3    3  502    0 -0.16030374215E+02 -0.55547288018E+02 -0.17023262973E+03  0.17978215242E+03  0.00000000000E+00 0. -1.
         -1    1    3    3    0  502 -0.14492288716E+03 -0.11224861711E+03 -0.10756157022E+04  0.10911239774E+04  0.00000000000E+00 0.  1.
         11    1    5    5    0    0  0.26834448503E+03  0.13966137137E+02  0.64013684725E+03  0.69424707334E+03  0.00000000000E+00 0.  1.
        -11    1    5    5    0    0  0.63973516807E+02  0.41204560706E+02  0.26954310549E+03  0.28007840401E+03  0.00000000000E+00 0. -1.
          2    1    6    6  503    0 -0.37417120024E+02  0.42796322353E+02 -0.78678628034E+02  0.97066433885E+02  0.00000000000E+00 0. -1.
         -2    1    6    6    0  503 -0.13394762044E+03  0.69828884933E+02 -0.40137292239E+02  0.15629792200E+03  0.00000000000E+00 0.  1.
<mgrwt>
<rscale>  0 0.24568213E+04</rscale>
<asrwt>0</asrwt>
<pdfrwt beam="1">  1        1 0.15720090E+00 0.24568213E+04</pdfrwt>
<pdfrwt beam="2">  1       -1 0.22719848E+00 0.24568213E+04</pdfrwt>
<totfact> 0.12782918E+00</totfact>
</mgrwt>
</event>
<event>
12    2  0.3623523E-008  0.3137735E+04  0.7818608E-02  0.8205458E-01
          1   -1    0    0  501    0  0.00000000000E+00  0.00000000000E+00  0.24613332562E+04  0.24613332562E+04  0.00000000000E+00 0.  1.
         -1   -1    0    0    0  501 -0.00000000000E+00 -0.00000000000E+00 -0.10000045625E+04  0.10000045625E+04  0.00000000000E+00 0. -1.
         23    2    1    2    0    0 -0.76880988011E+03 -0.45990187826E+03 -0.57197778415E+03  0.10662572597E+04  0.84661614522E+02 0.  0.
        254    2    1    2    0    0  0.76880988011E+03  0.45990187826E+03  0.20333064779E+04  0.23950805590E+04  0.89414611873E+03 0.  0.
         23    2    4    4    0    0  0.45447305966E+02 -0.99287971151E+02 -0.22718592738E+02  0.14309965498E+03  0.89653878696E+02 0.  0.
         23    2    4    4    0    0  0.72336257415E+03  0.55918984941E+03  0.20560250706E+04  0.22519809040E+04  0.90731469806E+02 0.  0.
          3    1    3    3  502    0 -0.35041342666E+03 -0.24079460140E+03 -0.23227247053E+03  0.48448127953E+03  0.00000000000E+00 0. -1.
         -3    1    3    3    0  502 -0.41839645345E+03 -0.21910727686E+03 -0.33970531362E+03  0.58177598019E+03  0.00000000000E+00 0.  1.
         11    1    5    5    0    0  0.23189392878E+01 -0.59159027816E+02 -0.50640175964E+02  0.77907608571E+02  0.00000000000E+00 0. -1.
        -11    1    5    5    0    0  0.43128366679E+02 -0.40128943335E+02  0.27921583226E+02  0.65192046412E+02  0.00000000000E+00 0.  1.
          4    1    6    6  503    0  0.30288479579E+03  0.17948848990E+03  0.76684769802E+03  0.84380727035E+03  0.00000000000E+00 0. -1.
         -4    1    6    6    0  503  0.42047777836E+03  0.37970135951E+03  0.12891773726E+04  0.14081736336E+04  0.00000000000E+00 0.  1.
<mgrwt>
<rscale>  0 0.31377345E+04</rscale>
<asrwt>0</asrwt>
<pdfrwt beam="1">  1        1 0.37866665E+00 0.31377345E+04</pdfrwt>
<pdfrwt beam="2">  1       -1 0.15384686E+00 0.31377345E+04</pdfrwt>
<totfact> 0.39465706E-01</totfact>
</mgrwt>
</event>
<event>
12    2  0.3623523E-008  0.1573961E+04  0.7818608E-02  0.8836706E-01
         -1   -1    0    0    0  501 -0.00000000000E+00  0.00000000000E+00  0.75153590826E+03  0.75153590826E+03  0.00000000000E+00 0.  1.
          1   -1    0    0  501    0  0.00000000000E+00 -0.00000000000E+00 -0.82409703392E+03  0.82409703392E+03  0.00000000000E+00 0. -1.
         23    2    1    2    0    0 -0.36539713740E+02 -0.12079924068E+03  0.48869652734E+03  0.51276022320E+03  0.90394377187E+02 0.  0.
        254    2    1    2    0    0  0.36539713740E+02  0.12079924068E+03 -0.56125765300E+03  0.10628727190E+04  0.89373410838E+03 0.  0.
         23    2    4    4    0    0  0.21188954113E+03 -0.21966538476E+02  0.17231841583E+03  0.28973013149E+03  0.94181772133E+02 0.  0.
         23    2    4    4    0    0 -0.17534982739E+03  0.14276577916E+03 -0.73357606883E+03  0.77314258750E+03  0.92119390883E+02 0.  0.
          2    1    3    3  502    0  0.21637288972E+02 -0.67708091053E+00  0.61452742752E+02  0.65154204042E+02  0.00000000000E+00 0. -1.
         -2    1    3    3    0  502 -0.58177002712E+02 -0.12012215977E+03  0.42724378459E+03  0.44760601916E+03  0.00000000000E+00 0.  1.
         11    1    5    5    0    0  0.27402546423E+02  0.96094465723E+01 -0.76974075756E+01  0.30041489598E+02  0.00000000000E+00 0. -1.
        -11    1    5    5    0    0  0.18448699471E+03 -0.31575985048E+02  0.18001582340E+03  0.25968864189E+03  0.00000000000E+00 0.  1.
          1    1    6    6  503    0 -0.39070996962E+02  0.93129030944E+01 -0.53961545595E+02  0.67269022370E+02  0.00000000000E+00 0. -1.
         -1    1    6    6    0  503 -0.13627883043E+03  0.13345287606E+03 -0.67961452324E+03  0.70587356513E+03  0.00000000000E+00 0.  1.
<mgrwt>
<rscale>  0 0.15739613E+04</rscale>
<asrwt>0</asrwt>
<pdfrwt beam="1">  1        1 0.12678416E+00 0.15739613E+04</pdfrwt>
<pdfrwt beam="2">  1       -1 0.11562091E+00 0.15739613E+04</pdfrwt>
<totfact> 0.13733088E+01</totfact>
</mgrwt>
</event>
<event>
12    2  0.3623523E-008  0.1277728E+04  0.7818608E-02  0.9047416E-01
          2   -1    0    0  501    0  0.00000000000E+00  0.00000000000E+00  0.72914203878E+03  0.72914203878E+03  0.00000000000E+00 0. -1.
         -2   -1    0    0    0  501 -0.00000000000E+00 -0.00000000000E+00 -0.55976372300E+03  0.55976372300E+03  0.00000000000E+00 0.  1.
         23    2    1    2    0    0 -0.11688706216E+03 -0.15676232206E+03  0.27719118119E+03  0.35195559329E+03  0.93812460793E+02 0.  0.
        254    2    1    2    0    0  0.11688706216E+03  0.15676232206E+03 -0.10781286541E+03  0.93695016849E+03  0.90995329186E+03 0.  0.
         23    2    4    4    0    0 -0.12730045033E+03 -0.30649532558E+03 -0.20129111682E+03  0.39859201450E+03  0.90623898910E+02 0.  0.
         23    2    4    4    0    0  0.24418751249E+03  0.46325764764E+03  0.93478251412E+02  0.53835815400E+03  0.82801745941E+02 0.  0.
          1    1    3    3  502    0 -0.86906657448E+02 -0.15183836704E+03  0.18382346922E+03  0.25376903800E+03  0.00000000000E+00 0. -1.
         -1    1    3    3    0  502 -0.29980404716E+02 -0.49239550202E+01  0.93367711973E+02  0.98186555287E+02  0.00000000000E+00 0.  1.
         11    1    5    5    0    0 -0.14088082748E+03 -0.29075377041E+03 -0.18619284284E+03  0.37289802532E+03  0.00000000000E+00 0. -1.
        -11    1    5    5    0    0  0.13580377153E+02 -0.15741555166E+02 -0.15098273985E+02  0.25693989180E+02  0.00000000000E+00 0.  1.
          4    1    6    6  503    0  0.88778751041E+02  0.19986470775E+03  0.43830155641E+00  0.21869558785E+03  0.00000000000E+00 0. -1.
         -4    1    6    6    0  503  0.15540876145E+03  0.26339293990E+03  0.93039949855E+02  0.31966256614E+03  0.00000000000E+00 0.  1.
<mgrwt>
<rscale>  0 0.12777281E+04</rscale>
<asrwt>0</asrwt>
<pdfrwt beam="1">  1        2 0.11217570E+00 0.12777281E+04</pdfrwt>
<pdfrwt beam="2">  1       -2 0.86117496E-01 0.12777281E+04</pdfrwt>
<totfact> 0.44670602E+01</totfact>
</mgrwt>
</event>
<event>
12    2  0.3623523E-008  0.3249270E+04  0.7818608E-02  0.8175925E-01
          2   -1    0    0  501    0  0.00000000000E+00  0.00000000000E+00  0.12497122735E+04  0.12497122735E+04  0.00000000000E+00 0. -1.
         -2   -1    0    0    0  501 -0.00000000000E+00 -0.00000000000E+00 -0.21120369883E+04  0.21120369883E+04  0.00000000000E+00 0.  1.
         23    2    1    2    0    0  0.53708696552E+02  0.11918342905E+04  0.54217380986E+03  0.13134872875E+04  0.89122467813E+02 0.  0.
        254    2    1    2    0    0 -0.53708696552E+02 -0.11918342905E+04 -0.14044985247E+04  0.20482619743E+04  0.89409586142E+03 0.  0.
         23    2    4    4    0    0 -0.24874957315E+03 -0.53331770347E+03 -0.11770438785E+04  0.13190551473E+04  0.90388420838E+02 0.  0.
         23    2    4    4    0    0  0.19504087660E+03 -0.65851658704E+03 -0.22745464615E+03  0.72920682701E+03  0.91224676250E+02 0.  0.
          4    1    3    3  502    0  0.61915173116E+02  0.11611311718E+04  0.53873649700E+03  0.12815210103E+04  0.00000000000E+00 0. -1.
         -4    1    3    3    0  502 -0.82064765641E+01  0.30703118733E+02  0.34373128592E+01  0.31966277188E+02  0.00000000000E+00 0.  1.
         11    1    5    5    0    0 -0.94996609424E+02 -0.29550214639E+03 -0.56426064170E+03  0.64399995815E+03  0.00000000000E+00 0.  1.
        -11    1    5    5    0    0 -0.15375296373E+03 -0.23781555709E+03 -0.61278323681E+03  0.67505518913E+03  0.00000000000E+00 0. -1.
          1    1    6    6  503    0  0.17667611359E+03 -0.64669259919E+03 -0.21479927372E+03  0.70396341876E+03  0.00000000000E+00 0. -1.
         -1    1    6    6    0  503  0.18364763005E+02 -0.11823987850E+02 -0.12655372430E+02  0.25243408254E+02  0.00000000000E+00 0.  1.
<mgrwt>
<rscale>  0 0.32492698E+04</rscale>
<asrwt>0</asrwt>
<pdfrwt beam="1">  1        2 0.19226343E+00 0.32492698E+04</pdfrwt>
<pdfrwt beam="2">  1       -2 0.32492876E+00 0.32492698E+04</pdfrwt>
<totfact> 0.33113870E-01</totfact>
</mgrwt>
</event>
<event>
12    2  0.3623523E-008  0.1458965E+04  0.7818608E-02  0.8912209E-01
         -1   -1    0    0    0  501 -0.00000000000E+00  0.00000000000E+00  0.14534534340E+03  0.14534534340E+03  0.00000000000E+00 0.  1.
          1   -1    0    0  501    0  0.00000000000E+00 -0.00000000000E+00 -0.36612431880E+04  0.36612431880E+04  0.00000000000E+00 0. -1.
         23    2    1    2    0    0 -0.13978114018E+03 -0.22155813220E+03 -0.21419782318E+04  0.21598967692E+04  0.91959420266E+02 0.  0.
        254    2    1    2    0    0  0.13978114018E+03  0.22155813220E+03 -0.13739196129E+04  0.16466917623E+04  0.86908681052E+03 0.  0.
         23    2    4    4    0    0  0.82936912727E+02  0.26479464163E+03 -0.26189467859E+02  0.29389592853E+03  0.93242666466E+02 0.  0.
         23    2    4    4    0    0  0.56844227453E+02 -0.43236509436E+02 -0.13477301450E+04  0.13527958337E+04  0.92624845944E+02 0.  0.
          3    1    3    3  502    0 -0.97508227963E+02 -0.18609735051E+03 -0.19064610710E+04  0.19180025792E+04  0.00000000000E+00 0. -1.
         -3    1    3    3    0  502 -0.42272912217E+02 -0.35460781686E+02 -0.23551716074E+03  0.24189418999E+03  0.00000000000E+00 0.  1.
         11    1    5    5    0    0 -0.14385194491E+02  0.42363654894E+02 -0.24692080890E+02  0.51100997399E+02  0.00000000000E+00 0. -1.
        -11    1    5    5    0    0  0.97322107218E+02  0.22243098674E+03 -0.14973869694E+01  0.24279493113E+03  0.00000000000E+00 0.  1.
          2    1    6    6  503    0 -0.23667728945E+02 -0.21562681375E+02 -0.28280449855E+03  0.28461112947E+03  0.00000000000E+00 0. -1.
         -2    1    6    6    0  503  0.80511956398E+02 -0.21673828061E+02 -0.10649256465E+04  0.10681847043E+04  0.00000000000E+00 0.  1.
<mgrwt>
<rscale>  0 0.14589649E+04</rscale>
<asrwt>0</asrwt>
<pdfrwt beam="1">  1        1 0.56326820E+00 0.14589649E+04</pdfrwt>
<pdfrwt beam="2">  1       -1 0.22360822E-01 0.14589649E+04</pdfrwt>
<totfact> 0.30990132E+00</totfact>
</mgrwt>
</event>
<event>
12    2  0.3623523E-008  0.1881480E+04  0.7818608E-02  0.8664130E-01
          1   -1    0    0  501    0  0.00000000000E+00  0.00000000000E+00  0.26936197874E+04  0.26936197874E+04  0.00000000000E+00 0. -1.
         -1   -1    0    0    0  501 -0.00000000000E+00 -0.00000000000E+00 -0.32855108918E+03  0.32855108918E+03  0.00000000000E+00 0.  1.
         23    2    1    2    0    0  0.44804492699E+03  0.92687896153E+02  0.15237833739E+04  0.15934363387E+04  0.88251301651E+02 0.  0.
        254    2    1    2    0    0 -0.44804492699E+03 -0.92687896153E+02  0.84128532433E+03  0.14287345379E+04  0.10602764168E+04 0.  0.
         23    2    4    4    0    0 -0.13219375876E+03 -0.46801348991E+03  0.78437819821E+03  0.92737491924E+03  0.90902510514E+02 0.  0.
         23    2    4    4    0    0 -0.31585116823E+03  0.37532559375E+03  0.56907126125E+02  0.50135961864E+03  0.86555094594E+02 0.  0.
          2    1    3    3  502    0  0.43661761669E+03  0.75998545830E+02  0.14146960268E+04  0.14824896527E+04  0.00000000000E+00 0. -1.
         -2    1    3    3    0  502  0.11427310306E+02  0.16689350324E+02  0.10908734710E+03  0.11094668599E+03  0.00000000000E+00 0.  1.
         11    1    5    5    0    0 -0.51454597551E+02 -0.32027391542E+03  0.47579476422E+03  0.57585034008E+03  0.00000000000E+00 0. -1.
        -11    1    5    5    0    0 -0.80739161213E+02 -0.14773957449E+03  0.30858343399E+03  0.35152457916E+03  0.00000000000E+00 0.  1.
          3    1    6    6  503    0 -0.30568628495E+03  0.34102964741E+03  0.34779897460E+02  0.45929834148E+03  0.00000000000E+00 0. -1.
         -3    1    6    6    0  503 -0.10164883274E+02  0.34295946347E+02  0.22127228665E+02  0.42061277158E+02  0.00000000000E+00 0.  1.
<mgrwt>
<rscale>  0 0.18814800E+04</rscale>
<asrwt>0</asrwt>
<pdfrwt beam="1">  1        1 0.41440303E+00 0.18814800E+04</pdfrwt>
<pdfrwt beam="2">  1       -1 0.50546323E-01 0.18814800E+04</pdfrwt>
<totfact> 0.36582507E+00</totfact>
</mgrwt>
</event>
<event>
12    2  0.3623523E-008  0.2194928E+04  0.7818608E-02  0.8520542E-01
         -1   -1    0    0    0  501 -0.00000000000E+00  0.00000000000E+00  0.83243632998E+03  0.83243632998E+03  0.00000000000E+00 0.  1.
          1   -1    0    0  501    0  0.00000000000E+00 -0.00000000000E+00 -0.14468702278E+04  0.14468702278E+04  0.00000000000E+00 0. -1.
         23    2    1    2    0    0 -0.22522085765E+03  0.90190172899E+02 -0.11668250197E+04  0.11953667272E+04  0.92532609696E+02 0.  0.
        254    2    1    2    0    0  0.22522085765E+03 -0.90190172899E+02  0.55239112192E+03  0.10839398305E+04  0.90051701964E+03 0.  0.
         23    2    4    4    0    0  0.25278716949E+02 -0.41038394306E+03  0.15662813810E+02  0.42161531883E+03  0.91979123061E+02 0.  0.
         23    2    4    4    0    0  0.19994214070E+03  0.32019377016E+03  0.53672830811E+03  0.66232451172E+03  0.89975396728E+02 0.  0.
          3    1    3    3  502    0 -0.21101989339E+03  0.49954780800E+02 -0.98888870998E+03  0.10123861695E+04  0.00000000000E+00 0. -1.
         -3    1    3    3    0  502 -0.14200964264E+02  0.40235392099E+02 -0.17793630977E+03  0.18298055770E+03  0.00000000000E+00 0.  1.
         11    1    5    5    0    0  0.49528339838E+01 -0.61639708354E+02 -0.31005077938E+02  0.69175856109E+02  0.00000000000E+00 0. -1.
        -11    1    5    5    0    0  0.20325882966E+02 -0.34874423471E+03  0.46667891749E+02  0.35243946272E+03  0.00000000000E+00 0.  1.
          1    1    6    6  503    0  0.35337116926E+01  0.62047727229E+02  0.10954714683E+03  0.12594834239E+03  0.00000000000E+00 0. -1.
         -1    1    6    6    0  503  0.19640842901E+03  0.25814604293E+03  0.42718116128E+03  0.53637616933E+03  0.00000000000E+00 0.  1.
<mgrwt>
<rscale>  0 0.21949281E+04</rscale>
<asrwt>0</asrwt>
<pdfrwt beam="1">  1        1 0.22259542E+00 0.21949281E+04</pdfrwt>
<pdfrwt beam="2">  1       -1 0.12806713E+00 0.21949281E+04</pdfrwt>
<totfact> 0.34220184E+00</totfact>
</mgrwt>
</event>
<event>
12    2  0.3623523E-008  0.1747866E+04  0.7818608E-02  0.8734526E-01
         -1   -1    0    0    0  501 -0.00000000000E+00  0.00000000000E+00  0.24157645749E+03  0.24157645749E+03  0.00000000000E+00 0.  1.
          1   -1    0    0  501    0  0.00000000000E+00 -0.00000000000E+00 -0.31615622995E+04  0.31615622995E+04  0.00000000000E+00 0. -1.
         23    2    1    2    0    0  0.41782004628E+03  0.96315453335E+02 -0.15417861293E+03  0.46478810731E+03  0.91687962097E+02 0.  0.
        254    2    1    2    0    0 -0.41782004628E+03 -0.96315453335E+02 -0.27658072291E+04  0.29383506497E+04  0.89463101578E+03 0.  0.
         23    2    4    4    0    0 -0.27003328519E+03  0.12440144771E+03 -0.25872368163E+04  0.26057970390E+04  0.89387747153E+02 0.  0.
         23    2    4    4    0    0 -0.14778676109E+03 -0.22071690104E+03 -0.17857041278E+03  0.33255361071E+03  0.90264248280E+02 0.  0.
          4    1    3    3  502    0  0.16993814358E+03  0.78187907941E+02 -0.92611253053E+02  0.20873228256E+03  0.00000000000E+00 0. -1.
         -4    1    3    3    0  502  0.24788190270E+03  0.18127545394E+02 -0.61567359873E+02  0.25605582475E+03  0.00000000000E+00 0.  1.
         11    1    5    5    0    0 -0.43044569050E+02  0.88153182613E+01 -0.70986271357E+03  0.71122121515E+03  0.00000000000E+00 0. -1.
        -11    1    5    5    0    0 -0.22698871614E+03  0.11558612945E+03 -0.18773741028E+04  0.18945758238E+04  0.00000000000E+00 0.  1.
          3    1    6    6  503    0 -0.13700758322E+01 -0.61959421856E+02 -0.59614651580E+02  0.85992754041E+02  0.00000000000E+00 0. -1.
         -3    1    6    6    0  503 -0.14641668526E+03 -0.15875747919E+03 -0.11895576120E+03  0.24656085667E+03  0.00000000000E+00 0.  1.
<mgrwt>
<rscale>  0 0.17478662E+04</rscale>
<asrwt>0</asrwt>
<pdfrwt beam="1">  1        1 0.48639418E+00 0.17478662E+04</pdfrwt>
<pdfrwt beam="2">  1       -1 0.37165610E-01 0.17478662E+04</pdfrwt>
<totfact> 0.30115703E+00</totfact>
</mgrwt>
</event>
<event>
12    2  0.3623523E-008  0.1404612E+04  0.7818608E-02  0.8950487E-01
         -1   -1    0    0    0  501 -0.00000000000E+00  0.00000000000E+00  0.68894084374E+03  0.68894084374E+03  0.00000000000E+00 0.  1.
          1   -1    0    0  501    0  0.00000000000E+00 -0.00000000000E+00 -0.71593078987E+03  0.71593078987E+03  0.00000000000E+00 0. -1.
         23    2    1    2    0    0  0.16162680350E+03  0.21988494544E+03 -0.29649534043E+03  0.42238501401E+03  0.12659778957E+03 0.  0.
        254    2    1    2    0    0 -0.16162680350E+03 -0.21988494544E+03  0.26950539430E+03  0.98248661960E+03  0.90452981559E+03 0.  0.
         23    2    4    4    0    0  0.21597066268E+03  0.23904167923E+03  0.33702985281E+02  0.33632386307E+03  0.90518495912E+02 0.  0.
         23    2    4    4    0    0 -0.37759746618E+03 -0.45892662467E+03  0.23580240902E+03  0.64616275654E+03  0.93434675236E+02 0.  0.
          3    1    3    3  502    0  0.22869312864E+02  0.17366413296E+02 -0.11109917718E+03  0.11475027213E+03  0.00000000000E+00 0. -1.
         -3    1    3    3    0  502  0.13875749064E+03  0.20251853215E+03 -0.18539616325E+03  0.30763474189E+03  0.00000000000E+00 0.  1.
         11    1    5    5    0    0  0.10914299224E+03  0.16231618919E+03 -0.14758575322E+02  0.19615441257E+03  0.00000000000E+00 0.  1.
        -11    1    5    5    0    0  0.10682767045E+03  0.76725490043E+02  0.48461560603E+02  0.14016945049E+03  0.00000000000E+00 0. -1.
          3    1    6    6  503    0 -0.31420813235E+03 -0.31944400359E+03  0.16654917391E+03  0.47802703814E+03  0.00000000000E+00 0. -1.
         -3    1    6    6    0  503 -0.63389333833E+02 -0.13948262108E+03  0.69253235109E+02  0.16813571839E+03  0.00000000000E+00 0.  1.
<mgrwt>
<rscale>  0 0.14046123E+04</rscale>
<asrwt>0</asrwt>
<pdfrwt beam="1">  1        1 0.11014320E+00 0.14046123E+04</pdfrwt>
<pdfrwt beam="2">  1       -1 0.10599090E+00 0.14046123E+04</pdfrwt>
<totfact> 0.21378010E+01</totfact>
</mgrwt>
</event>
<event>
12    2  0.3623523E-008  0.1918678E+04  0.7818608E-02  0.8645614E-01
          1   -1    0    0  501    0  0.00000000000E+00  0.00000000000E+00  0.11588146900E+04  0.11588146900E+04  0.00000000000E+00 0. -1.
         -1   -1    0    0    0  501 -0.00000000000E+00 -0.00000000000E+00 -0.79420081115E+03  0.79420081115E+03  0.00000000000E+00 0.  1.
         23    2    1    2    0    0  0.46588972682E+03  0.18401246218E+03 -0.42143642735E+03  0.66072889351E+03  0.89667076647E+02 0.  0.
        254    2    1    2    0    0 -0.46588972682E+03 -0.18401246218E+03  0.78605030621E+03  0.12922866076E+04  0.89510656829E+03 0.  0.
         23    2    4    4    0    0  0.24894250897E+03  0.39723303031E+02  0.25858226427E+03  0.37241333019E+03  0.90975752435E+02 0.  0.
         23    2    4    4    0    0 -0.71483223579E+03 -0.22373576521E+03  0.52746804195E+03  0.91987327745E+03  0.83075226958E+02 0.  0.
          4    1    3    3  502    0  0.80314702830E+01 -0.73228376834E+01 -0.21498268230E+01  0.11079269922E+02  0.00000000000E+00 0. -1.
         -4    1    3    3    0  502  0.45785825653E+03  0.19133529986E+03 -0.41928660053E+03  0.64964962359E+03  0.00000000000E+00 0.  1.
         11    1    5    5    0    0  0.24332390885E+03  0.17089966426E+02  0.24337865290E+03  0.34457475279E+03  0.00000000000E+00 0. -1.
        -11    1    5    5    0    0  0.56186001251E+01  0.22633336605E+02  0.15203611367E+02  0.27838577403E+02  0.00000000000E+00 0.  1.
          1    1    6    6  503    0 -0.55204037616E+03 -0.17049676600E+03  0.36251557707E+03  0.68208156972E+03  0.00000000000E+00 0. -1.
         -1    1    6    6    0  503 -0.16279185963E+03 -0.53238999211E+02  0.16495246488E+03  0.23779170773E+03  0.00000000000E+00 0.  1.
<mgrwt>
<rscale>  0 0.19186783E+04</rscale>
<asrwt>0</asrwt>
<pdfrwt beam="1">  1        1 0.17827918E+00 0.19186783E+04</pdfrwt>
<pdfrwt beam="2">  1       -1 0.12218474E+00 0.19186783E+04</pdfrwt>
<totfact> 0.63392411E+00</totfact>
</mgrwt>
</event>
<event>
12    2  0.3623523E-008  0.1365738E+04  0.7818608E-02  0.8978999E-01
          1   -1    0    0  501    0  0.00000000000E+00  0.00000000000E+00  0.93472334682E+03  0.93472334682E+03  0.00000000000E+00 0. -1.
         -1   -1    0    0    0  501 -0.00000000000E+00 -0.00000000000E+00 -0.49887519710E+03  0.49887519710E+03  0.00000000000E+00 0.  1.
         23    2    1    2    0    0  0.20775419671E+03  0.21466167482E+03 -0.79736533959E+02  0.32279461557E+03  0.92720052331E+02 0.  0.
        254    2    1    2    0    0 -0.20775419671E+03 -0.21466167482E+03  0.51558468368E+03  0.11108039283E+04  0.93745205759E+03 0.  0.
         23    2    4    4    0    0  0.18822723034E+03 -0.40606814532E+03  0.41447638293E+02  0.45757513120E+03  0.85651999875E+02 0.  0.
         23    2    4    4    0    0 -0.39598142705E+03  0.19140647050E+03  0.47413704539E+03  0.65322879715E+03  0.92001065740E+02 0.  0.
          3    1    3    3  502    0  0.12006733863E+03  0.10297938462E+03  0.34710956193E+01  0.15821810253E+03  0.00000000000E+00 0. -1.
         -3    1    3    3    0  502  0.87686858077E+02  0.11168229020E+03 -0.83207629578E+02  0.16457651304E+03  0.00000000000E+00 0.  1.
         11    1    5    5    0    0  0.18985341872E+03 -0.34758615981E+03  0.25203412800E+02  0.39685724273E+03  0.00000000000E+00 0. -1.
        -11    1    5    5    0    0 -0.16261883769E+01 -0.58481985508E+02  0.16244225494E+02  0.60717888464E+02  0.00000000000E+00 0.  1.
          3    1    6    6  503    0 -0.33581220246E+03  0.19627705384E+03  0.41124830652E+03  0.56605625763E+03  0.00000000000E+00 0. -1.
         -3    1    6    6    0  503 -0.60169224588E+02 -0.48705833425E+01  0.62888738863E+02  0.87172539514E+02  0.00000000000E+00 0.  1.
<mgrwt>
<rscale>  0 0.13657383E+04</rscale>
<asrwt>0</asrwt>
<pdfrwt beam="1">  1        1 0.14380359E+00 0.13657383E+04</pdfrwt>
<pdfrwt beam="2">  1       -1 0.76750031E-01 0.13657383E+04</pdfrwt>
<totfact> 0.28399984E+01</totfact>
</mgrwt>
</event>
<event>
12    2  0.3623523E-008  0.1252023E+04  0.7818608E-02  0.9068501E-01
          2   -1    0    0  501    0  0.00000000000E+00  0.00000000000E+00  0.10192676543E+04  0.10192676543E+04  0.00000000000E+00 0.  1.
         -2   -1    0    0    0  501 -0.00000000000E+00 -0.00000000000E+00 -0.38448255088E+03  0.38448255088E+03  0.00000000000E+00 0. -1.
         23    2    1    2    0    0  0.95846621124E+02 -0.29304163992E+03  0.31073675606E+03  0.44689214349E+03  0.89973767479E+02 0.  0.
        254    2    1    2    0    0 -0.95846621124E+02  0.29304163992E+03  0.32404834741E+03  0.95685806173E+03  0.84587826626E+03 0.  0.
         23    2    4    4    0    0  0.14107856109E+03  0.34576392209E+03  0.50939870680E+03  0.63831267257E+03  0.92196395030E+02 0.  0.
         23    2    4    4    0    0 -0.23692518221E+03 -0.52722282172E+02 -0.18535035939E+03  0.31854538916E+03  0.90571674526E+02 0.  0.
          2    1    3    3  502    0  0.60088335442E+02 -0.78343606612E+02  0.62988588654E+02  0.11711486265E+03  0.00000000000E+00 0. -1.
         -2    1    3    3    0  502  0.35758285682E+02 -0.21469803331E+03  0.24774816741E+03  0.32977728084E+03  0.00000000000E+00 0.  1.
         11    1    5    5    0    0  0.13288646999E+03  0.25396319549E+03  0.42937148834E+03  0.51625187028E+03  0.00000000000E+00 0.  1.
        -11    1    5    5    0    0  0.81920910943E+01  0.91800726601E+02  0.80027218462E+02  0.12206080229E+03  0.00000000000E+00 0. -1.
          3    1    6    6  503    0  0.39291130589E+01 -0.10827921386E+02  0.37951067685E+00  0.11525009299E+02  0.00000000000E+00 0. -1.
         -3    1    6    6    0  503 -0.24085429527E+03 -0.41894360786E+02 -0.18572987007E+03  0.30702037986E+03  0.00000000000E+00 0.  1.
<mgrwt>
<rscale>  0 0.12520234E+04</rscale>
<asrwt>0</asrwt>
<pdfrwt beam="1">  1        2 0.15681041E+00 0.12520234E+04</pdfrwt>
<pdfrwt beam="2">  1       -2 0.59151162E-01 0.12520234E+04</pdfrwt>
<totfact> 0.64265785E+01</totfact>
</mgrwt>
</event>
<event>
12    2  0.3623523E-008  0.1906119E+04  0.7818608E-02  0.8651816E-01
          1   -1    0    0  501    0  0.00000000000E+00  0.00000000000E+00  0.68206748441E+03  0.68206748441E+03  0.00000000000E+00 0. -1.
         -1   -1    0    0    0  501 -0.00000000000E+00 -0.00000000000E+00 -0.13317198220E+04  0.13317198220E+04  0.00000000000E+00 0.  1.
         23    2    1    2    0    0 -0.22062128612E+03 -0.16384218218E+02 -0.99064058016E+03  0.10191052362E+04  0.90909454583E+02 0.  0.
        254    2    1    2    0    0  0.22062128612E+03  0.16384218218E+02  0.34098824260E+03  0.99468207017E+03  0.90784208132E+03 0.  0.
         23    2    4    4    0    0 -0.31427142712E+03 -0.13549710743E+03  0.22428887250E+03  0.41928117370E+03  0.91461512468E+02 0.  0.
         23    2    4    4    0    0  0.53489271324E+03  0.15188132564E+03  0.11669937011E+03  0.57540089647E+03  0.91045576032E+02 0.  0.
          4    1    3    3  502    0 -0.44132284128E+02  0.16938588950E+02 -0.10099210443E+03  0.11150775514E+03  0.00000000000E+00 0. -1.
         -4    1    3    3    0  502 -0.17648900199E+03 -0.33322807168E+02 -0.88964847573E+03  0.90759748108E+03  0.00000000000E+00 0.  1.
         11    1    5    5    0    0 -0.19990660791E+03 -0.12643699540E+03  0.12486307744E+03  0.26746916420E+03  0.00000000000E+00 0. -1.
        -11    1    5    5    0    0 -0.11436481921E+03 -0.90601120278E+01  0.99425795057E+02  0.15181200949E+03  0.00000000000E+00 0.  1.
          1    1    6    6  503    0  0.44144792914E+03  0.14787756612E+03  0.12338887484E+03  0.48163145987E+03  0.00000000000E+00 0. -1.
         -1    1    6    6    0  503  0.93444784106E+02  0.40037595236E+01 -0.66895047318E+01  0.93769436601E+02  0.00000000000E+00 0.  1.
<mgrwt>
<rscale>  0 0.19061194E+04</rscale>
<asrwt>0</asrwt>
<pdfrwt beam="1">  1        1 0.10493346E+00 0.19061194E+04</pdfrwt>
<pdfrwt beam="2">  1       -1 0.20487997E+00 0.19061194E+04</pdfrwt>
<totfact> 0.36912132E+00</totfact>
</mgrwt>
</event>
<event>
12    2  0.3623523E-008  0.1905979E+04  0.7818608E-02  0.8651886E-01
         -2   -1    0    0    0  501 -0.00000000000E+00  0.00000000000E+00  0.39913852695E+03  0.39913852695E+03  0.00000000000E+00 0.  1.
          2   -1    0    0  501    0  0.00000000000E+00 -0.00000000000E+00 -0.22753736864E+04  0.22753736864E+04  0.00000000000E+00 0. -1.
         23    2    1    2    0    0  0.18243598306E+03  0.12632380543E+03  0.25695034807E+03  0.35153462210E+03  0.91173008189E+02 0.  0.
        254    2    1    2    0    0 -0.18243598306E+03 -0.12632380543E+03 -0.21331855075E+04  0.23229775912E+04  0.89247066519E+03 0.  0.
         23    2    4    4    0    0 -0.32437972856E+03  0.26589883708E+03 -0.65416993368E+03  0.78353721593E+03  0.10033876000E+03 0.  0.
         23    2    4    4    0    0  0.14194374550E+03 -0.39222264252E+03 -0.14790155738E+04  0.15394403753E+04  0.91667733196E+02 0.  0.
          3    1    3    3  502    0  0.21178133703E+02 -0.45129584028E+01  0.64430726664E+00  0.21663223965E+02  0.00000000000E+00 0. -1.
         -3    1    3    3    0  502  0.16125784936E+03  0.13083676384E+03  0.25630604081E+03  0.32987139813E+03  0.00000000000E+00 0.  1.
         11    1    5    5    0    0 -0.48248325087E+02  0.39341040142E+01 -0.10183967624E+03  0.11275946836E+03  0.00000000000E+00 0.  1.
        -11    1    5    5    0    0 -0.27613140348E+03  0.26196473307E+03 -0.55233025744E+03  0.67077774757E+03  0.00000000000E+00 0. -1.
          1    1    6    6  503    0  0.96237292795E+02 -0.34017633016E+03 -0.13078913586E+04  0.13548289036E+04  0.00000000000E+00 0. -1.
         -1    1    6    6    0  503  0.45706452705E+02 -0.52046312352E+02 -0.17112421523E+03  0.18461147170E+03  0.00000000000E+00 0.  1.
<mgrwt>
<rscale>  0 0.19059793E+04</rscale>
<asrwt>0</asrwt>
<pdfrwt beam="1">  1        2 0.35005749E+00 0.19059793E+04</pdfrwt>
<pdfrwt beam="2">  1       -2 0.61405928E-01 0.19059793E+04</pdfrwt>
<totfact> 0.10809186E+01</totfact>
</mgrwt>
</event>
<event>
12    2  0.3623523E-008  0.1342072E+04  0.7818608E-02  0.8996851E-01
         -2   -1    0    0    0  501 -0.00000000000E+00  0.00000000000E+00  0.12664350534E+03  0.12664350534E+03  0.00000000000E+00 0.  1.
          2   -1    0    0  501    0  0.00000000000E+00 -0.00000000000E+00 -0.35555661867E+04  0.35555661867E+04  0.00000000000E+00 0. -1.
         23    2    1    2    0    0  0.27691354758E+03 -0.91114680626E+02 -0.16476067342E+04  0.16759346552E+04  0.95739332604E+02 0.  0.
        254    2    1    2    0    0 -0.27691354758E+03  0.91114680626E+02 -0.17813159471E+04  0.20062750369E+04  0.87582533777E+03 0.  0.
         23    2    4    4    0    0  0.10995232490E+03 -0.11266859727E+03 -0.14208024202E+04  0.14323946612E+04  0.91056145722E+02 0.  0.
         23    2    4    4    0    0 -0.38686587249E+03  0.20378327790E+03 -0.36051352695E+03  0.57388037569E+03  0.90420433780E+02 0.  0.
          1    1    3    3  502    0  0.12076502530E+03 -0.71681117384E+02 -0.57804171121E+03  0.59485678430E+03  0.00000000000E+00 0. -1.
         -1    1    3    3    0  502  0.15614852229E+03 -0.19433563242E+02 -0.10695650230E+04  0.10810778709E+04  0.00000000000E+00 0.  1.
         11    1    5    5    0    0  0.10939742043E+02 -0.72545291364E+02 -0.48579063554E+03  0.49129933730E+03  0.00000000000E+00 0.  1.
        -11    1    5    5    0    0  0.99012582859E+02 -0.40123305911E+02 -0.93501178464E+03  0.94109532390E+03  0.00000000000E+00 0. -1.
          4    1    6    6  503    0 -0.27640845947E+02 -0.87878121095E+01 -0.26416782716E+02  0.39231217358E+02  0.00000000000E+00 0.  1.
         -4    1    6    6    0  503 -0.35922502654E+03  0.21257109001E+03 -0.33409674424E+03  0.53464915834E+03  0.00000000000E+00 0. -1.
<mgrwt>
<rscale>  0 0.13420721E+04</rscale>
<asrwt>0</asrwt>
<pdfrwt beam="1">  1        2 0.54701006E+00 0.13420721E+04</pdfrwt>
<pdfrwt beam="2">  1       -2 0.19483620E-01 0.13420721E+04</pdfrwt>
<totfact> 0.16581857E+01</totfact>
</mgrwt>
</event>
<event>
12    2  0.3623523E-008  0.1280118E+04  0.7818608E-02  0.9045482E-01
         -2   -1    0    0    0  501 -0.00000000000E+00  0.00000000000E+00  0.35634373708E+03  0.35634373708E+03  0.00000000000E+00 0.  1.
          2   -1    0    0  501    0  0.00000000000E+00 -0.00000000000E+00 -0.11496637697E+04  0.11496637697E+04  0.00000000000E+00 0. -1.
         23    2    1    2    0    0  0.29921450726E+03  0.86238010388E+02 -0.24725067121E+03  0.40850234539E+03  0.93674735032E+02 0.  0.
        254    2    1    2    0    0 -0.29921450726E+03 -0.86238010388E+02 -0.54606936144E+03  0.10975051614E+04  0.89964410522E+03 0.  0.
         23    2    4    4    0    0 -0.82125850069E+02 -0.47028436094E+03 -0.18389420238E+03  0.51955810212E+03  0.90617373688E+02 0.  0.
         23    2    4    4    0    0 -0.21708865719E+03  0.38404635055E+03 -0.36217515906E+03  0.57794705930E+03  0.90735180964E+02 0.  0.
          2    1    3    3  502    0  0.10721580915E+02  0.26408478465E+02 -0.36229041599E+02  0.46096675448E+02  0.00000000000E+00 0. -1.
         -2    1    3    3    0  502  0.28849292635E+03  0.59829531923E+02 -0.21102162961E+03  0.36240566994E+03  0.00000000000E+00 0.  1.
         11    1    5    5    0    0 -0.85000132000E+02 -0.45558382493E+03 -0.19300230222E+03  0.50202742220E+03  0.00000000000E+00 0. -1.
        -11    1    5    5    0    0  0.28742819306E+01 -0.14700536008E+02  0.91080998447E+01  0.17530679916E+02  0.00000000000E+00 0.  1.
          3    1    6    6  503    0 -0.20797396119E+03  0.38122669758E+03 -0.36574082719E+03  0.56776167196E+03  0.00000000000E+00 0. -1.
         -3    1    6    6    0  503 -0.91146960017E+01  0.28196529756E+01  0.35656681272E+01  0.10185387342E+02  0.00000000000E+00 0.  1.
<mgrwt>
<rscale>  0 0.12801179E+04</rscale>
<asrwt>0</asrwt>
<pdfrwt beam="1">  1        2 0.17687135E+00 0.12801179E+04</pdfrwt>
<pdfrwt beam="2">  1       -2 0.54822112E-01 0.12801179E+04</pdfrwt>
<totfact> 0.62394685E+01</totfact>
</mgrwt>
</event>
<event>
12    2  0.3623523E-008  0.1679834E+04  0.7818608E-02  0.8772950E-01
         -2   -1    0    0    0  501 -0.00000000000E+00  0.00000000000E+00  0.33938826272E+03  0.33938826272E+03  0.00000000000E+00 0.  1.
          2   -1    0    0  501    0  0.00000000000E+00 -0.00000000000E+00 -0.20786231802E+04  0.20786231802E+04  0.00000000000E+00 0. -1.
         23    2    1    2    0    0  0.53203747424E+03  0.25682759406E+03 -0.61211629746E+03  0.85663534538E+03  0.10056573102E+03 0.  0.
        254    2    1    2    0    0 -0.53203747424E+03 -0.25682759406E+03 -0.11271186201E+04  0.15613760976E+04  0.90469588667E+03 0.  0.
         23    2    4    4    0    0  0.17809550861E+03 -0.22600876399E+03 -0.12042481513E+03  0.32522798702E+03  0.92049637989E+02 0.  0.
         23    2    4    4    0    0 -0.71013298285E+03 -0.30818830071E+02 -0.10066938049E+04  0.12361481106E+04  0.96907588783E+02 0.  0.
          1    1    3    3  502    0  0.11675501911E+03  0.26067213211E+02 -0.16837241784E+03  0.20654419668E+03  0.00000000000E+00 0. -1.
         -1    1    3    3    0  502  0.41528245513E+03  0.23076038085E+03 -0.44374387962E+03  0.65009114869E+03  0.00000000000E+00 0.  1.
         11    1    5    5    0    0  0.75698692493E+02 -0.88844947063E+02 -0.13748214593E+01  0.11672877451E+03  0.00000000000E+00 0. -1.
        -11    1    5    5    0    0  0.10239681612E+03 -0.13716381692E+03 -0.11904999367E+03  0.20849921251E+03  0.00000000000E+00 0.  1.
          1    1    6    6  503    0 -0.21219879270E+03 -0.44239135048E+01 -0.38032828636E+03  0.43554276947E+03  0.00000000000E+00 0. -1.
         -1    1    6    6    0  503 -0.49793419016E+03 -0.26394916566E+02 -0.62636551857E+03  0.80060534110E+03  0.00000000000E+00 0.  1.
<mgrwt>
<rscale>  0 0.16798337E+04</rscale>
<asrwt>0</asrwt>
<pdfrwt beam="1">  1        2 0.31978819E+00 0.16798337E+04</pdfrwt>
<pdfrwt beam="2">  1       -2 0.52213578E-01 0.16798337E+04</pdfrwt>
<totfact> 0.19935629E+01</totfact>
</mgrwt>
</event>
<event>
12    2  0.3623523E-008  0.1472028E+04  0.7818608E-02  0.8903270E-01
         -2   -1    0    0    0  501 -0.00000000000E+00  0.00000000000E+00  0.80056581308E+03  0.80056581308E+03  0.00000000000E+00 0.  1.
          2   -1    0    0  501    0  0.00000000000E+00 -0.00000000000E+00 -0.67666677571E+03  0.67666677571E+03  0.00000000000E+00 0. -1.
         23    2    1    2    0    0 -0.51877520431E+02  0.42059035953E+03 -0.12549181224E+03  0.45073109359E+03  0.88446572171E+02 0.  0.
        254    2    1    2    0    0  0.51877520431E+02 -0.42059035953E+03  0.24939084961E+03  0.10265014952E+04  0.90106714296E+03 0.  0.
         23    2    4    4    0    0 -0.13728657797E+03 -0.20119212767E+03 -0.30001154134E+03  0.39684946383E+03  0.90314424504E+02 0.  0.
         23    2    4    4    0    0  0.18916409840E+03 -0.21939823186E+03  0.54940239095E+03  0.62965203137E+03  0.10344106129E+03 0.  0.
          1    1    3    3  502    0 -0.53100235346E+02  0.42394301972E+03 -0.11932380095E+03  0.44360510415E+03  0.00000000000E+00 0. -1.
         -1    1    3    3    0  502  0.12227149149E+01 -0.33526601839E+01 -0.61680112926E+01  0.71259894315E+01  0.00000000000E+00 0.  1.
         11    1    5    5    0    0 -0.14961221089E+03 -0.18589950692E+03 -0.26424553502E+03  0.35604514194E+03  0.00000000000E+00 0. -1.
        -11    1    5    5    0    0  0.12325632922E+02 -0.15292620753E+02 -0.35766006325E+02  0.40804321890E+02  0.00000000000E+00 0.  1.
          3    1    6    6  503    0  0.15600811145E+03 -0.11235746388E+03  0.38986658189E+03  0.43469377980E+03  0.00000000000E+00 0. -1.
         -3    1    6    6    0  503  0.33155986954E+02 -0.10704076798E+03  0.15953580906E+03  0.19495825157E+03  0.00000000000E+00 0.  1.
<mgrwt>
<rscale>  0 0.14720276E+04</rscale>
<asrwt>0</asrwt>
<pdfrwt beam="1">  1        2 0.10410258E+00 0.14720276E+04</pdfrwt>
<pdfrwt beam="2">  1       -2 0.12316397E+00 0.14720276E+04</pdfrwt>
<totfact> 0.20598729E+01</totfact>
</mgrwt>
</event>
<event>
12    2  0.3623523E-008  0.2874873E+04  0.7818608E-02  0.8280393E-01
          2   -1    0    0  501    0  0.00000000000E+00  0.00000000000E+00  0.17561090233E+04  0.17561090233E+04  0.00000000000E+00 0. -1.
         -2   -1    0    0    0  501 -0.00000000000E+00 -0.00000000000E+00 -0.11765921180E+04  0.11765921180E+04  0.00000000000E+00 0.  1.
         23    2    1    2    0    0 -0.12844734681E+04  0.15804133015E+03  0.39708418796E+03  0.13567750086E+04  0.91177954311E+02 0.  0.
        254    2    1    2    0    0  0.12844734681E+04 -0.15804133015E+03  0.18243271739E+03  0.15759261327E+04  0.88057499796E+03 0.  0.
         23    2    4    4    0    0  0.11655138758E+04 -0.24584065412E+02  0.43946938460E+03  0.12492949653E+04  0.92615329849E+02 0.  0.
         23    2    4    4    0    0  0.11895959233E+03 -0.13345726473E+03 -0.25703666722E+03  0.32663116744E+03  0.93047542309E+02 0.  0.
          4    1    3    3  502    0 -0.27426674613E+03  0.68335821860E+02  0.10271160024E+03  0.30073527462E+03  0.00000000000E+00 0. -1.
         -4    1    3    3    0  502 -0.10102067220E+04  0.89705508286E+02  0.29437258772E+03  0.10560397340E+04  0.00000000000E+00 0.  1.
         11    1    5    5    0    0  0.85107956810E+03  0.18242037967E+02  0.34097084557E+03  0.91702253010E+03  0.00000000000E+00 0.  1.
        -11    1    5    5    0    0  0.31443430767E+03 -0.42826103379E+02  0.98498539033E+02  0.33227243515E+03  0.00000000000E+00 0. -1.
          1    1    6    6  503    0 -0.99951192850E+01 -0.37091835889E+02 -0.70061219996E+02  0.79901697394E+02  0.00000000000E+00 0. -1.
         -1    1    6    6    0  503  0.12895471162E+03 -0.96365428844E+02 -0.18697544722E+03  0.24672947004E+03  0.00000000000E+00 0.  1.
<mgrwt>
<rscale>  0 0.28748732E+04</rscale>
<asrwt>0</asrwt>
<pdfrwt beam="1">  1        2 0.27017062E+00 0.28748732E+04</pdfrwt>
<pdfrwt beam="2">  1       -2 0.18101417E+00 0.28748732E+04</pdfrwt>
<totfact> 0.14085948E+00</totfact>
</mgrwt>
</event>
<event>
12    2  0.3623523E-008  0.1257769E+04  0.7818608E-02  0.9063742E-01
          2   -1    0    0  501    0  0.00000000000E+00  0.00000000000E+00  0.93024775672E+03  0.93024775672E+03  0.00000000000E+00 0. -1.
         -2   -1    0    0    0  501 -0.00000000000E+00 -0.00000000000E+00 -0.42515106981E+03  0.42515106981E+03  0.00000000000E+00 0.  1.
         23    2    1    2    0    0  0.25848598473E+03 -0.69465479586E+02  0.36833082209E+01  0.28314217911E+03  0.92279302510E+02 0.  0.
        254    2    1    2    0    0 -0.25848598473E+03  0.69465479586E+02  0.50141337869E+03  0.10722566474E+04  0.90921861202E+03 0.  0.
         23    2    4    4    0    0 -0.44652216861E+03 -0.14288557790E+03  0.59188168758E+03  0.76040686146E+03  0.89979594559E+02 0.  0.
         23    2    4    4    0    0  0.18803618388E+03  0.21235105748E+03 -0.90468308884E+02  0.31184978596E+03  0.92818080282E+02 0.  0.
          4    1    3    3  502    0  0.13334031268E+03 -0.23457514150E+02  0.46421517708E+02  0.14312529917E+03  0.00000000000E+00 0. -1.
         -4    1    3    3    0  502  0.12514567205E+03 -0.46007965436E+02 -0.42738209487E+02  0.14001687993E+03  0.00000000000E+00 0.  1.
         11    1    5    5    0    0 -0.33056076543E+03 -0.66569560433E+02  0.39243144273E+03  0.51740154934E+03  0.00000000000E+00 0.  1.
        -11    1    5    5    0    0 -0.11596140319E+03 -0.76316017465E+02  0.19945024485E+03  0.24300531212E+03  0.00000000000E+00 0. -1.
          3    1    6    6  503    0  0.24816002479E+02  0.32801056480E+01 -0.31323752252E+02  0.40097013944E+02  0.00000000000E+00 0. -1.
         -3    1    6    6    0  503  0.16322018140E+03  0.20907095184E+03 -0.59144556632E+02  0.27175277201E+03  0.00000000000E+00 0.  1.
<mgrwt>
<rscale>  0 0.12577692E+04</rscale>
<asrwt>0</asrwt>
<pdfrwt beam="1">  1        2 0.14311504E+00 0.12577692E+04</pdfrwt>
<pdfrwt beam="2">  1       -2 0.65407857E-01 0.12577692E+04</pdfrwt>
<totfact> 0.59259563E+01</totfact>
</mgrwt>
</event>
<event>
12    2  0.3623523E-008  0.1252961E+04  0.7818608E-02  0.9067722E-01
          3   -1    0    0  501    0  0.00000000000E+00  0.00000000000E+00  0.56692158375E+03  0.56692158375E+03  0.00000000000E+00 0. -1.
         -3   -1    0    0    0  501 -0.00000000000E+00 -0.00000000000E+00 -0.69229678499E+03  0.69229678499E+03  0.00000000000E+00 0.  1.
         23    2    1    2    0    0 -0.26877728152E+03  0.80225649526E+02  0.38146815619E+02  0.29752923336E+03  0.91602856156E+02 0.  0.
        254    2    1    2    0    0  0.26877728152E+03 -0.80225649526E+02 -0.16352201686E+03  0.96168913538E+03  0.90522326595E+03 0.  0.
         23    2    4    4    0    0 -0.22768831429E+01  0.38679977114E+03 -0.39102814332E+02  0.39929118106E+03  0.91022909389E+02 0.  0.
         23    2    4    4    0    0  0.27105416467E+03 -0.46702542067E+03 -0.12441920253E+03  0.56239795432E+03  0.96063610910E+02 0.  0.
          4    1    3    3  502    0 -0.17405174648E+03  0.57386308354E+01  0.30367917441E+02  0.17677429889E+03  0.00000000000E+00 0. -1.
         -4    1    3    3    0  502 -0.94725535040E+02  0.74487018690E+02  0.77788981779E+01  0.12075493447E+03  0.00000000000E+00 0.  1.
         11    1    5    5    0    0  0.19981285689E+02  0.18840353146E+03 -0.59568540508E+02  0.19860401169E+03  0.00000000000E+00 0.  1.
        -11    1    5    5    0    0 -0.22258168832E+02  0.19839623968E+03  0.20465726176E+02  0.20068716937E+03  0.00000000000E+00 0. -1.
          2    1    6    6  503    0  0.12095918887E+03 -0.12099387650E+03 -0.45770827277E+02  0.17710339396E+03  0.00000000000E+00 0. -1.
         -2    1    6    6    0  503  0.15009497579E+03 -0.34603154417E+03 -0.78648375249E+02  0.38529456036E+03  0.00000000000E+00 0.  1.
<mgrwt>
<rscale>  0 0.12529613E+04</rscale>
<asrwt>0</asrwt>
<pdfrwt beam="1">  1        3 0.87218705E-01 0.12529613E+04</pdfrwt>
<pdfrwt beam="2">  1       -3 0.10650720E+00 0.12529613E+04</pdfrwt>
<totfact> 0.23255627E+00</totfact>
</mgrwt>
</event>
<event>
12    2  0.3623523E-008  0.1261651E+04  0.7818608E-02  0.9060542E-01
         -2   -1    0    0    0  501 -0.00000000000E+00  0.00000000000E+00  0.22808370790E+04  0.22808370790E+04  0.00000000000E+00 0.  1.
          2   -1    0    0  501    0  0.00000000000E+00 -0.00000000000E+00 -0.17447126834E+03  0.17447126834E+03  0.00000000000E+00 0. -1.
         23    2    1    2    0    0  0.21380130742E+03  0.19838480849E+02  0.11593033261E+03  0.26093750558E+03  0.92433627122E+02 0.  0.
        254    2    1    2    0    0 -0.21380130742E+03 -0.19838480849E+02  0.19904354781E+04  0.21943708418E+04  0.89851290167E+03 0.  0.
         23    2    4    4    0    0 -0.43827397043E+03 -0.56934917574E+02  0.18649788912E+04  0.19188560512E+04  0.92393844638E+02 0.  0.
         23    2    4    4    0    0  0.22447266301E+03  0.37096436725E+02  0.12545658688E+03  0.27551479060E+03  0.91678364895E+02 0.  0.
          4    1    3    3  502    0  0.19645032864E+03  0.20336999579E+01  0.12677571217E+03  0.23381391907E+03  0.00000000000E+00 0. -1.
         -4    1    3    3    0  502  0.17350978782E+02  0.17804780891E+02 -0.10845379557E+02  0.27123586507E+02  0.00000000000E+00 0.  1.
         11    1    5    5    0    0 -0.21098438592E+03 -0.52974219165E+02  0.10766337244E+04  0.10983901199E+04  0.00000000000E+00 0. -1.
        -11    1    5    5    0    0 -0.22728958451E+03 -0.39606984092E+01  0.78834516684E+03  0.82046593131E+03  0.00000000000E+00 0.  1.
          3    1    6    6  503    0  0.82103590995E+02  0.59047690210E+02  0.47684356165E+02  0.11180978131E+03  0.00000000000E+00 0. -1.
         -3    1    6    6    0  503  0.14236907202E+03 -0.21951253484E+02  0.77772230715E+02  0.16370500929E+03  0.00000000000E+00 0.  1.
<mgrwt>
<rscale>  0 0.12616506E+04</rscale>
<asrwt>0</asrwt>
<pdfrwt beam="1">  1        2 0.26841735E-01 0.12616506E+04</pdfrwt>
<pdfrwt beam="2">  1       -2 0.35089799E+00 0.12616506E+04</pdfrwt>
<totfact> 0.30894285E+00</totfact>
</mgrwt>
</event>
<event>
12    2  0.3623523E-008  0.2115244E+04  0.7818608E-02  0.8554558E-01
          2   -1    0    0  501    0  0.00000000000E+00  0.00000000000E+00  0.12134011841E+04  0.12134011841E+04  0.00000000000E+00 0. -1.
         -2   -1    0    0    0  501 -0.00000000000E+00 -0.00000000000E+00 -0.92184178490E+03  0.92184178490E+03  0.00000000000E+00 0.  1.
         23    2    1    2    0    0  0.44926056941E+03 -0.54507263585E+03 -0.38119080899E+03  0.80787507614E+03  0.91741311341E+02 0.  0.
        254    2    1    2    0    0 -0.44926056941E+03  0.54507263585E+03  0.67275020816E+03  0.13273678928E+04  0.90020744427E+03 0.  0.
         23    2    4    4    0    0  0.18164186790E+03 -0.98491254996E+02  0.21760850659E+03  0.31348075796E+03  0.90677604659E+02 0.  0.
         23    2    4    4    0    0 -0.63090243732E+03  0.64356389085E+03  0.45514170157E+03  0.10138871349E+04  0.92740426444E+02 0.  0.
          2    1    3    3  502    0  0.17058133802E+03 -0.14705721977E+03 -0.99238301320E+02  0.24611391512E+03  0.00000000000E+00 0. -1.
         -2    1    3    3    0  502  0.27867923139E+03 -0.39801541608E+03 -0.28195250767E+03  0.56176116102E+03  0.00000000000E+00 0.  1.
         11    1    5    5    0    0  0.43802998694E+02 -0.52722799887E+02  0.12093600394E+03  0.13901047935E+03  0.00000000000E+00 0.  1.
        -11    1    5    5    0    0  0.13783886921E+03 -0.45768455109E+02  0.96672502651E+02  0.17447027861E+03  0.00000000000E+00 0. -1.
          4    1    6    6  503    0 -0.62551248919E+03  0.63120044951E+03  0.43436640753E+03  0.98911781785E+03  0.00000000000E+00 0. -1.
         -4    1    6    6    0  503 -0.53899481264E+01  0.12363441340E+02  0.20775294036E+02  0.24769317004E+02  0.00000000000E+00 0.  1.
<mgrwt>
<rscale>  0 0.21152436E+04</rscale>
<asrwt>0</asrwt>
<pdfrwt beam="1">  1        2 0.18667711E+00 0.21152436E+04</pdfrwt>
<pdfrwt beam="2">  1       -2 0.14182181E+00 0.21152436E+04</pdfrwt>
<totfact> 0.59439662E+00</totfact>
</mgrwt>
</event>
<event>
12    2  0.3623523E-008  0.1779460E+04  0.7818608E-02  0.8717299E-01
         -1   -1    0    0    0  501 -0.00000000000E+00  0.00000000000E+00  0.69088065432E+03  0.69088065432E+03  0.00000000000E+00 0.  1.
          1   -1    0    0  501    0  0.00000000000E+00 -0.00000000000E+00 -0.11458124287E+04  0.11458124287E+04  0.00000000000E+00 0. -1.
         23    2    1    2    0    0 -0.50453045224E+03  0.11504233774E+03 -0.61499207853E+03  0.80867025665E+03  0.89143763778E+02 0.  0.
        254    2    1    2    0    0  0.50453045224E+03 -0.11504233774E+03  0.16006030414E+03  0.10280228264E+04  0.87374247573E+03 0.  0.
         23    2    4    4    0    0  0.64283423100E+03 -0.30826442143E+03 -0.18903007286E+02  0.71954567552E+03  0.95529332701E+02 0.  0.
         23    2    4    4    0    0 -0.13830377877E+03  0.19322208369E+03  0.17896331143E+03  0.30847715086E+03  0.81655232044E+02 0.  0.
          3    1    3    3  502    0 -0.31743962605E+03  0.11514942348E+03 -0.38185056431E+03  0.50974224799E+03  0.00000000000E+00 0. -1.
         -3    1    3    3    0  502 -0.18709082619E+03 -0.10708573393E+00 -0.23314151422E+03  0.29892800866E+03  0.00000000000E+00 0.  1.
         11    1    5    5    0    0  0.36291215424E+03 -0.13948517933E+03 -0.46247825770E+02  0.39153570506E+03  0.00000000000E+00 0.  1.
        -11    1    5    5    0    0  0.27992207676E+03 -0.16877924211E+03  0.27344818484E+02  0.32800997046E+03  0.00000000000E+00 0. -1.
          1    1    6    6  503    0 -0.55009444894E+02  0.14482532336E+03  0.10961505533E+03  0.18977848579E+03  0.00000000000E+00 0. -1.
         -1    1    6    6    0  503 -0.83294333872E+02  0.48396760326E+02  0.69348256101E+02  0.11869866507E+03  0.00000000000E+00 0.  1.
<mgrwt>
<rscale>  0 0.17794602E+04</rscale>
<asrwt>0</asrwt>
<pdfrwt beam="1">  1        1 0.17627883E+00 0.17794602E+04</pdfrwt>
<pdfrwt beam="2">  1       -1 0.10628933E+00 0.17794602E+04</pdfrwt>
<totfact> 0.91645477E+00</totfact>
</mgrwt>
</event>
<event>
12    2  0.3623523E-008  0.2662869E+04  0.7818608E-02  0.8347154E-01
         -2   -1    0    0    0  501 -0.00000000000E+00  0.00000000000E+00  0.92254737181E+03  0.92254737181E+03  0.00000000000E+00 0.  1.
          2   -1    0    0  501    0  0.00000000000E+00 -0.00000000000E+00 -0.19215473053E+04  0.19215473053E+04  0.00000000000E+00 0. -1.
         23    2    1    2    0    0  0.86705417303E+03  0.78949434667E+03 -0.55101958396E+03  0.12991073598E+04  0.94726385248E+02 0.  0.
        254    2    1    2    0    0 -0.86705417303E+03 -0.78949434667E+03 -0.44798034956E+03  0.15449873173E+04  0.90067483292E+03 0.  0.
         23    2    4    4    0    0 -0.46515554964E+03 -0.17362140440E+03 -0.60448487713E+03  0.78755494772E+03  0.91251036064E+02 0.  0.
         23    2    4    4    0    0 -0.40189862340E+03 -0.61587294227E+03  0.15650452757E+03  0.75743236959E+03  0.91586804929E+02 0.  0.
          3    1    3    3  502    0  0.78512348455E+03  0.74871982290E+03 -0.51125042689E+03  0.11993236670E+04  0.00000000000E+00 0. -1.
         -3    1    3    3    0  502  0.81930688481E+02  0.40774523770E+02 -0.39769157066E+02  0.99783692843E+02  0.00000000000E+00 0.  1.
         11    1    5    5    0    0 -0.69999077884E+02 -0.27409381057E+02 -0.46623456846E+02  0.88458418496E+02  0.00000000000E+00 0.  1.
        -11    1    5    5    0    0 -0.39515647175E+03 -0.14621202334E+03 -0.55786142028E+03  0.69909652923E+03  0.00000000000E+00 0. -1.
          4    1    6    6  503    0 -0.28915032388E+03 -0.36529115175E+03  0.11083628356E+03  0.47888434627E+03  0.00000000000E+00 0. -1.
         -4    1    6    6    0  503 -0.11274829952E+03 -0.25058179052E+03  0.45668244012E+02  0.27854802332E+03  0.00000000000E+00 0.  1.
<mgrwt>
<rscale>  0 0.26628694E+04</rscale>
<asrwt>0</asrwt>
<pdfrwt beam="1">  1        2 0.29562266E+00 0.26628694E+04</pdfrwt>
<pdfrwt beam="2">  1       -2 0.14193036E+00 0.26628694E+04</pdfrwt>
<totfact> 0.22530638E+00</totfact>
</mgrwt>
</event>
<event>
12    2  0.3623523E-008  0.2685666E+04  0.7818608E-02  0.8339671E-01
         -1   -1    0    0    0  501 -0.00000000000E+00  0.00000000000E+00  0.15475952219E+04  0.15475952219E+04  0.00000000000E+00 0.  1.
          1   -1    0    0  501    0  0.00000000000E+00 -0.00000000000E+00 -0.11651627152E+04  0.11651627152E+04  0.00000000000E+00 0. -1.
         23    2    1    2    0    0  0.16027095834E+03 -0.25783566694E+03  0.13186662936E+04  0.13562697191E+04  0.91764621403E+02 0.  0.
        254    2    1    2    0    0 -0.16027095834E+03  0.25783566694E+03 -0.93623378689E+03  0.13564882180E+04  0.93346696283E+03 0.  0.
         23    2    4    4    0    0 -0.21513661457E+03 -0.23327038722E+03 -0.45307608829E+02  0.33365028988E+03  0.92579155521E+02 0.  0.
         23    2    4    4    0    0  0.54865656227E+02  0.49110605416E+03 -0.89092617806E+03  0.10228379281E+04  0.90843688963E+02 0.  0.
          1    1    3    3  502    0  0.34493372877E+02 -0.40830494037E+02  0.11593146828E+03  0.12765981103E+03  0.00000000000E+00 0. -1.
         -1    1    3    3    0  502  0.12577758546E+03 -0.21700517290E+03  0.12027348254E+04  0.12286099081E+04  0.00000000000E+00 0.  1.
         11    1    5    5    0    0 -0.12716444916E+03 -0.19590467672E+03 -0.18018977381E+02  0.23425226367E+03  0.00000000000E+00 0.  1.
        -11    1    5    5    0    0 -0.87972165405E+02 -0.37365710507E+02 -0.27288631447E+02  0.99398026208E+02  0.00000000000E+00 0. -1.
          2    1    6    6  503    0  0.15251289255E+02  0.69043665895E+02 -0.73272863207E+02  0.10182603845E+03  0.00000000000E+00 0. -1.
         -2    1    6    6    0  503  0.39614366972E+02  0.42206238827E+03 -0.81765331486E+03  0.92101188969E+03  0.00000000000E+00 0.  1.
<mgrwt>
<rscale>  0 0.26856658E+04</rscale>
<asrwt>0</asrwt>
<pdfrwt beam="1">  1        1 0.17925580E+00 0.26856658E+04</pdfrwt>
<pdfrwt beam="2">  1       -1 0.23809157E+00 0.26856658E+04</pdfrwt>
<totfact> 0.82695987E-01</totfact>
</mgrwt>
</event>
<event>
12    2  0.3623523E-008  0.2758046E+04  0.7818608E-02  0.8316413E-01
         -1   -1    0    0    0  501 -0.00000000000E+00  0.00000000000E+00  0.16978282953E+04  0.16978282953E+04  0.00000000000E+00 0.  1.
          1   -1    0    0  501    0  0.00000000000E+00 -0.00000000000E+00 -0.11200802858E+04  0.11200802858E+04  0.00000000000E+00 0. -1.
         23    2    1    2    0    0 -0.29242540391E+03  0.90371031670E+03 -0.54150544091E+03  0.10971713630E+04  0.91388751629E+02 0.  0.
        254    2    1    2    0    0  0.29242540391E+03 -0.90371031670E+03  0.11192534504E+04  0.17207372181E+04  0.89777688428E+03 0.  0.
         23    2    4    4    0    0  0.49755920891E+02 -0.83914441256E+03  0.11750003803E+04  0.14473572735E+04  0.87052781588E+02 0.  0.
         23    2    4    4    0    0  0.24266948302E+03 -0.64565904144E+02 -0.55746929874E+02  0.27337994452E+03  0.92583151301E+02 0.  0.
          3    1    3    3  502    0 -0.85045336203E+01  0.17381607850E+02  0.19137162351E+01  0.19445042900E+02  0.00000000000E+00 0.  1.
         -3    1    3    3    0  502 -0.28392087029E+03  0.88632870885E+03 -0.54341915715E+03  0.10777263201E+04  0.00000000000E+00 0. -1.
         11    1    5    5    0    0  0.10803432237E+02 -0.38064234504E+03  0.60404072009E+03  0.71405216932E+03  0.00000000000E+00 0. -1.
        -11    1    5    5    0    0  0.38952488654E+02 -0.45850206752E+03  0.57095966020E+03  0.73330510422E+03  0.00000000000E+00 0.  1.
          2    1    6    6  503    0  0.16011620583E+03 -0.86590847884E+02 -0.42390884665E+02  0.18690147514E+03  0.00000000000E+00 0. -1.
         -2    1    6    6    0  503  0.82553277198E+02  0.22024943740E+02 -0.13356045208E+02  0.86478469381E+02  0.00000000000E+00 0.  1.
<mgrwt>
<rscale>  0 0.27580457E+04</rscale>
<asrwt>0</asrwt>
<pdfrwt beam="1">  1        1 0.17232004E+00 0.27580457E+04</pdfrwt>
<pdfrwt beam="2">  1       -1 0.26120435E+00 0.27580457E+04</pdfrwt>
<totfact> 0.62694612E-01</totfact>
</mgrwt>
</event>
<event>
12    2  0.3623523E-008  0.1357263E+04  0.7818608E-02  0.8985348E-01
          2   -1    0    0  501    0  0.00000000000E+00  0.00000000000E+00  0.19487861150E+04  0.19487861150E+04  0.00000000000E+00 0. -1.
         -2   -1    0    0    0  501 -0.00000000000E+00 -0.00000000000E+00 -0.23632180901E+03  0.23632180901E+03  0.00000000000E+00 0.  1.
         23    2    1    2    0    0 -0.65671856073E+02  0.13668800720E+03  0.10381944626E+04  0.10531687666E+04  0.91215705242E+02 0.  0.
        254    2    1    2    0    0  0.65671856073E+02 -0.13668800720E+03  0.67426984344E+03  0.11319391574E+04  0.89646529787E+03 0.  0.
         23    2    4    4    0    0  0.29886225504E+03  0.12631592176E+03 -0.29968649417E+02  0.33898603274E+03  0.93482890776E+02 0.  0.
         23    2    4    4    0    0 -0.23319039897E+03 -0.26300392896E+03  0.70423849286E+03  0.79295312466E+03  0.96301475948E+02 0.  0.
          4    1    3    3  502    0 -0.45192789242E+02  0.50825634385E+02  0.71203110456E+03  0.71527192534E+03  0.00000000000E+00 0. -1.
         -4    1    3    3    0  502 -0.20479066832E+02  0.85862372816E+02  0.32616335803E+03  0.33789684131E+03  0.00000000000E+00 0.  1.
         11    1    5    5    0    0  0.20641364632E+03  0.70118834135E+02  0.21731429865E+02  0.21907875144E+03  0.00000000000E+00 0. -1.
        -11    1    5    5    0    0  0.92448608721E+02  0.56197087625E+02 -0.51700079282E+02  0.11990728130E+03  0.00000000000E+00 0.  1.
          3    1    6    6  503    0 -0.23432148472E+03 -0.22883725472E+03  0.60462295407E+03  0.68763505142E+03  0.00000000000E+00 0. -1.
         -3    1    6    6    0  503  0.11310857587E+01 -0.34166674237E+02  0.99615538786E+02  0.10531807324E+03  0.00000000000E+00 0.  1.
<mgrwt>
<rscale>  0 0.13572629E+04</rscale>
<asrwt>0</asrwt>
<pdfrwt beam="1">  1        2 0.29981324E+00 0.13572629E+04</pdfrwt>
<pdfrwt beam="2">  1       -2 0.36357203E-01 0.13572629E+04</pdfrwt>
<totfact> 0.49620020E+01</totfact>
</mgrwt>
</event>
<event>
12    2  0.3623523E-008  0.2191028E+04  0.7818608E-02  0.8522172E-01
          2   -1    0    0  501    0  0.00000000000E+00  0.00000000000E+00  0.83506127755E+03  0.83506127755E+03  0.00000000000E+00 0.  1.
         -2   -1    0    0    0  501 -0.00000000000E+00 -0.00000000000E+00 -0.14372015844E+04  0.14372015844E+04  0.00000000000E+00 0. -1.
         23    2    1    2    0    0 -0.65203154251E+03 -0.59828976410E+03 -0.53364836813E+02  0.89105457678E+03  0.89636369459E+02 0.  0.
        254    2    1    2    0    0  0.65203154251E+03  0.59828976410E+03 -0.54877547003E+03  0.13812082852E+04  0.90746131391E+03 0.  0.
         23    2    4    4    0    0 -0.11759625663E+03 -0.13555520527E+03 -0.77068057094E+02  0.21502237764E+03  0.89950231865E+02 0.  0.
         23    2    4    4    0    0  0.76962779913E+03  0.73384496938E+03 -0.47170741294E+03  0.11661859075E+04  0.81402083558E+02 0.  0.
          1    1    3    3  502    0 -0.24583906703E+03 -0.20572666331E+03  0.21220987383E+02  0.32126412370E+03  0.00000000000E+00 0. -1.
         -1    1    3    3    0  502 -0.40619247548E+03 -0.39256310080E+03 -0.74585824196E+02  0.56979045307E+03  0.00000000000E+00 0.  1.
         11    1    5    5    0    0 -0.16663528471E+02 -0.80279773240E+02 -0.52478176931E+02  0.97347183968E+02  0.00000000000E+00 0. -1.
        -11    1    5    5    0    0 -0.10093272816E+03 -0.55275432035E+02 -0.24589880163E+02  0.11767519367E+03  0.00000000000E+00 0.  1.
          4    1    6    6  503    0  0.41542452093E+03  0.45160441646E+03 -0.26879157574E+03  0.66990521177E+03  0.00000000000E+00 0. -1.
         -4    1    6    6    0  503  0.35420327820E+03  0.28224055292E+03 -0.20291583719E+03  0.49628069576E+03  0.00000000000E+00 0.  1.
<mgrwt>
<rscale>  0 0.21910284E+04</rscale>
<asrwt>0</asrwt>
<pdfrwt beam="1">  1        2 0.12847097E+00 0.21910284E+04</pdfrwt>
<pdfrwt beam="2">  1       -2 0.22110793E+00 0.21910284E+04</pdfrwt>
<totfact> 0.28913643E+00</totfact>
</mgrwt>
</event>
<event>
12    2  0.3623523E-008  0.3019328E+04  0.7818608E-02  0.8238233E-01
          2   -1    0    0  501    0  0.00000000000E+00  0.00000000000E+00  0.27377267551E+04  0.27377267551E+04  0.00000000000E+00 0. -1.
         -2   -1    0    0    0  501 -0.00000000000E+00 -0.00000000000E+00 -0.83247363930E+03  0.83247363930E+03  0.00000000000E+00 0.  1.
         23    2    1    2    0    0 -0.83217157363E+02  0.50283081351E+03  0.24132817142E+04  0.24682448299E+04  0.92412042980E+02 0.  0.
        254    2    1    2    0    0  0.83217157363E+02 -0.50283081351E+03 -0.50802859844E+03  0.11019555645E+04  0.83453525213E+03 0.  0.
         23    2    4    4    0    0 -0.30817956067E+03 -0.46266821219E+02 -0.34274716406E+03  0.47174032592E+03  0.89151871932E+02 0.  0.
         23    2    4    4    0    0  0.39139671803E+03 -0.45656399229E+03 -0.16528143439E+03  0.63021523860E+03  0.90615806938E+02 0.  0.
          2    1    3    3  502    0 -0.71320988393E+02  0.48271666173E+03  0.23621945878E+04  0.24120666097E+04  0.00000000000E+00 0. -1.
         -2    1    3    3    0  502 -0.11896168970E+02  0.20114151777E+02  0.51087126445E+02  0.56178220213E+02  0.00000000000E+00 0.  1.
         11    1    5    5    0    0 -0.19372733204E+03 -0.71841179603E+02 -0.22731641307E+03  0.30718754193E+03  0.00000000000E+00 0.  1.
        -11    1    5    5    0    0 -0.11445222863E+03  0.25574358384E+02 -0.11543075098E+03  0.16455278399E+03  0.00000000000E+00 0. -1.
          3    1    6    6  503    0  0.37250847188E+03 -0.42456298738E+03 -0.17589405836E+03  0.59156995499E+03  0.00000000000E+00 0. -1.
         -3    1    6    6    0  503  0.18888246155E+02 -0.32001004907E+02  0.10612623974E+02  0.38645283613E+02  0.00000000000E+00 0.  1.
<mgrwt>
<rscale>  0 0.30193280E+04</rscale>
<asrwt>0</asrwt>
<pdfrwt beam="1">  1        2 0.42118873E+00 0.30193280E+04</pdfrwt>
<pdfrwt beam="2">  1       -2 0.12807287E+00 0.30193280E+04</pdfrwt>
<totfact> 0.97143192E-01</totfact>
</mgrwt>
</event>
<event>
12    2  0.3623523E-008  0.2294280E+04  0.7818608E-02  0.8480180E-01
         -1   -1    0    0    0  501 -0.00000000000E+00  0.00000000000E+00  0.11206420078E+04  0.11206420078E+04  0.00000000000E+00 0.  1.
          1   -1    0    0  501    0  0.00000000000E+00 -0.00000000000E+00 -0.11742649991E+04  0.11742649991E+04  0.00000000000E+00 0. -1.
         23    2    1    2    0    0 -0.37683527246E+03  0.67330656893E+03  0.55786476555E+03  0.95639846068E+03  0.90212862867E+02 0.  0.
        254    2    1    2    0    0  0.37683527246E+03 -0.67330656893E+03 -0.61148775678E+03  0.13385085462E+04  0.90683035526E+03 0.  0.
         23    2    4    4    0    0 -0.23729280949E+03 -0.47307195767E+03 -0.25214136257E+03  0.59347662933E+03  0.92381211689E+02 0.  0.
         23    2    4    4    0    0  0.61412808196E+03 -0.20023461125E+03 -0.35934639421E+03  0.74503191687E+03  0.93249801730E+02 0.  0.
          2    1    3    3  502    0 -0.53858734785E+02  0.52228138761E+02  0.35805873812E+02  0.83130033024E+02  0.00000000000E+00 0. -1.
         -2    1    3    3    0  502 -0.32297653768E+03  0.62107843016E+03  0.52205889173E+03  0.87326842766E+03  0.00000000000E+00 0.  1.
         11    1    5    5    0    0 -0.22555580910E+01  0.32891042142E+01  0.21786884588E+01  0.45444947172E+01  0.00000000000E+00 0.  1.
        -11    1    5    5    0    0 -0.23503725140E+03 -0.47636106188E+03 -0.25432005103E+03  0.58893213461E+03  0.00000000000E+00 0. -1.
          3    1    6    6  503    0  0.38601793264E+03 -0.78230691162E+02 -0.22293860498E+03  0.45258314921E+03  0.00000000000E+00 0. -1.
         -3    1    6    6    0  503  0.22811014932E+03 -0.12200392009E+03 -0.13640778923E+03  0.29244876765E+03  0.00000000000E+00 0.  1.
<mgrwt>
<rscale>  0 0.22942804E+04</rscale>
<asrwt>0</asrwt>
<pdfrwt beam="1">  1        1 0.18065615E+00 0.22942804E+04</pdfrwt>
<pdfrwt beam="2">  1       -1 0.17240646E+00 0.22942804E+04</pdfrwt>
<totfact> 0.23848493E+00</totfact>
</mgrwt>
</event>
<event>
12    2  0.3623523E-008  0.2366858E+04  0.7818608E-02  0.8452016E-01
          2   -1    0    0  501    0  0.00000000000E+00  0.00000000000E+00  0.91062749252E+03  0.91062749252E+03  0.00000000000E+00 0. -1.
         -2   -1    0    0    0  501 -0.00000000000E+00 -0.00000000000E+00 -0.15379557385E+04  0.15379557385E+04  0.00000000000E+00 0.  1.
         23    2    1    2    0    0  0.41075417808E+03  0.86660119632E+03  0.65363205603E+02  0.96550191553E+03  0.90581300264E+02 0.  0.
        254    2    1    2    0    0 -0.41075417808E+03 -0.86660119632E+03 -0.69269145155E+03  0.14830813155E+04  0.89442278199E+03 0.  0.
         23    2    4    4    0    0  0.12034890812E+03 -0.12813600869E+03  0.14212852145E+03  0.24494006577E+03  0.94299643686E+02 0.  0.
         23    2    4    4    0    0 -0.53110308621E+03 -0.73846518764E+03 -0.83481997300E+03  0.12381412497E+04  0.93102338049E+02 0.  0.
          3    1    3    3  502    0  0.20812557766E+03  0.38179334650E+03 -0.82934544790E+01  0.43491516057E+03  0.00000000000E+00 0. -1.
         -3    1    3    3    0  502  0.20262860043E+03  0.48480784982E+03  0.73656660082E+02  0.53058675495E+03  0.00000000000E+00 0.  1.
         11    1    5    5    0    0  0.94134523722E+01 -0.18150716658E+02 -0.13445091284E+02  0.24471045756E+02  0.00000000000E+00 0. -1.
        -11    1    5    5    0    0  0.11093545575E+03 -0.10998529203E+03  0.15557361273E+03  0.22046902001E+03  0.00000000000E+00 0.  1.
          1    1    6    6  503    0 -0.15878008620E+03 -0.23572967807E+03 -0.31961484788E+03  0.42770696497E+03  0.00000000000E+00 0. -1.
         -1    1    6    6    0  503 -0.37232300001E+03 -0.50273550957E+03 -0.51520512512E+03  0.81043428473E+03  0.00000000000E+00 0.  1.
<mgrwt>
<rscale>  0 0.23668585E+04</rscale>
<asrwt>0</asrwt>
<pdfrwt beam="1">  1        2 0.14009654E+00 0.23668585E+04</pdfrwt>
<pdfrwt beam="2">  1       -2 0.23660857E+00 0.23668585E+04</pdfrwt>
<totfact> 0.20215551E+00</totfact>
</mgrwt>
</event>
<event>
12    2  0.3623523E-008  0.1984230E+04  0.7818608E-02  0.8614029E-01
         -2   -1    0    0    0  501 -0.00000000000E+00  0.00000000000E+00  0.53986746564E+03  0.53986746564E+03  0.00000000000E+00 0.  1.
          2   -1    0    0  501    0  0.00000000000E+00 -0.00000000000E+00 -0.18232109858E+04  0.18232109858E+04  0.00000000000E+00 0. -1.
         23    2    1    2    0    0  0.80823704998E+03 -0.10578483464E+03 -0.34312267167E+03  0.88921797389E+03  0.92400633538E+02 0.  0.
        254    2    1    2    0    0 -0.80823704998E+03  0.10578483464E+03 -0.94022084851E+03  0.14738604776E+04  0.78981763917E+03 0.  0.
         23    2    4    4    0    0  0.13966211706E+03  0.69996586870E+02 -0.17444361583E+03  0.25130974108E+03  0.91219415387E+02 0.  0.
         23    2    4    4    0    0 -0.94789916703E+03  0.35788247773E+02 -0.76577723268E+03  0.12225507365E+04  0.91770930258E+02 0.  0.
          1    1    3    3  502    0  0.29584703300E+03 -0.40684594520E+02 -0.17451967814E+03  0.34588700644E+03  0.00000000000E+00 0. -1.
         -1    1    3    3    0  502  0.51239001697E+03 -0.65100240124E+02 -0.16860299353E+03  0.54333096745E+03  0.00000000000E+00 0.  1.
         11    1    5    5    0    0  0.60963299883E+02 -0.12469656667E+02 -0.35683609459E+02  0.71730999254E+02  0.00000000000E+00 0. -1.
        -11    1    5    5    0    0  0.78698817174E+02  0.82466243538E+02 -0.13876000637E+03  0.17957874182E+03  0.00000000000E+00 0.  1.
          2    1    6    6  503    0 -0.65675524335E+03 -0.17363828114E+02 -0.53442050515E+03  0.84689682283E+03  0.00000000000E+00 0.  1.
         -2    1    6    6    0  503 -0.29114392368E+03  0.53152075887E+02 -0.23135672754E+03  0.37565391365E+03  0.00000000000E+00 0. -1.
<mgrwt>
<rscale>  0 0.19842301E+04</rscale>
<asrwt>0</asrwt>
<pdfrwt beam="1">  1        2 0.28049400E+00 0.19842301E+04</pdfrwt>
<pdfrwt beam="2">  1       -2 0.83056533E-01 0.19842301E+04</pdfrwt>
<totfact> 0.98952076E+00</totfact>
</mgrwt>
</event>
<event>
12    2  0.3623523E-008  0.2185245E+04  0.7818608E-02  0.8524595E-01
         -2   -1    0    0    0  501 -0.00000000000E+00  0.00000000000E+00  0.11849697346E+04  0.11849697346E+04  0.00000000000E+00 0.  1.
          2   -1    0    0  501    0  0.00000000000E+00 -0.00000000000E+00 -0.10074723550E+04  0.10074723550E+04  0.00000000000E+00 0. -1.
         23    2    1    2    0    0  0.25264607846E+03  0.63321768420E+03  0.65628308417E+03  0.95071683574E+03  0.91434887488E+02 0.  0.
        254    2    1    2    0    0 -0.25264607846E+03 -0.63321768420E+03 -0.47878570456E+03  0.12417252538E+04  0.92078834622E+03 0.  0.
         23    2    4    4    0    0 -0.21912637359E+03  0.18994643949E+03 -0.20885009558E+03  0.36992541978E+03  0.95553316517E+02 0.  0.
         23    2    4    4    0    0 -0.33519704878E+02 -0.82316412369E+03 -0.26993560898E+03  0.87179983404E+03  0.91907412618E+02 0.  0.
          3    1    3    3  502    0  0.73106248938E+00  0.27414158726E+02  0.51780981200E+02  0.58594714480E+02  0.00000000000E+00 0. -1.
         -3    1    3    3    0  502  0.25191501597E+03  0.60580352547E+03  0.60450210297E+03  0.89212212126E+03  0.00000000000E+00 0.  1.
         11    1    5    5    0    0 -0.10382715260E+03  0.14184412788E+03 -0.89962284750E+02  0.19746657162E+03  0.00000000000E+00 0. -1.
        -11    1    5    5    0    0 -0.11529922099E+03  0.48102311608E+02 -0.11888781083E+03  0.17245884815E+03  0.00000000000E+00 0.  1.
          3    1    6    6  503    0 -0.40797511954E+02 -0.81955726042E+03 -0.26502847870E+03  0.86231005712E+03  0.00000000000E+00 0. -1.
         -3    1    6    6    0  503  0.72778070760E+01 -0.36068632726E+01 -0.49071302735E+01  0.94897769218E+01  0.00000000000E+00 0.  1.
<mgrwt>
<rscale>  0 0.21852453E+04</rscale>
<asrwt>0</asrwt>
<pdfrwt beam="1">  1        2 0.15499575E+00 0.21852453E+04</pdfrwt>
<pdfrwt beam="2">  1       -2 0.18230304E+00 0.21852453E+04</pdfrwt>
<totfact> 0.39847216E+00</totfact>
</mgrwt>
</event>
<event>
12    2  0.3623523E-008  0.2885038E+04  0.7818608E-02  0.8277343E-01
          2   -1    0    0  501    0  0.00000000000E+00  0.00000000000E+00  0.31298559994E+04  0.31298559994E+04  0.00000000000E+00 0. -1.
         -2   -1    0    0    0  501 -0.00000000000E+00 -0.00000000000E+00 -0.66484260960E+03  0.66484260960E+03  0.00000000000E+00 0.  1.
         23    2    1    2    0    0 -0.41747690531E+03 -0.12144767939E+04  0.13857037950E+04  0.18914267295E+04  0.89884459891E+02 0.  0.
        254    2    1    2    0    0  0.41747690531E+03  0.12144767939E+04  0.10793095948E+04  0.19032718795E+04  0.89905160958E+03 0.  0.
         23    2    4    4    0    0  0.87679358855E+02  0.98861140331E+03  0.11103236846E+04  0.14919848809E+04  0.90332848094E+02 0.  0.
         23    2    4    4    0    0  0.32979754646E+03  0.22586539055E+03 -0.31014089885E+02  0.41128699860E+03  0.91725269962E+02 0.  0.
          2    1    3    3  502    0 -0.88715996282E+02 -0.31921340699E+03  0.30861497014E+03  0.45278132359E+03  0.00000000000E+00 0. -1.
         -2    1    3    3    0  502 -0.32876090903E+03 -0.89526338687E+03  0.10770888249E+04  0.14386454059E+04  0.00000000000E+00 0.  1.
         11    1    5    5    0    0  0.97553189747E+02  0.80614194391E+03  0.94015180899E+03  0.12422829317E+04  0.00000000000E+00 0.  1.
        -11    1    5    5    0    0 -0.98738308922E+01  0.18246945940E+03  0.17017187565E+03  0.24970194915E+03  0.00000000000E+00 0. -1.
          3    1    6    6  503    0  0.24612487751E+02  0.23074767211E+02  0.23109715751E+02  0.40893500672E+02  0.00000000000E+00 0. -1.
         -3    1    6    6    0  503  0.30518505871E+03  0.20279062334E+03 -0.54123805636E+02  0.37039349793E+03  0.00000000000E+00 0.  1.
<mgrwt>
<rscale>  0 0.28850384E+04</rscale>
<asrwt>0</asrwt>
<pdfrwt beam="1">  1        2 0.48151630E+00 0.28850384E+04</pdfrwt>
<pdfrwt beam="2">  1       -2 0.10228348E+00 0.28850384E+04</pdfrwt>
<totfact> 0.97341019E-01</totfact>
</mgrwt>
</event>
<event>
12    2  0.3623523E-008  0.1351964E+04  0.7818608E-02  0.8989343E-01
         -1   -1    0    0    0  501 -0.00000000000E+00  0.00000000000E+00  0.40755245785E+03  0.40755245785E+03  0.00000000000E+00 0.  1.
          1   -1    0    0  501    0  0.00000000000E+00 -0.00000000000E+00 -0.11212093576E+04  0.11212093576E+04  0.00000000000E+00 0. -1.
         23    2    1    2    0    0 -0.55593010541E+02 -0.17855674732E+03 -0.54320323291E+03  0.58143439360E+03  0.89571797897E+02 0.  0.
        254    2    1    2    0    0  0.55593010541E+02  0.17855674732E+03 -0.17045366681E+03  0.94732742182E+03  0.91290837261E+03 0.  0.
         23    2    4    4    0    0 -0.40320864238E+03  0.12949443785E+03 -0.19629478916E+03  0.47622883470E+03  0.94425844074E+02 0.  0.
         23    2    4    4    0    0  0.45880165292E+03  0.49062309473E+02  0.25841122353E+02  0.47109858712E+03  0.91433299460E+02 0.  0.
          1    1    3    3  502    0 -0.46507352782E+02 -0.18434536802E+03 -0.53533766964E+03  0.56809556336E+03  0.00000000000E+00 0. -1.
         -1    1    3    3    0  502 -0.90856577591E+01  0.57886207020E+01 -0.78655632728E+01  0.13338830239E+02  0.00000000000E+00 0.  1.
         11    1    5    5    0    0 -0.39198831555E+03  0.10428582592E+03 -0.17700598872E+03  0.44256241713E+03  0.00000000000E+00 0.  1.
        -11    1    5    5    0    0 -0.11220326827E+02  0.25208611931E+02 -0.19288800440E+02  0.33666417570E+02  0.00000000000E+00 0. -1.
          1    1    6    6  503    0  0.18161985519E+02 -0.14047438208E+02  0.11624468333E+02  0.25735510530E+02  0.00000000000E+00 0. -1.
         -1    1    6    6    0  503  0.44063966740E+03  0.63109747681E+02  0.14216654021E+02  0.44536307659E+03  0.00000000000E+00 0.  1.
<mgrwt>
<rscale>  0 0.13519639E+04</rscale>
<asrwt>0</asrwt>
<pdfrwt beam="1">  1        1 0.17249375E+00 0.13519639E+04</pdfrwt>
<pdfrwt beam="2">  1       -1 0.62700378E-01 0.13519639E+04</pdfrwt>
<totfact> 0.30860426E+01</totfact>
</mgrwt>
</event>
<event>
12    2  0.3623523E-008  0.2239187E+04  0.7818608E-02  0.8502292E-01
         -1   -1    0    0    0  501 -0.00000000000E+00  0.00000000000E+00  0.69445414798E+03  0.69445414798E+03  0.00000000000E+00 0.  1.
          1   -1    0    0  501    0  0.00000000000E+00 -0.00000000000E+00 -0.18049997864E+04  0.18049997864E+04  0.00000000000E+00 0. -1.
         23    2    1    2    0    0 -0.46450953332E+03  0.45956533346E+03  0.28626916624E+03  0.71924809151E+03  0.91642672017E+02 0.  0.
        254    2    1    2    0    0  0.46450953332E+03 -0.45956533346E+03 -0.13968148047E+04  0.17802058429E+04  0.88942219572E+03 0.  0.
         23    2    4    4    0    0  0.61136077849E+03 -0.28018134338E+03 -0.13713221998E+04  0.15301453915E+04  0.92502739390E+02 0.  0.
         23    2    4    4    0    0 -0.14685124517E+03 -0.17938399008E+03 -0.25492604897E+02  0.25006045141E+03  0.90202285741E+02 0.  0.
          1    1    3    3  502    0 -0.22588569190E+03  0.18029991975E+03  0.89634880099E+02  0.30260009682E+03  0.00000000000E+00 0. -1.
         -1    1    3    3    0  502 -0.23862384142E+03  0.27926541371E+03  0.19663428614E+03  0.41664799469E+03  0.00000000000E+00 0.  1.
         11    1    5    5    0    0  0.58414349151E+03 -0.25332993743E+03 -0.12480646790E+04  0.14010942577E+04  0.00000000000E+00 0.  1.
        -11    1    5    5    0    0  0.27217286987E+02 -0.26851405951E+02 -0.12325752076E+03  0.12905113381E+03  0.00000000000E+00 0. -1.
          3    1    6    6  503    0  0.11281388036E+02 -0.51692799885E+01  0.37658981213E+01  0.12968159479E+02  0.00000000000E+00 0. -1.
         -3    1    6    6    0  503 -0.15813263321E+03 -0.17421471009E+03 -0.29258503018E+02  0.23709229193E+03  0.00000000000E+00 0.  1.
<mgrwt>
<rscale>  0 0.22391870E+04</rscale>
<asrwt>0</asrwt>
<pdfrwt beam="1">  1        1 0.27769227E+00 0.22391870E+04</pdfrwt>
<pdfrwt beam="2">  1       -1 0.10683910E+00 0.22391870E+04</pdfrwt>
<totfact> 0.30021001E+00</totfact>
</mgrwt>
</event>
<event>
12    2  0.3623523E-008  0.2301298E+04  0.7818608E-02  0.8477410E-01
         -1   -1    0    0    0  501 -0.00000000000E+00  0.00000000000E+00  0.12561101033E+04  0.12561101033E+04  0.00000000000E+00 0.  1.
          1   -1    0    0  501    0  0.00000000000E+00 -0.00000000000E+00 -0.10540420881E+04  0.10540420881E+04  0.00000000000E+00 0. -1.
         23    2    1    2    0    0 -0.73889430428E+03  0.85905580732E+01 -0.54542955705E+03  0.92296687391E+03  0.91300920273E+02 0.  0.
        254    2    1    2    0    0  0.73889430428E+03 -0.85905580732E+01  0.74749757221E+03  0.13871853174E+04  0.90525791567E+03 0.  0.
         23    2    4    4    0    0  0.29082112677E+03 -0.39726098421E+03  0.57569601359E+03  0.76293951781E+03  0.90871284935E+02 0.  0.
         23    2    4    4    0    0  0.44807317751E+03  0.38867042614E+03  0.17180155862E+03  0.62424579963E+03  0.91284008747E+02 0.  0.
          1    1    3    3  502    0 -0.68770182718E+03  0.19038387912E+02 -0.53013318795E+03  0.86852602741E+03  0.00000000000E+00 0. -1.
         -1    1    3    3    0  502 -0.51192477102E+02 -0.10447829839E+02 -0.15296369103E+02  0.54440846502E+02  0.00000000000E+00 0.  1.
         11    1    5    5    0    0  0.81687573097E+02 -0.53860364311E+02  0.12958928093E+03  0.16237974065E+03  0.00000000000E+00 0. -1.
        -11    1    5    5    0    0  0.20913355367E+03 -0.34340061990E+03  0.44610673266E+03  0.60055977716E+03  0.00000000000E+00 0.  1.
          3    1    6    6  503    0  0.16990746124E+03  0.14220245414E+03  0.11045225276E+03  0.24756773515E+03  0.00000000000E+00 0. -1.
         -3    1    6    6    0  503  0.27816571627E+03  0.24646797200E+03  0.61349305859E+02  0.37667806448E+03  0.00000000000E+00 0.  1.
<mgrwt>
<rscale>  0 0.23012978E+04</rscale>
<asrwt>0</asrwt>
<pdfrwt beam="1">  1        1 0.16216032E+00 0.23012978E+04</pdfrwt>
<pdfrwt beam="2">  1       -1 0.19324771E+00 0.23012978E+04</pdfrwt>
<totfact> 0.20823219E+00</totfact>
</mgrwt>
</event>
<event>
12    2  0.3623523E-008  0.2033143E+04  0.7818608E-02  0.8591280E-01
          2   -1    0    0  501    0  0.00000000000E+00  0.00000000000E+00  0.15530268935E+04  0.15530268935E+04  0.00000000000E+00 0. -1.
         -2   -1    0    0    0  501 -0.00000000000E+00 -0.00000000000E+00 -0.66542146326E+03  0.66542146326E+03  0.00000000000E+00 0.  1.
         23    2    1    2    0    0  0.44314892235E+02  0.74237273422E+03 -0.13440300764E+03  0.76107145705E+03  0.89913892601E+02 0.  0.
        254    2    1    2    0    0 -0.44314892235E+02 -0.74237273422E+03  0.10220084378E+04  0.14573768997E+04  0.72551023047E+03 0.  0.
         23    2    4    4    0    0  0.27543482349E+03 -0.58990398439E+03  0.53219394474E+03  0.84582352892E+03  0.91301667328E+02 0.  0.
         23    2    4    4    0    0 -0.31974971573E+03 -0.15246874983E+03  0.48981449310E+03  0.61155337077E+03  0.92696748911E+02 0.  0.
          1    1    3    3  502    0 -0.63096027840E+01  0.16449331131E+03  0.41316752139E+01  0.16466612066E+03  0.00000000000E+00 0. -1.
         -1    1    3    3    0  502  0.50624495019E+02  0.57787942291E+03 -0.13853468285E+03  0.59640533639E+03  0.00000000000E+00 0.  1.
         11    1    5    5    0    0  0.98545402746E+02 -0.27546125518E+03  0.28537891053E+03  0.40869453395E+03  0.00000000000E+00 0. -1.
        -11    1    5    5    0    0  0.17688942075E+03 -0.31444272921E+03  0.24681503422E+03  0.43712899497E+03  0.00000000000E+00 0.  1.
          4    1    6    6  503    0 -0.13700532733E+03 -0.15680459645E+02  0.18428675701E+03  0.23016938403E+03  0.00000000000E+00 0. -1.
         -4    1    6    6    0  503 -0.18274438839E+03 -0.13678829019E+03  0.30552773609E+03  0.38138398674E+03  0.00000000000E+00 0.  1.
<mgrwt>
<rscale>  0 0.20331428E+04</rscale>
<asrwt>0</asrwt>
<pdfrwt beam="1">  1        2 0.23892721E+00 0.20331428E+04</pdfrwt>
<pdfrwt beam="2">  1       -2 0.10237253E+00 0.20331428E+04</pdfrwt>
<totfact> 0.85770584E+00</totfact>
</mgrwt>
</event>
<event>
12    2  0.3623523E-008  0.1723702E+04  0.7818608E-02  0.8747960E-01
          2   -1    0    0  501    0  0.00000000000E+00  0.00000000000E+00  0.11639848399E+04  0.11639848399E+04  0.00000000000E+00 0. -1.
         -2   -1    0    0    0  501 -0.00000000000E+00 -0.00000000000E+00 -0.63814183937E+03  0.63814183937E+03  0.00000000000E+00 0.  1.
         23    2    1    2    0    0  0.59482181581E+02 -0.50634287324E+03  0.55742598948E+03  0.76311271749E+03  0.10814828081E+03 0.  0.
        254    2    1    2    0    0 -0.59482181581E+02  0.50634287324E+03 -0.31582988993E+02  0.10390139617E+04  0.90478245577E+03 0.  0.
         23    2    4    4    0    0 -0.46962744154E+03  0.33011189086E+03  0.53013817766E+01  0.58170482915E+03  0.93960679413E+02 0.  0.
         23    2    4    4    0    0  0.41014525996E+03  0.17623098238E+03 -0.36884370769E+02  0.45730913258E+03  0.92166656194E+02 0.  0.
          4    1    3    3  502    0  0.63515682989E+02 -0.48977028547E+03  0.49831017688E+03  0.70158549507E+03  0.00000000000E+00 0. -1.
         -4    1    3    3    0  502 -0.40335014077E+01 -0.16572587772E+02  0.59115812603E+02  0.61527222421E+02  0.00000000000E+00 0.  1.
         11    1    5    5    0    0 -0.32188621501E+03  0.18049843330E+03 -0.21888654795E+02  0.36968842698E+03  0.00000000000E+00 0.  1.
        -11    1    5    5    0    0 -0.14774122653E+03  0.14961345756E+03  0.27190036571E+02  0.21201640217E+03  0.00000000000E+00 0. -1.
          3    1    6    6  503    0  0.57843169981E+02  0.62886803120E+02 -0.13300145372E+02  0.86472401303E+02  0.00000000000E+00 0. -1.
         -3    1    6    6    0  503  0.35230208998E+03  0.11334417926E+03 -0.23584225398E+02  0.37083673128E+03  0.00000000000E+00 0.  1.
<mgrwt>
<rscale>  0 0.17237023E+04</rscale>
<asrwt>0</asrwt>
<pdfrwt beam="1">  1        2 0.17907459E+00 0.17237023E+04</pdfrwt>
<pdfrwt beam="2">  1       -2 0.98175668E-01 0.17237023E+04</pdfrwt>
<totfact> 0.16317568E+01</totfact>
</mgrwt>
</event>
<event>
12    2  0.3623523E-008  0.1888530E+04  0.7818608E-02  0.8660587E-01
          2   -1    0    0  501    0  0.00000000000E+00  0.00000000000E+00  0.11921665962E+04  0.11921665962E+04  0.00000000000E+00 0. -1.
         -2   -1    0    0    0  501 -0.00000000000E+00 -0.00000000000E+00 -0.74791255408E+03  0.74791255408E+03  0.00000000000E+00 0.  1.
         23    2    1    2    0    0 -0.10687187912E+03  0.65711247847E+03 -0.20319347898E+02  0.67202713601E+03  0.89382256208E+02 0.  0.
        254    2    1    2    0    0  0.10687187912E+03 -0.65711247847E+03  0.46457339004E+03  0.12680520143E+04  0.97411963756E+03 0.  0.
         23    2    4    4    0    0  0.35048914128E+03  0.38827318537E+02 -0.44472129426E+02  0.36720058108E+03  0.92240433817E+02 0.  0.
         23    2    4    4    0    0 -0.24361726217E+03 -0.69593979701E+03  0.50904551946E+03  0.90085143320E+03  0.93404455562E+02 0.  0.
          2    1    3    3  502    0 -0.31743582792E+02  0.21925833080E+03  0.35183600497E+02  0.22432065535E+03  0.00000000000E+00 0. -1.
         -2    1    3    3    0  502 -0.75128296325E+02  0.43785414767E+03 -0.55502948395E+02  0.44770648066E+03  0.00000000000E+00 0.  1.
         11    1    5    5    0    0  0.14383278895E+02 -0.35733375962E+01  0.17368976371E+02  0.22832625638E+02  0.00000000000E+00 0. -1.
        -11    1    5    5    0    0  0.33610586239E+03  0.42400656134E+02 -0.61841105796E+02  0.34436795545E+03  0.00000000000E+00 0.  1.
          1    1    6    6  503    0 -0.93765345057E+02 -0.38977034962E+03  0.24675686217E+03  0.47074601900E+03  0.00000000000E+00 0. -1.
         -1    1    6    6    0  503 -0.14985191711E+03 -0.30616944739E+03  0.26228865729E+03  0.43010541420E+03  0.00000000000E+00 0.  1.
<mgrwt>
<rscale>  0 0.18885300E+04</rscale>
<asrwt>0</asrwt>
<pdfrwt beam="1">  1        2 0.18341025E+00 0.18885300E+04</pdfrwt>
<pdfrwt beam="2">  1       -2 0.11506347E+00 0.18885300E+04</pdfrwt>
<totfact> 0.10570838E+01</totfact>
</mgrwt>
</event>
<event>
12    2  0.3623523E-008  0.1191120E+04  0.7818608E-02  0.9120665E-01
         -2   -1    0    0    0  501 -0.00000000000E+00  0.00000000000E+00  0.52255279852E+03  0.52255279852E+03  0.00000000000E+00 0.  1.
          2   -1    0    0  501    0  0.00000000000E+00 -0.00000000000E+00 -0.67876668804E+03  0.67876668804E+03  0.00000000000E+00 0. -1.
         23    2    1    2    0    0  0.18426235676E+01 -0.84704956742E+02 -0.25366824059E+03  0.28136727636E+03  0.87416491376E+02 0.  0.
        254    2    1    2    0    0 -0.18426235676E+01  0.84704956742E+02  0.97454351068E+02  0.91995221020E+03  0.91084378109E+03 0.  0.
         23    2    4    4    0    0 -0.38997050493E+03 -0.60240854185E+02  0.24177505892E+03  0.47160723938E+03  0.90841917017E+02 0.  0.
         23    2    4    4    0    0  0.38812788136E+03  0.14494581093E+03 -0.14432070785E+03  0.44834497082E+03  0.92369939639E+02 0.  0.
          2    1    3    3  502    0  0.20892400908E+01  0.17955466266E+02 -0.52374280198E+02  0.55406036849E+02  0.00000000000E+00 0. -1.
         -2    1    3    3    0  502 -0.24661652328E+00 -0.10266042301E+03 -0.20129396039E+03  0.22596123951E+03  0.00000000000E+00 0.  1.
         11    1    5    5    0    0 -0.37262241481E+03 -0.70597496089E+02  0.24447984580E+03  0.45122263405E+03  0.00000000000E+00 0. -1.
        -11    1    5    5    0    0 -0.17348090119E+02  0.10356641904E+02 -0.27047868817E+01  0.20384605328E+02  0.00000000000E+00 0.  1.
          1    1    6    6  503    0  0.90625957540E+02  0.43630849936E+02 -0.77657291738E+02  0.12707230307E+03  0.00000000000E+00 0. -1.
         -1    1    6    6    0  503  0.29750192382E+03  0.10131496099E+03 -0.66663416112E+02  0.32127266776E+03  0.00000000000E+00 0.  1.
<mgrwt>
<rscale>  0 0.11911195E+04</rscale>
<asrwt>0</asrwt>
<pdfrwt beam="1">  1        2 0.10442564E+00 0.11911195E+04</pdfrwt>
<pdfrwt beam="2">  1       -2 0.80392739E-01 0.11911195E+04</pdfrwt>
<totfact> 0.57527495E+01</totfact>
</mgrwt>
</event>
<event>
12    2  0.3623523E-008  0.1652006E+04  0.7818608E-02  0.8789220E-01
          1   -1    0    0  501    0  0.00000000000E+00  0.00000000000E+00  0.15643164781E+04  0.15643164781E+04  0.00000000000E+00 0. -1.
         -1   -1    0    0    0  501 -0.00000000000E+00 -0.00000000000E+00 -0.43615288479E+03  0.43615288479E+03  0.00000000000E+00 0.  1.
         23    2    1    2    0    0 -0.38624506626E+03 -0.13622039202E+03  0.89405508268E+03  0.98763988158E+03  0.91415526132E+02 0.  0.
        254    2    1    2    0    0  0.38624506626E+03  0.13622039202E+03  0.23410851062E+03  0.10128294813E+04  0.89625639023E+03 0.  0.
         23    2    4    4    0    0  0.60748749660E+03  0.99203694432E+02  0.38121456517E+03  0.73003374787E+03  0.93500250352E+02 0.  0.
         23    2    4    4    0    0 -0.22124243034E+03  0.37016697593E+02 -0.14710605456E+03  0.28279573342E+03  0.89525340945E+02 0.  0.
          3    1    3    3  502    0 -0.35054146407E+03 -0.10787055941E+03  0.84219247977E+03  0.91858780124E+03  0.00000000000E+00 0. -1.
         -3    1    3    3    0  502 -0.35703602190E+02 -0.28349832610E+02  0.51862602914E+02  0.69052080341E+02  0.00000000000E+00 0.  1.
         11    1    5    5    0    0  0.41534109754E+03  0.71726007359E+02  0.31026871431E+03  0.52337321533E+03  0.00000000000E+00 0. -1.
        -11    1    5    5    0    0  0.19214639906E+03  0.27477687073E+02  0.70945850862E+02  0.20666053254E+03  0.00000000000E+00 0.  1.
          3    1    6    6  503    0 -0.10702875546E+01 -0.20020274014E-01 -0.31234942595E+02  0.31253280710E+02  0.00000000000E+00 0. -1.
         -3    1    6    6    0  503 -0.22017214279E+03  0.37036717867E+02 -0.11587111196E+03  0.25154245271E+03  0.00000000000E+00 0.  1.
<mgrwt>
<rscale>  0 0.16520062E+04</rscale>
<asrwt>0</asrwt>
<pdfrwt beam="1">  1        1 0.24066407E+00 0.16520062E+04</pdfrwt>
<pdfrwt beam="2">  1       -1 0.67100445E-01 0.16520062E+04</pdfrwt>
<totfact> 0.12692027E+01</totfact>
</mgrwt>
</event>
<event>
12    2  0.3623523E-008  0.1310003E+04  0.7818608E-02  0.9021670E-01
         -2   -1    0    0    0  501 -0.00000000000E+00  0.00000000000E+00  0.11438308844E+03  0.11438308844E+03  0.00000000000E+00 0.  1.
          2   -1    0    0  501    0  0.00000000000E+00 -0.00000000000E+00 -0.37507895921E+04  0.37507895921E+04  0.00000000000E+00 0. -1.
         23    2    1    2    0    0  0.22822146018E+03 -0.22297463318E+02 -0.33674641756E+03  0.41733190274E+03  0.90474060071E+02 0.  0.
        254    2    1    2    0    0 -0.22822146018E+03  0.22297463318E+02 -0.32996600861E+04  0.34478407778E+04  0.97327649390E+03 0.  0.
         23    2    4    4    0    0 -0.23107878529E+03 -0.20534870561E+03 -0.31362219403E+04  0.31528188672E+04  0.93878935925E+02 0.  0.
         23    2    4    4    0    0  0.28573251081E+01  0.22764616893E+03 -0.16343814587E+03  0.29502191068E+03  0.92168094930E+02 0.  0.
          2    1    3    3  502    0  0.27711754817E+02  0.26503921379E+02 -0.36022152847E+02  0.52611735376E+02  0.00000000000E+00 0. -1.
         -2    1    3    3    0  502  0.20050970537E+03 -0.48801384697E+02 -0.30072426472E+03  0.36472016737E+03  0.00000000000E+00 0.  1.
         11    1    5    5    0    0 -0.14740912045E+02 -0.34629962390E+02 -0.70978922921E+03  0.71078638049E+03  0.00000000000E+00 0. -1.
        -11    1    5    5    0    0 -0.21633787325E+03 -0.17071874322E+03 -0.24264327111E+04  0.24420324867E+04  0.00000000000E+00 0.  1.
          1    1    6    6  503    0 -0.43065306556E+02  0.78351057722E+02 -0.60682286044E+02  0.10805484124E+03  0.00000000000E+00 0. -1.
         -1    1    6    6    0  503  0.45922631664E+02  0.14929511121E+03 -0.10275585982E+03  0.18696706945E+03  0.00000000000E+00 0.  1.
<mgrwt>
<rscale>  0 0.13100029E+04</rscale>
<asrwt>0</asrwt>
<pdfrwt beam="1">  1        2 0.57704449E+00 0.13100029E+04</pdfrwt>
<pdfrwt beam="2">  1       -2 0.17597400E-01 0.13100029E+04</pdfrwt>
<totfact> 0.14375794E+01</totfact>
</mgrwt>
</event>
<event>
12    2  0.3623523E-008  0.3036150E+04  0.7818608E-02  0.8233483E-01
         -1   -1    0    0    0  501 -0.00000000000E+00  0.00000000000E+00  0.94161504459E+03  0.94161504459E+03  0.00000000000E+00 0.  1.
          1   -1    0    0  501    0  0.00000000000E+00 -0.00000000000E+00 -0.24474461323E+04  0.24474461323E+04  0.00000000000E+00 0. -1.
         23    2    1    2    0    0 -0.11881778971E+04 -0.37967953260E+03 -0.13559189949E+04  0.18447156098E+04  0.92391004490E+02 0.  0.
        254    2    1    2    0    0  0.11881778971E+04  0.37967953260E+03 -0.14991209275E+03  0.15443455670E+04  0.89811265016E+03 0.  0.
         23    2    4    4    0    0  0.76743010736E+03  0.66564978929E+03 -0.84031774298E+02  0.10233917554E+04  0.90723393868E+02 0.  0.
         23    2    4    4    0    0  0.42074778969E+03 -0.28597025670E+03 -0.65880318447E+02  0.52095381167E+03  0.90801802265E+02 0.  0.
          4    1    3    3  502    0 -0.92789045019E+03 -0.28998410982E+03 -0.11104909505E+04  0.14758934997E+04  0.00000000000E+00 0. -1.
         -4    1    3    3    0  502 -0.26028744686E+03 -0.89695422779E+02 -0.24542804446E+03  0.36882211006E+03  0.00000000000E+00 0.  1.
         11    1    5    5    0    0  0.40860915920E+03  0.37825950314E+03 -0.44538693741E+01  0.55683169240E+03  0.00000000000E+00 0. -1.
        -11    1    5    5    0    0  0.35882094816E+03  0.28739028615E+03 -0.79577904924E+02  0.46656006298E+03  0.00000000000E+00 0.  1.
          1    1    6    6  503    0  0.51143606837E+02 -0.68096797250E+02  0.82257840302E+01  0.85559954645E+02  0.00000000000E+00 0. -1.
         -1    1    6    6    0  503  0.36960418285E+03 -0.21787345945E+03 -0.74106102477E+02  0.43539385703E+03  0.00000000000E+00 0.  1.
<mgrwt>
<rscale>  0 0.30361503E+04</rscale>
<asrwt>0</asrwt>
<pdfrwt beam="1">  1        1 0.37653017E+00 0.30361503E+04</pdfrwt>
<pdfrwt beam="2">  1       -1 0.14486386E+00 0.30361503E+04</pdfrwt>
<totfact> 0.47861513E-01</totfact>
</mgrwt>
</event>
<event>
12    2  0.3623523E-008  0.1627512E+04  0.7818608E-02  0.8803822E-01
          1   -1    0    0  501    0  0.00000000000E+00  0.00000000000E+00  0.11748514043E+04  0.11748514043E+04  0.00000000000E+00 0. -1.
         -1   -1    0    0    0  501 -0.00000000000E+00 -0.00000000000E+00 -0.56364466414E+03  0.56364466414E+03  0.00000000000E+00 0.  1.
         23    2    1    2    0    0  0.37144233307E+03  0.37063559118E+03  0.38314088496E+03  0.65598481670E+03  0.90437789493E+02 0.  0.
        254    2    1    2    0    0 -0.37144233307E+03 -0.37063559118E+03  0.22806585517E+03  0.10825112517E+04  0.91895398555E+03 0.  0.
         23    2    4    4    0    0 -0.26593612853E+03 -0.55023664466E+03  0.45053781884E+03  0.76480674949E+03  0.91992653346E+02 0.  0.
         23    2    4    4    0    0 -0.10550620454E+03  0.17960105348E+03 -0.22247196368E+03  0.31770450223E+03  0.89745632240E+02 0.  0.
          2    1    3    3  502    0  0.37493473722E+03  0.36788476111E+03  0.37107688625E+03  0.64312775569E+03  0.00000000000E+00 0. -1.
         -2    1    3    3    0  502 -0.34924041525E+01  0.27508300627E+01  0.12063998710E+02  0.12857061004E+02  0.00000000000E+00 0.  1.
         11    1    5    5    0    0 -0.17196590310E+03 -0.27943986361E+03  0.27947408597E+03  0.43100426208E+03  0.00000000000E+00 0.  1.
        -11    1    5    5    0    0 -0.93970225426E+02 -0.27079678105E+03  0.17106373287E+03  0.33380248740E+03  0.00000000000E+00 0. -1.
          3    1    6    6  503    0 -0.81401078845E+02  0.60866574162E+02 -0.72199883468E+02  0.12467437050E+03  0.00000000000E+00 0. -1.
         -3    1    6    6    0  503 -0.24105125695E+02  0.11873447932E+03 -0.15027208021E+03  0.19303013173E+03  0.00000000000E+00 0.  1.
<mgrwt>
<rscale>  0 0.16275119E+04</rscale>
<asrwt>0</asrwt>
<pdfrwt beam="1">  1        1 0.18074637E+00 0.16275119E+04</pdfrwt>
<pdfrwt beam="2">  1       -1 0.86714564E-01 0.16275119E+04</pdfrwt>
<totfact> 0.13994165E+01</totfact>
</mgrwt>
</event>
<event>
12    2  0.3623523E-008  0.1216956E+04  0.7818608E-02  0.9098143E-01
         -2   -1    0    0    0  501 -0.00000000000E+00  0.00000000000E+00  0.20149296870E+03  0.20149296870E+03  0.00000000000E+00 0.  1.
          2   -1    0    0  501    0  0.00000000000E+00 -0.00000000000E+00 -0.18375096956E+04  0.18375096956E+04  0.00000000000E+00 0. -1.
         23    2    1    2    0    0  0.19925372747E+03 -0.71392581724E+02 -0.64491682660E+03  0.68365011024E+03  0.81613793986E+02 0.  0.
        254    2    1    2    0    0 -0.19925372747E+03  0.71392581724E+02 -0.99109990034E+03  0.13553525541E+04  0.89994587880E+03 0.  0.
         23    2    4    4    0    0  0.26189378235E+03  0.13255841796E+03 -0.64144591310E+02  0.31407651522E+03  0.91484651223E+02 0.  0.
         23    2    4    4    0    0 -0.46114750983E+03 -0.61165836236E+02 -0.92695530903E+03  0.10412760389E+04  0.92797407490E+02 0.  0.
          4    1    3    3  502    0  0.15761925303E+03 -0.22024468105E+02 -0.50636518404E+03  0.53078677991E+03  0.00000000000E+00 0. -1.
         -4    1    3    3    0  502  0.41634474444E+02 -0.49368113619E+02 -0.13855164256E+03  0.15286333033E+03  0.00000000000E+00 0.  1.
         11    1    5    5    0    0  0.24889248546E+03  0.97193870347E+02 -0.69324337061E+02  0.27604344126E+03  0.00000000000E+00 0.  1.
        -11    1    5    5    0    0  0.13001296890E+02  0.35364547613E+02  0.51797457502E+01  0.38033073958E+02  0.00000000000E+00 0. -1.
          3    1    6    6  503    0 -0.12222344502E+03 -0.51900373794E+02 -0.31122288306E+03  0.33836652058E+03  0.00000000000E+00 0. -1.
         -3    1    6    6    0  503 -0.33892406481E+03 -0.92654624423E+01 -0.61573242598E+03  0.70290951829E+03  0.00000000000E+00 0.  1.
<mgrwt>
<rscale>  0 0.12169557E+04</rscale>
<asrwt>0</asrwt>
<pdfrwt beam="1">  1        2 0.28269380E+00 0.12169557E+04</pdfrwt>
<pdfrwt beam="2">  1       -2 0.30998918E-01 0.12169557E+04</pdfrwt>
<totfact> 0.78212655E+01</totfact>
</mgrwt>
</event>
<event>
12    2  0.3623523E-008  0.1481526E+04  0.7818608E-02  0.8896832E-01
          1   -1    0    0  501    0  0.00000000000E+00  0.00000000000E+00  0.95038479207E+03  0.95038479207E+03  0.00000000000E+00 0. -1.
         -1   -1    0    0    0  501 -0.00000000000E+00 -0.00000000000E+00 -0.57737665177E+03  0.57737665177E+03  0.00000000000E+00 0.  1.
         23    2    1    2    0    0  0.22277887735E+03  0.29767061785E+03  0.40823193849E+03  0.55699313737E+03  0.73142426475E+02 0.  0.
        254    2    1    2    0    0 -0.22277887735E+03 -0.29767061785E+03 -0.35223798185E+02  0.97076830646E+03  0.89605366131E+03 0.  0.
         23    2    4    4    0    0 -0.29616728667E+03 -0.27927220406E+03  0.36340095537E+03  0.55461268300E+03  0.99130964522E+02 0.  0.
         23    2    4    4    0    0  0.73388409319E+02 -0.18398413794E+02 -0.39862475356E+03  0.41615562346E+03  0.92517287793E+02 0.  0.
          2    1    3    3  502    0  0.44959323505E+02  0.81854251961E+02  0.14800473576E+03  0.17500531746E+03  0.00000000000E+00 0. -1.
         -2    1    3    3    0  502  0.17781955384E+03  0.21581636589E+03  0.26022720273E+03  0.38198781991E+03  0.00000000000E+00 0.  1.
         11    1    5    5    0    0 -0.25513744600E+03 -0.25530031554E+03  0.27324071711E+03  0.45269620824E+03  0.00000000000E+00 0. -1.
        -11    1    5    5    0    0 -0.41029840671E+02 -0.23971888518E+02  0.90160238263E+02  0.10191647476E+03  0.00000000000E+00 0.  1.
          4    1    6    6  503    0  0.55117071267E+02 -0.62348829494E+01 -0.38768074295E+03  0.39162880865E+03  0.00000000000E+00 0. -1.
         -4    1    6    6    0  503  0.18271338051E+02 -0.12163530844E+02 -0.10944010607E+02  0.24526814815E+02  0.00000000000E+00 0.  1.
<mgrwt>
<rscale>  0 0.14815262E+04</rscale>
<asrwt>0</asrwt>
<pdfrwt beam="1">  1        1 0.14621305E+00 0.14815262E+04</pdfrwt>
<pdfrwt beam="2">  1       -1 0.88827177E-01 0.14815262E+04</pdfrwt>
<totfact> 0.19957513E+01</totfact>
</mgrwt>
</event>
<event>
12    2  0.3623523E-008  0.1435523E+04  0.7818608E-02  0.8928499E-01
         -1   -1    0    0    0  501 -0.00000000000E+00  0.00000000000E+00  0.52413664165E+03  0.52413664165E+03  0.00000000000E+00 0.  1.
          1   -1    0    0  501    0  0.00000000000E+00 -0.00000000000E+00 -0.98291413599E+03  0.98291413599E+03  0.00000000000E+00 0. -1.
         23    2    1    2    0    0 -0.30334830111E+03 -0.30279054654E+02 -0.44319261929E+03  0.54544369388E+03  0.90289049517E+02 0.  0.
        254    2    1    2    0    0  0.30334830111E+03  0.30279054654E+02 -0.15584875044E+02  0.96160708376E+03  0.91187075963E+03 0.  0.
         23    2    4    4    0    0  0.43507396931E+03  0.10355249697E+03 -0.35571720097E+03  0.57879069976E+03  0.91931869709E+02 0.  0.
         23    2    4    4    0    0 -0.13172566820E+03 -0.73273442317E+02  0.34013232593E+03  0.38281638399E+03  0.90209399200E+02 0.  0.
          2    1    3    3  502    0 -0.30337936522E+03 -0.16206155299E+02 -0.42568290930E+03  0.52297955791E+03  0.00000000000E+00 0. -1.
         -2    1    3    3    0  502  0.31064115222E-01 -0.14072899355E+02 -0.17509709990E+02  0.22464135976E+02  0.00000000000E+00 0.  1.
         11    1    5    5    0    0  0.42910046798E+03  0.10883389288E+03 -0.35920485599E+03  0.57008784975E+03  0.00000000000E+00 0.  1.
        -11    1    5    5    0    0  0.59735013208E+01 -0.52813959101E+01  0.34876550208E+01  0.87028500121E+01  0.00000000000E+00 0. -1.
          2    1    6    6  503    0 -0.25276573504E+02  0.87889771436E+01  0.14281896155E+02  0.30333543234E+02  0.00000000000E+00 0. -1.
         -2    1    6    6    0  503 -0.10644909469E+03 -0.82062419461E+02  0.32585042977E+03  0.35248284076E+03  0.00000000000E+00 0.  1.
<mgrwt>
<rscale>  0 0.14355226E+04</rscale>
<asrwt>0</asrwt>
<pdfrwt beam="1">  1        1 0.15121756E+00 0.14355226E+04</pdfrwt>
<pdfrwt beam="2">  1       -1 0.80636407E-01 0.14355226E+04</pdfrwt>
<totfact> 0.23279306E+01</totfact>
</mgrwt>
</event>
<event>
12    2  0.3623523E-008  0.1845657E+04  0.7818608E-02  0.8682389E-01
         -2   -1    0    0    0  501 -0.00000000000E+00  0.00000000000E+00  0.82830510924E+03  0.82830510924E+03  0.00000000000E+00 0.  1.
          2   -1    0    0  501    0  0.00000000000E+00 -0.00000000000E+00 -0.10281385462E+04  0.10281385462E+04  0.00000000000E+00 0. -1.
         23    2    1    2    0    0  0.22777653057E+03 -0.57548146308E+03 -0.33625572830E+03  0.71025291745E+03  0.91270092067E+02 0.  0.
        254    2    1    2    0    0 -0.22777653057E+03  0.57548146308E+03  0.13642229134E+03  0.11461907380E+04  0.95502937340E+03 0.  0.
         23    2    4    4    0    0 -0.14319283912E+03  0.82910407173E+03  0.38174228022E+02  0.84706976297E+03  0.90289316774E+02 0.  0.
         23    2    4    4    0    0 -0.84583691451E+02 -0.25362260865E+03  0.98248063319E+02  0.29912097502E+03  0.91333713787E+02 0.  0.
          3    1    3    3  502    0  0.17602551901E+03 -0.51450433861E+03 -0.27407469736E+03  0.60894715495E+03  0.00000000000E+00 0. -1.
         -3    1    3    3    0  502  0.51751011567E+02 -0.60977124463E+02 -0.62181030940E+02  0.10130576250E+03  0.00000000000E+00 0.  1.
         11    1    5    5    0    0 -0.13510300547E+03  0.81336352110E+03  0.49609756616E+02  0.82599889074E+03  0.00000000000E+00 0. -1.
        -11    1    5    5    0    0 -0.80898336489E+01  0.15740550626E+02 -0.11435528595E+02  0.21070872234E+02  0.00000000000E+00 0.  1.
          3    1    6    6  503    0 -0.58023878503E+02 -0.24734832270E+03  0.96506335548E+02  0.27177460518E+03  0.00000000000E+00 0. -1.
         -3    1    6    6    0  503 -0.26559812948E+02 -0.62742859515E+01  0.17417277715E+01  0.27346369845E+02  0.00000000000E+00 0.  1.
<mgrwt>
<rscale>  0 0.18456570E+04</rscale>
<asrwt>0</asrwt>
<pdfrwt beam="1">  1        2 0.15817516E+00 0.18456570E+04</pdfrwt>
<pdfrwt beam="2">  1       -2 0.12743156E+00 0.18456570E+04</pdfrwt>
<totfact> 0.10383663E+01</totfact>
</mgrwt>
</event>
<event>
12    2  0.3623523E-008  0.2495874E+04  0.7818608E-02  0.8404457E-01
         -2   -1    0    0    0  501 -0.00000000000E+00  0.00000000000E+00  0.22812954303E+04  0.22812954303E+04  0.00000000000E+00 0.  1.
          2   -1    0    0  501    0  0.00000000000E+00 -0.00000000000E+00 -0.68265895100E+03  0.68265895100E+03  0.00000000000E+00 0. -1.
         23    2    1    2    0    0  0.56229242941E+03  0.92550459953E+03  0.51989843925E+03  0.12054521571E+04  0.10044389457E+03 0.  0.
        254    2    1    2    0    0 -0.56229242941E+03 -0.92550459953E+03  0.10787380401E+04  0.17585022243E+04  0.86943819427E+03 0.  0.
         23    2    4    4    0    0 -0.55416444014E+02 -0.63407163489E+03  0.15464620975E+03  0.66119474688E+03  0.90250887396E+02 0.  0.
         23    2    4    4    0    0 -0.50687598540E+03 -0.29143296464E+03  0.92409183034E+03  0.10973074774E+04  0.91003030461E+02 0.  0.
          2    1    3    3  502    0  0.16680295544E+03  0.28765420049E+03  0.10962720228E+03  0.35012324756E+03  0.00000000000E+00 0. -1.
         -2    1    3    3    0  502  0.39548947398E+03  0.63785039904E+03  0.41027123697E+03  0.85532890953E+03  0.00000000000E+00 0.  1.
         11    1    5    5    0    0 -0.48647538150E+02 -0.40514004576E+03  0.56203162639E+02  0.41190270106E+03  0.00000000000E+00 0. -1.
        -11    1    5    5    0    0 -0.67689058635E+01 -0.22893158913E+03  0.98443047108E+02  0.24929204582E+03  0.00000000000E+00 0.  1.
          3    1    6    6  503    0 -0.40625967558E+03 -0.27219095051E+03  0.77632658548E+03  0.91750629691E+03  0.00000000000E+00 0. -1.
         -3    1    6    6    0  503 -0.10061630982E+03 -0.19242014130E+02  0.14776524486E+03  0.17980118047E+03  0.00000000000E+00 0.  1.
<mgrwt>
<rscale>  0 0.24958740E+04</rscale>
<asrwt>0</asrwt>
<pdfrwt beam="1">  1        2 0.10502446E+00 0.24958740E+04</pdfrwt>
<pdfrwt beam="2">  1       -2 0.35096852E+00 0.24958740E+04</pdfrwt>
<totfact> 0.57914241E-01</totfact>
</mgrwt>
</event>
<event>
12    2  0.3623523E-008  0.1264375E+04  0.7818608E-02  0.9058303E-01
         -2   -1    0    0    0  501 -0.00000000000E+00  0.00000000000E+00  0.19916784086E+03  0.19916784086E+03  0.00000000000E+00 0.  1.
          2   -1    0    0  501    0  0.00000000000E+00 -0.00000000000E+00 -0.20066536214E+04  0.20066536214E+04  0.00000000000E+00 0. -1.
         23    2    1    2    0    0 -0.61276495904E+01 -0.26962764296E+03 -0.68615485328E+03  0.74298954566E+03  0.92132341515E+02 0.  0.
        254    2    1    2    0    0  0.61276495904E+01  0.26962764296E+03 -0.11213309273E+04  0.14628319166E+04  0.89986529762E+03 0.  0.
         23    2    4    4    0    0 -0.38043168378E+03  0.26513219691E+03 -0.87783642190E+03  0.99706709902E+03  0.92318299792E+02 0.  0.
         23    2    4    4    0    0  0.38655933337E+03  0.44954460480E+01 -0.24349450542E+03  0.46576481762E+03  0.90548130381E+02 0.  0.
          4    1    3    3  502    0 -0.61578599854E+01 -0.14539476081E+03 -0.24781110838E+03  0.28738110785E+03  0.00000000000E+00 0. -1.
         -4    1    3    3    0  502  0.30210395086E-01 -0.12423288215E+03 -0.43834374489E+03  0.45560843781E+03  0.00000000000E+00 0.  1.
         11    1    5    5    0    0 -0.33199851774E+03  0.20970679667E+03 -0.67016547575E+03  0.77673787164E+03  0.00000000000E+00 0.  1.
        -11    1    5    5    0    0 -0.48433166037E+02  0.55425400248E+02 -0.20767094614E+03  0.22032922738E+03  0.00000000000E+00 0. -1.
          3    1    6    6  503    0  0.52244623651E+02 -0.28989976642E+02 -0.23736531914E+02  0.64291075535E+02  0.00000000000E+00 0. -1.
         -3    1    6    6    0  503  0.33431470972E+03  0.33485422690E+02 -0.21975797350E+03  0.40147374209E+03  0.00000000000E+00 0.  1.
<mgrwt>
<rscale>  0 0.12643747E+04</rscale>
<asrwt>0</asrwt>
<pdfrwt beam="1">  1        2 0.30871595E+00 0.12643747E+04</pdfrwt>
<pdfrwt beam="2">  1       -2 0.30641205E-01 0.12643747E+04</pdfrwt>
<totfact> 0.64222774E+01</totfact>
</mgrwt>
</event>
<event>
12    2  0.3623523E-008  0.1228066E+04  0.7818608E-02  0.9088639E-01
         -1   -1    0    0    0  501 -0.00000000000E+00  0.00000000000E+00  0.67264752152E+03  0.67264752152E+03  0.00000000000E+00 0. -1.
          1   -1    0    0  501    0  0.00000000000E+00 -0.00000000000E+00 -0.56052639669E+03  0.56052639669E+03  0.00000000000E+00 0.  1.
         23    2    1    2    0    0  0.14145089194E+03 -0.68168602132E+01 -0.21093966707E+03  0.26829018115E+03  0.86193118909E+02 0.  0.
        254    2    1    2    0    0 -0.14145089194E+03  0.68168602132E+01  0.32306079190E+03  0.96488373706E+03  0.89809661305E+03 0.  0.
         23    2    4    4    0    0  0.95462246626E+02  0.56877100480E+02  0.58140400103E+03  0.59892668459E+03  0.91293570530E+02 0.  0.
         23    2    4    4    0    0 -0.23691313857E+03 -0.50060240267E+02 -0.25834320913E+03  0.36595705247E+03  0.92463439607E+02 0.  0.
          3    1    3    3  502    0  0.97357819693E+02  0.26973357857E+01 -0.69012563455E+02  0.11936730955E+03  0.00000000000E+00 0. -1.
         -3    1    3    3    0  502  0.44093072249E+02 -0.95141959989E+01 -0.14192710361E+03  0.14892287160E+03  0.00000000000E+00 0.  1.
         11    1    5    5    0    0  0.84106265664E+02  0.78892979928E+01  0.25389256633E+03  0.26757716679E+03  0.00000000000E+00 0. -1.
        -11    1    5    5    0    0  0.11355980962E+02  0.48987802487E+02  0.32751143469E+03  0.33134951781E+03  0.00000000000E+00 0.  1.
          3    1    6    6  503    0 -0.14742103450E+03 -0.35012607160E+02 -0.94252550381E+02  0.17844435359E+03  0.00000000000E+00 0. -1.
         -3    1    6    6    0  503 -0.89492104068E+02 -0.15047633107E+02 -0.16409065875E+03  0.18751269888E+03  0.00000000000E+00 0.  1.
<mgrwt>
<rscale>  0 0.12280663E+04</rscale>
<asrwt>0</asrwt>
<pdfrwt beam="1">  1        1 0.86234830E-01 0.12280663E+04</pdfrwt>
<pdfrwt beam="2">  1       -1 0.10348423E+00 0.12280663E+04</pdfrwt>
<totfact> 0.32864974E+01</totfact>
</mgrwt>
</event>
<event>
12    2  0.3623523E-008  0.1990970E+04  0.7818608E-02  0.8610854E-01
         -2   -1    0    0    0  501 -0.00000000000E+00  0.00000000000E+00  0.53239008627E+03  0.53239008627E+03  0.00000000000E+00 0.  1.
          2   -1    0    0  501    0  0.00000000000E+00 -0.00000000000E+00 -0.18613988234E+04  0.18613988234E+04  0.00000000000E+00 0. -1.
         23    2    1    2    0    0  0.15892823671E+03  0.30053489599E+03  0.32657825247E+03  0.48008877646E+03  0.90843107409E+02 0.  0.
        254    2    1    2    0    0 -0.15892823671E+03 -0.30053489599E+03 -0.16555869897E+04  0.19137001332E+04  0.89760821718E+03 0.  0.
         23    2    4    4    0    0 -0.10819860025E+03 -0.11246836932E+03  0.54967365460E+02  0.18973227081E+03  0.92848544028E+02 0.  0.
         23    2    4    4    0    0 -0.50729636459E+02 -0.18806652667E+03 -0.17105543551E+04  0.17239678624E+04  0.90146960261E+02 0.  0.
          3    1    3    3  502    0  0.34660024075E+02  0.16198883630E+03  0.14727762081E+03  0.22165829095E+03  0.00000000000E+00 0. -1.
         -3    1    3    3    0  502  0.12426821264E+03  0.13854605969E+03  0.17930063166E+03  0.25843048551E+03  0.00000000000E+00 0.  1.
         11    1    5    5    0    0 -0.13071703237E+02 -0.15673235610E+02  0.49912341018E+02  0.53923663876E+02  0.00000000000E+00 0. -1.
        -11    1    5    5    0    0 -0.95126897014E+02 -0.96795133715E+02  0.50550244423E+01  0.13580860694E+03  0.00000000000E+00 0.  1.
          4    1    6    6  503    0 -0.21731068656E+01  0.54859020683E+01 -0.90611118248E+01  0.10813013569E+02  0.00000000000E+00 0.  1.
         -4    1    6    6    0  503 -0.48556529594E+02 -0.19355242873E+03 -0.17014932433E+04  0.17131548489E+04  0.00000000000E+00 0. -1.
<mgrwt>
<rscale>  0 0.19909699E+04</rscale>
<asrwt>0</asrwt>
<pdfrwt beam="1">  1        2 0.28636905E+00 0.19909699E+04</pdfrwt>
<pdfrwt beam="2">  1       -2 0.81906168E-01 0.19909699E+04</pdfrwt>
<totfact> 0.97210995E+00</totfact>
</mgrwt>
</event>
<event>
12    2  0.3623523E-008  0.2218918E+04  0.7818608E-02  0.8510595E-01
          1   -1    0    0  501    0  0.00000000000E+00  0.00000000000E+00  0.18270564334E+04  0.18270564334E+04  0.00000000000E+00 0. -1.
         -1   -1    0    0    0  501 -0.00000000000E+00 -0.00000000000E+00 -0.67370633666E+03  0.67370633666E+03  0.00000000000E+00 0.  1.
         23    2    1    2    0    0  0.77412112751E+03 -0.86703168656E+02 -0.78615012092E+02  0.78821525244E+03  0.91225021485E+02 0.  0.
        254    2    1    2    0    0 -0.77412112751E+03  0.86703168656E+02  0.12319651088E+04  0.17125475176E+04  0.89905506571E+03 0.  0.
         23    2    4    4    0    0 -0.47639535798E+03  0.43407787746E+03  0.99500691878E+03  0.11891367754E+04  0.92905120561E+02 0.  0.
         23    2    4    4    0    0 -0.29772576953E+03 -0.34737470881E+03  0.23695819003E+03  0.52341074217E+03  0.92194354700E+02 0.  0.
          2    1    3    3  502    0  0.13623587642E+03  0.14215886172E+02 -0.32333084599E+02  0.14073995099E+03  0.00000000000E+00 0. -1.
         -2    1    3    3    0  502  0.63788525109E+03 -0.10091905483E+03 -0.46281927493E+02  0.64747530146E+03  0.00000000000E+00 0.  1.
         11    1    5    5    0    0 -0.35094824278E+03  0.36211283875E+03  0.73004332633E+03  0.88727314589E+03  0.00000000000E+00 0.  1.
        -11    1    5    5    0    0 -0.12544711520E+03  0.71965038717E+02  0.26496359245E+03  0.30186362953E+03  0.00000000000E+00 0. -1.
          4    1    6    6  503    0 -0.98050679445E+01 -0.55289914098E+02  0.35857289768E+02  0.66624764074E+02  0.00000000000E+00 0. -1.
         -4    1    6    6    0  503 -0.28792070159E+03 -0.29208479471E+03  0.20110090026E+03  0.45678597810E+03  0.00000000000E+00 0.  1.
<mgrwt>
<rscale>  0 0.22189182E+04</rscale>
<asrwt>0</asrwt>
<pdfrwt beam="1">  1        1 0.28108560E+00 0.22189182E+04</pdfrwt>
<pdfrwt beam="2">  1       -1 0.10364713E+00 0.22189182E+04</pdfrwt>
<totfact> 0.31184525E+00</totfact>
</mgrwt>
</event>
<event>
12    2  0.3623523E-008  0.1107140E+04  0.7818608E-02  0.9198260E-01
          2   -1    0    0  501    0  0.00000000000E+00  0.00000000000E+00  0.77075526720E+03  0.77075526720E+03  0.00000000000E+00 0. -1.
         -2   -1    0    0    0  501 -0.00000000000E+00 -0.00000000000E+00 -0.39758404883E+03  0.39758404883E+03  0.00000000000E+00 0.  1.
         23    2    1    2    0    0 -0.53298012272E+02 -0.12456609490E+03 -0.56170580400E+02  0.17260318117E+03  0.90990845341E+02 0.  0.
        254    2    1    2    0    0  0.53298012272E+02  0.12456609490E+03  0.42934179877E+03  0.99573613487E+03  0.88814338932E+03 0.  0.
         23    2    4    4    0    0 -0.28097183911E+03  0.23209134168E+03 -0.65985883494E+02  0.38180239073E+03  0.92775877720E+02 0.  0.
         23    2    4    4    0    0  0.33426985139E+03 -0.10752524678E+03  0.49532768227E+03  0.61393374414E+03  0.90923688500E+02 0.  0.
          3    1    3    3  502    0 -0.16200214084E+02 -0.48759693147E+02  0.23538213357E+02  0.56515503185E+02  0.00000000000E+00 0. -1.
         -3    1    3    3    0  502 -0.37097798188E+02 -0.75806401750E+02 -0.79708793758E+02  0.11608767798E+03  0.00000000000E+00 0.  1.
         11    1    5    5    0    0 -0.62755209814E+02  0.99302571785E+01 -0.22355328962E+02  0.67354191402E+02  0.00000000000E+00 0.  1.
        -11    1    5    5    0    0 -0.21821662930E+03  0.22216108450E+03 -0.43630554532E+02  0.31444819933E+03  0.00000000000E+00 0. -1.
          2    1    6    6  503    0  0.32680698870E+03 -0.10663265775E+03  0.44132918885E+03  0.55941468026E+03  0.00000000000E+00 0. -1.
         -2    1    6    6    0  503  0.74628626851E+01 -0.89258903747E+00  0.53998493417E+02  0.54519063876E+02  0.00000000000E+00 0.  1.
<mgrwt>
<rscale>  0 0.11071405E+04</rscale>
<asrwt>0</asrwt>
<pdfrwt beam="1">  1        2 0.11857773E+00 0.11071405E+04</pdfrwt>
<pdfrwt beam="2">  1       -2 0.61166777E-01 0.11071405E+04</pdfrwt>
<totfact> 0.89324489E+01</totfact>
</mgrwt>
</event>
<event>
12    2  0.3623523E-008  0.2426964E+04  0.7818608E-02  0.8429477E-01
         -2   -1    0    0    0  501 -0.00000000000E+00  0.00000000000E+00  0.56311850686E+03  0.56311850686E+03  0.00000000000E+00 0.  1.
          2   -1    0    0  501    0  0.00000000000E+00 -0.00000000000E+00 -0.26149712579E+04  0.26149712579E+04  0.00000000000E+00 0. -1.
         23    2    1    2    0    0 -0.13667976914E+02  0.31780231352E+03 -0.21824482481E+04  0.22075547396E+04  0.95039194208E+02 0.  0.
        254    2    1    2    0    0  0.13667976914E+02 -0.31780231352E+03  0.13059549712E+03  0.97053502514E+03  0.90757805565E+03 0.  0.
         23    2    4    4    0    0  0.12582905559E+03  0.23179366867E+03 -0.17085474426E+03  0.32685790108E+03  0.89908218736E+02 0.  0.
         23    2    4    4    0    0 -0.11216107867E+03 -0.54959598219E+03  0.30145024138E+03  0.64367712407E+03  0.93873003662E+02 0.  0.
          2    1    3    3  502    0  0.18068611106E+02  0.20600705572E+03 -0.16262225038E+04  0.16393184601E+04  0.00000000000E+00 0. -1.
         -2    1    3    3    0  502 -0.31736588020E+02  0.11179525780E+03 -0.55622574437E+03  0.56823627954E+03  0.00000000000E+00 0.  1.
         11    1    5    5    0    0  0.10929443294E+03  0.12890037163E+03 -0.73658300398E+02  0.18435325898E+03  0.00000000000E+00 0. -1.
        -11    1    5    5    0    0  0.16534622651E+02  0.10289329703E+03 -0.97196443859E+02  0.14250464210E+03  0.00000000000E+00 0.  1.
          1    1    6    6  503    0 -0.78230238675E+02 -0.17390092935E+03  0.11761795606E+03  0.22404349368E+03  0.00000000000E+00 0. -1.
         -1    1    6    6    0  503 -0.33930839998E+02 -0.37569505283E+03  0.18383228532E+03  0.41963363039E+03  0.00000000000E+00 0.  1.
<mgrwt>
<rscale>  0 0.24269641E+04</rscale>
<asrwt>0</asrwt>
<pdfrwt beam="1">  1        2 0.40230327E+00 0.24269641E+04</pdfrwt>
<pdfrwt beam="2">  1       -2 0.86633617E-01 0.24269641E+04</pdfrwt>
<totfact> 0.30865464E+00</totfact>
</mgrwt>
</event>
<event>
12    2  0.3623523E-008  0.1280376E+04  0.7818608E-02  0.9045274E-01
         -2   -1    0    0    0  501 -0.00000000000E+00  0.00000000000E+00  0.24717817548E+03  0.24717817548E+03  0.00000000000E+00 0. -1.
          2   -1    0    0  501    0  0.00000000000E+00 -0.00000000000E+00 -0.16580773322E+04  0.16580773322E+04  0.00000000000E+00 0.  1.
         23    2    1    2    0    0 -0.19859653296E+03 -0.63925399877E+02 -0.15302420665E+02  0.22899167327E+03  0.93144955282E+02 0.  0.
        254    2    1    2    0    0  0.19859653296E+03  0.63925399877E+02 -0.13955967361E+04  0.16762638344E+04  0.90478901034E+03 0.  0.
         23    2    4    4    0    0  0.61237674284E+01  0.23942855958E+02  0.11375499699E+03  0.15142573329E+03  0.96844165972E+02 0.  0.
         23    2    4    4    0    0  0.19247276553E+03  0.39982543919E+02 -0.15093517330E+04  0.15248381011E+04  0.91346654736E+02 0.  0.
          1    1    3    3  502    0 -0.74397870389E+02 -0.18215256823E+02  0.38986225861E+02  0.85946288497E+02  0.00000000000E+00 0. -1.
         -1    1    3    3    0  502 -0.12419866257E+03 -0.45710143054E+02 -0.54288646526E+02  0.14304538477E+03  0.00000000000E+00 0.  1.
         11    1    5    5    0    0 -0.18648352834E+02  0.52607548152E+02  0.40522571514E+02  0.68973864529E+02  0.00000000000E+00 0.  1.
        -11    1    5    5    0    0  0.24772120262E+02 -0.28664692194E+02  0.73232425474E+02  0.82451868758E+02  0.00000000000E+00 0. -1.
          2    1    6    6  503    0  0.69926069985E+02  0.55285822377E+02 -0.49111837102E+03  0.49914269681E+03  0.00000000000E+00 0. -1.
         -2    1    6    6    0  503  0.12254669555E+03 -0.15303278458E+02 -0.10182333620E+04  0.10256954043E+04  0.00000000000E+00 0.  1.
<mgrwt>
<rscale>  0 0.12803758E+04</rscale>
<asrwt>0</asrwt>
<pdfrwt beam="1">  1        2 0.25508882E+00 0.12803758E+04</pdfrwt>
<pdfrwt beam="2">  1       -2 0.38027412E-01 0.12803758E+04</pdfrwt>
<totfact> 0.66288253E+01</totfact>
</mgrwt>
</event>
<event>
12    2  0.3623523E-008  0.2076261E+04  0.7818608E-02  0.8571773E-01
         -2   -1    0    0    0  501 -0.00000000000E+00  0.00000000000E+00  0.90279077880E+03  0.90279077880E+03  0.00000000000E+00 0.  1.
          2   -1    0    0  501    0  0.00000000000E+00 -0.00000000000E+00 -0.11937589173E+04  0.11937589173E+04  0.00000000000E+00 0. -1.
         23    2    1    2    0    0 -0.25050889601E+03  0.51832363796E+03 -0.73527718414E+03  0.93826941110E+03  0.91119973914E+02 0.  0.
        254    2    1    2    0    0  0.25050889601E+03 -0.51832363796E+03  0.44430904566E+03  0.11582802850E+04  0.90154788549E+03 0.  0.
         23    2    4    4    0    0  0.38685093844E+03 -0.70538815037E+03  0.26390853335E+03  0.85151481958E+03  0.90574183634E+02 0.  0.
         23    2    4    4    0    0 -0.13634204243E+03  0.18706451240E+03  0.18040051231E+03  0.30676546539E+03  0.89322010598E+02 0.  0.
          1    1    3    3  502    0 -0.16212847217E+03  0.24703646343E+03 -0.41328427355E+03  0.50805171638E+03  0.00000000000E+00 0. -1.
         -1    1    3    3    0  502 -0.88380423838E+02  0.27128717453E+03 -0.32199291058E+03  0.43021769472E+03  0.00000000000E+00 0.  1.
         11    1    5    5    0    0  0.20121530829E+03 -0.35329964177E+03  0.18047034560E+03  0.44483455667E+03  0.00000000000E+00 0.  1.
        -11    1    5    5    0    0  0.18563563014E+03 -0.35208850860E+03  0.83438187745E+02  0.40668026291E+03  0.00000000000E+00 0. -1.
          4    1    6    6  503    0 -0.12591831725E+03  0.16968033284E+03  0.19016150426E+03  0.28426789420E+03  0.00000000000E+00 0. -1.
         -4    1    6    6    0  503 -0.10423725184E+02  0.17384179559E+02 -0.97609919425E+01  0.22497571188E+02  0.00000000000E+00 0.  1.
<mgrwt>
<rscale>  0 0.20762606E+04</rscale>
<asrwt>0</asrwt>
<pdfrwt beam="1">  1        2 0.18365522E+00 0.20762606E+04</pdfrwt>
<pdfrwt beam="2">  1       -2 0.13889089E+00 0.20762606E+04</pdfrwt>
<totfact> 0.64685528E+00</totfact>
</mgrwt>
</event>
<event>
12    2  0.3623523E-008  0.2142872E+04  0.7818608E-02  0.8542590E-01
         -2   -1    0    0    0  501 -0.00000000000E+00  0.00000000000E+00  0.43750091141E+03  0.43750091141E+03  0.00000000000E+00 0.  1.
          2   -1    0    0  501    0  0.00000000000E+00 -0.00000000000E+00 -0.26239365791E+04  0.26239365791E+04  0.00000000000E+00 0. -1.
         23    2    1    2    0    0 -0.27702056467E+03 -0.36051856498E+03  0.16555427804E+03  0.49163590206E+03  0.87083938103E+02 0.  0.
        254    2    1    2    0    0  0.27702056467E+03  0.36051856498E+03 -0.23519899458E+04  0.25698015885E+04  0.93022011927E+03 0.  0.
         23    2    4    4    0    0  0.58702568123E+03  0.14414482479E+03 -0.17473358633E+04  0.18510617185E+04  0.88712939386E+02 0.  0.
         23    2    4    4    0    0 -0.31000511656E+03  0.21637374018E+03 -0.60465408250E+03  0.71873987001E+03  0.89775684495E+02 0.  0.
          2    1    3    3  502    0 -0.14108630489E+03 -0.18010297327E+03  0.37098900236E+02  0.23177306747E+03  0.00000000000E+00 0. -1.
         -2    1    3    3    0  502 -0.13593425978E+03 -0.18041559171E+03  0.12845537780E+03  0.25986283459E+03  0.00000000000E+00 0.  1.
         11    1    5    5    0    0  0.34842555480E+03  0.12918224202E+03 -0.10898723191E+04  0.11514816936E+04  0.00000000000E+00 0. -1.
        -11    1    5    5    0    0  0.23860012644E+03  0.14962582770E+02 -0.65746354417E+03  0.69958002482E+03  0.00000000000E+00 0.  1.
          4    1    6    6  503    0 -0.45709391208E+02  0.42838342007E+02 -0.49412577587E+02  0.79787685856E+02  0.00000000000E+00 0. -1.
         -4    1    6    6    0  503 -0.26429572536E+03  0.17353539818E+03 -0.55524150491E+03  0.63895218416E+03  0.00000000000E+00 0.  1.
<mgrwt>
<rscale>  0 0.21428716E+04</rscale>
<asrwt>0</asrwt>
<pdfrwt beam="1">  1        2 0.40368255E+00 0.21428716E+04</pdfrwt>
<pdfrwt beam="2">  1       -2 0.67307833E-01 0.21428716E+04</pdfrwt>
<totfact> 0.54800281E+00</totfact>
</mgrwt>
</event>
<event>
12    2  0.3623523E-008  0.1683981E+04  0.7818608E-02  0.8770554E-01
          2   -1    0    0  501    0  0.00000000000E+00  0.00000000000E+00  0.26781906064E+04  0.26781906064E+04  0.00000000000E+00 0. -1.
         -2   -1    0    0    0  501 -0.00000000000E+00 -0.00000000000E+00 -0.26471141827E+03  0.26471141827E+03  0.00000000000E+00 0.  1.
         23    2    1    2    0    0  0.27338951219E+03 -0.30623997644E+03  0.10678680304E+03  0.43382599662E+03  0.90977060242E+02 0.  0.
        254    2    1    2    0    0 -0.27338951219E+03  0.30623997644E+03  0.23066923850E+04  0.25090760280E+04  0.89783517783E+03 0.  0.
         23    2    4    4    0    0 -0.56645970731E+03  0.27479894637E+03  0.18623740206E+04  0.19680850370E+04  0.92361569353E+02 0.  0.
         23    2    4    4    0    0  0.29307019512E+03  0.31441030072E+02  0.44431836444E+03  0.54099099096E+03  0.91508282039E+02 0.  0.
          4    1    3    3  502    0  0.25276178607E+02  0.11643963249E+01  0.38556353234E+01  0.25595057092E+02  0.00000000000E+00 0. -1.
         -4    1    3    3    0  502  0.24811333358E+03 -0.30740437277E+03  0.10293116772E+03  0.40823093952E+03  0.00000000000E+00 0.  1.
         11    1    5    5    0    0 -0.27718852054E+03  0.83955643519E+02  0.86971541901E+03  0.91667166208E+03  0.00000000000E+00 0. -1.
        -11    1    5    5    0    0 -0.28927118677E+03  0.19084330285E+03  0.99265860159E+03  0.10514133750E+04  0.00000000000E+00 0.  1.
          4    1    6    6  503    0  0.28634885200E+03  0.34366855000E+02  0.44798701093E+03  0.53279368214E+03  0.00000000000E+00 0. -1.
         -4    1    6    6    0  503  0.67213431186E+01 -0.29258249285E+01 -0.36686464906E+01  0.81973088208E+01  0.00000000000E+00 0.  1.
<mgrwt>
<rscale>  0 0.16839806E+04</rscale>
<asrwt>0</asrwt>
<pdfrwt beam="1">  1        2 0.41202931E+00 0.16839806E+04</pdfrwt>
<pdfrwt beam="2">  1       -2 0.40724835E-01 0.16839806E+04</pdfrwt>
<totfact> 0.14922982E+01</totfact>
</mgrwt>
</event>
<event>
12    2  0.3623523E-008  0.1223961E+04  0.7818608E-02  0.9092138E-01
         -2   -1    0    0    0  501 -0.00000000000E+00  0.00000000000E+00  0.34326490672E+03  0.34326490672E+03  0.00000000000E+00 0.  1.
          2   -1    0    0  501    0  0.00000000000E+00 -0.00000000000E+00 -0.10910525340E+04  0.10910525340E+04  0.00000000000E+00 0. -1.
         23    2    1    2    0    0 -0.22206809586E+03 -0.12674250891E+03 -0.45784642665E+02  0.27514458966E+03  0.90721601342E+02 0.  0.
        254    2    1    2    0    0  0.22206809586E+03  0.12674250891E+03 -0.70200298463E+03  0.11591728511E+04  0.88628189956E+03 0.  0.
         23    2    4    4    0    0 -0.14851433164E+03  0.39443959590E+03 -0.20501300396E+03  0.47790132818E+03  0.93382258288E+02 0.  0.
         23    2    4    4    0    0  0.37058242750E+03 -0.26769708699E+03 -0.49698998067E+03  0.68127152290E+03  0.90215193154E+02 0.  0.
          4    1    3    3  502    0 -0.14809813389E+03 -0.86526929786E+02 -0.73355151932E+02  0.18655011432E+03  0.00000000000E+00 0. -1.
         -4    1    3    3    0  502 -0.73969961975E+02 -0.40215579128E+02  0.27570509267E+02  0.88594475338E+02  0.00000000000E+00 0.  1.
         11    1    5    5    0    0 -0.15263095665E+03  0.34229681577E+03 -0.15512386716E+03  0.40561895072E+03  0.00000000000E+00 0. -1.
        -11    1    5    5    0    0  0.41166250077E+01  0.52142780128E+02 -0.49889136801E+02  0.72282377463E+02  0.00000000000E+00 0.  1.
          1    1    6    6  503    0  0.26010082695E+03 -0.13444296489E+03 -0.30606519270E+03  0.42356021198E+03  0.00000000000E+00 0. -1.
         -1    1    6    6    0  503  0.11048160055E+03 -0.13325412210E+03 -0.19092478796E+03  0.25771131092E+03  0.00000000000E+00 0.  1.
<mgrwt>
<rscale>  0 0.12239609E+04</rscale>
<asrwt>0</asrwt>
<pdfrwt beam="1">  1        2 0.16785424E+00 0.12239609E+04</pdfrwt>
<pdfrwt beam="2">  1       -2 0.52809986E-01 0.12239609E+04</pdfrwt>
<totfact> 0.73517773E+01</totfact>
</mgrwt>
</event>
<event>
12    2  0.3623523E-008  0.2280756E+04  0.7818608E-02  0.8485548E-01
         -2   -1    0    0    0  501 -0.00000000000E+00  0.00000000000E+00  0.84647518194E+03  0.84647518194E+03  0.00000000000E+00 0.  1.
          2   -1    0    0  501    0  0.00000000000E+00 -0.00000000000E+00 -0.15363259415E+04  0.15363259415E+04  0.00000000000E+00 0. -1.
         23    2    1    2    0    0  0.70594878913E+03 -0.54610661509E+03 -0.68129223289E+03  0.11266085001E+04  0.92149215445E+02 0.  0.
        254    2    1    2    0    0 -0.70594878913E+03  0.54610661509E+03 -0.85585266272E+01  0.12561926233E+04  0.88394034337E+03 0.  0.
         23    2    4    4    0    0 -0.39295481693E+03  0.75819210405E+03  0.62264055738E+02  0.86110234558E+03  0.91387538166E+02 0.  0.
         23    2    4    4    0    0 -0.31299397219E+03 -0.21208548896E+03 -0.70822582366E+02  0.39509027776E+03  0.90194280004E+02 0.  0.
          3    1    3    3  502    0  0.64184437527E+03 -0.51700118208E+03 -0.64962103315E+03  0.10494102682E+04  0.00000000000E+00 0. -1.
         -3    1    3    3    0  502  0.64104413858E+02 -0.29105433002E+02 -0.31671199742E+02  0.77198231841E+02  0.00000000000E+00 0.  1.
         11    1    5    5    0    0  0.25035605075E+01  0.73923927618E+01 -0.59078825954E+01  0.97886854439E+01  0.00000000000E+00 0. -1.
        -11    1    5    5    0    0 -0.39545837744E+03  0.75079971129E+03  0.68171938334E+02  0.85131366013E+03  0.00000000000E+00 0.  1.
          1    1    6    6  503    0 -0.52975521511E+02  0.76683046192E-01 -0.13077595694E+02  0.54565880079E+02  0.00000000000E+00 0. -1.
         -1    1    6    6    0  503 -0.26001845068E+03 -0.21216217201E+03 -0.57744986671E+02  0.34052439768E+03  0.00000000000E+00 0.  1.
<mgrwt>
<rscale>  0 0.22807558E+04</rscale>
<asrwt>0</asrwt>
<pdfrwt beam="1">  1        2 0.23635783E+00 0.22807558E+04</pdfrwt>
<pdfrwt beam="2">  1       -2 0.13022695E+00 0.22807558E+04</pdfrwt>
<totfact> 0.47549750E+00</totfact>
</mgrwt>
</event>
<event>
12    2  0.3623523E-008  0.2126180E+04  0.7818608E-02  0.8549798E-01
         -2   -1    0    0    0  501 -0.00000000000E+00  0.00000000000E+00  0.22524343931E+03  0.22524343931E+03  0.00000000000E+00 0. -1.
          2   -1    0    0  501    0  0.00000000000E+00 -0.00000000000E+00 -0.50175062854E+04  0.50175062854E+04  0.00000000000E+00 0.  1.
         23    2    1    2    0    0  0.36853547654E+03  0.77337617678E+02 -0.37452096426E+02  0.38934692766E+03  0.91590752677E+02 0.  0.
        254    2    1    2    0    0 -0.36853547654E+03 -0.77337617678E+02 -0.47548107496E+04  0.48534027970E+04  0.89749314244E+03 0.  0.
         23    2    4    4    0    0  0.25635504274E+02  0.91045617045E+02 -0.38125840784E+04  0.38147776151E+04  0.88229330230E+02 0.  0.
         23    2    4    4    0    0 -0.39417098081E+03 -0.16838323472E+03 -0.94222667123E+03  0.10386251819E+04  0.85014660990E+02 0.  0.
          4    1    3    3  502    0  0.28410344290E+03  0.71750883385E+02  0.83235170431E+01  0.29314200734E+03  0.00000000000E+00 0. -1.
         -4    1    3    3    0  502  0.84432033640E+02  0.55867342921E+01 -0.45775613469E+02  0.96204920316E+02  0.00000000000E+00 0.  1.
         11    1    5    5    0    0 -0.11256879234E+02  0.55198895799E+02 -0.30203396708E+04  0.30208650024E+04  0.00000000000E+00 0. -1.
        -11    1    5    5    0    0  0.36892383507E+02  0.35846721246E+02 -0.79224440757E+03  0.79391261277E+03  0.00000000000E+00 0.  1.
          2    1    6    6  503    0 -0.38803798170E+03 -0.14863191056E+03 -0.88286854638E+03  0.97576728284E+03  0.00000000000E+00 0. -1.
         -2    1    6    6    0  503 -0.61329991165E+01 -0.19751324167E+02 -0.59358124851E+02  0.62857899029E+02  0.00000000000E+00 0.  1.
<mgrwt>
<rscale>  0 0.21261800E+04</rscale>
<asrwt>0</asrwt>
<pdfrwt beam="1">  1        2 0.77192400E+00 0.21261800E+04</pdfrwt>
<pdfrwt beam="2">  1       -2 0.34652839E-01 0.21261800E+04</pdfrwt>
<totfact> 0.23915107E-01</totfact>
</mgrwt>
</event>
<event>
12    2  0.3623523E-008  0.1713977E+04  0.7818608E-02  0.8753433E-01
          1   -1    0    0  501    0  0.00000000000E+00  0.00000000000E+00  0.27538975167E+04  0.27538975167E+04  0.00000000000E+00 0. -1.
         -1   -1    0    0    0  501 -0.00000000000E+00 -0.00000000000E+00 -0.26668720956E+03  0.26668720956E+03  0.00000000000E+00 0.  1.
         23    2    1    2    0    0 -0.48106501161E+03 -0.13173223846E+03  0.15549492762E+04  0.16355341633E+04  0.91256888850E+02 0.  0.
        254    2    1    2    0    0  0.48106501161E+03  0.13173223846E+03  0.93226103097E+03  0.13850505630E+04  0.89469408408E+03 0.  0.
         23    2    4    4    0    0 -0.12909655682E+03  0.27210477217E+03  0.82000989761E+02  0.32513209800E+03  0.90993355842E+02 0.  0.
         23    2    4    4    0    0  0.61016156844E+03 -0.14037253371E+03  0.85026004121E+03  0.10599184650E+04  0.92105520485E+02 0.  0.
          3    1    3    3  502    0 -0.46550707321E+03 -0.13950913303E+03  0.15283765452E+04  0.16037750769E+04  0.00000000000E+00 0. -1.
         -3    1    3    3    0  502 -0.15557938400E+02  0.77768945704E+01  0.26572731031E+02  0.31759086430E+02  0.00000000000E+00 0.  1.
         11    1    5    5    0    0 -0.39594019043E+00  0.42819272070E+02  0.40501175690E+02  0.58940580770E+02  0.00000000000E+00 0. -1.
        -11    1    5    5    0    0 -0.12870061663E+03  0.22928550010E+03  0.41499814071E+02  0.26619151723E+03  0.00000000000E+00 0.  1.
          2    1    6    6  503    0  0.44442640469E+03 -0.74241677884E+02  0.65928821633E+03  0.79855344725E+03  0.00000000000E+00 0.  1.
         -2    1    6    6    0  503  0.16573516374E+03 -0.66130855826E+02  0.19097182488E+03  0.26136501773E+03  0.00000000000E+00 0. -1.
<mgrwt>
<rscale>  0 0.17139769E+04</rscale>
<asrwt>0</asrwt>
<pdfrwt beam="1">  1        1 0.42367652E+00 0.17139769E+04</pdfrwt>
<pdfrwt beam="2">  1       -1 0.41028803E-01 0.17139769E+04</pdfrwt>
<totfact> 0.49789266E+00</totfact>
</mgrwt>
</event>
<event>
12    2  0.3623523E-008  0.1576489E+04  0.7818608E-02  0.8835124E-01
          2   -1    0    0  501    0  0.00000000000E+00  0.00000000000E+00  0.10814993250E+04  0.10814993250E+04  0.00000000000E+00 0.  1.
         -2   -1    0    0    0  501 -0.00000000000E+00 -0.00000000000E+00 -0.57450710929E+03  0.57450710929E+03  0.00000000000E+00 0. -1.
         23    2    1    2    0    0  0.17270644567E+03  0.47044805965E+03  0.27863311466E+03  0.58114869600E+03  0.94596517242E+02 0.  0.
        254    2    1    2    0    0 -0.17270644567E+03 -0.47044805965E+03  0.22835910101E+03  0.10748577382E+04  0.92305058650E+03 0.  0.
         23    2    4    4    0    0  0.16275033350E+03 -0.16251596947E+03 -0.28849484754E+03  0.38001212793E+03  0.90999060042E+02 0.  0.
         23    2    4    4    0    0 -0.33545677917E+03 -0.30793209018E+03  0.51685394855E+03  0.69484561031E+03  0.91208525851E+02 0.  0.
          1    1    3    3  502    0  0.17031779975E+03  0.47399881415E+03  0.26990884373E+03  0.57143137178E+03  0.00000000000E+00 0. -1.
         -1    1    3    3    0  502  0.23886459177E+01 -0.35507544995E+01  0.87242709272E+01  0.97173242226E+01  0.00000000000E+00 0.  1.
         11    1    5    5    0    0  0.21197050558E+02 -0.73651617359E+02 -0.12216710648E+03  0.14421746634E+03  0.00000000000E+00 0. -1.
        -11    1    5    5    0    0  0.14155328294E+03 -0.88864352109E+02 -0.16632774107E+03  0.23579466159E+03  0.00000000000E+00 0.  1.
          1    1    6    6  503    0 -0.52188744475E+02 -0.49875289116E+02  0.13935471619E+03  0.15694249405E+03  0.00000000000E+00 0. -1.
         -1    1    6    6    0  503 -0.28326803469E+03 -0.25805680107E+03  0.37749923236E+03  0.53790311627E+03  0.00000000000E+00 0.  1.
<mgrwt>
<rscale>  0 0.15764886E+04</rscale>
<asrwt>0</asrwt>
<pdfrwt beam="1">  1        2 0.16638451E+00 0.15764886E+04</pdfrwt>
<pdfrwt beam="2">  1       -2 0.88385709E-01 0.15764886E+04</pdfrwt>
<totfact> 0.23682066E+01</totfact>
</mgrwt>
</event>
<event>
12    2  0.3623523E-008  0.1281399E+04  0.7818608E-02  0.9044447E-01
         -1   -1    0    0    0  501 -0.00000000000E+00  0.00000000000E+00  0.78902590619E+03  0.78902590619E+03  0.00000000000E+00 0.  1.
          1   -1    0    0  501    0  0.00000000000E+00 -0.00000000000E+00 -0.52025682375E+03  0.52025682375E+03  0.00000000000E+00 0. -1.
         23    2    1    2    0    0  0.19621294932E+03 -0.24252231337E+03  0.10416643204E+03  0.34161903240E+03  0.92392227884E+02 0.  0.
        254    2    1    2    0    0 -0.19621294932E+03  0.24252231337E+03  0.16460265040E+03  0.96766369753E+03  0.90108956549E+03 0.  0.
         23    2    4    4    0    0 -0.24360553943E+03 -0.29674704179E+03 -0.11322761619E+01  0.39399790336E+03  0.88490678331E+02 0.  0.
         23    2    4    4    0    0  0.47392590111E+02  0.53926935515E+03  0.16573492657E+03  0.57366579418E+03  0.92557455222E+02 0.  0.
          2    1    3    3  502    0  0.58974218941E+00  0.77049113186E+01  0.22313260028E+01  0.80431505026E+01  0.00000000000E+00 0. -1.
         -2    1    3    3    0  502  0.19562320713E+03 -0.25022722469E+03  0.10193510603E+03  0.33357588190E+03  0.00000000000E+00 0.  1.
         11    1    5    5    0    0 -0.11995311327E+03 -0.10299113305E+03  0.33336106509E+02  0.16157728450E+03  0.00000000000E+00 0. -1.
        -11    1    5    5    0    0 -0.12365242616E+03 -0.19375590873E+03 -0.34468382671E+02  0.23242061885E+03  0.00000000000E+00 0.  1.
          3    1    6    6  503    0  0.34458731449E+02  0.57198892581E+02  0.25040009596E+02  0.71317035595E+02  0.00000000000E+00 0. -1.
         -3    1    6    6    0  503  0.12933858662E+02  0.48207046257E+03  0.14069491697E+03  0.50234875858E+03  0.00000000000E+00 0.  1.
<mgrwt>
<rscale>  0 0.12813994E+04</rscale>
<asrwt>0</asrwt>
<pdfrwt beam="1">  1        1 0.80039511E-01 0.12813994E+04</pdfrwt>
<pdfrwt beam="2">  1       -1 0.12138860E+00 0.12813994E+04</pdfrwt>
<totfact> 0.24843928E+01</totfact>
</mgrwt>
</event>
<event>
12    2  0.3623523E-008  0.2126441E+04  0.7818608E-02  0.8549684E-01
         -2   -1    0    0    0  501 -0.00000000000E+00  0.00000000000E+00  0.74784885656E+03  0.74784885656E+03  0.00000000000E+00 0.  1.
          2   -1    0    0  501    0  0.00000000000E+00 -0.00000000000E+00 -0.15115864843E+04  0.15115864843E+04  0.00000000000E+00 0. -1.
         23    2    1    2    0    0 -0.51731378466E+03 -0.49194296188E+02 -0.10739352554E+04  0.11966123081E+04  0.92252113710E+02 0.  0.
        254    2    1    2    0    0  0.51731378466E+03  0.49194296188E+02  0.31019762768E+03  0.10628230328E+04  0.87369136436E+03 0.  0.
         23    2    4    4    0    0  0.57238957724E+01 -0.71077106732E+02  0.48600081249E+03  0.49990521629E+03  0.92863972864E+02 0.  0.
         23    2    4    4    0    0  0.51158988889E+03  0.12027140292E+03 -0.17580318480E+03  0.56291781646E+03  0.98895316012E+02 0.  0.
          2    1    3    3  502    0 -0.44231304075E+03 -0.74030424357E+02 -0.92708312951E+03  0.10298565234E+04  0.00000000000E+00 0. -1.
         -2    1    3    3    0  502 -0.75000743912E+02  0.24836128169E+02 -0.14685212590E+03  0.16675578470E+03  0.00000000000E+00 0.  1.
         11    1    5    5    0    0 -0.42704447338E+02 -0.22059417959E+02  0.21052286144E+03  0.21594018369E+03  0.00000000000E+00 0. -1.
        -11    1    5    5    0    0  0.48428343110E+02 -0.49017688773E+02  0.27547795104E+03  0.28396503260E+03  0.00000000000E+00 0.  1.
          3    1    6    6  503    0  0.51513887920E+03  0.11663853077E+03 -0.17802587242E+03  0.55737404225E+03  0.00000000000E+00 0. -1.
         -3    1    6    6    0  503 -0.35489903103E+01  0.36328721507E+01  0.22226876149E+01  0.55437742125E+01  0.00000000000E+00 0.  1.
<mgrwt>
<rscale>  0 0.21264414E+04</rscale>
<asrwt>0</asrwt>
<pdfrwt beam="1">  1        2 0.23255177E+00 0.21264414E+04</pdfrwt>
<pdfrwt beam="2">  1       -2 0.11505367E+00 0.21264414E+04</pdfrwt>
<totfact> 0.67731974E+00</totfact>
</mgrwt>
</event>
<event>
12    2  0.3623523E-008  0.3204799E+04  0.7818608E-02  0.8187551E-01
          2   -1    0    0  501    0  0.00000000000E+00  0.00000000000E+00  0.26934349737E+04  0.26934349737E+04  0.00000000000E+00 0. -1.
         -2   -1    0    0    0  501 -0.00000000000E+00 -0.00000000000E+00 -0.95331217635E+03  0.95331217635E+03  0.00000000000E+00 0.  1.
         23    2    1    2    0    0  0.65629569539E+02  0.57380511329E+03  0.23430306462E+04  0.24148908227E+04  0.91353863400E+02 0.  0.
        254    2    1    2    0    0 -0.65629569539E+02 -0.57380511329E+03 -0.60290784880E+03  0.12318563273E+04  0.90576629913E+03 0.  0.
         23    2    4    4    0    0  0.25746990289E+03 -0.46158007324E+03 -0.43428779527E+01  0.53637297965E+03  0.91269917333E+02 0.  0.
         23    2    4    4    0    0 -0.32309947243E+03 -0.11222504005E+03 -0.59856497084E+03  0.69548334769E+03  0.91811403971E+02 0.  0.
          4    1    3    3  502    0  0.65156170901E+02  0.35569701770E+03  0.16093594109E+04  0.16494858012E+04  0.00000000000E+00 0. -1.
         -4    1    3    3    0  502  0.47339863832E+00  0.21810809559E+03  0.73367123526E+03  0.76540502149E+03  0.00000000000E+00 0.  1.
         11    1    5    5    0    0  0.18967589316E+03 -0.25463769831E+03  0.14092541655E+02  0.31782998848E+03  0.00000000000E+00 0. -1.
        -11    1    5    5    0    0  0.67794009733E+02 -0.20694237492E+03 -0.18435419608E+02  0.21854299117E+03  0.00000000000E+00 0.  1.
          3    1    6    6  503    0 -0.28164139927E+03 -0.12419372120E+03 -0.55184227741E+03  0.63188278763E+03  0.00000000000E+00 0. -1.
         -3    1    6    6    0  503 -0.41458073164E+02  0.11968681145E+02 -0.46722693435E+02  0.63600560066E+02  0.00000000000E+00 0.  1.
<mgrwt>
<rscale>  0 0.32047991E+04</rscale>
<asrwt>0</asrwt>
<pdfrwt beam="1">  1        2 0.41437461E+00 0.32047991E+04</pdfrwt>
<pdfrwt beam="2">  1       -2 0.14666341E+00 0.32047991E+04</pdfrwt>
<totfact> 0.71693247E-01</totfact>
</mgrwt>
</event>
<event>
12    2  0.3623523E-008  0.1071434E+04  0.7818608E-02  0.9233491E-01
         -2   -1    0    0    0  501 -0.00000000000E+00  0.00000000000E+00  0.73600139201E+03  0.73600139201E+03  0.00000000000E+00 0.  1.
          2   -1    0    0  501    0  0.00000000000E+00 -0.00000000000E+00 -0.38993484767E+03  0.38993484767E+03  0.00000000000E+00 0. -1.
         23    2    1    2    0    0 -0.68373883817E+02 -0.57453222297E+02 -0.59599029841E+02  0.14065709496E+03  0.90865357894E+02 0.  0.
        254    2    1    2    0    0  0.68373883817E+02  0.57453222297E+02  0.40566557419E+03  0.98527914472E+03  0.89343974290E+03 0.  0.
         23    2    4    4    0    0 -0.62481882318E+02  0.18047817721E+03 -0.23379367830E+03  0.31445140454E+03  0.87999112165E+02 0.  0.
         23    2    4    4    0    0  0.13085576614E+03 -0.12302495491E+03  0.63945925249E+03  0.67082774017E+03  0.94039089386E+02 0.  0.
          2    1    3    3  502    0 -0.33833244762E+02 -0.58425881532E+02 -0.76633504556E+02  0.10213210124E+03  0.00000000000E+00 0. -1.
         -2    1    3    3    0  502 -0.34540639055E+02  0.97265923483E+00  0.17034474715E+02  0.38524993720E+02  0.00000000000E+00 0.  1.
         11    1    5    5    0    0 -0.49239844340E+02  0.28702709047E+02 -0.50895987779E+02  0.76412102113E+02  0.00000000000E+00 0. -1.
        -11    1    5    5    0    0 -0.13242037978E+02  0.15177546816E+03 -0.18289769052E+03  0.23803930243E+03  0.00000000000E+00 0.  1.
          4    1    6    6  503    0  0.63252956478E+02 -0.84103232131E+01  0.28890504485E+03  0.29586786743E+03  0.00000000000E+00 0. -1.
         -4    1    6    6    0  503  0.67602809657E+02 -0.11461463170E+03  0.35055420764E+03  0.37495987274E+03  0.00000000000E+00 0.  1.
<mgrwt>
<rscale>  0 0.10714338E+04</rscale>
<asrwt>0</asrwt>
<pdfrwt beam="1">  1        2 0.59989977E-01 0.10714338E+04</pdfrwt>
<pdfrwt beam="2">  1       -2 0.11323098E+00 0.10714338E+04</pdfrwt>
<totfact> 0.49834035E+01</totfact>
</mgrwt>
</event>
<event>
12    2  0.3623523E-008  0.2208227E+04  0.7818608E-02  0.8515012E-01
          2   -1    0    0  501    0  0.00000000000E+00  0.00000000000E+00  0.34251556367E+04  0.34251556367E+04  0.00000000000E+00 0. -1.
         -2   -1    0    0    0  501 -0.00000000000E+00 -0.00000000000E+00 -0.35591556925E+03  0.35591556925E+03  0.00000000000E+00 0.  1.
         23    2    1    2    0    0 -0.50949801742E+03  0.29557335891E+03  0.25041111271E+04  0.25741270019E+04  0.92765537609E+02 0.  0.
        254    2    1    2    0    0  0.50949801742E+03 -0.29557335891E+03  0.56512894034E+03  0.12069442040E+04  0.88903979219E+03 0.  0.
         23    2    4    4    0    0  0.74431283196E+02 -0.46639889556E+03  0.17898729777E+02  0.48122528705E+03  0.90495672146E+02 0.  0.
         23    2    4    4    0    0  0.43506673423E+03  0.17082553664E+03  0.54723021056E+03  0.72571891695E+03  0.93501956477E+02 0.  0.
          2    1    3    3  502    0 -0.43715794691E+03  0.23640854039E+03  0.19587137767E+04  0.20207809697E+04  0.00000000000E+00 0. -1.
         -2    1    3    3    0  502 -0.72340070507E+02  0.59164818523E+02  0.54539735041E+03  0.55334603223E+03  0.00000000000E+00 0.  1.
         11    1    5    5    0    0  0.63950635199E+02 -0.22372379195E+03 -0.26877128612E+02  0.23423150700E+03  0.00000000000E+00 0. -1.
        -11    1    5    5    0    0  0.10480647997E+02 -0.24267510360E+03  0.44775858389E+02  0.24699378005E+03  0.00000000000E+00 0.  1.
          2    1    6    6  503    0  0.31459402445E+03  0.16525099153E+03  0.39099238526E+03  0.52834868766E+03  0.00000000000E+00 0.  1.
         -2    1    6    6    0  503  0.12047270977E+03  0.55745451135E+01  0.15623782530E+03  0.19737022929E+03  0.00000000000E+00 0. -1.
<mgrwt>
<rscale>  0 0.22082266E+04</rscale>
<asrwt>0</asrwt>
<pdfrwt beam="1">  1        2 0.52694700E+00 0.22082266E+04</pdfrwt>
<pdfrwt beam="2">  1       -2 0.54756244E-01 0.22082266E+04</pdfrwt>
<totfact> 0.26341788E+00</totfact>
</mgrwt>
</event>
<event>
12    2  0.3623523E-008  0.2995183E+04  0.7818608E-02  0.8245108E-01
         -2   -1    0    0    0  501 -0.00000000000E+00  0.00000000000E+00  0.88697436075E+03  0.88697436075E+03  0.00000000000E+00 0.  1.
          2   -1    0    0  501    0  0.00000000000E+00 -0.00000000000E+00 -0.25285733784E+04  0.25285733784E+04  0.00000000000E+00 0. -1.
         23    2    1    2    0    0 -0.12446963043E+04 -0.17474025304E+03 -0.13320813841E+04  0.18335103108E+04  0.86696020059E+02 0.  0.
        254    2    1    2    0    0  0.12446963043E+04  0.17474025304E+03 -0.30951763351E+03  0.15820374284E+04  0.90952636766E+03 0.  0.
         23    2    4    4    0    0  0.11793397639E+03 -0.24715479828E+03 -0.23770081183E+03  0.37306039502E+03  0.87626852543E+02 0.  0.
         23    2    4    4    0    0  0.11267623279E+04  0.42189505132E+03 -0.71816821686E+02  0.12089770334E+04  0.94228623472E+02 0.  0.
          1    1    3    3  502    0 -0.21868586197E+03 -0.39564531392E+02 -0.28386237913E+03  0.36050895780E+03  0.00000000000E+00 0. -1.
         -1    1    3    3    0  502 -0.10260104423E+04 -0.13517572165E+03 -0.10482190050E+04  0.14730013530E+04  0.00000000000E+00 0.  1.
         11    1    5    5    0    0  0.75775661647E+02 -0.19563375533E+03 -0.13112979792E+03  0.24740562044E+03  0.00000000000E+00 0.  1.
        -11    1    5    5    0    0  0.42158314738E+02 -0.51521042951E+02 -0.10657101391E+03  0.12565477458E+03  0.00000000000E+00 0. -1.
          1    1    6    6  503    0  0.81979853791E+03  0.32874196772E+03 -0.16199674772E+02  0.88340441110E+03  0.00000000000E+00 0. -1.
         -1    1    6    6    0  503  0.30696378996E+03  0.93153083603E+02 -0.55617146914E+02  0.32557262226E+03  0.00000000000E+00 0.  1.
<mgrwt>
<rscale>  0 0.29951826E+04</rscale>
<asrwt>0</asrwt>
<pdfrwt beam="1">  1        2 0.38901129E+00 0.29951826E+04</pdfrwt>
<pdfrwt beam="2">  1       -2 0.13645759E+00 0.29951826E+04</pdfrwt>
<totfact> 0.11009895E+00</totfact>
</mgrwt>
</event>
<event>
12    2  0.3623523E-008  0.1275223E+04  0.7818608E-02  0.9049447E-01
          2   -1    0    0  501    0  0.00000000000E+00  0.00000000000E+00  0.47167828509E+03  0.47167828509E+03  0.00000000000E+00 0. -1.
         -2   -1    0    0    0  501 -0.00000000000E+00 -0.00000000000E+00 -0.86191916230E+03  0.86191916230E+03  0.00000000000E+00 0.  1.
         23    2    1    2    0    0  0.11050083386E+03 -0.10265928452E+03  0.18644495556E+03  0.25683865347E+03  0.91951125503E+02 0.  0.
        254    2    1    2    0    0 -0.11050083386E+03  0.10265928452E+03 -0.57668583278E+03  0.10767587939E+04  0.89671265608E+03 0.  0.
         23    2    4    4    0    0  0.30598933235E+03  0.12875783511E+03  0.18317854296E+02  0.34427557139E+03  0.89342451572E+02 0.  0.
         23    2    4    4    0    0 -0.41649016622E+03 -0.26098550583E+02 -0.59500368707E+03  0.73248322253E+03  0.91417125121E+02 0.  0.
          1    1    3    3  502    0  0.24446990064E+02 -0.76626794633E+02  0.12237024197E+03  0.14643700727E+03  0.00000000000E+00 0. -1.
         -1    1    3    3    0  502  0.86053843800E+02 -0.26032489890E+02  0.64074713589E+02  0.11040164620E+03  0.00000000000E+00 0.  1.
         11    1    5    5    0    0  0.29882810429E+03  0.10519132910E+03  0.27490640737E+02  0.31799243224E+03  0.00000000000E+00 0. -1.
        -11    1    5    5    0    0  0.71612280646E+01  0.23566506002E+02 -0.91727864412E+01  0.26283139151E+02  0.00000000000E+00 0.  1.
          3    1    6    6  503    0 -0.41493682011E+03 -0.22106684076E+02 -0.59730360878E+03  0.72762137904E+03  0.00000000000E+00 0. -1.
         -3    1    6    6    0  503 -0.15533461018E+01 -0.39918665068E+01  0.22999217089E+01  0.48618434967E+01  0.00000000000E+00 0.  1.
<mgrwt>
<rscale>  0 0.12752232E+04</rscale>
<asrwt>0</asrwt>
<pdfrwt beam="1">  1        2 0.72565890E-01 0.12752232E+04</pdfrwt>
<pdfrwt beam="2">  1       -2 0.13260295E+00 0.12752232E+04</pdfrwt>
<totfact> 0.26698000E+01</totfact>
</mgrwt>
</event>
<event>
12    2  0.3623523E-008  0.1353225E+04  0.7818608E-02  0.8988390E-01
         -2   -1    0    0    0  501 -0.00000000000E+00  0.00000000000E+00  0.49045452795E+03  0.49045452795E+03  0.00000000000E+00 0.  1.
          2   -1    0    0  501    0  0.00000000000E+00 -0.00000000000E+00 -0.93342888388E+03  0.93342888388E+03  0.00000000000E+00 0. -1.
         23    2    1    2    0    0 -0.20710475121E+03 -0.10653487665E+02 -0.43417148390E+03  0.48946015568E+03  0.89780241693E+02 0.  0.
        254    2    1    2    0    0  0.20710475121E+03  0.10653487665E+02 -0.88028720239E+01  0.93442325614E+03  0.91107818341E+03 0.  0.
         23    2    4    4    0    0  0.40970118936E+03 -0.74837278921E+02  0.31701681547E+03  0.53126045921E+03  0.91007314820E+02 0.  0.
         23    2    4    4    0    0 -0.20259643815E+03  0.85490766585E+02 -0.32581968749E+03  0.40316279693E+03  0.89597902601E+02 0.  0.
          1    1    3    3  502    0 -0.74347434522E+02 -0.23771793922E+02 -0.25101119021E+03  0.26286737496E+03  0.00000000000E+00 0. -1.
         -1    1    3    3    0  502 -0.13275731669E+03  0.13118306257E+02 -0.18316029369E+03  0.22659278072E+03  0.00000000000E+00 0.  1.
         11    1    5    5    0    0  0.93544940602E+02  0.29442551592E+01  0.11428746843E+03  0.14771915919E+03  0.00000000000E+00 0.  1.
        -11    1    5    5    0    0  0.31615624876E+03 -0.77781534080E+02  0.20272934704E+03  0.38354130002E+03  0.00000000000E+00 0. -1.
          2    1    6    6  503    0 -0.95726534061E+02  0.40757181096E+02 -0.79436802222E+02  0.13090043041E+03  0.00000000000E+00 0. -1.
         -2    1    6    6    0  503 -0.10686990409E+03  0.44733585490E+02 -0.24638288527E+03  0.27226236652E+03  0.00000000000E+00 0.  1.
<mgrwt>
<rscale>  0 0.13532249E+04</rscale>
<asrwt>0</asrwt>
<pdfrwt beam="1">  1        2 0.14360444E+00 0.13532249E+04</pdfrwt>
<pdfrwt beam="2">  1       -2 0.75454543E-01 0.13532249E+04</pdfrwt>
<totfact> 0.42854889E+01</totfact>
</mgrwt>
</event>
<event>
12    2  0.3623523E-008  0.3658594E+04  0.7818608E-02  0.8077200E-01
         -2   -1    0    0    0  501 -0.00000000000E+00  0.00000000000E+00  0.15924100732E+04  0.15924100732E+04  0.00000000000E+00 0.  1.
          2   -1    0    0  501    0  0.00000000000E+00 -0.00000000000E+00 -0.21014231189E+04  0.21014231189E+04  0.00000000000E+00 0. -1.
         23    2    1    2    0    0 -0.32348465173E+03  0.16438280816E+04 -0.62189601330E+03  0.17896924238E+04  0.97114564690E+02 0.  0.
        254    2    1    2    0    0  0.32348465173E+03 -0.16438280816E+04  0.11288296754E+03  0.19041407683E+04  0.89788441302E+03 0.  0.
         23    2    4    4    0    0  0.20885155465E+03 -0.17206014128E+04  0.11358238044E+03  0.17393956973E+04  0.92240126090E+02 0.  0.
         23    2    4    4    0    0  0.11463309708E+03  0.76773331188E+02 -0.69941289577E+00  0.16474507099E+03  0.90030871993E+02 0.  0.
          1    1    3    3  502    0 -0.26931304789E+03  0.15090930395E+04 -0.57013374765E+03  0.16355255454E+04  0.00000000000E+00 0. -1.
         -1    1    3    3    0  502 -0.54171603842E+02  0.13473504213E+03 -0.51762265650E+02  0.15416687837E+03  0.00000000000E+00 0.  1.
         11    1    5    5    0    0  0.15662362645E+03 -0.91137142950E+03  0.66248163342E+02  0.92710175386E+03  0.00000000000E+00 0.  1.
        -11    1    5    5    0    0  0.52227928203E+02 -0.80922998331E+03  0.47334217094E+02  0.81229394340E+03  0.00000000000E+00 0. -1.
          4    1    6    6  503    0  0.41384391817E+02  0.24615770769E+00  0.33696071587E+02  0.53368096463E+02  0.00000000000E+00 0. -1.
         -4    1    6    6    0  503  0.73248705258E+02  0.76527173480E+02 -0.34395484483E+02  0.11137697453E+03  0.00000000000E+00 0.  1.
<mgrwt>
<rscale>  0 0.36585939E+04</rscale>
<asrwt>0</asrwt>
<pdfrwt beam="1">  1        2 0.32329586E+00 0.36585939E+04</pdfrwt>
<pdfrwt beam="2">  1       -2 0.24498617E+00 0.36585939E+04</pdfrwt>
<totfact> 0.32828587E-01</totfact>
</mgrwt>
</event>
<event>
12    2  0.3623523E-008  0.1945301E+04  0.7818608E-02  0.8632630E-01
         -2   -1    0    0    0  501 -0.00000000000E+00  0.00000000000E+00  0.39461803326E+03  0.39461803326E+03  0.00000000000E+00 0.  1.
          2   -1    0    0  501    0  0.00000000000E+00 -0.00000000000E+00 -0.23973779431E+04  0.23973779431E+04  0.00000000000E+00 0. -1.
         23    2    1    2    0    0  0.31602164549E+03  0.67713656775E+03 -0.53984648601E+03  0.92645486095E+03  0.92199615630E+02 0.  0.
        254    2    1    2    0    0 -0.31602164549E+03 -0.67713656775E+03 -0.14629134239E+04  0.18655411154E+04  0.88416308216E+03 0.  0.
         23    2    4    4    0    0  0.53184838033E+02 -0.22965283073E+03 -0.11936828890E+04  0.12195807296E+04  0.83242218603E+02 0.  0.
         23    2    4    4    0    0 -0.36920648352E+03 -0.44748373702E+03 -0.26923053486E+03  0.64596038579E+03  0.90689672707E+02 0.  0.
          3    1    3    3  502    0  0.13720901576E+03  0.25810965926E+03 -0.15965118166E+03  0.33306967741E+03  0.00000000000E+00 0. -1.
         -3    1    3    3    0  502  0.17881262973E+03  0.41902690849E+03 -0.38019530435E+03  0.59338518354E+03  0.00000000000E+00 0.  1.
         11    1    5    5    0    0  0.30971585089E+02 -0.24538570328E+02 -0.12266254636E+03  0.12887001512E+03  0.00000000000E+00 0. -1.
        -11    1    5    5    0    0  0.22213252944E+02 -0.20511426040E+03 -0.10710203426E+04  0.10907107145E+04  0.00000000000E+00 0.  1.
          1    1    6    6  503    0 -0.10857432860E+03 -0.10671478194E+03 -0.11217638763E+03  0.18910307099E+03  0.00000000000E+00 0. -1.
         -1    1    6    6    0  503 -0.26063215492E+03 -0.34076895508E+03 -0.15705414723E+03  0.45685731480E+03  0.00000000000E+00 0.  1.
<mgrwt>
<rscale>  0 0.19453006E+04</rscale>
<asrwt>0</asrwt>
<pdfrwt beam="1">  1        2 0.36882738E+00 0.19453006E+04</pdfrwt>
<pdfrwt beam="2">  1       -2 0.60710466E-01 0.19453006E+04</pdfrwt>
<totfact> 0.94080054E+00</totfact>
</mgrwt>
</event>
<event>
12    2  0.3623523E-008  0.1024553E+04  0.7818608E-02  0.9282018E-01
         -2   -1    0    0    0  501 -0.00000000000E+00  0.00000000000E+00  0.14025064822E+03  0.14025064822E+03  0.00000000000E+00 0.  1.
          2   -1    0    0  501    0  0.00000000000E+00 -0.00000000000E+00 -0.18711293200E+04  0.18711293200E+04  0.00000000000E+00 0. -1.
         23    2    1    2    0    0  0.91717967107E+02 -0.67656843958E+01 -0.19660717905E+03  0.23586085627E+03  0.92293015382E+02 0.  0.
        254    2    1    2    0    0 -0.91717967107E+02  0.67656843958E+01 -0.15342714927E+04  0.17755191119E+04  0.88883133583E+03 0.  0.
         23    2    4    4    0    0 -0.28967364637E+02  0.31458398274E+03 -0.16646399802E+03  0.36869222020E+03  0.91768732100E+02 0.  0.
         23    2    4    4    0    0 -0.62750602470E+02 -0.30781829834E+03 -0.13678074947E+04  0.14068268917E+04  0.97850998409E+02 0.  0.
          4    1    3    3  502    0  0.33483624732E+02 -0.44519038613E+02 -0.12113645080E+03  0.13333093279E+03  0.00000000000E+00 0. -1.
         -4    1    3    3    0  502  0.58234342375E+02  0.37753354217E+02 -0.75470728247E+02  0.10252992348E+03  0.00000000000E+00 0.  1.
         11    1    5    5    0    0 -0.19181400679E+01 -0.39446700617E+01  0.44053950185E+01  0.62166862945E+01  0.00000000000E+00 0. -1.
        -11    1    5    5    0    0 -0.27049224569E+02  0.31852865280E+03 -0.17086939304E+03  0.36247553391E+03  0.00000000000E+00 0.  1.
          2    1    6    6  503    0 -0.46509124957E+02 -0.78285450435E+02 -0.26320324447E+03  0.27850970962E+03  0.00000000000E+00 0. -1.
         -2    1    6    6    0  503 -0.16241477513E+02 -0.22953284791E+03 -0.11046042502E+04  0.11283171821E+04  0.00000000000E+00 0.  1.
<mgrwt>
<rscale>  0 0.10245528E+04</rscale>
<asrwt>0</asrwt>
<pdfrwt beam="1">  1        2 0.28786603E+00 0.10245528E+04</pdfrwt>
<pdfrwt beam="2">  1       -2 0.21577024E-01 0.10245528E+04</pdfrwt>
<totfact> 0.14709296E+02</totfact>
</mgrwt>
</event>
<event>
12    2  0.3623523E-008  0.1213725E+04  0.7818608E-02  0.9100927E-01
          3   -1    0    0  501    0  0.00000000000E+00  0.00000000000E+00  0.10691040525E+04  0.10691040525E+04  0.00000000000E+00 0. -1.
         -3   -1    0    0    0  501 -0.00000000000E+00 -0.00000000000E+00 -0.34447735911E+03  0.34447735911E+03  0.00000000000E+00 0.  1.
         23    2    1    2    0    0  0.14329269387E+02  0.11414892852E+03  0.44909363066E+03  0.47220822816E+03  0.89778704569E+02 0.  0.
        254    2    1    2    0    0 -0.14329269387E+02 -0.11414892852E+03  0.27553306271E+03  0.94137318344E+03  0.89276519645E+03 0.  0.
         23    2    4    4    0    0 -0.13176454598E+03 -0.23586436516E+03  0.54161057378E+03  0.61225379407E+03  0.92297347714E+02 0.  0.
         23    2    4    4    0    0  0.11743527659E+03  0.12171543664E+03 -0.26607751107E+03  0.32911938936E+03  0.94427955897E+02 0.  0.
          3    1    3    3  502    0  0.10808105611E+02  0.38162114560E+02  0.31939445514E+03  0.32184775922E+03  0.00000000000E+00 0. -1.
         -3    1    3    3    0  502  0.35211637760E+01  0.75986813964E+02  0.12969917552E+03  0.15036046894E+03  0.00000000000E+00 0.  1.
         11    1    5    5    0    0 -0.93293054551E+02 -0.22414234986E+03  0.48976520950E+03  0.54663822357E+03  0.00000000000E+00 0.  1.
        -11    1    5    5    0    0 -0.38471491425E+02 -0.11722015302E+02  0.51845364275E+02  0.65615570499E+02  0.00000000000E+00 0. -1.
          3    1    6    6  503    0  0.64354738693E+02  0.71763249537E+02 -0.67744441026E+02  0.11781683100E+03  0.00000000000E+00 0. -1.
         -3    1    6    6    0  503  0.53080537895E+02  0.49952187103E+02 -0.19833307004E+03  0.21130255837E+03  0.00000000000E+00 0.  1.
<mgrwt>
<rscale>  0 0.12137251E+04</rscale>
<asrwt>0</asrwt>
<pdfrwt beam="1">  1        3 0.16447754E+00 0.12137251E+04</pdfrwt>
<pdfrwt beam="2">  1       -3 0.52996517E-01 0.12137251E+04</pdfrwt>
<totfact> 0.23094843E+00</totfact>
</mgrwt>
</event>
<event>
12    2  0.3623523E-008  0.1451662E+04  0.7818608E-02  0.8917249E-01
          2   -1    0    0  501    0  0.00000000000E+00  0.00000000000E+00  0.75660813577E+03  0.75660813577E+03  0.00000000000E+00 0. -1.
         -2   -1    0    0    0  501 -0.00000000000E+00 -0.00000000000E+00 -0.69630592129E+03  0.69630592129E+03  0.00000000000E+00 0.  1.
         23    2    1    2    0    0 -0.17111615235E+03  0.27577850868E+03 -0.27802358870E+03  0.43705961769E+03  0.91594050531E+02 0.  0.
        254    2    1    2    0    0  0.17111615235E+03 -0.27577850868E+03  0.33832580318E+03  0.10158544394E+04  0.90119996087E+03 0.  0.
         23    2    4    4    0    0  0.35872480947E+03 -0.32931953311E+03 -0.11974812464E+03  0.50974871565E+03  0.91483856128E+02 0.  0.
         23    2    4    4    0    0 -0.18760865712E+03  0.53541024427E+02  0.45807392782E+03  0.50610572374E+03  0.90816467260E+02 0.  0.
          2    1    3    3  502    0 -0.62847530460E+02  0.10422515541E+03 -0.49240020573E+02  0.13129080216E+03  0.00000000000E+00 0. -1.
         -2    1    3    3    0  502 -0.10826862189E+03  0.17155335327E+03 -0.22878356813E+03  0.30576881553E+03  0.00000000000E+00 0.  1.
         11    1    5    5    0    0  0.14452409824E+03 -0.14910590987E+03 -0.64214543874E+01  0.20775231023E+03  0.00000000000E+00 0.  1.
        -11    1    5    5    0    0  0.21420071124E+03 -0.18021362323E+03 -0.11332667025E+03  0.30199640541E+03  0.00000000000E+00 0. -1.
          1    1    6    6  503    0 -0.16419145799E+03  0.35996272983E+02  0.44163817233E+03  0.47254506854E+03  0.00000000000E+00 0. -1.
         -1    1    6    6    0  503 -0.23417199131E+02  0.17544751444E+02  0.16435755490E+02  0.33560655192E+02  0.00000000000E+00 0.  1.
<mgrwt>
<rscale>  0 0.14516621E+04</rscale>
<asrwt>0</asrwt>
<pdfrwt beam="1">  1        2 0.11640125E+00 0.14516621E+04</pdfrwt>
<pdfrwt beam="2">  1       -2 0.10712399E+00 0.14516621E+04</pdfrwt>
<totfact> 0.25185087E+01</totfact>
</mgrwt>
</event>
<event>
12    2  0.3623523E-008  0.2620429E+04  0.7818608E-02  0.8361295E-01
          2   -1    0    0  501    0  0.00000000000E+00  0.00000000000E+00  0.14318082100E+04  0.14318082100E+04  0.00000000000E+00 0.  1.
         -2   -1    0    0    0  501 -0.00000000000E+00 -0.00000000000E+00 -0.11989464663E+04  0.11989464663E+04  0.00000000000E+00 0. -1.
         23    2    1    2    0    0 -0.70578668652E+03  0.40520266745E+03  0.92018673796E+03  0.12325673935E+04  0.10077052272E+03 0.  0.
        254    2    1    2    0    0  0.70578668652E+03 -0.40520266745E+03 -0.68732499421E+03  0.13981872828E+04  0.90564230324E+03 0.  0.
         23    2    4    4    0    0  0.90342172066E+02  0.13230226412E+03  0.14050251358E+03  0.23153376020E+03  0.90561187299E+02 0.  0.
         23    2    4    4    0    0  0.61544451445E+03 -0.53750493157E+03 -0.82782750778E+03  0.11666535226E+04  0.89991984195E+02 0.  0.
          3    1    3    3  502    0 -0.22466971629E+03  0.13112969489E+03  0.36728838324E+03  0.45008025369E+03  0.00000000000E+00 0. -1.
         -3    1    3    3    0  502 -0.48111697022E+03  0.27407297256E+03  0.55289835472E+03  0.78248713982E+03  0.00000000000E+00 0.  1.
         11    1    5    5    0    0  0.40647273305E+01  0.71437288953E+02  0.88587922763E+02  0.11387549482E+03  0.00000000000E+00 0.  1.
        -11    1    5    5    0    0  0.86277444735E+02  0.60864975171E+02  0.51914590812E+02  0.11765826538E+03  0.00000000000E+00 0. -1.
          4    1    6    6  503    0  0.55729029368E+03 -0.51369152611E+03 -0.74588383126E+03  0.10633880501E+04  0.00000000000E+00 0. -1.
         -4    1    6    6    0  503  0.58154220775E+02 -0.23813405463E+02 -0.81943676518E+02  0.10326547242E+03  0.00000000000E+00 0.  1.
<mgrwt>
<rscale>  0 0.26204285E+04</rscale>
<asrwt>0</asrwt>
<pdfrwt beam="1">  1        2 0.22027819E+00 0.26204285E+04</pdfrwt>
<pdfrwt beam="2">  1       -2 0.18445330E+00 0.26204285E+04</pdfrwt>
<totfact> 0.20712236E+00</totfact>
</mgrwt>
</event>
<event>
12    2  0.3623523E-008  0.1822104E+04  0.7818608E-02  0.8694633E-01
          2   -1    0    0  501    0  0.00000000000E+00  0.00000000000E+00  0.25129334010E+04  0.25129334010E+04  0.00000000000E+00 0. -1.
         -2   -1    0    0    0  501 -0.00000000000E+00 -0.00000000000E+00 -0.33029744506E+03  0.33029744506E+03  0.00000000000E+00 0.  1.
         23    2    1    2    0    0 -0.25918865363E+03  0.59926380690E+03  0.49957975803E+03  0.82714531320E+03  0.91069018271E+02 0.  0.
        254    2    1    2    0    0  0.25918865363E+03 -0.59926380690E+03  0.16830561979E+04  0.20160855328E+04  0.89756717967E+03 0.  0.
         23    2    4    4    0    0 -0.28169087570E+03 -0.44045419967E+03  0.68704035894E+03  0.86798044187E+03  0.89531788751E+02 0.  0.
         23    2    4    4    0    0  0.54087952933E+03 -0.15880960722E+03  0.99601583897E+03  0.11481050910E+04  0.91250160885E+02 0.  0.
          1    1    3    3  502    0 -0.16555290756E+03  0.27664164999E+03  0.26630879008E+03  0.41816114046E+03  0.00000000000E+00 0. -1.
         -1    1    3    3    0  502 -0.93635746063E+02  0.32262215690E+03  0.23327096794E+03  0.40898417274E+03  0.00000000000E+00 0.  1.
         11    1    5    5    0    0 -0.62201182165E+01 -0.25285676009E+02  0.11233789070E+02  0.28359359984E+02  0.00000000000E+00 0.  1.
        -11    1    5    5    0    0 -0.27547075748E+03 -0.41516852367E+03  0.67580656987E+03  0.83962108189E+03  0.00000000000E+00 0. -1.
          1    1    6    6  503    0  0.13375742229E+03 -0.66568215678E+02  0.20459819359E+03  0.25334323787E+03  0.00000000000E+00 0. -1.
         -1    1    6    6    0  503  0.40712210703E+03 -0.92241391544E+02  0.79141764538E+03  0.89476185310E+03  0.00000000000E+00 0.  1.
<mgrwt>
<rscale>  0 0.18221037E+04</rscale>
<asrwt>0</asrwt>
<pdfrwt beam="1">  1        2 0.38660513E+00 0.18221037E+04</pdfrwt>
<pdfrwt beam="2">  1       -2 0.50814993E-01 0.18221037E+04</pdfrwt>
<totfact> 0.11818199E+01</totfact>
</mgrwt>
</event>
<event>
12    2  0.3623523E-008  0.1833949E+04  0.7818608E-02  0.8688451E-01
         -2   -1    0    0    0  501 -0.00000000000E+00  0.00000000000E+00  0.42390600331E+03  0.42390600331E+03  0.00000000000E+00 0. -1.
          2   -1    0    0  501    0  0.00000000000E+00 -0.00000000000E+00 -0.19835586603E+04  0.19835586603E+04  0.00000000000E+00 0.  1.
         23    2    1    2    0    0  0.46931659900E+03  0.28968694076E+03 -0.69056227462E+02  0.56350904340E+03  0.92720470762E+02 0.  0.
        254    2    1    2    0    0 -0.46931659900E+03 -0.28968694076E+03 -0.14905964295E+04  0.18439556202E+04  0.93494278959E+03 0.  0.
         23    2    4    4    0    0  0.27612035803E+03 -0.64568467855E+02 -0.34528673722E+03  0.45598481933E+03  0.91036725530E+02 0.  0.
         23    2    4    4    0    0 -0.74543695703E+03 -0.22511847291E+03 -0.11453096923E+04  0.13879708009E+04  0.91509939644E+02 0.  0.
          1    1    3    3  502    0  0.44940065646E+03  0.25786055423E+03 -0.47699340083E+02  0.52031552207E+03  0.00000000000E+00 0. -1.
         -1    1    3    3    0  502  0.19915942535E+02  0.31826386533E+02 -0.21356887379E+02  0.43193521335E+02  0.00000000000E+00 0.  1.
         11    1    5    5    0    0  0.16346236323E+03 -0.82864757600E+02 -0.20083345587E+03  0.27188341112E+03  0.00000000000E+00 0. -1.
        -11    1    5    5    0    0  0.11265799480E+03  0.18296289745E+02 -0.14445328135E+03  0.18410140821E+03  0.00000000000E+00 0.  1.
          2    1    6    6  503    0 -0.18069789242E+03 -0.14584130209E+02 -0.27177872398E+03  0.32669266902E+03  0.00000000000E+00 0. -1.
         -2    1    6    6    0  503 -0.56473906460E+03 -0.21053434270E+03 -0.87353096832E+03  0.10612781319E+04  0.00000000000E+00 0.  1.
<mgrwt>
<rscale>  0 0.18339492E+04</rscale>
<asrwt>0</asrwt>
<pdfrwt beam="1">  1        2 0.30516288E+00 0.18339492E+04</pdfrwt>
<pdfrwt beam="2">  1       -2 0.65216307E-01 0.18339492E+04</pdfrwt>
<totfact> 0.13924729E+01</totfact>
</mgrwt>
</event>
<event>
12    2  0.3623523E-008  0.1555676E+04  0.7818608E-02  0.8848250E-01
          1   -1    0    0  501    0  0.00000000000E+00  0.00000000000E+00  0.16800244759E+04  0.16800244759E+04  0.00000000000E+00 0. -1.
         -1   -1    0    0    0  501 -0.00000000000E+00 -0.00000000000E+00 -0.36013278878E+03  0.36013278878E+03  0.00000000000E+00 0.  1.
         23    2    1    2    0    0  0.41198627345E+03 -0.66417847312E+02  0.83651145358E+03  0.93927063037E+03  0.91290115296E+02 0.  0.
        254    2    1    2    0    0 -0.41198627345E+03  0.66417847312E+02  0.48338023354E+03  0.11008866343E+04  0.89674461887E+03 0.  0.
         23    2    4    4    0    0  0.11214350702E+02  0.12980437839E+03 -0.22220757532E+03  0.27075640568E+03  0.83413945941E+02 0.  0.
         23    2    4    4    0    0 -0.42320062415E+03 -0.63386531073E+02  0.70558780886E+03  0.83013022863E+03  0.90251979874E+02 0.  0.
          2    1    3    3  502    0  0.33110614509E+03 -0.74218280888E+02  0.73254880916E+03  0.80732111971E+03  0.00000000000E+00 0. -1.
         -2    1    3    3    0  502  0.80880128359E+02  0.78004335760E+01  0.10396264442E+03  0.13194951066E+03  0.00000000000E+00 0.  1.
         11    1    5    5    0    0 -0.92492408264E+01  0.56341436002E+02 -0.31146783292E+02  0.65038665238E+02  0.00000000000E+00 0. -1.
        -11    1    5    5    0    0  0.20463591529E+02  0.73462942384E+02 -0.19106079203E+03  0.20571774044E+03  0.00000000000E+00 0.  1.
          2    1    6    6  503    0 -0.12909421480E+03 -0.11274008337E+02  0.29672663197E+03  0.32378868677E+03  0.00000000000E+00 0. -1.
         -2    1    6    6    0  503 -0.29410640935E+03 -0.52112522737E+02  0.40886117688E+03  0.50634154186E+03  0.00000000000E+00 0.  1.
<mgrwt>
<rscale>  0 0.15556759E+04</rscale>
<asrwt>0</asrwt>
<pdfrwt beam="1">  1        1 0.25846530E+00 0.15556759E+04</pdfrwt>
<pdfrwt beam="2">  1       -1 0.55405045E-01 0.15556759E+04</pdfrwt>
<totfact> 0.15600043E+01</totfact>
</mgrwt>
</event>
<event>
12    2  0.3623523E-008  0.1859921E+04  0.7818608E-02  0.8675067E-01
         -2   -1    0    0    0  501 -0.00000000000E+00  0.00000000000E+00  0.93439838593E+03  0.93439838593E+03  0.00000000000E+00 0. -1.
          2   -1    0    0  501    0  0.00000000000E+00 -0.00000000000E+00 -0.92554376859E+03  0.92554376859E+03  0.00000000000E+00 0.  1.
         23    2    1    2    0    0  0.36059455357E+03 -0.55902577056E+03  0.25734782529E+03  0.71811918674E+03  0.83240729030E+02 0.  0.
        254    2    1    2    0    0 -0.36059455357E+03  0.55902577056E+03 -0.24849320795E+03  0.11418229678E+04  0.89413230068E+03 0.  0.
         23    2    4    4    0    0 -0.25562393016E+03  0.15139809214E+03  0.30812848031E+03  0.43788577456E+03  0.92389475655E+02 0.  0.
         23    2    4    4    0    0 -0.10497062342E+03  0.40762767842E+03 -0.55662168826E+03  0.70393719322E+03  0.92307703676E+02 0.  0.
          2    1    3    3  502    0  0.35454928838E+03 -0.55370929170E+03  0.26314561539E+03  0.70819827203E+03  0.00000000000E+00 0. -1.
         -2    1    3    3    0  502  0.60452651898E+01 -0.53164788614E+01 -0.57977901002E+01  0.99209147131E+01  0.00000000000E+00 0.  1.
         11    1    5    5    0    0 -0.11297575390E+03  0.95021512576E+02  0.20668273497E+03  0.25398890085E+03  0.00000000000E+00 0. -1.
        -11    1    5    5    0    0 -0.14264817625E+03  0.56376579566E+02  0.10144574534E+03  0.18389687371E+03  0.00000000000E+00 0.  1.
          1    1    6    6  503    0 -0.11550987062E+03  0.30940863565E+03 -0.45485579805E+03  0.56211211608E+03  0.00000000000E+00 0. -1.
         -1    1    6    6    0  503  0.10539247204E+02  0.98219042768E+02 -0.10176589021E+03  0.14182507713E+03  0.00000000000E+00 0.  1.
<mgrwt>
<rscale>  0 0.18599211E+04</rscale>
<asrwt>0</asrwt>
<pdfrwt beam="1">  1        2 0.14239135E+00 0.18599211E+04</pdfrwt>
<pdfrwt beam="2">  1       -2 0.14375360E+00 0.18599211E+04</pdfrwt>
<totfact> 0.88744754E+00</totfact>
</mgrwt>
</event>
<event>
12    2  0.3623523E-008  0.1233434E+04  0.7818608E-02  0.9084085E-01
         -2   -1    0    0    0  501 -0.00000000000E+00  0.00000000000E+00  0.51021002083E+03  0.51021002083E+03  0.00000000000E+00 0.  1.
          2   -1    0    0  501    0  0.00000000000E+00 -0.00000000000E+00 -0.74545708710E+03  0.74545708710E+03  0.00000000000E+00 0. -1.
         23    2    1    2    0    0 -0.78353128763E+02 -0.47262728391E+02 -0.34591090431E+03  0.36907006560E+03  0.90473097214E+02 0.  0.
        254    2    1    2    0    0  0.78353128763E+02  0.47262728391E+02  0.11066383804E+03  0.88659704234E+03  0.87489133734E+03 0.  0.
         23    2    4    4    0    0  0.64172920882E+02  0.45092711308E+03  0.73715430897E+02  0.47040466677E+03  0.91614194777E+02 0.  0.
         23    2    4    4    0    0  0.14180207881E+02 -0.40366438469E+03  0.36948407142E+02  0.41619237557E+03  0.93300026426E+02 0.  0.
          4    1    3    3  502    0 -0.33998274420E+00  0.20052517767E+02 -0.10734826648E+03  0.10920562885E+03  0.00000000000E+00 0. -1.
         -4    1    3    3    0  502 -0.78013146019E+02 -0.67315246158E+02 -0.23856263783E+03  0.25986443674E+03  0.00000000000E+00 0.  1.
         11    1    5    5    0    0  0.63555354659E+02  0.43272404610E+03  0.49579393161E+02  0.44016758105E+03  0.00000000000E+00 0.  1.
        -11    1    5    5    0    0  0.61756622374E+00  0.18203066976E+02  0.24136037736E+02  0.30237085722E+02  0.00000000000E+00 0. -1.
          2    1    6    6  503    0  0.39290986338E+02 -0.18178092849E+03 -0.16110912951E+02  0.18667525033E+03  0.00000000000E+00 0.  1.
         -2    1    6    6    0  503 -0.25110778457E+02 -0.22188345619E+03  0.53059320093E+02  0.22951712523E+03  0.00000000000E+00 0. -1.
<mgrwt>
<rscale>  0 0.12334337E+04</rscale>
<asrwt>0</asrwt>
<pdfrwt beam="1">  1        2 0.11468571E+00 0.12334337E+04</pdfrwt>
<pdfrwt beam="2">  1       -2 0.78493850E-01 0.12334337E+04</pdfrwt>
<totfact> 0.53710999E+01</totfact>
</mgrwt>
</event>
<event>
12    2  0.3623523E-008  0.1416970E+04  0.7818608E-02  0.8941626E-01
         -1   -1    0    0    0  501 -0.00000000000E+00  0.00000000000E+00  0.29990213966E+03  0.29990213966E+03  0.00000000000E+00 0.  1.
          1   -1    0    0  501    0  0.00000000000E+00 -0.00000000000E+00 -0.16737148009E+04  0.16737148009E+04  0.00000000000E+00 0. -1.
         23    2    1    2    0    0 -0.15571924346E+03 -0.84781329272E+02  0.11029043402E+03  0.22777757732E+03  0.91007078374E+02 0.  0.
        254    2    1    2    0    0  0.15571924346E+03  0.84781329272E+02 -0.14841030952E+04  0.17458393632E+04  0.90219550446E+03 0.  0.
         23    2    4    4    0    0  0.15286315616E+03 -0.10935662307E+03  0.34598147358E+02  0.21141969513E+03  0.90417034719E+02 0.  0.
         23    2    4    4    0    0  0.28560873021E+01  0.19413795234E+03 -0.15187012426E+04  0.15344196681E+04  0.10145221422E+03 0.  0.
          2    1    3    3  502    0 -0.37584717942E+02 -0.63381499905E+02  0.16712452447E+02  0.75558795780E+02  0.00000000000E+00 0. -1.
         -2    1    3    3    0  502 -0.11813452552E+03 -0.21399829367E+02  0.93577981577E+02  0.15221878154E+03  0.00000000000E+00 0.  1.
         11    1    5    5    0    0  0.14886343644E+02 -0.15553653557E+02 -0.26140127183E+02  0.33864813822E+02  0.00000000000E+00 0.  1.
        -11    1    5    5    0    0  0.13797681252E+03 -0.93802969511E+02  0.60738274542E+02  0.17755488131E+03  0.00000000000E+00 0. -1.
          3    1    6    6  503    0 -0.35611716514E+01  0.20361844576E+03 -0.14832643564E+04  0.14971794496E+04  0.00000000000E+00 0. -1.
         -3    1    6    6    0  503  0.64172589536E+01 -0.94804934249E+01 -0.35436886210E+02  0.37240218478E+02  0.00000000000E+00 0.  1.
<mgrwt>
<rscale>  0 0.14169695E+04</rscale>
<asrwt>0</asrwt>
<pdfrwt beam="1">  1        1 0.25749458E+00 0.14169695E+04</pdfrwt>
<pdfrwt beam="2">  1       -1 0.46138791E-01 0.14169695E+04</pdfrwt>
<totfact> 0.22606317E+01</totfact>
</mgrwt>
</event>
<event>
12    2  0.3623523E-008  0.1378932E+04  0.7818608E-02  0.8969211E-01
         -2   -1    0    0    0  501 -0.00000000000E+00  0.00000000000E+00  0.21141883729E+03  0.21141883729E+03  0.00000000000E+00 0.  1.
          2   -1    0    0  501    0  0.00000000000E+00 -0.00000000000E+00 -0.22484440119E+04  0.22484440119E+04  0.00000000000E+00 0. -1.
         23    2    1    2    0    0 -0.16422115106E+01  0.34388369433E+03 -0.10129211764E+04  0.10735710853E+04  0.91032265811E+02 0.  0.
        254    2    1    2    0    0  0.16422115106E+01 -0.34388369433E+03 -0.10241039982E+04  0.13862917639E+04  0.86876761190E+03 0.  0.
         23    2    4    4    0    0  0.66905766901E+02  0.18162142537E+03 -0.75583843804E+03  0.78556533799E+03  0.91424460799E+02 0.  0.
         23    2    4    4    0    0 -0.65263555390E+02 -0.52550511971E+03 -0.26826556015E+03  0.60072642592E+03  0.92145892685E+02 0.  0.
          3    1    3    3  502    0  0.15200240919E+02  0.29981995947E+03 -0.77695500393E+03  0.83293585200E+03  0.00000000000E+00 0. -1.
         -3    1    3    3    0  502 -0.16842452429E+02  0.44063734863E+02 -0.23596617248E+03  0.24063523326E+03  0.00000000000E+00 0.  1.
         11    1    5    5    0    0  0.38142213195E+02  0.15111566277E+03 -0.69094884988E+03  0.70830860867E+03  0.00000000000E+00 0.  1.
        -11    1    5    5    0    0  0.28763553706E+02  0.30505762608E+02 -0.64889588158E+02  0.77256729321E+02  0.00000000000E+00 0. -1.
          1    1    6    6  503    0  0.16017189320E+02 -0.12947477124E+03 -0.92274161368E+02  0.15979608130E+03  0.00000000000E+00 0. -1.
         -1    1    6    6    0  503 -0.81280744710E+02 -0.39603034846E+03 -0.17599139878E+03  0.44093034462E+03  0.00000000000E+00 0.  1.
<mgrwt>
<rscale>  0 0.13789321E+04</rscale>
<asrwt>0</asrwt>
<pdfrwt beam="1">  1        2 0.34591447E+00 0.13789321E+04</pdfrwt>
<pdfrwt beam="2">  1       -2 0.32525975E-01 0.13789321E+04</pdfrwt>
<totfact> 0.41715345E+01</totfact>
</mgrwt>
</event>
<event>
12    2  0.3623523E-008  0.2002371E+04  0.7818608E-02  0.8605513E-01
         -1   -1    0    0    0  501 -0.00000000000E+00  0.00000000000E+00  0.63807500057E+03  0.63807500057E+03  0.00000000000E+00 0.  1.
          1   -1    0    0  501    0  0.00000000000E+00 -0.00000000000E+00 -0.15709325556E+04  0.15709325556E+04  0.00000000000E+00 0. -1.
         23    2    1    2    0    0 -0.99777302618E+02 -0.26682249462E+03 -0.11491883660E+04  0.11874452094E+04  0.90788055789E+02 0.  0.
        254    2    1    2    0    0  0.99777302618E+02  0.26682249462E+03  0.21633081099E+03  0.10215623467E+04  0.95689124498E+03 0.  0.
         23    2    4    4    0    0 -0.19537518922E+03  0.54253821372E+03  0.14459026449E+03  0.60141831554E+03  0.90986085599E+02 0.  0.
         23    2    4    4    0    0  0.29515249184E+03 -0.27571571910E+03  0.71740546497E+02  0.42014403119E+03  0.90775270531E+02 0.  0.
          4    1    3    3  502    0  0.15829177056E+02 -0.56920834229E+02 -0.20772942224E+03  0.21596772231E+03  0.00000000000E+00 0.  1.
         -4    1    3    3    0  502 -0.11560647967E+03 -0.20990166039E+03 -0.94145894379E+03  0.97147748714E+03  0.00000000000E+00 0. -1.
         11    1    5    5    0    0 -0.54977599964E+02  0.28523261102E+03  0.79414235382E+02  0.30114249064E+03  0.00000000000E+00 0. -1.
        -11    1    5    5    0    0 -0.14039758925E+03  0.25730560270E+03  0.65176029107E+02  0.30027582490E+03  0.00000000000E+00 0.  1.
          1    1    6    6  503    0 -0.94143230147E+00 -0.27463739039E+02  0.70731676005E+01  0.28375569716E+02  0.00000000000E+00 0. -1.
         -1    1    6    6    0  503  0.29609392414E+03 -0.24825198006E+03  0.64667378897E+02  0.39176846148E+03  0.00000000000E+00 0.  1.
<mgrwt>
<rscale>  0 0.20023714E+04</rscale>
<asrwt>0</asrwt>
<pdfrwt beam="1">  1        1 0.24168193E+00 0.20023714E+04</pdfrwt>
<pdfrwt beam="2">  1       -1 0.98165385E-01 0.20023714E+04</pdfrwt>
<totfact> 0.53878183E+00</totfact>
</mgrwt>
</event>
<event>
12    2  0.3623523E-008  0.1641095E+04  0.7818608E-02  0.8795692E-01
          2   -1    0    0  501    0  0.00000000000E+00  0.00000000000E+00  0.20071284262E+04  0.20071284262E+04  0.00000000000E+00 0. -1.
         -2   -1    0    0    0  501 -0.00000000000E+00 -0.00000000000E+00 -0.33545328264E+03  0.33545328264E+03  0.00000000000E+00 0.  1.
         23    2    1    2    0    0 -0.27612342379E+03  0.34449302026E+03  0.10881633116E+03  0.46378397729E+03  0.91296207404E+02 0.  0.
        254    2    1    2    0    0  0.27612342379E+03 -0.34449302026E+03  0.15628588124E+04  0.18787977315E+04  0.94468707116E+03 0.  0.
         23    2    4    4    0    0 -0.17940748310E+03  0.22274277592E+03  0.56668490438E+03  0.64141475009E+03  0.92085349392E+02 0.  0.
         23    2    4    4    0    0  0.45553090689E+03 -0.56723579618E+03  0.99617390798E+03  0.12373829814E+04  0.97413203279E+02 0.  0.
          2    1    3    3  502    0 -0.26139319046E+03  0.28598869493E+03  0.11217647031E+03  0.40336025354E+03  0.00000000000E+00 0.  1.
         -2    1    3    3    0  502 -0.14730233332E+02  0.58504325328E+02 -0.33601391440E+01  0.60423723745E+02  0.00000000000E+00 0. -1.
         11    1    5    5    0    0 -0.18946330890E+03  0.20550883392E+03  0.51415041287E+03  0.58521865426E+03  0.00000000000E+00 0.  1.
        -11    1    5    5    0    0  0.10055825796E+02  0.17233941994E+02  0.52534491508E+02  0.56196095835E+02  0.00000000000E+00 0. -1.
          4    1    6    6  503    0  0.82654795655E+02 -0.13525372520E+03  0.27892035169E+03  0.32081450718E+03  0.00000000000E+00 0. -1.
         -4    1    6    6    0  503  0.37287611124E+03 -0.43198207098E+03  0.71725355629E+03  0.91656847425E+03  0.00000000000E+00 0.  1.
<mgrwt>
<rscale>  0 0.16410945E+04</rscale>
<asrwt>0</asrwt>
<pdfrwt beam="1">  1        2 0.30878898E+00 0.16410945E+04</pdfrwt>
<pdfrwt beam="2">  1       -2 0.51608198E-01 0.16410945E+04</pdfrwt>
<totfact> 0.22448618E+01</totfact>
</mgrwt>
</event>
<event>
12    2  0.3623523E-008  0.3222276E+04  0.7818608E-02  0.8182959E-01
         -2   -1    0    0    0  501 -0.00000000000E+00  0.00000000000E+00  0.74739781220E+03  0.74739781220E+03  0.00000000000E+00 0.  1.
          2   -1    0    0  501    0  0.00000000000E+00 -0.00000000000E+00 -0.34730710980E+04  0.34730710980E+04  0.00000000000E+00 0. -1.
         23    2    1    2    0    0  0.71917938382E+03  0.84733365124E+03  0.30634264135E+02  0.11155736648E+04  0.91503228401E+02 0.  0.
        254    2    1    2    0    0 -0.71917938382E+03 -0.84733365124E+03 -0.27563075499E+04  0.31048952454E+04  0.89886031867E+03 0.  0.
         23    2    4    4    0    0 -0.55542886585E+03 -0.22562751453E+02 -0.85554994481E+03  0.10244378391E+04  0.92178496886E+02 0.  0.
         23    2    4    4    0    0 -0.16375051797E+03 -0.82477089978E+03 -0.19007576051E+04  0.20804574063E+04  0.91445485704E+02 0.  0.
          1    1    3    3  502    0  0.32578313533E+03  0.41498894458E+03 -0.26482819725E+02  0.52825355193E+03  0.00000000000E+00 0. -1.
         -1    1    3    3    0  502  0.39339624849E+03  0.43234470666E+03  0.57117083859E+02  0.58732011286E+03  0.00000000000E+00 0.  1.
         11    1    5    5    0    0 -0.39377125108E+03  0.48922976540E+01 -0.66686176745E+03  0.77445745502E+03  0.00000000000E+00 0. -1.
        -11    1    5    5    0    0 -0.16165761477E+03 -0.27455049107E+02 -0.18868817736E+03  0.24998038405E+03  0.00000000000E+00 0.  1.
          4    1    6    6  503    0 -0.17048202455E+03 -0.81992685892E+03 -0.18846237812E+04  0.20623168940E+04  0.00000000000E+00 0. -1.
         -4    1    6    6    0  503  0.67315065799E+01 -0.48440408667E+01 -0.16133823939E+02  0.18140512332E+02  0.00000000000E+00 0.  1.
<mgrwt>
<rscale>  0 0.32222761E+04</rscale>
<asrwt>0</asrwt>
<pdfrwt beam="1">  1        2 0.53431863E+00 0.32222761E+04</pdfrwt>
<pdfrwt beam="2">  1       -2 0.11498428E+00 0.32222761E+04</pdfrwt>
<totfact> 0.42034666E-01</totfact>
</mgrwt>
</event>
<event>
12    2  0.3623523E-008  0.1294199E+04  0.7818608E-02  0.9034178E-01
         -3   -1    0    0    0  501 -0.00000000000E+00  0.00000000000E+00  0.70265047941E+03  0.70265047941E+03  0.00000000000E+00 0.  1.
          3   -1    0    0  501    0  0.00000000000E+00 -0.00000000000E+00 -0.59593996032E+03  0.59593996032E+03  0.00000000000E+00 0. -1.
         23    2    1    2    0    0  0.16671695375E+03  0.29695923041E+03  0.48476363516E+02  0.35542294808E+03  0.89421401301E+02 0.  0.
        254    2    1    2    0    0 -0.16671695375E+03 -0.29695923041E+03  0.58234155581E+02  0.94316749165E+03  0.87760718617E+03 0.  0.
         23    2    4    4    0    0  0.12862422482E+03 -0.46955320192E+03 -0.16815829973E+03  0.52288365029E+03  0.90031646263E+02 0.  0.
         23    2    4    4    0    0 -0.29534117858E+03  0.17259397151E+03  0.22639245531E+03  0.42028384136E+03  0.91487008488E+02 0.  0.
          4    1    3    3  502    0  0.22905902370E+02  0.78299504033E+02 -0.21790406475E+02  0.84441189650E+02  0.00000000000E+00 0. -1.
         -4    1    3    3    0  502  0.14381105138E+03  0.21865972638E+03  0.70266769990E+02  0.27098175843E+03  0.00000000000E+00 0.  1.
         11    1    5    5    0    0  0.11039118904E+03 -0.24185823724E+03 -0.10544355896E+03  0.28600693290E+03  0.00000000000E+00 0. -1.
        -11    1    5    5    0    0  0.18233035787E+02 -0.22769496468E+03 -0.62714740766E+02  0.23687671739E+03  0.00000000000E+00 0.  1.
          3    1    6    6  503    0 -0.14166896658E+03  0.36484738909E+02  0.11916548158E+03  0.18868397989E+03  0.00000000000E+00 0. -1.
         -3    1    6    6    0  503 -0.15367221199E+03  0.13610923260E+03  0.10722697372E+03  0.23159986147E+03  0.00000000000E+00 0.  1.
<mgrwt>
<rscale>  0 0.12941986E+04</rscale>
<asrwt>0</asrwt>
<pdfrwt beam="1">  1        3 0.91683070E-01 0.12941986E+04</pdfrwt>
<pdfrwt beam="2">  1       -3 0.10810007E+00 0.12941986E+04</pdfrwt>
<totfact> 0.19977893E+00</totfact>
</mgrwt>
</event>
<event>
12    2  0.3623523E-008  0.1560292E+04  0.7818608E-02  0.8845320E-01
         -1   -1    0    0    0  501 -0.00000000000E+00  0.00000000000E+00  0.32060739540E+03  0.32060739540E+03  0.00000000000E+00 0.  1.
          1   -1    0    0  501    0  0.00000000000E+00 -0.00000000000E+00 -0.18983595582E+04  0.18983595582E+04  0.00000000000E+00 0. -1.
         23    2    1    2    0    0 -0.25793980093E+03 -0.71701961708E+02  0.95986249900E+02  0.29885327772E+03  0.91792206750E+02 0.  0.
        254    2    1    2    0    0  0.25793980093E+03  0.71701961708E+02 -0.16737384127E+04  0.19201136759E+04  0.90208765757E+03 0.  0.
         23    2    4    4    0    0  0.53934113394E+03  0.11716056138E+03 -0.14257256471E+04  0.15315558032E+04  0.91400775253E+02 0.  0.
         23    2    4    4    0    0 -0.28140133301E+03 -0.45458599669E+02 -0.24801276565E+03  0.38855787270E+03  0.90629432338E+02 0.  0.
          3    1    3    3  502    0 -0.67682133535E+01 -0.19400657172E+02  0.25576762479E+02  0.32808001914E+02  0.00000000000E+00 0. -1.
         -3    1    3    3    0  502 -0.25117158758E+03 -0.52301304537E+02  0.70409487420E+02  0.26604527581E+03  0.00000000000E+00 0.  1.
         11    1    5    5    0    0  0.47917153291E+03  0.82033987564E+02 -0.12981980528E+04  0.13862370351E+04  0.00000000000E+00 0. -1.
        -11    1    5    5    0    0  0.60169601027E+02  0.35126573813E+02 -0.12752759426E+03  0.14531876813E+03  0.00000000000E+00 0.  1.
          1    1    6    6  503    0 -0.27480474999E+03 -0.23083793613E+02 -0.22778405110E+03  0.35768154283E+03  0.00000000000E+00 0. -1.
         -1    1    6    6    0  503 -0.65965830133E+01 -0.22374806056E+02 -0.20228714547E+02  0.30876329862E+02  0.00000000000E+00 0.  1.
<mgrwt>
<rscale>  0 0.15602924E+04</rscale>
<asrwt>0</asrwt>
<pdfrwt beam="1">  1        1 0.29205531E+00 0.15602924E+04</pdfrwt>
<pdfrwt beam="2">  1       -1 0.49324216E-01 0.15602924E+04</pdfrwt>
<totfact> 0.13855345E+01</totfact>
</mgrwt>
</event>
<event>
12    2  0.3623523E-008  0.2044990E+04  0.7818608E-02  0.8585871E-01
          1   -1    0    0  501    0  0.00000000000E+00  0.00000000000E+00  0.89571159783E+03  0.89571159783E+03  0.00000000000E+00 0. -1.
         -1   -1    0    0    0  501 -0.00000000000E+00 -0.00000000000E+00 -0.11672235715E+04  0.11672235715E+04  0.00000000000E+00 0.  1.
         23    2    1    2    0    0  0.50116000351E+03 -0.30643577400E+03  0.44780928381E+03  0.74423457307E+03  0.91036873765E+02 0.  0.
        254    2    1    2    0    0 -0.50116000351E+03  0.30643577400E+03 -0.71932125753E+03  0.13187005963E+04  0.93620721982E+03 0.  0.
         23    2    4    4    0    0 -0.59654462823E+03 -0.15832256460E+02 -0.75687954542E+03  0.96825359793E+03  0.92370069844E+02 0.  0.
         23    2    4    4    0    0  0.95384624713E+02  0.32226803046E+03  0.37558287895E+02  0.35044699838E+03  0.91910628283E+02 0.  0.
          3    1    3    3  502    0  0.48980877301E+03 -0.28292022576E+03  0.44101779254E+03  0.71725391710E+03  0.00000000000E+00 0. -1.
         -3    1    3    3    0  502  0.11351230507E+02 -0.23515548240E+02  0.67914912641E+01  0.26980655972E+02  0.00000000000E+00 0.  1.
         11    1    5    5    0    0 -0.50941873650E+03  0.11909776849E+02 -0.60523384070E+03  0.79117462915E+03  0.00000000000E+00 0.  1.
        -11    1    5    5    0    0 -0.87125891723E+02 -0.27742033308E+02 -0.15164570472E+03  0.17707896877E+03  0.00000000000E+00 0. -1.
          3    1    6    6  503    0  0.22535380635E+02  0.22019011070E+03  0.73963976673E+01  0.22146384565E+03  0.00000000000E+00 0. -1.
         -3    1    6    6    0  503  0.72849244078E+02  0.10207791976E+03  0.30161890227E+02  0.12898315273E+03  0.00000000000E+00 0.  1.
<mgrwt>
<rscale>  0 0.20449897E+04</rscale>
<asrwt>0</asrwt>
<pdfrwt beam="1">  1        1 0.13780178E+00 0.20449897E+04</pdfrwt>
<pdfrwt beam="2">  1       -1 0.17957286E+00 0.20449897E+04</pdfrwt>
<totfact> 0.35528358E+00</totfact>
</mgrwt>
</event>
<event>
12    2  0.3623523E-008  0.1668171E+04  0.7818608E-02  0.8779729E-01
          1   -1    0    0  501    0  0.00000000000E+00  0.00000000000E+00  0.22773357346E+04  0.22773357346E+04  0.00000000000E+00 0. -1.
         -1   -1    0    0    0  501 -0.00000000000E+00 -0.00000000000E+00 -0.30548777026E+03  0.30548777026E+03  0.00000000000E+00 0.  1.
         23    2    1    2    0    0 -0.52175844120E+02 -0.15601311269E+03 -0.17077635301E+03  0.25408303086E+03  0.91275482942E+02 0.  0.
        254    2    1    2    0    0  0.52175844120E+02  0.15601311269E+03  0.21426243173E+04  0.23287404740E+04  0.89729082233E+03 0.  0.
         23    2    4    4    0    0 -0.34863315246E+03  0.13360659324E+02  0.42661972387E+03  0.55844035243E+03  0.90153514734E+02 0.  0.
         23    2    4    4    0    0  0.40080899658E+03  0.14265245336E+03  0.17160045935E+04  0.17703001215E+04  0.91066905790E+02 0.  0.
          3    1    3    3  502    0  0.26474145328E+02 -0.38380505462E+02 -0.42927555057E+02  0.63377587155E+02  0.00000000000E+00 0. -1.
         -3    1    3    3    0  502 -0.78649989448E+02 -0.11763260722E+03 -0.12784879795E+03  0.19070544371E+03  0.00000000000E+00 0.  1.
         11    1    5    5    0    0 -0.57335403904E+02 -0.21213921768E+02  0.11648257982E+03  0.13155063823E+03  0.00000000000E+00 0.  1.
        -11    1    5    5    0    0 -0.29129774856E+03  0.34574581092E+02  0.31013714405E+03  0.42688971420E+03  0.00000000000E+00 0. -1.
          1    1    6    6  503    0  0.36668139938E+03  0.99752111711E+02  0.15188216644E+04  0.15656388411E+04  0.00000000000E+00 0. -1.
         -1    1    6    6    0  503  0.34127597203E+02  0.42900341650E+02  0.19718292909E+03  0.20466128048E+03  0.00000000000E+00 0.  1.
<mgrwt>
<rscale>  0 0.16681705E+04</rscale>
<asrwt>0</asrwt>
<pdfrwt beam="1">  1        1 0.35035933E+00 0.16681705E+04</pdfrwt>
<pdfrwt beam="2">  1       -1 0.46998120E-01 0.16681705E+04</pdfrwt>
<totfact> 0.83151925E+00</totfact>
</mgrwt>
</event>
<event>
12    2  0.3623523E-008  0.2046696E+04  0.7818608E-02  0.8585095E-01
          2   -1    0    0  501    0  0.00000000000E+00  0.00000000000E+00  0.13881717102E+04  0.13881717102E+04  0.00000000000E+00 0. -1.
         -2   -1    0    0    0  501 -0.00000000000E+00 -0.00000000000E+00 -0.75440324911E+03  0.75440324911E+03  0.00000000000E+00 0.  1.
         23    2    1    2    0    0  0.30550028101E+03  0.73368511387E+03 -0.64946923166E+01  0.79977128242E+03  0.89261722700E+02 0.  0.
        254    2    1    2    0    0 -0.30550028101E+03 -0.73368511387E+03  0.64026315339E+03  0.13428036769E+04  0.87267436139E+03 0.  0.
         23    2    4    4    0    0 -0.35884816478E+03 -0.39002610944E+03  0.78898121158E+03  0.95484964740E+03  0.91400905335E+02 0.  0.
         23    2    4    4    0    0  0.53347883767E+02 -0.34365900443E+03 -0.14871805819E+03  0.38795402948E+03  0.86277228314E+02 0.  0.
          1    1    3    3  502    0  0.19564623330E+02  0.50540542388E+02 -0.23342611379E+02  0.59008460553E+02  0.00000000000E+00 0. -1.
         -1    1    3    3    0  502  0.28593565768E+03  0.68314457148E+03  0.16847919063E+02  0.74076282187E+03  0.00000000000E+00 0.  1.
         11    1    5    5    0    0 -0.20083691793E+03 -0.25213026115E+03  0.54431273225E+03  0.63259899358E+03  0.00000000000E+00 0. -1.
        -11    1    5    5    0    0 -0.15801124685E+03 -0.13789584829E+03  0.24466847933E+03  0.32225065381E+03  0.00000000000E+00 0.  1.
          1    1    6    6  503    0 -0.58266329628E+01 -0.22896660173E+03 -0.10159970932E+03  0.25056367513E+03  0.00000000000E+00 0. -1.
         -1    1    6    6    0  503  0.59174516730E+02 -0.11469240270E+03 -0.47118348870E+02  0.13739035435E+03  0.00000000000E+00 0.  1.
<mgrwt>
<rscale>  0 0.20466961E+04</rscale>
<asrwt>0</asrwt>
<pdfrwt beam="1">  1        2 0.21356488E+00 0.20466961E+04</pdfrwt>
<pdfrwt beam="2">  1       -2 0.11606204E+00 0.20466961E+04</pdfrwt>
<totfact> 0.78447334E+00</totfact>
</mgrwt>
</event>
<event>
12    2  0.3623523E-008  0.1673490E+04  0.7818608E-02  0.8776630E-01
         -2   -1    0    0    0  501 -0.00000000000E+00  0.00000000000E+00  0.17621105474E+03  0.17621105474E+03  0.00000000000E+00 0.  1.
          2   -1    0    0  501    0  0.00000000000E+00 -0.00000000000E+00 -0.39733143318E+04  0.39733143318E+04  0.00000000000E+00 0. -1.
         23    2    1    2    0    0  0.71178113735E+02  0.11802031849E+02 -0.28317828559E+04  0.28341544985E+04  0.90730184738E+02 0.  0.
        254    2    1    2    0    0 -0.71178113735E+02 -0.11802031849E+02 -0.96532042116E+03  0.13153708881E+04  0.89059050400E+03 0.  0.
         23    2    4    4    0    0 -0.45347357620E+03  0.89694641555E+01 -0.69797914764E+03  0.83729065118E+03  0.90343834441E+02 0.  0.
         23    2    4    4    0    0  0.38229546247E+03 -0.20771496004E+02 -0.26734127352E+03  0.47808023688E+03  0.10250892982E+03 0.  0.
          1    1    3    3  502    0  0.42076353861E+02  0.49090155897E+02 -0.12572872840E+04  0.12589486000E+04  0.00000000000E+00 0. -1.
         -1    1    3    3    0  502  0.29101759874E+02 -0.37288124048E+02 -0.15744955719E+04  0.15752058984E+04  0.00000000000E+00 0.  1.
         11    1    5    5    0    0 -0.10848994883E+03 -0.30657819583E+02 -0.13563993687E+03  0.17637506449E+03  0.00000000000E+00 0. -1.
        -11    1    5    5    0    0 -0.34498362737E+03  0.39627283739E+02 -0.56233921077E+03  0.66091558670E+03  0.00000000000E+00 0.  1.
          1    1    6    6  503    0  0.38255290837E+02  0.27011732526E+02 -0.16581968292E+02  0.49679599873E+02  0.00000000000E+00 0. -1.
         -1    1    6    6    0  503  0.34404017163E+03 -0.47783228531E+02 -0.25075930523E+03  0.42840063700E+03  0.00000000000E+00 0.  1.
<mgrwt>
<rscale>  0 0.16734897E+04</rscale>
<asrwt>0</asrwt>
<pdfrwt beam="1">  1        2 0.61127911E+00 0.16734897E+04</pdfrwt>
<pdfrwt beam="2">  1       -2 0.27109394E-01 0.16734897E+04</pdfrwt>
<totfact> 0.43164950E+00</totfact>
</mgrwt>
</event>
<event>
12    2  0.3623523E-008  0.1233589E+04  0.7818608E-02  0.9083954E-01
         -2   -1    0    0    0  501 -0.00000000000E+00  0.00000000000E+00  0.15432602179E+03  0.15432602179E+03  0.00000000000E+00 0.  1.
          2   -1    0    0  501    0  0.00000000000E+00 -0.00000000000E+00 -0.24651416522E+04  0.24651416522E+04  0.00000000000E+00 0. -1.
         23    2    1    2    0    0 -0.83056294253E+02  0.13856530244E+02 -0.10760657859E+04  0.10834538106E+04  0.94150054398E+02 0.  0.
        254    2    1    2    0    0  0.83056294253E+02 -0.13856530244E+02 -0.12347498445E+04  0.15360138633E+04  0.90974779936E+03 0.  0.
         23    2    4    4    0    0 -0.25056118399E+03  0.24451222786E+02 -0.11465639672E+04  0.11775234061E+04  0.92594123282E+02 0.  0.
         23    2    4    4    0    0  0.33361747825E+03 -0.38307753030E+02 -0.88185877226E+02  0.35849045724E+03  0.89277955030E+02 0.  0.
          1    1    3    3  502    0 -0.90889130978E+02 -0.12166731640E+02 -0.95411979090E+03  0.95851626949E+03  0.00000000000E+00 0. -1.
         -1    1    3    3    0  502  0.78328367245E+01  0.26023261884E+02 -0.12194599500E+03  0.12493754114E+03  0.00000000000E+00 0.  1.
         11    1    5    5    0    0 -0.95546908166E+01 -0.31995291365E+01 -0.66272868737E+01  0.12060266772E+02  0.00000000000E+00 0.  1.
        -11    1    5    5    0    0 -0.24100649318E+03  0.27650751922E+02 -0.11399366804E+04  0.11654631393E+04  0.00000000000E+00 0. -1.
          1    1    6    6  503    0  0.74176975251E+02  0.25024820943E+02 -0.36927667194E+02  0.86557021235E+02  0.00000000000E+00 0. -1.
         -1    1    6    6    0  503  0.25944050299E+03 -0.63332573974E+02 -0.51258210033E+02  0.27193343600E+03  0.00000000000E+00 0.  1.
<mgrwt>
<rscale>  0 0.12335891E+04</rscale>
<asrwt>0</asrwt>
<pdfrwt beam="1">  1        2 0.37925257E+00 0.12335891E+04</pdfrwt>
<pdfrwt beam="2">  1       -2 0.23742464E-01 0.12335891E+04</pdfrwt>
<totfact> 0.56853221E+01</totfact>
</mgrwt>
</event>
<event>
12    2  0.3623523E-008  0.1445009E+04  0.7818608E-02  0.8921868E-01
          1   -1    0    0  501    0  0.00000000000E+00  0.00000000000E+00  0.14034083158E+04  0.14034083158E+04  0.00000000000E+00 0. -1.
         -1   -1    0    0    0  501 -0.00000000000E+00 -0.00000000000E+00 -0.37196087889E+03  0.37196087889E+03  0.00000000000E+00 0.  1.
         23    2    1    2    0    0 -0.30758066605E+03 -0.30157710885E+03  0.41195453427E+03  0.60305395321E+03  0.91721935574E+02 0.  0.
        254    2    1    2    0    0  0.30758066605E+03  0.30157710885E+03  0.61949290263E+03  0.11723152415E+04  0.89721622270E+03 0.  0.
         23    2    4    4    0    0 -0.77515389960E+01 -0.66591988964E+02  0.66690712161E+03  0.67660787733E+03  0.92404174458E+02 0.  0.
         23    2    4    4    0    0  0.31533220504E+03  0.36816909781E+03 -0.47414218980E+02  0.49570736415E+03  0.92167231630E+02 0.  0.
          2    1    3    3  502    0 -0.31353008726E+03 -0.29650456238E+03  0.39792322799E+03  0.58699145351E+03  0.00000000000E+00 0. -1.
         -2    1    3    3    0  502  0.59494212097E+01 -0.50725464740E+01  0.14031306281E+02  0.16062499694E+02  0.00000000000E+00 0.  1.
         11    1    5    5    0    0  0.38279124282E+02 -0.52829392092E+02  0.34187681158E+03  0.34804596007E+03  0.00000000000E+00 0. -1.
        -11    1    5    5    0    0 -0.46030663278E+02 -0.13762596872E+02  0.32503031003E+03  0.32856191726E+03  0.00000000000E+00 0.  1.
          1    1    6    6  503    0  0.42053227650E+01  0.26627529143E+02 -0.18700507242E+02  0.32808825321E+02  0.00000000000E+00 0. -1.
         -1    1    6    6    0  503  0.31112688228E+03  0.34154156867E+03 -0.28713711738E+02  0.46289853883E+03  0.00000000000E+00 0.  1.
<mgrwt>
<rscale>  0 0.14450093E+04</rscale>
<asrwt>0</asrwt>
<pdfrwt beam="1">  1        1 0.21590897E+00 0.14450093E+04</pdfrwt>
<pdfrwt beam="2">  1       -1 0.57224751E-01 0.14450093E+04</pdfrwt>
<totfact> 0.22954326E+01</totfact>
</mgrwt>
</event>
<event>
12    2  0.3623523E-008  0.1362649E+04  0.7818608E-02  0.8981308E-01
         -2   -1    0    0    0  501 -0.00000000000E+00  0.00000000000E+00  0.17428696878E+03  0.17428696878E+03  0.00000000000E+00 0. -1.
          2   -1    0    0  501    0  0.00000000000E+00 -0.00000000000E+00 -0.26634409025E+04  0.26634409025E+04  0.00000000000E+00 0.  1.
         23    2    1    2    0    0  0.23366379892E+03 -0.15243245786E+03 -0.12722852557E+04  0.13057061766E+04  0.91238273260E+02 0.  0.
        254    2    1    2    0    0 -0.23366379892E+03  0.15243245786E+03 -0.12168686780E+04  0.15320216947E+04  0.88796771808E+03 0.  0.
         23    2    4    4    0    0 -0.30069008717E+03 -0.18352696152E+03 -0.10999341205E+04  0.11586768036E+04  0.92629323053E+02 0.  0.
         23    2    4    4    0    0  0.67026288250E+02  0.33595941938E+03 -0.11693455743E+03  0.37334489109E+03  0.91386334829E+02 0.  0.
          3    1    3    3  502    0  0.34946239204E+02  0.53908938350E+01 -0.24517436781E+03  0.24771106556E+03  0.00000000000E+00 0. -1.
         -3    1    3    3    0  502  0.19871755972E+03 -0.15782335169E+03 -0.10271108879E+04  0.10579951110E+04  0.00000000000E+00 0.  1.
         11    1    5    5    0    0 -0.27288905754E+03 -0.15132150852E+03 -0.85686614547E+03  0.91191349805E+03  0.00000000000E+00 0.  1.
        -11    1    5    5    0    0 -0.27801029628E+02 -0.32205452999E+02 -0.24306797506E+03  0.24676330552E+03  0.00000000000E+00 0. -1.
          4    1    6    6  503    0  0.26765299496E+02  0.40472707247E+02 -0.45882618400E+02  0.66780505841E+02  0.00000000000E+00 0. -1.
         -4    1    6    6    0  503  0.40260988753E+02  0.29548671213E+03 -0.71051939032E+02  0.30656438525E+03  0.00000000000E+00 0.  1.
<mgrwt>
<rscale>  0 0.13626490E+04</rscale>
<asrwt>0</asrwt>
<pdfrwt beam="1">  1        2 0.40976011E+00 0.13626490E+04</pdfrwt>
<pdfrwt beam="2">  1       -2 0.26813382E-01 0.13626490E+04</pdfrwt>
<totfact> 0.34593224E+01</totfact>
</mgrwt>
</event>
<event>
12    2  0.3623523E-008  0.2034360E+04  0.7818608E-02  0.8590723E-01
         -1   -1    0    0    0  501 -0.00000000000E+00  0.00000000000E+00  0.10182134756E+04  0.10182134756E+04  0.00000000000E+00 0.  1.
          1   -1    0    0  501    0  0.00000000000E+00 -0.00000000000E+00 -0.10161474981E+04  0.10161474981E+04  0.00000000000E+00 0. -1.
         23    2    1    2    0    0 -0.11647526598E+01 -0.71527317844E+03 -0.38693648913E+03  0.81828752970E+03  0.90871107677E+02 0.  0.
        254    2    1    2    0    0  0.11647526598E+01  0.71527317844E+03  0.38900246659E+03  0.12160734440E+04  0.90326885574E+03 0.  0.
         23    2    4    4    0    0  0.36810632204E+03  0.11076937644E+03 -0.15781363919E+02  0.39536390187E+03  0.91057368564E+02 0.  0.
         23    2    4    4    0    0 -0.36694156938E+03  0.60450380199E+03  0.40478383051E+03  0.82070954213E+03  0.98200005778E+02 0.  0.
          4    1    3    3  502    0  0.16105693691E+02 -0.13266173214E+03 -0.37905729516E+02  0.13890778550E+03  0.00000000000E+00 0. -1.
         -4    1    3    3    0  502 -0.17270446351E+02 -0.58261144630E+03 -0.34903075961E+03  0.67937974420E+03  0.00000000000E+00 0.  1.
         11    1    5    5    0    0  0.63710562378E+01 -0.10591378976E+02 -0.58740229601E+01  0.13684729151E+02  0.00000000000E+00 0.  1.
        -11    1    5    5    0    0  0.36173526580E+03  0.12136075542E+03 -0.99073409592E+01  0.38167917272E+03  0.00000000000E+00 0. -1.
          1    1    6    6  503    0 -0.25939465314E+03  0.33574041826E+03  0.24983228297E+03  0.49236509233E+03  0.00000000000E+00 0. -1.
         -1    1    6    6    0  503 -0.10754691624E+03  0.26876338373E+03  0.15495154754E+03  0.32834444980E+03  0.00000000000E+00 0.  1.
<mgrwt>
<rscale>  0 0.20343599E+04</rscale>
<asrwt>0</asrwt>
<pdfrwt beam="1">  1        1 0.15633038E+00 0.20343599E+04</pdfrwt>
<pdfrwt beam="2">  1       -1 0.15664823E+00 0.20343599E+04</pdfrwt>
<totfact> 0.42139700E+00</totfact>
</mgrwt>
</event>
<event>
12    2  0.3623523E-008  0.1372057E+04  0.7818608E-02  0.8974297E-01
          1   -1    0    0  501    0  0.00000000000E+00  0.00000000000E+00  0.93869970793E+03  0.93869970793E+03  0.00000000000E+00 0. -1.
         -1   -1    0    0    0  501 -0.00000000000E+00 -0.00000000000E+00 -0.50136907362E+03  0.50136907362E+03  0.00000000000E+00 0.  1.
         23    2    1    2    0    0  0.22550666587E+03  0.33815836651E+01  0.47218572224E+03  0.53120706286E+03  0.91416059258E+02 0.  0.
        254    2    1    2    0    0 -0.22550666587E+03 -0.33815836651E+01 -0.34855087923E+02  0.90886171869E+03  0.87974431233E+03 0.  0.
         23    2    4    4    0    0 -0.94991797276E+02 -0.30340095681E+03 -0.32640301305E+03  0.46324562041E+03  0.83558337439E+02 0.  0.
         23    2    4    4    0    0 -0.13051486859E+03  0.30001937315E+03  0.29154792513E+03  0.44561609828E+03  0.80794549388E+02 0.  0.
          3    1    3    3  502    0  0.25655420379E+02  0.30751785506E+02  0.57618961610E+02  0.70169919793E+02  0.00000000000E+00 0. -1.
         -3    1    3    3    0  502  0.19985124549E+03 -0.27370201841E+02  0.41456676063E+03  0.46103714307E+03  0.00000000000E+00 0.  1.
         11    1    5    5    0    0 -0.70121533148E+02 -0.17966188552E+03 -0.14077630175E+03  0.23877476762E+03  0.00000000000E+00 0.  1.
        -11    1    5    5    0    0 -0.24870264128E+02 -0.12373907130E+03 -0.18562671130E+03  0.22447085279E+03  0.00000000000E+00 0. -1.
          3    1    6    6  503    0 -0.10185044987E+03  0.14741718060E+03  0.18335814499E+03  0.25636994483E+03  0.00000000000E+00 0. -1.
         -3    1    6    6    0  503 -0.28664418722E+02  0.15260219254E+03  0.10818978013E+03  0.18924615345E+03  0.00000000000E+00 0.  1.
<mgrwt>
<rscale>  0 0.13720569E+04</rscale>
<asrwt>0</asrwt>
<pdfrwt beam="1">  1        1 0.14441534E+00 0.13720569E+04</pdfrwt>
<pdfrwt beam="2">  1       -1 0.77133704E-01 0.13720569E+04</pdfrwt>
<totfact> 0.27882561E+01</totfact>
</mgrwt>
</event>
<event>
12    2  0.3623523E-008  0.1557245E+04  0.7818608E-02  0.8847253E-01
         -2   -1    0    0    0  501 -0.00000000000E+00  0.00000000000E+00  0.36493034751E+03  0.36493034751E+03  0.00000000000E+00 0.  1.
          2   -1    0    0  501    0  0.00000000000E+00 -0.00000000000E+00 -0.16612849921E+04  0.16612849921E+04  0.00000000000E+00 0. -1.
         23    2    1    2    0    0  0.12593280469E+03  0.23639786967E+01 -0.10587084956E+04  0.10700036347E+04  0.90440255904E+02 0.  0.
        254    2    1    2    0    0 -0.12593280469E+03 -0.23639786967E+01 -0.23764614901E+03  0.95621170495E+03  0.91760583741E+03 0.  0.
         23    2    4    4    0    0 -0.27489546442E+03  0.39528752364E+03 -0.15539848100E+03  0.51412789527E+03  0.91427906559E+02 0.  0.
         23    2    4    4    0    0  0.14896265973E+03 -0.39765150233E+03 -0.82247668007E+02  0.44208380968E+03  0.91415669276E+02 0.  0.
          4    1    3    3  502    0  0.30852462576E+02 -0.27066020363E+02 -0.13920961613E+03  0.14513359752E+03  0.00000000000E+00 0.  1.
         -4    1    3    3    0  502  0.95080342110E+02  0.29429999060E+02 -0.91949887944E+03  0.92487003714E+03  0.00000000000E+00 0. -1.
         11    1    5    5    0    0 -0.19129363635E+03  0.24291369359E+03 -0.56994552399E+02  0.31440212601E+03  0.00000000000E+00 0. -1.
        -11    1    5    5    0    0 -0.83601828070E+02  0.15237383005E+03 -0.98403928603E+02  0.19972576926E+03  0.00000000000E+00 0.  1.
          4    1    6    6  503    0  0.52979454216E+02 -0.49341116308E+02 -0.46171923862E+01  0.72544378094E+02  0.00000000000E+00 0. -1.
         -4    1    6    6    0  503  0.95983205515E+02 -0.34831038602E+03 -0.77630475621E+02  0.36953943159E+03  0.00000000000E+00 0.  1.
<mgrwt>
<rscale>  0 0.15572454E+04</rscale>
<asrwt>0</asrwt>
<pdfrwt beam="1">  1        2 0.25558231E+00 0.15572454E+04</pdfrwt>
<pdfrwt beam="2">  1       -2 0.56143130E-01 0.15572454E+04</pdfrwt>
<totfact> 0.29527341E+01</totfact>
</mgrwt>
</event>
<event>
12    2  0.3623523E-008  0.2379169E+04  0.7818608E-02  0.8447344E-01
          2   -1    0    0  501    0  0.00000000000E+00  0.00000000000E+00  0.38349758226E+04  0.38349758226E+04  0.00000000000E+00 0. -1.
         -2   -1    0    0    0  501 -0.00000000000E+00 -0.00000000000E+00 -0.36900131730E+03  0.36900131730E+03  0.00000000000E+00 0.  1.
         23    2    1    2    0    0  0.46650259850E+02  0.23304333301E+03 -0.25999510915E+03  0.36379962890E+03  0.90924536854E+02 0.  0.
        254    2    1    2    0    0 -0.46650259850E+02 -0.23304333301E+03  0.37259696144E+04  0.38401775110E+04  0.89868142650E+03 0.  0.
         23    2    4    4    0    0  0.37496504475E+03  0.80902682612E+02  0.16976315885E+04  0.17428086934E+04  0.91022539595E+02 0.  0.
         23    2    4    4    0    0 -0.42161530460E+03 -0.31394601562E+03  0.20283380260E+04  0.20973688176E+04  0.92082808760E+02 0.  0.
          2    1    3    3  502    0  0.10508701977E+02 -0.19584637231E+01 -0.34471838630E+02  0.36091218543E+02  0.00000000000E+00 0. -1.
         -2    1    3    3    0  502  0.36141557873E+02  0.23500179673E+03 -0.22552327052E+03  0.32770841036E+03  0.00000000000E+00 0.  1.
         11    1    5    5    0    0  0.45111196759E+02 -0.11429752839E+02  0.12693794420E+03  0.13519948594E+03  0.00000000000E+00 0. -1.
        -11    1    5    5    0    0  0.32985384799E+03  0.92332435451E+02  0.15706936443E+04  0.16076092074E+04  0.00000000000E+00 0.  1.
          4    1    6    6  503    0 -0.20469190827E+02 -0.85709214767E+01  0.36488751702E+02  0.42706878472E+02  0.00000000000E+00 0. -1.
         -4    1    6    6    0  503 -0.40114611377E+03 -0.30537509415E+03  0.19918492743E+04  0.20546619391E+04  0.00000000000E+00 0.  1.
<mgrwt>
<rscale>  0 0.23791689E+04</rscale>
<asrwt>0</asrwt>
<pdfrwt beam="1">  1        2 0.58999625E+00 0.23791689E+04</pdfrwt>
<pdfrwt beam="2">  1       -2 0.56769436E-01 0.23791689E+04</pdfrwt>
<totfact> 0.12150613E+00</totfact>
</mgrwt>
</event>
<event>
12    2  0.3623523E-008  0.1343242E+04  0.7818608E-02  0.8995960E-01
         -2   -1    0    0    0  501 -0.00000000000E+00  0.00000000000E+00  0.29537025468E+03  0.29537025468E+03  0.00000000000E+00 0.  1.
          2   -1    0    0  501    0  0.00000000000E+00 -0.00000000000E+00 -0.15271502328E+04  0.15271502328E+04  0.00000000000E+00 0. -1.
         23    2    1    2    0    0 -0.24251713807E+03  0.26336721942E+03 -0.41997681641E+03  0.55898452033E+03  0.88917451136E+02 0.  0.
        254    2    1    2    0    0  0.24251713807E+03 -0.26336721942E+03 -0.81180316173E+03  0.12635359672E+04  0.89962320579E+03 0.  0.
         23    2    4    4    0    0  0.34317046090E+03 -0.32741008198E+03 -0.94617177545E+03  0.10622005088E+04  0.89808491618E+02 0.  0.
         23    2    4    4    0    0 -0.10065332283E+03  0.64042862561E+02  0.13436861373E+03  0.20133545838E+03  0.90821048249E+02 0.  0.
          2    1    3    3  502    0 -0.10042682607E+03  0.94630040156E+02 -0.10032078236E+03  0.17060085365E+03  0.00000000000E+00 0.  1.
         -2    1    3    3    0  502 -0.14209031200E+03  0.16873717927E+03 -0.31965603406E+03  0.38838366668E+03  0.00000000000E+00 0. -1.
         11    1    5    5    0    0  0.18091961808E+02  0.32862048154E+01 -0.47623684229E+02  0.51050303855E+02  0.00000000000E+00 0. -1.
        -11    1    5    5    0    0  0.32507849910E+03 -0.33069628680E+03 -0.89854809122E+03  0.10111502049E+04  0.00000000000E+00 0.  1.
          2    1    6    6  503    0 -0.17584032565E+02 -0.41714208731E+01 -0.10533966970E+02  0.20918016481E+02  0.00000000000E+00 0. -1.
         -2    1    6    6    0  503 -0.83069290269E+02  0.68214283434E+02  0.14490258070E+03  0.18041744190E+03  0.00000000000E+00 0.  1.
<mgrwt>
<rscale>  0 0.13432420E+04</rscale>
<asrwt>0</asrwt>
<pdfrwt beam="1">  1        2 0.23494619E+00 0.13432420E+04</pdfrwt>
<pdfrwt beam="2">  1       -2 0.45441577E-01 0.13432420E+04</pdfrwt>
<totfact> 0.54976787E+01</totfact>
</mgrwt>
</event>
<event>
12    2  0.3623523E-008  0.1989180E+04  0.7818608E-02  0.8611696E-01
          2   -1    0    0  501    0  0.00000000000E+00  0.00000000000E+00  0.34502092420E+04  0.34502092420E+04  0.00000000000E+00 0. -1.
         -2   -1    0    0    0  501 -0.00000000000E+00 -0.00000000000E+00 -0.28670998632E+03  0.28670998632E+03  0.00000000000E+00 0.  1.
         23    2    1    2    0    0 -0.78512625879E+02 -0.66550987605E+03  0.20333335640E+04  0.21428082869E+04  0.90079655520E+02 0.  0.
        254    2    1    2    0    0  0.78512625879E+02  0.66550987605E+03  0.11301656917E+04  0.15941109414E+04  0.90268908013E+03 0.  0.
         23    2    4    4    0    0 -0.34305256301E+03  0.56619875477E+03  0.55648675724E+03  0.86965109968E+03  0.91375233473E+02 0.  0.
         23    2    4    4    0    0  0.42156518889E+03  0.99311121278E+02  0.57367893445E+03  0.72445984176E+03  0.90303018725E+02 0.  0.
          4    1    3    3  502    0  0.46745593691E+01 -0.73170246035E+01  0.88739376370E+01  0.12415197281E+02  0.00000000000E+00 0. -1.
         -4    1    3    3    0  502 -0.83187185248E+02 -0.65819285145E+03  0.20244596264E+04  0.21303930896E+04  0.00000000000E+00 0.  1.
         11    1    5    5    0    0 -0.18712245019E+03  0.33907092039E+03  0.37935207342E+03  0.54211797242E+03  0.00000000000E+00 0. -1.
        -11    1    5    5    0    0 -0.15593011282E+03  0.22712783438E+03  0.17713468382E+03  0.32753312725E+03  0.00000000000E+00 0.  1.
          2    1    6    6  503    0  0.12206982650E+03  0.78624079274E+01  0.10736420186E+03  0.16275727892E+03  0.00000000000E+00 0. -1.
         -2    1    6    6    0  503  0.29949536240E+03  0.91448713350E+02  0.46631473259E+03  0.56170256284E+03  0.00000000000E+00 0.  1.
<mgrwt>
<rscale>  0 0.19891802E+04</rscale>
<asrwt>0</asrwt>
<pdfrwt beam="1">  1        2 0.53080139E+00 0.19891802E+04</pdfrwt>
<pdfrwt beam="2">  1       -2 0.44109231E-01 0.19891802E+04</pdfrwt>
<totfact> 0.40123826E+00</totfact>
</mgrwt>
</event>
<event>
12    2  0.3623523E-008  0.2156751E+04  0.7818608E-02  0.8536648E-01
          2   -1    0    0  501    0  0.00000000000E+00  0.00000000000E+00  0.11298545886E+04  0.11298545886E+04  0.00000000000E+00 0. -1.
         -2   -1    0    0    0  501 -0.00000000000E+00 -0.00000000000E+00 -0.10292417852E+04  0.10292417852E+04  0.00000000000E+00 0.  1.
         23    2    1    2    0    0  0.80236368816E+02 -0.64680493774E+03  0.64745867801E+03  0.92308770950E+03  0.89964867214E+02 0.  0.
        254    2    1    2    0    0 -0.80236368816E+02  0.64680493774E+03 -0.54684587454E+03  0.12360086643E+04  0.89659495054E+03 0.  0.
         23    2    4    4    0    0 -0.16714509356E+03  0.75295839685E+03 -0.67355133213E+03  0.10280147627E+04  0.90879731521E+02 0.  0.
         23    2    4    4    0    0  0.86908724743E+02 -0.10615345911E+03  0.12670545759E+03  0.20799390160E+03  0.91572412887E+02 0.  0.
          4    1    3    3  502    0  0.86379281787E+02 -0.51613040811E+03  0.47589550084E+03  0.70733903201E+03  0.00000000000E+00 0. -1.
         -4    1    3    3    0  502 -0.61429129706E+01 -0.13067452963E+03  0.17156317718E+03  0.21574867749E+03  0.00000000000E+00 0.  1.
         11    1    5    5    0    0 -0.15572500425E+02  0.21239507627E+02 -0.42256652447E+02  0.49792008694E+02  0.00000000000E+00 0. -1.
        -11    1    5    5    0    0 -0.15157259313E+03  0.73171888922E+03 -0.63129467968E+03  0.97822275399E+03  0.00000000000E+00 0.  1.
          3    1    6    6  503    0  0.91611078705E+02 -0.68827647285E+02  0.55183820609E+02  0.12718132264E+03  0.00000000000E+00 0. -1.
         -3    1    6    6    0  503 -0.47023539619E+01 -0.37325811827E+02  0.71521636979E+02  0.80812578956E+02  0.00000000000E+00 0.  1.
<mgrwt>
<rscale>  0 0.21567508E+04</rscale>
<asrwt>0</asrwt>
<pdfrwt beam="1">  1        2 0.17382378E+00 0.21567508E+04</pdfrwt>
<pdfrwt beam="2">  1       -2 0.15834489E+00 0.21567508E+04</pdfrwt>
<totfact> 0.49640197E+00</totfact>
</mgrwt>
</event>
<event>
12    2  0.3623523E-008  0.2413519E+04  0.7818608E-02  0.8434460E-01
         -1   -1    0    0    0  501 -0.00000000000E+00  0.00000000000E+00  0.11103733213E+04  0.11103733213E+04  0.00000000000E+00 0.  1.
          1   -1    0    0  501    0  0.00000000000E+00 -0.00000000000E+00 -0.13115120384E+04  0.13115120384E+04  0.00000000000E+00 0. -1.
         23    2    1    2    0    0 -0.76882712607E+03  0.33651807181E+03 -0.70093281009E+03  0.10973319835E+04  0.92147247685E+02 0.  0.
        254    2    1    2    0    0  0.76882712607E+03 -0.33651807181E+03  0.49979409303E+03  0.13245533762E+04  0.89459932297E+03 0.  0.
         23    2    4    4    0    0  0.34839476297E+03 -0.59731424423E+03  0.15473820184E+03  0.71438366372E+03  0.90757317335E+02 0.  0.
         23    2    4    4    0    0  0.42043236309E+03  0.26079617242E+03  0.34505589119E+03  0.61016971252E+03  0.92008122214E+02 0.  0.
          1    1    3    3  502    0 -0.64802180059E+03  0.29745284514E+03 -0.55269678417E+03  0.90215529947E+03  0.00000000000E+00 0. -1.
         -1    1    3    3    0  502 -0.12080532547E+03  0.39065226671E+02 -0.14823602592E+03  0.19517668400E+03  0.00000000000E+00 0.  1.
         11    1    5    5    0    0  0.33583628410E+03 -0.57843144876E+03  0.13101921950E+03  0.68156803512E+03  0.00000000000E+00 0. -1.
        -11    1    5    5    0    0  0.12558478877E+02 -0.18882795476E+02  0.23718982342E+02  0.32815628594E+02  0.00000000000E+00 0.  1.
          2    1    6    6  503    0  0.30116350108E+03  0.19274733450E+03  0.19700680986E+03  0.40824339856E+03  0.00000000000E+00 0. -1.
         -2    1    6    6    0  503  0.11926886201E+03  0.68048837923E+02  0.14804908132E+03  0.20192631396E+03  0.00000000000E+00 0.  1.
<mgrwt>
<rscale>  0 0.24135186E+04</rscale>
<asrwt>0</asrwt>
<pdfrwt beam="1">  1        1 0.20177108E+00 0.24135186E+04</pdfrwt>
<pdfrwt beam="2">  1       -1 0.17082667E+00 0.24135186E+04</pdfrwt>
<totfact> 0.19278198E+00</totfact>
</mgrwt>
</event>
<event>
12    2  0.3623523E-008  0.1657025E+04  0.7818608E-02  0.8786261E-01
          2   -1    0    0  501    0  0.00000000000E+00  0.00000000000E+00  0.17110024178E+04  0.17110024178E+04  0.00000000000E+00 0.  1.
         -2   -1    0    0    0  501 -0.00000000000E+00 -0.00000000000E+00 -0.40118770138E+03  0.40118770138E+03  0.00000000000E+00 0. -1.
         23    2    1    2    0    0 -0.10424178096E+03  0.40761444532E+03 -0.38844377565E+02  0.43217975309E+03  0.90854655262E+02 0.  0.
        254    2    1    2    0    0  0.10424178096E+03 -0.40761444532E+03  0.13486590940E+04  0.16800103661E+04  0.90914112956E+03 0.  0.
         23    2    4    4    0    0 -0.29980478815E+03 -0.25931783506E+03  0.11046477359E+04  0.11770206853E+04  0.89456260797E+02 0.  0.
         23    2    4    4    0    0  0.40404656910E+03 -0.14829661026E+03  0.24401135804E+03  0.50298968076E+03  0.90617666525E+02 0.  0.
          4    1    3    3  502    0 -0.10548314600E+03  0.28333409863E+03 -0.53508720216E+02  0.30703108748E+03  0.00000000000E+00 0. -1.
         -4    1    3    3    0  502  0.12413650400E+01  0.12428034669E+03  0.14664342651E+02  0.12514866561E+03  0.00000000000E+00 0.  1.
         11    1    5    5    0    0 -0.16608969258E+03 -0.10019023540E+03  0.44594467756E+03  0.48630291454E+03  0.00000000000E+00 0. -1.
        -11    1    5    5    0    0 -0.13371509557E+03 -0.15912759966E+03  0.65870305837E+03  0.69071777077E+03  0.00000000000E+00 0.  1.
          3    1    6    6  503    0  0.24729851153E+02 -0.91690493092E+01  0.46057640076E+02  0.53074883068E+02  0.00000000000E+00 0. -1.
         -3    1    6    6    0  503  0.37931671795E+03 -0.13912756095E+03  0.19795371796E+03  0.44991479770E+03  0.00000000000E+00 0.  1.
<mgrwt>
<rscale>  0 0.16570252E+04</rscale>
<asrwt>0</asrwt>
<pdfrwt beam="1">  1        2 0.26323114E+00 0.16570252E+04</pdfrwt>
<pdfrwt beam="2">  1       -2 0.61721186E-01 0.16570252E+04</pdfrwt>
<totfact> 0.22514026E+01</totfact>
</mgrwt>
</event>
<event>
12    2  0.3623523E-008  0.1129798E+04  0.7818608E-02  0.9176626E-01
         -1   -1    0    0    0  501 -0.00000000000E+00  0.00000000000E+00  0.32586506111E+03  0.32586506111E+03  0.00000000000E+00 0.  1.
          1   -1    0    0  501    0  0.00000000000E+00 -0.00000000000E+00 -0.97927252501E+03  0.97927252501E+03  0.00000000000E+00 0. -1.
         23    2    1    2    0    0 -0.97195074039E+02 -0.10908141763E+03 -0.26418129264E+03  0.31532448459E+03  0.91061172373E+02 0.  0.
        254    2    1    2    0    0  0.97195074039E+02  0.10908141763E+03 -0.38922617126E+03  0.98981310153E+03  0.89826907187E+03 0.  0.
         23    2    4    4    0    0  0.81925775788E+02  0.38888214662E+03 -0.52324197739E+03  0.66407171677E+03  0.96270044214E+02 0.  0.
         23    2    4    4    0    0  0.15269298251E+02 -0.27980072899E+03  0.13401580614E+03  0.32574138475E+03  0.98110213710E+02 0.  0.
          4    1    3    3  502    0 -0.31066957798E+02  0.12154712425E+02 -0.40797992724E+02  0.52700750576E+02  0.00000000000E+00 0. -1.
         -4    1    3    3    0  502 -0.66128116241E+02 -0.12123613005E+03 -0.22338329992E+03  0.26262373402E+03  0.00000000000E+00 0.  1.
         11    1    5    5    0    0  0.53537313297E+02  0.30035014415E+03 -0.45870220403E+03  0.55089396892E+03  0.00000000000E+00 0. -1.
        -11    1    5    5    0    0  0.28388462491E+02  0.88532002470E+02 -0.64539773360E+02  0.11317774785E+03  0.00000000000E+00 0.  1.
          2    1    6    6  503    0  0.29675382553E+02 -0.21083371548E+03  0.14033850478E+03  0.25500270555E+03  0.00000000000E+00 0. -1.
         -2    1    6    6    0  503 -0.14406084302E+02 -0.68967013514E+02 -0.63226986451E+01  0.70738679209E+02  0.00000000000E+00 0.  1.
<mgrwt>
<rscale>  0 0.11297977E+04</rscale>
<asrwt>0</asrwt>
<pdfrwt beam="1">  1        1 0.15065731E+00 0.11297977E+04</pdfrwt>
<pdfrwt beam="2">  1       -1 0.50133087E-01 0.11297977E+04</pdfrwt>
<totfact> 0.62374041E+01</totfact>
</mgrwt>
</event>
<event>
12    2  0.3623523E-008  0.1429800E+04  0.7818608E-02  0.8932526E-01
          2   -1    0    0  501    0  0.00000000000E+00  0.00000000000E+00  0.54984034331E+03  0.54984034331E+03  0.00000000000E+00 0. -1.
         -2   -1    0    0    0  501 -0.00000000000E+00 -0.00000000000E+00 -0.92950953921E+03  0.92950953921E+03  0.00000000000E+00 0.  1.
         23    2    1    2    0    0 -0.21700249358E+03 -0.38336942575E+03 -0.53656168426E+02  0.45286545443E+03  0.90254842440E+02 0.  0.
        254    2    1    2    0    0  0.21700249358E+03  0.38336942575E+03 -0.32601302748E+03  0.10264844281E+04  0.86794215718E+03 0.  0.
         23    2    4    4    0    0  0.26191330175E+03  0.63645422317E+03 -0.19194938800E+03  0.72110791397E+03  0.97362724982E+02 0.  0.
         23    2    4    4    0    0 -0.44910808163E+02 -0.25308479743E+03 -0.13406363948E+03  0.30537651412E+03  0.95983647394E+02 0.  0.
          3    1    3    3  502    0 -0.99795275560E+02 -0.10540091896E+03 -0.41440286298E+02  0.15094948847E+03  0.00000000000E+00 0. -1.
         -3    1    3    3    0  502 -0.11720721802E+03 -0.27796850679E+03 -0.12215882129E+02  0.30191596595E+03  0.00000000000E+00 0.  1.
         11    1    5    5    0    0  0.11972818647E+03  0.40878986359E+03 -0.13359618082E+03  0.44642124808E+03  0.00000000000E+00 0.  1.
        -11    1    5    5    0    0  0.14218511528E+03  0.22766435958E+03 -0.58353207174E+02  0.27468666589E+03  0.00000000000E+00 0. -1.
          1    1    6    6  503    0 -0.72269204458E+02 -0.15721475233E+03 -0.68737277943E+02  0.18618305412E+03  0.00000000000E+00 0. -1.
         -1    1    6    6    0  503  0.27358396295E+02 -0.95870045095E+02 -0.65326361534E+02  0.11919346000E+03  0.00000000000E+00 0.  1.
<mgrwt>
<rscale>  0 0.14297998E+04</rscale>
<asrwt>0</asrwt>
<pdfrwt beam="1">  1        2 0.84590823E-01 0.14297998E+04</pdfrwt>
<pdfrwt beam="2">  1       -2 0.14300147E+00 0.14297998E+04</pdfrwt>
<totfact> 0.18162562E+01</totfact>
</mgrwt>
</event>
<event>
12    2  0.3623523E-008  0.2607539E+04  0.7818608E-02  0.8365645E-01
          2   -1    0    0  501    0  0.00000000000E+00  0.00000000000E+00  0.16585904555E+04  0.16585904555E+04  0.00000000000E+00 0. -1.
         -2   -1    0    0    0  501 -0.00000000000E+00 -0.00000000000E+00 -0.10248549158E+04  0.10248549158E+04  0.00000000000E+00 0.  1.
         23    2    1    2    0    0 -0.18949251255E+03 -0.10123415705E+04 -0.23489626518E+03  0.10599010695E+04  0.86435837413E+02 0.  0.
        254    2    1    2    0    0  0.18949251255E+03  0.10123415705E+04  0.86863180490E+03  0.16235443019E+04  0.90588742132E+03 0.  0.
         23    2    4    4    0    0  0.32852995142E+03  0.10126715844E+04  0.42612054722E+03  0.11503545680E+04  0.91111165983E+02 0.  0.
         23    2    4    4    0    0 -0.13903743887E+03 -0.33001393452E+00  0.44251125768E+03  0.47318973386E+03  0.93599106533E+02 0.  0.
          1    1    3    3  502    0 -0.18608993727E+02 -0.17078362061E+03 -0.69851011707E+02  0.18545215974E+03  0.00000000000E+00 0. -1.
         -1    1    3    3    0  502 -0.17088351882E+03 -0.84155794988E+03 -0.16504525347E+03  0.87444890972E+03  0.00000000000E+00 0.  1.
         11    1    5    5    0    0 -0.24266088318E+01  0.24470059772E+02  0.20631761598E+02  0.32098938336E+02  0.00000000000E+00 0. -1.
        -11    1    5    5    0    0  0.33095656025E+03  0.98820152465E+03  0.40548878562E+03  0.11182556297E+04  0.00000000000E+00 0.  1.
          2    1    6    6  503    0 -0.87052480304E+02 -0.21187293484E+02  0.14496237709E+03  0.17041457245E+03  0.00000000000E+00 0. -1.
         -2    1    6    6    0  503 -0.51984958565E+02  0.20857279550E+02  0.29754888059E+03  0.30277516142E+03  0.00000000000E+00 0.  1.
<mgrwt>
<rscale>  0 0.26075387E+04</rscale>
<asrwt>0</asrwt>
<pdfrwt beam="1">  1        2 0.25516776E+00 0.26075387E+04</pdfrwt>
<pdfrwt beam="2">  1       -2 0.15766999E+00 0.26075387E+04</pdfrwt>
<totfact> 0.23970206E+00</totfact>
</mgrwt>
</event>
<event>
12    2  0.3623523E-008  0.2687299E+04  0.7818608E-02  0.8339138E-01
          1   -1    0    0  501    0  0.00000000000E+00  0.00000000000E+00  0.11553051157E+04  0.11553051157E+04  0.00000000000E+00 0. -1.
         -1   -1    0    0    0  501 -0.00000000000E+00 -0.00000000000E+00 -0.15626986273E+04  0.15626986273E+04  0.00000000000E+00 0.  1.
         23    2    1    2    0    0  0.61645257537E+03 -0.10069025587E+04 -0.61271315238E+02  0.11857050521E+04  0.90971182404E+02 0.  0.
        254    2    1    2    0    0 -0.61645257537E+03  0.10069025587E+04 -0.34612219634E+03  0.15322986909E+04  0.91338500259E+03 0.  0.
         23    2    4    4    0    0 -0.51937335713E+03  0.26211492260E+03 -0.48464683842E+03  0.76305779026E+03  0.94454838615E+02 0.  0.
         23    2    4    4    0    0 -0.97079218244E+02  0.74478763612E+03  0.13852464208E+03  0.76924090066E+03  0.91703267462E+02 0.  0.
          2    1    3    3  502    0  0.16931637039E+03 -0.28129361593E+03  0.23650243001E+02  0.32917087605E+03  0.00000000000E+00 0. -1.
         -2    1    3    3    0  502  0.44713620498E+03 -0.72560894279E+03 -0.84921558239E+02  0.85653417603E+03  0.00000000000E+00 0.  1.
         11    1    5    5    0    0 -0.69285297701E+02  0.73501864826E+02 -0.93430640916E+02  0.13759455393E+03  0.00000000000E+00 0.  1.
        -11    1    5    5    0    0 -0.45008805943E+03  0.18861305777E+03 -0.39121619750E+03  0.62546323632E+03  0.00000000000E+00 0. -1.
          2    1    6    6  503    0 -0.61688415232E+02  0.17431469752E+03  0.41235594240E+02  0.18945038553E+03  0.00000000000E+00 0.  1.
         -2    1    6    6    0  503 -0.35390803012E+02  0.57047293859E+03  0.97289047838E+02  0.57979051513E+03  0.00000000000E+00 0. -1.
<mgrwt>
<rscale>  0 0.26872988E+04</rscale>
<asrwt>0</asrwt>
<pdfrwt beam="1">  1        1 0.17773925E+00 0.26872988E+04</pdfrwt>
<pdfrwt beam="2">  1       -1 0.24041517E+00 0.26872988E+04</pdfrwt>
<totfact> 0.81176712E-01</totfact>
</mgrwt>
</event>
<event>
12    2  0.3623523E-008  0.2346794E+04  0.7818608E-02  0.8459696E-01
         -2   -1    0    0    0  501 -0.00000000000E+00  0.00000000000E+00  0.28857239423E+04  0.28857239423E+04  0.00000000000E+00 0.  1.
          2   -1    0    0  501    0  0.00000000000E+00 -0.00000000000E+00 -0.47712826146E+03  0.47712826146E+03  0.00000000000E+00 0. -1.
         23    2    1    2    0    0  0.46953058818E+02 -0.10327599535E+03 -0.39204984071E+03  0.41748399197E+03  0.87859461625E+02 0.  0.
        254    2    1    2    0    0 -0.46953058818E+02  0.10327599535E+03  0.28006455216E+04  0.29453682118E+04  0.90482486960E+03 0.  0.
         23    2    4    4    0    0  0.73442735160E+02 -0.72906454413E+02  0.26798525159E+04  0.26834411834E+04  0.92400712995E+02 0.  0.
         23    2    4    4    0    0 -0.12039579398E+03  0.17618244977E+03  0.12079300570E+03  0.26192702836E+03  0.92083739845E+02 0.  0.
          3    1    3    3  502    0  0.53115609138E+02 -0.82237041207E+02 -0.38012183651E+03  0.39252618953E+03  0.00000000000E+00 0. -1.
         -3    1    3    3    0  502 -0.61625503196E+01 -0.21038954145E+02 -0.11928004207E+02  0.24957802434E+02  0.00000000000E+00 0.  1.
         11    1    5    5    0    0  0.55333889955E+02 -0.95102765930E+02  0.20940206687E+04  0.20969093773E+04  0.00000000000E+00 0. -1.
        -11    1    5    5    0    0  0.18108845205E+02  0.22196311517E+02  0.58583184714E+03  0.58653180617E+03  0.00000000000E+00 0.  1.
          3    1    6    6  503    0 -0.74787485897E+01  0.86836299408E+02  0.58931726662E+02  0.10521132535E+03  0.00000000000E+00 0. -1.
         -3    1    6    6    0  503 -0.11291704539E+03  0.89346150358E+02  0.61861279039E+02  0.15671570300E+03  0.00000000000E+00 0.  1.
<mgrwt>
<rscale>  0 0.23467939E+04</rscale>
<asrwt>0</asrwt>
<pdfrwt beam="1">  1        2 0.73404350E-01 0.23467939E+04</pdfrwt>
<pdfrwt beam="2">  1       -2 0.44395752E+00 0.23467939E+04</pdfrwt>
<totfact> 0.22343941E-01</totfact>
</mgrwt>
</event>
<event>
12    2  0.3623523E-008  0.2127581E+04  0.7818608E-02  0.8549190E-01
          2   -1    0    0  501    0  0.00000000000E+00  0.00000000000E+00  0.12962950619E+04  0.12962950619E+04  0.00000000000E+00 0. -1.
         -2   -1    0    0    0  501 -0.00000000000E+00 -0.00000000000E+00 -0.87298847877E+03  0.87298847877E+03  0.00000000000E+00 0.  1.
         23    2    1    2    0    0 -0.13325706890E+03 -0.44249489426E+03  0.91908497023E+03  0.10366917523E+04  0.12827091990E+03 0.  0.
        254    2    1    2    0    0  0.13325706890E+03  0.44249489426E+03 -0.49577838705E+03  0.11325917884E+04  0.90741874144E+03 0.  0.
         23    2    4    4    0    0  0.92443605523E+02  0.63375370864E+03 -0.60898044592E+03  0.88838454117E+03  0.90445154992E+02 0.  0.
         23    2    4    4    0    0  0.40813463380E+02 -0.19125881438E+03  0.11320205887E+03  0.24420724727E+03  0.92611017791E+02 0.  0.
          3    1    3    3  502    0 -0.68870678447E+02 -0.30660687914E+03  0.73246279512E+03  0.79702741165E+03  0.00000000000E+00 0. -1.
         -3    1    3    3    0  502 -0.64386390456E+02 -0.13588801512E+03  0.18662217511E+03  0.23966434063E+03  0.00000000000E+00 0.  1.
         11    1    5    5    0    0  0.10916868141E+03  0.54493690834E+03 -0.53741317950E+03  0.77310216697E+03  0.00000000000E+00 0. -1.
        -11    1    5    5    0    0 -0.16725075885E+02  0.88816800295E+02 -0.71567266418E+02  0.11528237420E+03  0.00000000000E+00 0.  1.
          1    1    6    6  503    0  0.60659791444E+01 -0.17650959114E+03  0.79810387181E+02  0.19380951930E+03  0.00000000000E+00 0. -1.
         -1    1    6    6    0  503  0.34747484236E+02 -0.14749223238E+02  0.33391671685E+02  0.50397727972E+02  0.00000000000E+00 0.  1.
<mgrwt>
<rscale>  0 0.21275814E+04</rscale>
<asrwt>0</asrwt>
<pdfrwt beam="1">  1        2 0.19943001E+00 0.21275814E+04</pdfrwt>
<pdfrwt beam="2">  1       -2 0.13430592E+00 0.21275814E+04</pdfrwt>
<totfact> 0.61076023E+00</totfact>
</mgrwt>
</event>
<event>
12    2  0.3623523E-008  0.1710612E+04  0.7818608E-02  0.8755335E-01
          1   -1    0    0  501    0  0.00000000000E+00  0.00000000000E+00  0.72905367380E+03  0.72905367380E+03  0.00000000000E+00 0. -1.
         -1   -1    0    0    0  501 -0.00000000000E+00 -0.00000000000E+00 -0.10034212926E+04  0.10034212926E+04  0.00000000000E+00 0.  1.
         23    2    1    2    0    0 -0.46867480257E+03 -0.10112869701E+02  0.33504957062E+03  0.58327211052E+03  0.90497510659E+02 0.  0.
        254    2    1    2    0    0  0.46867480257E+03  0.10112869701E+02 -0.60941718942E+03  0.11492028559E+04  0.85411916763E+03 0.  0.
         23    2    4    4    0    0 -0.10931004953E+03  0.72850763653E+02 -0.53236093652E+03  0.55562245463E+03  0.89734188896E+02 0.  0.
         23    2    4    4    0    0  0.57798485210E+03 -0.62737893953E+02 -0.77056252897E+02  0.59358040126E+03  0.91637841819E+02 0.  0.
          2    1    3    3  502    0 -0.22902624279E+03 -0.11742280735E+02  0.21860369969E+03  0.31682562800E+03  0.00000000000E+00 0. -1.
         -2    1    3    3    0  502 -0.23964855979E+03  0.16294110342E+01  0.11644587093E+03  0.26644648252E+03  0.00000000000E+00 0.  1.
         11    1    5    5    0    0  0.11405202713E+02  0.24187487201E+01 -0.11269327957E+03  0.11329476711E+03  0.00000000000E+00 0.  1.
        -11    1    5    5    0    0 -0.12071525224E+03  0.70432014933E+02 -0.41966765695E+03  0.44232768751E+03  0.00000000000E+00 0. -1.
          1    1    6    6  503    0  0.49824479257E+03 -0.38940294079E+02 -0.94336360368E+02  0.50858978432E+03  0.00000000000E+00 0. -1.
         -1    1    6    6    0  503  0.79740059531E+02 -0.23797599873E+02  0.17280107471E+02  0.84990616940E+02  0.00000000000E+00 0.  1.
<mgrwt>
<rscale>  0 0.17106116E+04</rscale>
<asrwt>0</asrwt>
<pdfrwt beam="1">  1        1 0.11216210E+00 0.17106116E+04</pdfrwt>
<pdfrwt beam="2">  1       -1 0.15437251E+00 0.17106116E+04</pdfrwt>
<totfact> 0.78531856E+00</totfact>
</mgrwt>
</event>
<event>
12    2  0.3623523E-008  0.1412437E+04  0.7818608E-02  0.8944865E-01
          1   -1    0    0  501    0  0.00000000000E+00  0.00000000000E+00  0.16738254834E+04  0.16738254834E+04  0.00000000000E+00 0. -1.
         -1   -1    0    0    0  501 -0.00000000000E+00 -0.00000000000E+00 -0.29796696562E+03  0.29796696562E+03  0.00000000000E+00 0.  1.
         23    2    1    2    0    0  0.28146544635E+03 -0.21746788120E+01  0.80767744817E+03  0.86023098849E+03  0.91798510636E+02 0.  0.
        254    2    1    2    0    0 -0.28146544635E+03  0.21746788120E+01  0.56818106961E+03  0.11115614605E+04  0.91296857884E+03 0.  0.
         23    2    4    4    0    0 -0.12921876581E+02 -0.36562240952E+03 -0.15655753738E+01  0.37690254807E+03  0.90588953385E+02 0.  0.
         23    2    4    4    0    0 -0.26854356977E+03  0.36779708833E+03  0.56974664498E+03  0.73465891246E+03  0.87875657251E+02 0.  0.
          4    1    3    3  502    0  0.30078936245E+02 -0.24565966804E+02  0.63638150395E+02  0.74552285789E+02  0.00000000000E+00 0.  1.
         -4    1    3    3    0  502  0.25138651011E+03  0.22391287992E+02  0.74403929777E+03  0.78567870270E+03  0.00000000000E+00 0. -1.
         11    1    5    5    0    0 -0.38286769172E+02 -0.32954370056E+03  0.76444543768E+01  0.33184840659E+03  0.00000000000E+00 0.  1.
        -11    1    5    5    0    0  0.25364892591E+02 -0.36078708961E+02 -0.92100297506E+01  0.45054141480E+02  0.00000000000E+00 0. -1.
          2    1    6    6  503    0 -0.52939031311E+01 -0.49294459008E+01  0.61679088937E+01  0.95062057295E+01  0.00000000000E+00 0. -1.
         -2    1    6    6    0  503 -0.26324966664E+03  0.37272653423E+03  0.56357873609E+03  0.72515270673E+03  0.00000000000E+00 0.  1.
<mgrwt>
<rscale>  0 0.14124372E+04</rscale>
<asrwt>0</asrwt>
<pdfrwt beam="1">  1        1 0.25751161E+00 0.14124372E+04</pdfrwt>
<pdfrwt beam="2">  1       -1 0.45841073E-01 0.14124372E+04</pdfrwt>
<totfact> 0.22886962E+01</totfact>
</mgrwt>
</event>
<event>
12    2  0.3623523E-008  0.2108597E+04  0.7818608E-02  0.8557466E-01
         -2   -1    0    0    0  501 -0.00000000000E+00  0.00000000000E+00  0.14475124866E+04  0.14475124866E+04  0.00000000000E+00 0. -1.
          2   -1    0    0  501    0  0.00000000000E+00 -0.00000000000E+00 -0.76790019463E+03  0.76790019463E+03  0.00000000000E+00 0.  1.
         23    2    1    2    0    0 -0.33382718074E+03  0.49759605877E+03 -0.36942348008E+03  0.70950980796E+03  0.88814613941E+02 0.  0.
        254    2    1    2    0    0  0.33382718074E+03 -0.49759605877E+03  0.10490357721E+04  0.15059028733E+04  0.89901334162E+03 0.  0.
         23    2    4    4    0    0  0.47792863564E+03  0.62981131664E+02  0.41795648729E+03  0.64516158848E+03  0.95725891332E+02 0.  0.
         23    2    4    4    0    0 -0.14410145490E+03 -0.56057719044E+03  0.63107928481E+03  0.86074128484E+03  0.87192201294E+02 0.  0.
          1    1    3    3  502    0 -0.16664384670E+03  0.17167326419E+03 -0.13718817449E+03  0.27579426481E+03  0.00000000000E+00 0. -1.
         -1    1    3    3    0  502 -0.16718333404E+03  0.32592279459E+03 -0.23223530559E+03  0.43371554315E+03  0.00000000000E+00 0.  1.
         11    1    5    5    0    0  0.42408030086E+03  0.86013345995E+02  0.36218047957E+03  0.56428458871E+03  0.00000000000E+00 0. -1.
        -11    1    5    5    0    0  0.53848334778E+02 -0.23032214331E+02  0.55776007720E+02  0.80876999774E+02  0.00000000000E+00 0.  1.
          1    1    6    6  503    0 -0.15227490656E+03 -0.55448022984E+03  0.62229792571E+03  0.84728429750E+03  0.00000000000E+00 0. -1.
         -1    1    6    6    0  503  0.81734516584E+01 -0.60969605986E+01  0.87813591003E+01  0.13456987337E+02  0.00000000000E+00 0.  1.
<mgrwt>
<rscale>  0 0.21085968E+04</rscale>
<asrwt>0</asrwt>
<pdfrwt beam="1">  1        2 0.11813849E+00 0.21085968E+04</pdfrwt>
<pdfrwt beam="2">  1       -2 0.22269423E+00 0.21085968E+04</pdfrwt>
<totfact> 0.31809150E+00</totfact>
</mgrwt>
</event>
<event>
12    2  0.3623523E-008  0.1617523E+04  0.7818608E-02  0.8809855E-01
          1   -1    0    0  501    0  0.00000000000E+00  0.00000000000E+00  0.56164342693E+03  0.56164342693E+03  0.00000000000E+00 0. -1.
         -1   -1    0    0    0  501 -0.00000000000E+00 -0.00000000000E+00 -0.11646090077E+04  0.11646090077E+04  0.00000000000E+00 0.  1.
         23    2    1    2    0    0 -0.25691284738E+03 -0.34952983250E+03  0.15219416120E+03  0.46876186957E+03  0.91647764318E+02 0.  0.
        254    2    1    2    0    0  0.25691284738E+03  0.34952983250E+03 -0.75515974200E+03  0.12574905651E+04  0.90710582094E+03 0.  0.
         23    2    4    4    0    0 -0.69152295677E+02 -0.10932109962E+03  0.13037125003E+03  0.20415155527E+03  0.89151847250E+02 0.  0.
         23    2    4    4    0    0  0.32606514306E+03  0.45885093212E+03 -0.88553099203E+03  0.10533390098E+04  0.92169823261E+02 0.  0.
          4    1    3    3  502    0 -0.21387796226E+03 -0.26907632389E+03  0.81276744481E+02  0.35320215177E+03  0.00000000000E+00 0.  1.
         -4    1    3    3    0  502 -0.43034885117E+02 -0.80453508612E+02  0.70917416721E+02  0.11555971781E+03  0.00000000000E+00 0. -1.
         11    1    5    5    0    0 -0.86480127068E+02 -0.74625146270E+02  0.75367688885E+02  0.13685033197E+03  0.00000000000E+00 0. -1.
        -11    1    5    5    0    0  0.17327831391E+02 -0.34695953351E+02  0.55003561141E+02  0.67301223301E+02  0.00000000000E+00 0.  1.
          2    1    6    6  503    0  0.32160393737E+03  0.45712130979E+03 -0.84876678850E+03  0.10162647517E+04  0.00000000000E+00 0. -1.
         -2    1    6    6    0  503  0.44612056886E+01  0.17296223370E+01 -0.36764203527E+02  0.37074258059E+02  0.00000000000E+00 0.  1.
<mgrwt>
<rscale>  0 0.16175228E+04</rscale>
<asrwt>0</asrwt>
<pdfrwt beam="1">  1        1 0.86406681E-01 0.16175228E+04</pdfrwt>
<pdfrwt beam="2">  1       -1 0.17917062E+00 0.16175228E+04</pdfrwt>
<totfact> 0.76113171E+00</totfact>
</mgrwt>
</event>
<event>
12    2  0.3623523E-008  0.2069324E+04  0.7818608E-02  0.8574878E-01
          1   -1    0    0  501    0  0.00000000000E+00  0.00000000000E+00  0.40345364292E+03  0.40345364292E+03  0.00000000000E+00 0. -1.
         -1   -1    0    0    0  501 -0.00000000000E+00 -0.00000000000E+00 -0.26534032672E+04  0.26534032672E+04  0.00000000000E+00 0.  1.
         23    2    1    2    0    0  0.13167715286E+03  0.79000442435E+03 -0.12479290284E+04  0.14856510427E+04  0.91576731785E+02 0.  0.
        254    2    1    2    0    0 -0.13167715286E+03 -0.79000442435E+03 -0.10020205959E+04  0.15712058674E+04  0.90730190127E+03 0.  0.
         23    2    4    4    0    0 -0.37127970578E+02 -0.55495608267E+03 -0.33833890506E+02  0.56568864708E+03  0.97489350174E+02 0.  0.
         23    2    4    4    0    0 -0.94549182286E+02 -0.23504834169E+03 -0.96818670539E+03  0.10055172203E+04  0.97427475859E+02 0.  0.
          3    1    3    3  502    0  0.71138975399E+02  0.39190961238E+03 -0.53689298978E+03  0.66851176547E+03  0.00000000000E+00 0. -1.
         -3    1    3    3    0  502  0.60538177464E+02  0.39809481197E+03 -0.71103603862E+03  0.81713927727E+03  0.00000000000E+00 0.  1.
         11    1    5    5    0    0 -0.31880525351E+02 -0.15571793066E+03  0.28791512439E+02  0.16153449481E+03  0.00000000000E+00 0.  1.
        -11    1    5    5    0    0 -0.52474452273E+01 -0.39923815201E+03 -0.62625402945E+02  0.40415415227E+03  0.00000000000E+00 0. -1.
          4    1    6    6  503    0 -0.81838828274E+02 -0.81839258432E+02 -0.47662684348E+03  0.49047773238E+03  0.00000000000E+00 0. -1.
         -4    1    6    6    0  503 -0.12710354012E+02 -0.15320908325E+03 -0.49155986191E+03  0.51503948794E+03  0.00000000000E+00 0.  1.
<mgrwt>
<rscale>  0 0.20693238E+04</rscale>
<asrwt>0</asrwt>
<pdfrwt beam="1">  1        1 0.62069789E-01 0.20693238E+04</pdfrwt>
<pdfrwt beam="2">  1       -1 0.40821590E+00 0.20693238E+04</pdfrwt>
<totfact> 0.34417962E-01</totfact>
</mgrwt>
</event>
<event>
12    2  0.3623523E-008  0.2337429E+04  0.7818608E-02  0.8463308E-01
         -1   -1    0    0    0  501 -0.00000000000E+00  0.00000000000E+00  0.80172795940E+03  0.80172795940E+03  0.00000000000E+00 0.  1.
          1   -1    0    0  501    0  0.00000000000E+00 -0.00000000000E+00 -0.17036864978E+04  0.17036864978E+04  0.00000000000E+00 0. -1.
         23    2    1    2    0    0  0.78574206562E+03  0.44467484611E+03  0.56606484116E+02  0.90918461582E+03  0.91027793302E+02 0.  0.
        254    2    1    2    0    0 -0.78574206562E+03 -0.44467484611E+03 -0.95856502255E+03  0.15962298414E+04  0.90220645737E+03 0.  0.
         23    2    4    4    0    0 -0.76133681625E+03 -0.21352060455E+03 -0.10613994008E+04  0.13266224021E+04  0.90185993213E+02 0.  0.
         23    2    4    4    0    0 -0.24405249374E+02 -0.23115424156E+03  0.10283437823E+03  0.26960743934E+03  0.89918643305E+02 0.  0.
          2    1    3    3  502    0  0.34972440769E+03  0.16349306376E+03  0.57844069946E+02  0.39036275393E+03  0.00000000000E+00 0. -1.
         -2    1    3    3    0  502  0.43601765793E+03  0.28118178235E+03 -0.12375858308E+01  0.51882186189E+03  0.00000000000E+00 0.  1.
         11    1    5    5    0    0 -0.12603593180E+03 -0.63916945708E+02 -0.22506558743E+03  0.26575355256E+03  0.00000000000E+00 0.  1.
        -11    1    5    5    0    0 -0.63530088445E+03 -0.14960365884E+03 -0.83633381335E+03  0.10608688495E+04  0.00000000000E+00 0. -1.
          3    1    6    6  503    0 -0.11661017115E+02 -0.15404304697E+03  0.20086691927E+02  0.15578419314E+03  0.00000000000E+00 0. -1.
         -3    1    6    6    0  503 -0.12744232259E+02 -0.77111194590E+02  0.82747686303E+02  0.11382324620E+03  0.00000000000E+00 0.  1.
<mgrwt>
<rscale>  0 0.23374286E+04</rscale>
<asrwt>0</asrwt>
<pdfrwt beam="1">  1        1 0.26210561E+00 0.23374286E+04</pdfrwt>
<pdfrwt beam="2">  1       -1 0.12334276E+00 0.23374286E+04</pdfrwt>
<totfact> 0.24696271E+00</totfact>
</mgrwt>
</event>
<event>
12    2  0.3623523E-008  0.1400673E+04  0.7818608E-02  0.8953331E-01
          1   -1    0    0  501    0  0.00000000000E+00  0.00000000000E+00  0.19329833644E+04  0.19329833644E+04  0.00000000000E+00 0. -1.
         -1   -1    0    0    0  501 -0.00000000000E+00 -0.00000000000E+00 -0.25373804209E+03  0.25373804209E+03  0.00000000000E+00 0.  1.
         23    2    1    2    0    0  0.24097268677E+03 -0.56397108553E+02  0.97822217713E+03  0.10125464574E+04  0.84161933103E+02 0.  0.
        254    2    1    2    0    0 -0.24097268677E+03  0.56397108553E+02  0.70102314521E+03  0.11741749491E+04  0.90884811236E+03 0.  0.
         23    2    4    4    0    0 -0.33461352561E+03 -0.35579310737E+03  0.28036469703E+03  0.57064922157E+03  0.92093560976E+02 0.  0.
         23    2    4    4    0    0  0.93640838832E+02  0.41219021592E+03  0.42065844817E+03  0.60352572752E+03  0.92846071319E+02 0.  0.
          4    1    3    3  502    0  0.24348564754E+03 -0.52808131227E+02  0.88999344887E+03  0.92420901224E+03  0.00000000000E+00 0. -1.
         -4    1    3    3    0  502 -0.25129607669E+01 -0.35889773265E+01  0.88228728258E+02  0.88337445175E+02  0.00000000000E+00 0.  1.
         11    1    5    5    0    0 -0.22296295456E+02 -0.16768455275E+02  0.45341348642E+02  0.53236677019E+02  0.00000000000E+00 0.  1.
        -11    1    5    5    0    0 -0.31231723015E+03 -0.33902465209E+03  0.23502334839E+03  0.51741254455E+03  0.00000000000E+00 0. -1.
          4    1    6    6  503    0  0.74927185573E+02  0.34838363030E+03  0.39568654162E+03  0.53249701992E+03  0.00000000000E+00 0. -1.
         -4    1    6    6    0  503  0.18713653259E+02  0.63806585620E+02  0.24971906551E+02  0.71028707602E+02  0.00000000000E+00 0.  1.
<mgrwt>
<rscale>  0 0.14006733E+04</rscale>
<asrwt>0</asrwt>
<pdfrwt beam="1">  1        1 0.29738205E+00 0.14006733E+04</pdfrwt>
<pdfrwt beam="2">  1       -1 0.39036623E-01 0.14006733E+04</pdfrwt>
<totfact> 0.20562037E+01</totfact>
</mgrwt>
</event>
<event>
12    2  0.3623523E-008  0.1966214E+04  0.7818608E-02  0.8622582E-01
         -1   -1    0    0    0  501 -0.00000000000E+00  0.00000000000E+00  0.14920938281E+04  0.14920938281E+04  0.00000000000E+00 0.  1.
          1   -1    0    0  501    0  0.00000000000E+00 -0.00000000000E+00 -0.64774723338E+03  0.64774723338E+03  0.00000000000E+00 0. -1.
         23    2    1    2    0    0 -0.67543155229E+03 -0.29399124039E+03  0.51458804906E+02  0.74383066017E+03  0.89428245843E+02 0.  0.
        254    2    1    2    0    0  0.67543155229E+03  0.29399124039E+03  0.79288778984E+03  0.13960104013E+04  0.88177965621E+03 0.  0.
         23    2    4    4    0    0  0.33217518466E+03  0.37276469657E+03 -0.17779192598E+02  0.50731357163E+03  0.88074332006E+02 0.  0.
         23    2    4    4    0    0  0.34325636762E+03 -0.78773456176E+02  0.81066698244E+03  0.88869682970E+03  0.92579195251E+02 0.  0.
          4    1    3    3  502    0 -0.12364757731E+03 -0.22374166028E+02  0.25833845442E+02  0.12828372559E+03  0.00000000000E+00 0.  1.
         -4    1    3    3    0  502 -0.55178397498E+03 -0.27161707437E+03  0.25624959465E+02  0.61554693458E+03  0.00000000000E+00 0. -1.
         11    1    5    5    0    0  0.13391679073E+03  0.10194859639E+03  0.20313830254E+02  0.16952838949E+03  0.00000000000E+00 0.  1.
        -11    1    5    5    0    0  0.19825839394E+03  0.27081610018E+03 -0.38093022852E+02  0.33778518214E+03  0.00000000000E+00 0. -1.
          3    1    6    6  503    0  0.30293895297E+03 -0.38192815344E+02  0.71080334571E+03  0.77360978319E+03  0.00000000000E+00 0. -1.
         -3    1    6    6    0  503  0.40317414656E+02 -0.40580640832E+02  0.99863636723E+02  0.11508704651E+03  0.00000000000E+00 0.  1.
<mgrwt>
<rscale>  0 0.19662143E+04</rscale>
<asrwt>0</asrwt>
<pdfrwt beam="1">  1        1 0.99653421E-01 0.19662143E+04</pdfrwt>
<pdfrwt beam="2">  1       -1 0.22955290E+00 0.19662143E+04</pdfrwt>
<totfact> 0.27065308E+00</totfact>
</mgrwt>
</event>
<event>
12    2  0.3623523E-008  0.3528878E+04  0.7818608E-02  0.8106980E-01
          2   -1    0    0  501    0  0.00000000000E+00  0.00000000000E+00  0.25603954539E+04  0.25603954539E+04  0.00000000000E+00 0. -1.
         -2   -1    0    0    0  501 -0.00000000000E+00 -0.00000000000E+00 -0.12159232997E+04  0.12159232997E+04  0.00000000000E+00 0.  1.
         23    2    1    2    0    0  0.11561193000E+04 -0.10574968132E+04  0.83776337856E+02  0.15716226998E+04  0.89822548091E+02 0.  0.
        254    2    1    2    0    0 -0.11561193000E+04  0.10574968132E+04  0.12606958163E+04  0.22046960538E+04  0.90355929658E+03 0.  0.
         23    2    4    4    0    0 -0.76544453715E+03  0.67959965034E+03  0.12944935578E+04  0.16523460460E+04  0.82297389395E+02 0.  0.
         23    2    4    4    0    0 -0.39067476283E+03  0.37789716287E+03 -0.33797741470E+02  0.55235000778E+03  0.92277883314E+02 0.  0.
          2    1    3    3  502    0  0.10037418836E+04 -0.93620679907E+03  0.46750701099E+02  0.13733777949E+04  0.00000000000E+00 0.  1.
         -2    1    3    3    0  502  0.15237741637E+03 -0.12129001415E+03  0.37025636757E+02  0.19824490492E+03  0.00000000000E+00 0. -1.
         11    1    5    5    0    0 -0.53199350818E+03  0.44285702311E+03  0.82261620015E+03  0.10750985296E+04  0.00000000000E+00 0.  1.
        -11    1    5    5    0    0 -0.23345102897E+03  0.23674262724E+03  0.47187735765E+03  0.57724751636E+03  0.00000000000E+00 0. -1.
          1    1    6    6  503    0 -0.37265701175E+03  0.38098497730E+03 -0.34525861164E+02  0.53405508745E+03  0.00000000000E+00 0. -1.
         -1    1    6    6    0  503 -0.18017751073E+02 -0.30878144295E+01  0.72811969400E+00  0.18294920333E+02  0.00000000000E+00 0.  1.
<mgrwt>
<rscale>  0 0.35288777E+04</rscale>
<asrwt>0</asrwt>
<pdfrwt beam="1">  1        2 0.39390699E+00 0.35288777E+04</pdfrwt>
<pdfrwt beam="2">  1       -2 0.18706512E+00 0.35288777E+04</pdfrwt>
<totfact> 0.42687556E-01</totfact>
</mgrwt>
</event>
<event>
12    2  0.3623523E-008  0.2031658E+04  0.7818608E-02  0.8591961E-01
         -2   -1    0    0    0  501 -0.00000000000E+00  0.00000000000E+00  0.66998902667E+03  0.66998902667E+03  0.00000000000E+00 0.  1.
          2   -1    0    0  501    0  0.00000000000E+00 -0.00000000000E+00 -0.15401878590E+04  0.15401878590E+04  0.00000000000E+00 0. -1.
         23    2    1    2    0    0 -0.53699151312E+03 -0.58528713160E+03 -0.53377960778E+03  0.96135251910E+03  0.91417092134E+02 0.  0.
        254    2    1    2    0    0  0.53699151312E+03  0.58528713160E+03 -0.33641922455E+03  0.12488243666E+04  0.90303017242E+03 0.  0.
         23    2    4    4    0    0  0.34697575037E+03 -0.14764644873E+03 -0.29132430704E+03  0.48499534273E+03  0.90327102417E+02 0.  0.
         23    2    4    4    0    0  0.19001576275E+03  0.73293358032E+03 -0.45094917505E+02  0.76382902384E+03  0.90020013383E+02 0.  0.
          1    1    3    3  502    0 -0.36720035367E+02 -0.22088854218E+02 -0.10449183612E+02  0.44107413393E+02  0.00000000000E+00 0. -1.
         -1    1    3    3    0  502 -0.50027147775E+03 -0.56319827738E+03 -0.52333042416E+03  0.91724510571E+03  0.00000000000E+00 0.  1.
         11    1    5    5    0    0  0.16720810563E+03 -0.36105160918E+02 -0.91555216326E+02  0.19402188245E+03  0.00000000000E+00 0. -1.
        -11    1    5    5    0    0  0.17976764473E+03 -0.11154128781E+03 -0.19976909071E+03  0.29097346027E+03  0.00000000000E+00 0.  1.
          3    1    6    6  503    0  0.71788786953E+01  0.88065864411E+02  0.19349613581E+02  0.90451867419E+02  0.00000000000E+00 0. -1.
         -3    1    6    6    0  503  0.18283688406E+03  0.64486771591E+03 -0.64444531086E+02  0.67337715642E+03  0.00000000000E+00 0.  1.
<mgrwt>
<rscale>  0 0.20316584E+04</rscale>
<asrwt>0</asrwt>
<pdfrwt beam="1">  1        2 0.23695198E+00 0.20316584E+04</pdfrwt>
<pdfrwt beam="2">  1       -2 0.10307524E+00 0.20316584E+04</pdfrwt>
<totfact> 0.85804415E+00</totfact>
</mgrwt>
</event>
<event>
12    2  0.3623523E-008  0.2182448E+04  0.7818608E-02  0.8525769E-01
          2   -1    0    0  501    0  0.00000000000E+00  0.00000000000E+00  0.10639672950E+04  0.10639672950E+04  0.00000000000E+00 0. -1.
         -2   -1    0    0    0  501 -0.00000000000E+00 -0.00000000000E+00 -0.11191790210E+04  0.11191790210E+04  0.00000000000E+00 0.  1.
         23    2    1    2    0    0 -0.61221364305E+02  0.78592202749E+03 -0.46554944251E+03  0.91987213357E+03  0.89481673788E+02 0.  0.
        254    2    1    2    0    0  0.61221364305E+02 -0.78592202749E+03  0.41033771652E+03  0.12632741824E+04  0.89781018573E+03 0.  0.
         23    2    4    4    0    0  0.11517279906E+03 -0.15746529735E+03 -0.26016599923E+03  0.33823848759E+03  0.93052854985E+02 0.  0.
         23    2    4    4    0    0 -0.53951434751E+02 -0.62845673014E+03  0.67050371575E+03  0.92503569482E+03  0.90814012621E+02 0.  0.
          3    1    3    3  502    0 -0.16690721875E+02  0.38442530736E+03 -0.27672729046E+03  0.47396138073E+03  0.00000000000E+00 0. -1.
         -3    1    3    3    0  502 -0.44530642430E+02  0.40149672013E+03 -0.18882215205E+03  0.44591075284E+03  0.00000000000E+00 0.  1.
         11    1    5    5    0    0  0.52524041144E+02 -0.23688176923E+02 -0.30568439669E+02  0.65225256824E+02  0.00000000000E+00 0.  1.
        -11    1    5    5    0    0  0.62648757912E+02 -0.13377712043E+03 -0.22959755956E+03  0.27301323077E+03  0.00000000000E+00 0. -1.
          1    1    6    6  503    0 -0.41051138698E+02 -0.58279798374E+03  0.58224417473E+03  0.82483147663E+03  0.00000000000E+00 0. -1.
         -1    1    6    6    0  503 -0.12900296052E+02 -0.45658746399E+02  0.88259541025E+02  0.10020421819E+03  0.00000000000E+00 0.  1.
<mgrwt>
<rscale>  0 0.21824481E+04</rscale>
<asrwt>0</asrwt>
<pdfrwt beam="1">  1        2 0.16368728E+00 0.21824481E+04</pdfrwt>
<pdfrwt beam="2">  1       -2 0.17218139E+00 0.21824481E+04</pdfrwt>
<totfact> 0.43183637E+00</totfact>
</mgrwt>
</event>
<event>
12    2  0.3623523E-008  0.1270210E+04  0.7818608E-02  0.9053528E-01
         -2   -1    0    0    0  501 -0.00000000000E+00  0.00000000000E+00  0.90253011998E+02  0.90253011998E+02  0.00000000000E+00 0.  1.
          2   -1    0    0  501    0  0.00000000000E+00 -0.00000000000E+00 -0.44691989039E+04  0.44691989039E+04  0.00000000000E+00 0. -1.
         23    2    1    2    0    0  0.19181257909E+03 -0.11337734084E+02 -0.19109403655E+04  0.19229041175E+04  0.94586230911E+02 0.  0.
        254    2    1    2    0    0 -0.19181257909E+03  0.11337734084E+02 -0.24680055265E+04  0.26365477984E+04  0.90742074306E+03 0.  0.
         23    2    4    4    0    0  0.11392757768E+03 -0.30490459309E+03 -0.17987514877E+04  0.18302356703E+04  0.91155857392E+02 0.  0.
         23    2    4    4    0    0 -0.30574015677E+03  0.31624232718E+03 -0.66925403875E+03  0.80631212814E+03  0.93552266892E+02 0.  0.
          4    1    3    3  502    0  0.49000240461E+02 -0.45920895048E+02 -0.62269837133E+03  0.62630904019E+03  0.00000000000E+00 0. -1.
         -4    1    3    3    0  502  0.14281233863E+03  0.34583160965E+02 -0.12882419941E+04  0.12965950773E+04  0.00000000000E+00 0.  1.
         11    1    5    5    0    0  0.10453193161E+03 -0.15047048317E+03 -0.99515722562E+03  0.10118825005E+04  0.00000000000E+00 0.  1.
        -11    1    5    5    0    0  0.93956460750E+01 -0.15443410992E+03 -0.80359426209E+03  0.81835316981E+03  0.00000000000E+00 0. -1.
          4    1    6    6  503    0 -0.21457503413E+03  0.27094732571E+03 -0.54926976124E+03  0.64896237887E+03  0.00000000000E+00 0. -1.
         -4    1    6    6    0  503 -0.91165122642E+02  0.45295001462E+02 -0.11998427751E+03  0.15734974927E+03  0.00000000000E+00 0.  1.
<mgrwt>
<rscale>  0 0.12702105E+04</rscale>
<asrwt>0</asrwt>
<pdfrwt beam="1">  1        2 0.68756895E+00 0.12702105E+04</pdfrwt>
<pdfrwt beam="2">  1       -2 0.13885081E-01 0.12702105E+04</pdfrwt>
<totfact> 0.54479263E+00</totfact>
</mgrwt>
</event>
<event>
12    2  0.3623523E-008  0.2288798E+04  0.7818608E-02  0.8482351E-01
         -1   -1    0    0    0  501 -0.00000000000E+00  0.00000000000E+00  0.68342771746E+03  0.68342771746E+03  0.00000000000E+00 0.  1.
          1   -1    0    0  501    0  0.00000000000E+00 -0.00000000000E+00 -0.19162947781E+04  0.19162947781E+04  0.00000000000E+00 0. -1.
         23    2    1    2    0    0 -0.12183839494E+03  0.42225033540E+03 -0.14909806495E+04  0.15571241945E+04  0.92046291805E+02 0.  0.
        254    2    1    2    0    0  0.12183839494E+03 -0.42225033540E+03  0.25811358886E+03  0.10425983010E+04  0.90953210625E+03 0.  0.
         23    2    4    4    0    0  0.26180335007E+03 -0.30237141090E+03  0.54971471064E+03  0.68580351458E+03  0.90392108490E+02 0.  0.
         23    2    4    4    0    0 -0.13996495513E+03 -0.11987892450E+03 -0.29160112178E+03  0.35679478644E+03  0.91160080094E+02 0.  0.
          1    1    3    3  502    0 -0.89509534805E+02  0.36076393478E+03 -0.13456686353E+04  0.13960611196E+04  0.00000000000E+00 0. -1.
         -1    1    3    3    0  502 -0.32328860137E+02  0.61486400623E+02 -0.14531201413E+03  0.16106307494E+03  0.00000000000E+00 0.  1.
         11    1    5    5    0    0  0.26796803202E+03 -0.28639313766E+03  0.53401083889E+03  0.66256733359E+03  0.00000000000E+00 0.  1.
        -11    1    5    5    0    0 -0.61646819454E+01 -0.15978273243E+02  0.15703871747E+02  0.23236180994E+02  0.00000000000E+00 0. -1.
          4    1    6    6  503    0 -0.10039625877E+03 -0.10551662367E+03 -0.15003191315E+03  0.20909983646E+03  0.00000000000E+00 0. -1.
         -4    1    6    6    0  503 -0.39568696362E+02 -0.14362300837E+02 -0.14156920863E+03  0.14769494998E+03  0.00000000000E+00 0.  1.
<mgrwt>
<rscale>  0 0.22887979E+04</rscale>
<asrwt>0</asrwt>
<pdfrwt beam="1">  1        1 0.29481457E+00 0.22887979E+04</pdfrwt>
<pdfrwt beam="2">  1       -1 0.10514273E+00 0.22887979E+04</pdfrwt>
<totfact> 0.26075215E+00</totfact>
</mgrwt>
</event>
<event>
12    2  0.3623523E-008  0.2341263E+04  0.7818608E-02  0.8461827E-01
         -2   -1    0    0    0  501 -0.00000000000E+00  0.00000000000E+00  0.19557627681E+04  0.19557627681E+04  0.00000000000E+00 0.  1.
          2   -1    0    0  501    0  0.00000000000E+00 -0.00000000000E+00 -0.70068709454E+03  0.70068709454E+03  0.00000000000E+00 0. -1.
         23    2    1    2    0    0  0.35602172122E+03 -0.78804187360E+03 -0.24348737312E+02  0.86994855520E+03  0.91957420414E+02 0.  0.
        254    2    1    2    0    0 -0.35602172122E+03  0.78804187360E+03  0.12794244109E+04  0.17865013075E+04  0.89827536862E+03 0.  0.
         23    2    4    4    0    0 -0.14945922950E+03 -0.13737843040E+03  0.44596690581E+02  0.22702371030E+03  0.91323632240E+02 0.  0.
         23    2    4    4    0    0 -0.20656249172E+03  0.92542030400E+03  0.12348277203E+04  0.15594775972E+04  0.90000417567E+02 0.  0.
          2    1    3    3  502    0  0.30469319603E+03 -0.64322459361E+03 -0.52779455771E+02  0.71369565816E+03  0.00000000000E+00 0. -1.
         -2    1    3    3    0  502  0.51328525195E+02 -0.14481727999E+03  0.28430718460E+02  0.15625289704E+03  0.00000000000E+00 0.  1.
         11    1    5    5    0    0 -0.39067194974E+02 -0.27794667143E+02 -0.27833960767E+02  0.55439323740E+02  0.00000000000E+00 0. -1.
        -11    1    5    5    0    0 -0.11039203453E+03 -0.10958376326E+03  0.72430651348E+02  0.17158438656E+03  0.00000000000E+00 0.  1.
          2    1    6    6  503    0 -0.83608208693E+02  0.26999105309E+03  0.42525689952E+03  0.51061622761E+03  0.00000000000E+00 0. -1.
         -2    1    6    6    0  503 -0.12295428302E+03  0.65542925091E+03  0.80957082080E+03  0.10488613696E+04  0.00000000000E+00 0.  1.
<mgrwt>
<rscale>  0 0.23412627E+04</rscale>
<asrwt>0</asrwt>
<pdfrwt beam="1">  1        2 0.10779802E+00 0.23412627E+04</pdfrwt>
<pdfrwt beam="2">  1       -2 0.30088658E+00 0.23412627E+04</pdfrwt>
<totfact> 0.11610378E+00</totfact>
</mgrwt>
</event>
<event>
12    2  0.3623523E-008  0.1680274E+04  0.7818608E-02  0.8772695E-01
         -1   -1    0    0    0  501 -0.00000000000E+00  0.00000000000E+00  0.60416703259E+03  0.60416703259E+03  0.00000000000E+00 0.  1.
          1   -1    0    0  501    0  0.00000000000E+00 -0.00000000000E+00 -0.11682702785E+04  0.11682702785E+04  0.00000000000E+00 0. -1.
         23    2    1    2    0    0  0.33194401443E+03 -0.30236626367E+03 -0.60654320567E+03  0.76031771618E+03  0.92607683653E+02 0.  0.
        254    2    1    2    0    0 -0.33194401443E+03  0.30236626367E+03  0.42439959780E+02  0.10121195949E+04  0.90607545935E+03 0.  0.
         23    2    4    4    0    0 -0.82797618175E+02 -0.29031728673E+03 -0.12881062648E+03  0.34048731031E+03  0.90553069724E+02 0.  0.
         23    2    4    4    0    0 -0.24914639626E+03  0.59268355041E+03  0.17125058626E+03  0.67163228457E+03  0.91735732883E+02 0.  0.
          3    1    3    3  502    0  0.22030016367E+03 -0.19652860513E+03 -0.46774846683E+03  0.55312230381E+03  0.00000000000E+00 0. -1.
         -3    1    3    3    0  502  0.11164385077E+03 -0.10583765855E+03 -0.13879473883E+03  0.20719541237E+03  0.00000000000E+00 0.  1.
         11    1    5    5    0    0  0.12571576689E+02 -0.42771734385E+02  0.21675938636E+01  0.44633667404E+02  0.00000000000E+00 0. -1.
        -11    1    5    5    0    0 -0.95369194864E+02 -0.24754555235E+03 -0.13097822035E+03  0.29585364291E+03  0.00000000000E+00 0.  1.
          4    1    6    6  503    0 -0.18530983270E+03  0.37982152920E+03  0.73952428184E+02  0.42903739904E+03  0.00000000000E+00 0. -1.
         -4    1    6    6    0  503 -0.63836563552E+02  0.21286202121E+03  0.97298158080E+02  0.24259488553E+03  0.00000000000E+00 0.  1.
<mgrwt>
<rscale>  0 0.16802742E+04</rscale>
<asrwt>0</asrwt>
<pdfrwt beam="1">  1        1 0.17973389E+00 0.16802742E+04</pdfrwt>
<pdfrwt beam="2">  1       -1 0.92948775E-01 0.16802742E+04</pdfrwt>
<totfact> 0.12086666E+01</totfact>
</mgrwt>
</event>
<event>
12    2  0.3623523E-008  0.2729752E+04  0.7818608E-02  0.8325416E-01
          2   -1    0    0  501    0  0.00000000000E+00  0.00000000000E+00  0.17439580526E+04  0.17439580526E+04  0.00000000000E+00 0. -1.
         -2   -1    0    0    0  501 -0.00000000000E+00 -0.00000000000E+00 -0.10681942875E+04  0.10681942875E+04  0.00000000000E+00 0.  1.
         23    2    1    2    0    0 -0.68722806319E+03 -0.10109863291E+04  0.30209757012E+03  0.12622901395E+04  0.87964117546E+02 0.  0.
        254    2    1    2    0    0  0.68722806319E+03  0.10109863291E+04  0.37366619497E+03  0.15498622006E+04  0.87639639839E+03 0.  0.
         23    2    4    4    0    0  0.82629276065E+03  0.58950216604E+03  0.40371819086E+03  0.10961609861E+04  0.91148229899E+02 0.  0.
         23    2    4    4    0    0 -0.13906469747E+03  0.42148416310E+03 -0.30051995886E+02  0.45370121449E+03  0.89183965756E+02 0.  0.
          2    1    3    3  502    0 -0.29257511994E+00 -0.18914765716E+02  0.51642019510E+01  0.19609256592E+02  0.00000000000E+00 0.  1.
         -2    1    3    3    0  502 -0.68693548807E+03 -0.99207156343E+03  0.29693336817E+03  0.12426808830E+04  0.00000000000E+00 0. -1.
         11    1    5    5    0    0  0.15908989591E+03  0.15551576077E+03  0.10518867733E+03  0.24608820505E+03  0.00000000000E+00 0. -1.
        -11    1    5    5    0    0  0.66720286475E+03  0.43398640528E+03  0.29852951353E+03  0.85007278108E+03  0.00000000000E+00 0.  1.
          1    1    6    6  503    0 -0.53793430378E+02  0.74391520833E+02 -0.29037793027E+02  0.96286161766E+02  0.00000000000E+00 0. -1.
         -1    1    6    6    0  503 -0.85271267087E+02  0.34709264227E+03 -0.10142028589E+01  0.35741505273E+03  0.00000000000E+00 0.  1.
<mgrwt>
<rscale>  0 0.27297517E+04</rscale>
<asrwt>0</asrwt>
<pdfrwt beam="1">  1        2 0.26830124E+00 0.27297517E+04</pdfrwt>
<pdfrwt beam="2">  1       -2 0.16433758E+00 0.27297517E+04</pdfrwt>
<totfact> 0.18994849E+00</totfact>
</mgrwt>
</event>
<event>
12    2  0.3623523E-008  0.1384028E+04  0.7818608E-02  0.8965462E-01
          1   -1    0    0  501    0  0.00000000000E+00  0.00000000000E+00  0.22780082561E+04  0.22780082561E+04  0.00000000000E+00 0. -1.
         -1   -1    0    0    0  501 -0.00000000000E+00 -0.00000000000E+00 -0.21022028250E+03  0.21022028250E+03  0.00000000000E+00 0.  1.
         23    2    1    2    0    0 -0.17921034944E+03 -0.32334662583E+03  0.35227470847E+03  0.51881797773E+03  0.91680063258E+02 0.  0.
        254    2    1    2    0    0  0.17921034944E+03  0.32334662583E+03  0.17155132651E+04  0.19694105609E+04  0.89382481765E+03 0.  0.
         23    2    4    4    0    0  0.19744415880E+03  0.26722359370E+03  0.11562724073E+03  0.36567675489E+03  0.99785697315E+02 0.  0.
         23    2    4    4    0    0 -0.18233809354E+02  0.56123032127E+02  0.15998860244E+04  0.16037338060E+04  0.94045536172E+02 0.  0.
          2    1    3    3  502    0 -0.61129905820E+02 -0.48664074995E+02  0.10465595400E+03  0.13060599638E+03  0.00000000000E+00 0. -1.
         -2    1    3    3    0  502 -0.11808044362E+03 -0.27468255084E+03  0.24761875447E+03  0.38821198135E+03  0.00000000000E+00 0.  1.
         11    1    5    5    0    0  0.65844604258E+02  0.46994849252E+02  0.65921468576E+02  0.10435357102E+03  0.00000000000E+00 0.  1.
        -11    1    5    5    0    0  0.13159955454E+03  0.22022874445E+03  0.49705772157E+02  0.26132318386E+03  0.00000000000E+00 0. -1.
          3    1    6    6  503    0 -0.34871612899E+02  0.57572719648E+02  0.15424760660E+04  0.15439439956E+04  0.00000000000E+00 0. -1.
         -3    1    6    6    0  503  0.16637803545E+02 -0.14496875203E+01  0.57409958409E+02  0.59789810379E+02  0.00000000000E+00 0.  1.
<mgrwt>
<rscale>  0 0.13840282E+04</rscale>
<asrwt>0</asrwt>
<pdfrwt beam="1">  1        1 0.35046279E+00 0.13840282E+04</pdfrwt>
<pdfrwt beam="2">  1       -1 0.32341583E-01 0.13840282E+04</pdfrwt>
<totfact> 0.16846252E+01</totfact>
</mgrwt>
</event>
<event>
12    2  0.3623523E-008  0.3285743E+04  0.7818608E-02  0.8166533E-01
          2   -1    0    0  501    0  0.00000000000E+00  0.00000000000E+00  0.23600453319E+04  0.23600453319E+04  0.00000000000E+00 0.  1.
         -2   -1    0    0    0  501 -0.00000000000E+00 -0.00000000000E+00 -0.11436333478E+04  0.11436333478E+04  0.00000000000E+00 0. -1.
         23    2    1    2    0    0 -0.11377130304E+04 -0.84518015763E+03  0.11424395124E+04  0.18226484402E+04  0.90326400602E+02 0.  0.
        254    2    1    2    0    0  0.11377130304E+04  0.84518015763E+03  0.73972471722E+02  0.16810302395E+04  0.90092746712E+03 0.  0.
         23    2    4    4    0    0  0.85987941901E+03  0.97716816133E+03 -0.11179073747E+03  0.13100996135E+04  0.98048954989E+02 0.  0.
         23    2    4    4    0    0  0.27783361144E+03 -0.13198800370E+03  0.18576320919E+03  0.37093062598E+03  0.92028314318E+02 0.  0.
          1    1    3    3  502    0 -0.10981359847E+04 -0.79515470153E+03  0.11015627385E+04  0.17468869761E+04  0.00000000000E+00 0. -1.
         -1    1    3    3    0  502 -0.39577045774E+02 -0.50025456098E+02  0.40876773862E+02  0.75761464158E+02  0.00000000000E+00 0.  1.
         11    1    5    5    0    0  0.60707119538E+03  0.75196009499E+03 -0.95563731682E+02  0.97113945833E+03  0.00000000000E+00 0.  1.
        -11    1    5    5    0    0  0.25280822363E+03  0.22520806635E+03 -0.16227005788E+02  0.33896015518E+03  0.00000000000E+00 0. -1.
          2    1    6    6  503    0  0.26332707607E+02  0.11564372399E+02  0.32105288717E+02  0.43103314983E+02  0.00000000000E+00 0. -1.
         -2    1    6    6    0  503  0.25150090383E+03 -0.14355237610E+03  0.15365792047E+03  0.32782731100E+03  0.00000000000E+00 0.  1.
<mgrwt>
<rscale>  0 0.32857429E+04</rscale>
<asrwt>0</asrwt>
<pdfrwt beam="1">  1        2 0.36308390E+00 0.32857429E+04</pdfrwt>
<pdfrwt beam="2">  1       -2 0.17594359E+00 0.32857429E+04</pdfrwt>
<totfact> 0.67798278E-01</totfact>
</mgrwt>
</event>
<event>
12    2  0.3623523E-008  0.2580452E+04  0.7818608E-02  0.8374872E-01
          2   -1    0    0  501    0  0.00000000000E+00  0.00000000000E+00  0.16927444977E+04  0.16927444977E+04  0.00000000000E+00 0. -1.
         -2   -1    0    0    0  501 -0.00000000000E+00 -0.00000000000E+00 -0.98342265286E+03  0.98342265286E+03  0.00000000000E+00 0.  1.
         23    2    1    2    0    0  0.29692990563E+03 -0.47995052991E+03 -0.70122872819E+03  0.90454660385E+03  0.89235358853E+02 0.  0.
        254    2    1    2    0    0 -0.29692990563E+03  0.47995052991E+03  0.14105505730E+04  0.17716205467E+04  0.91129938133E+03 0.  0.
         23    2    4    4    0    0 -0.60548862646E+03  0.29442675293E+03  0.73553486805E+03  0.10014748880E+04  0.92934490734E+02 0.  0.
         23    2    4    4    0    0  0.30855872082E+03  0.18552377698E+03  0.67501570493E+03  0.77014565867E+03  0.88603485495E+02 0.  0.
          4    1    3    3  502    0  0.75891729334E+02 -0.18967675013E+03 -0.29086932198E+03  0.35544589826E+03  0.00000000000E+00 0. -1.
         -4    1    3    3    0  502  0.22103817630E+03 -0.29027377978E+03 -0.41035940622E+03  0.54910070559E+03  0.00000000000E+00 0.  1.
         11    1    5    5    0    0 -0.27786922975E+03  0.94389078918E+02  0.27789597643E+03  0.40416182499E+03  0.00000000000E+00 0.  1.
        -11    1    5    5    0    0 -0.32761939671E+03  0.20003767401E+03  0.45763889162E+03  0.59731306301E+03  0.00000000000E+00 0. -1.
          3    1    6    6  503    0  0.30675556238E+03  0.16979716628E+03  0.66392567969E+03  0.75081779473E+03  0.00000000000E+00 0. -1.
         -3    1    6    6    0  503  0.18031584410E+01  0.15726610705E+02  0.11090025236E+02  0.19327863937E+02  0.00000000000E+00 0.  1.
<mgrwt>
<rscale>  0 0.25804521E+04</rscale>
<asrwt>0</asrwt>
<pdfrwt beam="1">  1        2 0.26042223E+00 0.25804521E+04</pdfrwt>
<pdfrwt beam="2">  1       -2 0.15129579E+00 0.25804521E+04</pdfrwt>
<totfact> 0.25686871E+00</totfact>
</mgrwt>
</event>
<event>
12    2  0.3623523E-008  0.1855394E+04  0.7818608E-02  0.8677384E-01
         -2   -1    0    0    0  501 -0.00000000000E+00  0.00000000000E+00  0.81607962724E+03  0.81607962724E+03  0.00000000000E+00 0. -1.
          2   -1    0    0  501    0  0.00000000000E+00 -0.00000000000E+00 -0.10545808163E+04  0.10545808163E+04  0.00000000000E+00 0.  1.
         23    2    1    2    0    0  0.67200824940E+03  0.15374564463E+03  0.55901905216E+02  0.69774526147E+03  0.92144540820E+02 0.  0.
        254    2    1    2    0    0 -0.67200824940E+03 -0.15374564463E+03 -0.29440309429E+03  0.11729151821E+04  0.90212196068E+03 0.  0.
         23    2    4    4    0    0 -0.69268449064E+02 -0.33895205724E+03  0.15764779138E+03  0.39190698829E+03  0.95140139768E+02 0.  0.
         23    2    4    4    0    0 -0.60273980033E+03  0.18520641262E+03 -0.45205088568E+03  0.78100819380E+03  0.89594159176E+02 0.  0.
          3    1    3    3  502    0  0.26124191505E+02  0.17385796245E+01 -0.15432202592E+02  0.30391592879E+02  0.00000000000E+00 0.  1.
         -3    1    3    3    0  502  0.64588405789E+03  0.15200706500E+03  0.71334107808E+02  0.66735366859E+03  0.00000000000E+00 0. -1.
         11    1    5    5    0    0 -0.57021066108E+02 -0.14053918106E+03  0.27061705339E+02  0.15406167365E+03  0.00000000000E+00 0.  1.
        -11    1    5    5    0    0 -0.12247382956E+02 -0.19841287618E+03  0.13058608605E+03  0.23784531463E+03  0.00000000000E+00 0. -1.
          4    1    6    6  503    0 -0.11255516782E+03  0.55938661642E+01 -0.56749693625E+02  0.12617640377E+03  0.00000000000E+00 0. -1.
         -4    1    6    6    0  503 -0.49018463252E+03  0.17961254645E+03 -0.39530119205E+03  0.65483179003E+03  0.00000000000E+00 0.  1.
<mgrwt>
<rscale>  0 0.18553942E+04</rscale>
<asrwt>0</asrwt>
<pdfrwt beam="1">  1        2 0.16224320E+00 0.18553942E+04</pdfrwt>
<pdfrwt beam="2">  1       -2 0.12555071E+00 0.18553942E+04</pdfrwt>
<totfact> 0.10365181E+01</totfact>
</mgrwt>
</event>
<event>
12    2  0.3623523E-008  0.1326180E+04  0.7818608E-02  0.9009058E-01
          2   -1    0    0  501    0  0.00000000000E+00  0.00000000000E+00  0.55125654187E+03  0.55125654187E+03  0.00000000000E+00 0. -1.
         -2   -1    0    0    0  501 -0.00000000000E+00 -0.00000000000E+00 -0.79761057993E+03  0.79761057993E+03  0.00000000000E+00 0.  1.
         23    2    1    2    0    0  0.14960673690E+03  0.30911742275E+03 -0.13678848664E+03  0.38059818367E+03  0.90598733803E+02 0.  0.
        254    2    1    2    0    0 -0.14960673690E+03 -0.30911742275E+03 -0.10956555142E+03  0.96826893812E+03  0.89866810876E+03 0.  0.
         23    2    4    4    0    0  0.50485766909E+02  0.29652363493E+03 -0.35078335297E+02  0.31847560984E+03  0.98595870724E+02 0.  0.
         23    2    4    4    0    0 -0.20009250381E+03 -0.60564105768E+03 -0.74487216122E+02  0.64979332828E+03  0.99221586832E+02 0.  0.
          4    1    3    3  502    0  0.75674862413E+02  0.18001736475E+03 -0.30230484484E+02  0.19760267864E+03  0.00000000000E+00 0.  1.
         -4    1    3    3    0  502  0.73931874486E+02  0.12910005800E+03 -0.10655800215E+03  0.18299550503E+03  0.00000000000E+00 0. -1.
         11    1    5    5    0    0  0.11276699128E+02  0.79628024351E+01 -0.23229918974E+02  0.27022200158E+02  0.00000000000E+00 0. -1.
        -11    1    5    5    0    0  0.39209067781E+02  0.28856083249E+03 -0.11848416323E+02  0.29145340968E+03  0.00000000000E+00 0.  1.
          1    1    6    6  503    0 -0.27903595768E+02 -0.28111300551E+02 -0.20843654331E+02  0.44758393641E+02  0.00000000000E+00 0. -1.
         -1    1    6    6    0  503 -0.17218890804E+03 -0.57752975712E+03 -0.53643561791E+02  0.60503493464E+03  0.00000000000E+00 0.  1.
<mgrwt>
<rscale>  0 0.13261796E+04</rscale>
<asrwt>0</asrwt>
<pdfrwt beam="1">  1        2 0.84808699E-01 0.13261796E+04</pdfrwt>
<pdfrwt beam="2">  1       -2 0.12270932E+00 0.13261796E+04</pdfrwt>
<totfact> 0.26970169E+01</totfact>
</mgrwt>
</event>
<event>
12    2  0.3623523E-008  0.3181068E+04  0.7818608E-02  0.8193835E-01
         -1   -1    0    0    0  501 -0.00000000000E+00  0.00000000000E+00  0.79904478829E+03  0.79904478829E+03  0.00000000000E+00 0.  1.
          1   -1    0    0  501    0  0.00000000000E+00 -0.00000000000E+00 -0.31660278162E+04  0.31660278162E+04  0.00000000000E+00 0. -1.
         23    2    1    2    0    0 -0.10931553907E+04 -0.89314518198E+03 -0.62181026562E+03  0.15451839583E+04  0.90820890716E+02 0.  0.
        254    2    1    2    0    0  0.10931553907E+04  0.89314518198E+03 -0.17451727623E+04  0.24198886462E+04  0.90417701005E+03 0.  0.
         23    2    4    4    0    0 -0.98293551852E+02 -0.16456260599E+02 -0.25786720465E+02  0.13689307232E+03  0.90234846081E+02 0.  0.
         23    2    4    4    0    0  0.11914489426E+04  0.90960144258E+03 -0.17193860418E+04  0.22829955739E+04  0.94101341846E+02 0.  0.
          2    1    3    3  502    0 -0.59771138000E+03 -0.49472223477E+03 -0.29257459062E+03  0.82922184874E+03  0.00000000000E+00 0. -1.
         -2    1    3    3    0  502 -0.49544401071E+03 -0.39842294721E+03 -0.32923567500E+03  0.71596210954E+03  0.00000000000E+00 0.  1.
         11    1    5    5    0    0 -0.17781468578E+01 -0.14763612364E+02 -0.36843922275E+02  0.39731607882E+02  0.00000000000E+00 0.  1.
        -11    1    5    5    0    0 -0.96515404994E+02 -0.16926482357E+01  0.11057201810E+02  0.97161464434E+02  0.00000000000E+00 0. -1.
          1    1    6    6  503    0  0.10598469154E+04  0.84133163260E+03 -0.15318899545E+04  0.20439670332E+04  0.00000000000E+00 0. -1.
         -1    1    6    6    0  503  0.13160202715E+03  0.68269809980E+02 -0.18749608731E+03  0.23902854069E+03  0.00000000000E+00 0.  1.
<mgrwt>
<rscale>  0 0.31810678E+04</rscale>
<asrwt>0</asrwt>
<pdfrwt beam="1">  1        1 0.48708121E+00 0.31810678E+04</pdfrwt>
<pdfrwt beam="2">  1       -1 0.12292997E+00 0.31810678E+04</pdfrwt>
<totfact> 0.22011427E-01</totfact>
</mgrwt>
</event>
<event>
12    2  0.3623523E-008  0.2420707E+04  0.7818608E-02  0.8431792E-01
         -2   -1    0    0    0  501 -0.00000000000E+00  0.00000000000E+00  0.11578943361E+04  0.11578943361E+04  0.00000000000E+00 0.  1.
          2   -1    0    0  501    0  0.00000000000E+00 -0.00000000000E+00 -0.12651894161E+04  0.12651894161E+04  0.00000000000E+00 0. -1.
         23    2    1    2    0    0  0.79151356384E+03  0.63592098962E+03  0.17578535264E+03  0.10324602964E+04  0.64688072655E+02 0.  0.
        254    2    1    2    0    0 -0.79151356384E+03 -0.63592098962E+03 -0.28308043270E+03  0.13906234558E+04  0.90708866027E+03 0.  0.
         23    2    4    4    0    0 -0.33219689866E+02 -0.45399296330E+03 -0.38002840044E+03  0.59962663876E+03  0.88979560857E+02 0.  0.
         23    2    4    4    0    0 -0.75829387398E+03 -0.18192802631E+03  0.96947967749E+02  0.79099681701E+03  0.90386116171E+02 0.  0.
          3    1    3    3  502    0  0.89104629800E+02  0.47213262839E+02  0.14223376350E+02  0.10183826233E+03  0.00000000000E+00 0. -1.
         -3    1    3    3    0  502  0.70240893405E+03  0.58870772678E+03  0.16156197629E+03  0.93062203411E+03  0.00000000000E+00 0.  1.
         11    1    5    5    0    0 -0.59504984213E+02 -0.31917047348E+03 -0.29053112970E+03  0.43568219107E+03  0.00000000000E+00 0. -1.
        -11    1    5    5    0    0  0.26285294347E+02 -0.13482248982E+03 -0.89497270744E+02  0.16394444770E+03  0.00000000000E+00 0.  1.
          3    1    6    6  503    0 -0.46111110552E+03 -0.90333205879E+02  0.98145190467E+02  0.48001668526E+03  0.00000000000E+00 0. -1.
         -3    1    6    6    0  503 -0.29718276846E+03 -0.91594820435E+02 -0.11972227188E+01  0.31098013175E+03  0.00000000000E+00 0.  1.
<mgrwt>
<rscale>  0 0.24207071E+04</rscale>
<asrwt>0</asrwt>
<pdfrwt beam="1">  1        2 0.19464453E+00 0.24207071E+04</pdfrwt>
<pdfrwt beam="2">  1       -2 0.17813759E+00 0.24207071E+04</pdfrwt>
<totfact> 0.29057114E+00</totfact>
</mgrwt>
</event>
<event>
12    2  0.3623523E-008  0.1671446E+04  0.7818608E-02  0.8777819E-01
          3   -1    0    0  501    0  0.00000000000E+00  0.00000000000E+00  0.26863564033E+03  0.26863564033E+03  0.00000000000E+00 0. -1.
         -3   -1    0    0    0  501 -0.00000000000E+00 -0.00000000000E+00 -0.25999265717E+04  0.25999265717E+04  0.00000000000E+00 0.  1.
         23    2    1    2    0    0 -0.24118646627E+03  0.20375084203E+03  0.38295620172E+01  0.32908661604E+03  0.92725499039E+02 0.  0.
        254    2    1    2    0    0  0.24118646627E+03 -0.20375084203E+03 -0.23351204934E+04  0.25394755960E+04  0.94681744115E+03 0.  0.
         23    2    4    4    0    0 -0.22750874956E+03  0.18843161105E+03 -0.12777318968E+04  0.13146641925E+04  0.92067560883E+02 0.  0.
         23    2    4    4    0    0  0.46869521582E+03 -0.39218245308E+03 -0.10573885967E+04  0.12248114036E+04  0.92790344964E+02 0.  0.
          2    1    3    3  502    0  0.36575313530E+01 -0.27591849256E+01  0.74680877180E+01  0.87614480091E+01  0.00000000000E+00 0.  1.
         -2    1    3    3    0  502 -0.24484399762E+03  0.20651002696E+03 -0.36385257008E+01  0.32032516803E+03  0.00000000000E+00 0. -1.
         11    1    5    5    0    0 -0.10057231587E+03  0.11529697561E+03 -0.81700118629E+03  0.83120341776E+03  0.00000000000E+00 0.  1.
        -11    1    5    5    0    0 -0.12693643369E+03  0.73134635439E+02 -0.46073071050E+03  0.48346077472E+03  0.00000000000E+00 0. -1.
          3    1    6    6  503    0  0.96383991148E+02 -0.43880914630E+02 -0.22536657788E+03  0.24900904169E+03  0.00000000000E+00 0. -1.
         -3    1    6    6    0  503  0.37231122467E+03 -0.34830153845E+03 -0.83202201877E+03  0.97580236187E+03  0.00000000000E+00 0.  1.
<mgrwt>
<rscale>  0 0.16714460E+04</rscale>
<asrwt>0</asrwt>
<pdfrwt beam="1">  1        3 0.41328559E-01 0.16714460E+04</pdfrwt>
<pdfrwt beam="2">  1       -3 0.39998871E+00 0.16714460E+04</pdfrwt>
<totfact> 0.15500131E-01</totfact>
</mgrwt>
</event>
<event>
12    2  0.3623523E-008  0.2787432E+04  0.7818608E-02  0.8307181E-01
          1   -1    0    0  501    0  0.00000000000E+00  0.00000000000E+00  0.12614862186E+04  0.12614862186E+04  0.00000000000E+00 0. -1.
         -1   -1    0    0    0  501 -0.00000000000E+00 -0.00000000000E+00 -0.15398063215E+04  0.15398063215E+04  0.00000000000E+00 0.  1.
         23    2    1    2    0    0  0.11623855488E+04  0.17415858146E+01  0.33952964150E+03  0.12146021817E+04  0.93994070058E+02 0.  0.
        254    2    1    2    0    0 -0.11623855488E+04 -0.17415858146E+01 -0.61784974442E+03  0.15866903584E+04  0.88583564475E+03 0.  0.
         23    2    4    4    0    0 -0.48134772272E+03  0.32675285281E+03 -0.57620835746E+03  0.82387540691E+03  0.91057992089E+02 0.  0.
         23    2    4    4    0    0 -0.68103782611E+03 -0.32849443862E+03 -0.41641386966E+02  0.76281495149E+03  0.91823353853E+02 0.  0.
          3    1    3    3  502    0  0.49755078227E+03 -0.25600732408E+02  0.18540090489E+03  0.53158787982E+03  0.00000000000E+00 0. -1.
         -3    1    3    3    0  502  0.66483476656E+03  0.27342318223E+02  0.15412873661E+03  0.68301430193E+03  0.00000000000E+00 0.  1.
         11    1    5    5    0    0 -0.46688333401E+03  0.30137748987E+03 -0.56529187778E+03  0.79269372778E+03  0.00000000000E+00 0.  1.
        -11    1    5    5    0    0 -0.14464388709E+02  0.25375362935E+02 -0.10916479677E+02  0.31181679129E+02  0.00000000000E+00 0. -1.
          1    1    6    6  503    0 -0.11964822509E+02  0.56088281888E+01 -0.47873820255E+01  0.14054713016E+02  0.00000000000E+00 0. -1.
         -1    1    6    6    0  503 -0.66907300360E+03 -0.33410326681E+03 -0.36854004940E+02  0.74876023847E+03  0.00000000000E+00 0.  1.
<mgrwt>
<rscale>  0 0.27874321E+04</rscale>
<asrwt>0</asrwt>
<pdfrwt beam="1">  1        1 0.19407480E+00 0.27874321E+04</pdfrwt>
<pdfrwt beam="2">  1       -1 0.23689328E+00 0.27874321E+04</pdfrwt>
<totfact> 0.71005600E-01</totfact>
</mgrwt>
</event>
<event>
12    2  0.3623523E-008  0.1922721E+04  0.7818608E-02  0.8643629E-01
          2   -1    0    0  501    0  0.00000000000E+00  0.00000000000E+00  0.37410004025E+04  0.37410004025E+04  0.00000000000E+00 0. -1.
         -2   -1    0    0    0  501 -0.00000000000E+00 -0.00000000000E+00 -0.24704990371E+03  0.24704990371E+03  0.00000000000E+00 0.  1.
         23    2    1    2    0    0  0.37053349597E+03  0.48068153383E+03  0.49601814404E+03  0.78918755594E+03  0.91832405099E+02 0.  0.
        254    2    1    2    0    0 -0.37053349597E+03 -0.48068153383E+03  0.29979323547E+04  0.31988627503E+04  0.93636247406E+03 0.  0.
         23    2    4    4    0    0  0.76954545298E+02  0.23348036542E+03  0.56842378858E+03  0.62582592675E+03  0.90096637462E+02 0.  0.
         23    2    4    4    0    0 -0.44748804127E+03 -0.71416189924E+03  0.24295085661E+04  0.25730368235E+04  0.87942348925E+02 0.  0.
          1    1    3    3  502    0  0.29524252987E+03  0.37404127531E+03  0.43450586843E+03  0.64488012590E+03  0.00000000000E+00 0. -1.
         -1    1    3    3    0  502  0.75290966100E+02  0.10664025851E+03  0.61512275612E+02  0.14430743003E+03  0.00000000000E+00 0.  1.
         11    1    5    5    0    0  0.35500316890E+02  0.66885373784E+02  0.28110599779E+03  0.29112627452E+03  0.00000000000E+00 0.  1.
        -11    1    5    5    0    0  0.41454228408E+02  0.16659499163E+03  0.28731779080E+03  0.33469965223E+03  0.00000000000E+00 0. -1.
          4    1    6    6  503    0 -0.43034097562E+03 -0.70620684385E+03  0.23939086086E+04  0.25327297305E+04  0.00000000000E+00 0. -1.
         -4    1    6    6    0  503 -0.17147065650E+02 -0.79550553961E+01  0.35599957549E+02  0.40307092977E+02  0.00000000000E+00 0.  1.
<mgrwt>
<rscale>  0 0.19227208E+04</rscale>
<asrwt>0</asrwt>
<pdfrwt beam="1">  1        2 0.57553848E+00 0.19227208E+04</pdfrwt>
<pdfrwt beam="2">  1       -2 0.38007680E-01 0.19227208E+04</pdfrwt>
<totfact> 0.33538297E+00</totfact>
</mgrwt>
</event>
<event>
12    2  0.3623523E-008  0.1456425E+04  0.7818608E-02  0.8913958E-01
         -1   -1    0    0    0  501 -0.00000000000E+00  0.00000000000E+00  0.35159951145E+03  0.35159951145E+03  0.00000000000E+00 0.  1.
          1   -1    0    0  501    0  0.00000000000E+00 -0.00000000000E+00 -0.15082317571E+04  0.15082317571E+04  0.00000000000E+00 0. -1.
         23    2    1    2    0    0  0.23220953067E+02  0.87080356033E+02  0.19493054951E+03  0.23295080762E+03  0.90254964221E+02 0.  0.
        254    2    1    2    0    0 -0.23220953067E+02 -0.87080356033E+02 -0.13515627952E+04  0.16268804610E+04  0.90105263103E+03 0.  0.
         23    2    4    4    0    0 -0.30058171117E+03 -0.19937562703E+03 -0.17753380222E+03  0.41182764529E+03  0.89351848017E+02 0.  0.
         23    2    4    4    0    0  0.27736075811E+03  0.11229527100E+03 -0.11740289930E+04  0.12150528157E+04  0.92032877528E+02 0.  0.
          1    1    3    3  502    0 -0.26550353939E+02  0.10608567463E+02  0.17739283463E+02  0.33647365063E+02  0.00000000000E+00 0. -1.
         -1    1    3    3    0  502  0.49771307006E+02  0.76471788571E+02  0.17719126605E+03  0.19930344255E+03  0.00000000000E+00 0.  1.
         11    1    5    5    0    0 -0.35440789521E+02 -0.30452267183E+02  0.70641806591E+01  0.47257727271E+02  0.00000000000E+00 0. -1.
        -11    1    5    5    0    0 -0.26514092165E+03 -0.16892335985E+03 -0.18459798288E+03  0.36456991802E+03  0.00000000000E+00 0.  1.
          4    1    6    6  503    0  0.88932846196E+02  0.84386127924E+01 -0.22822407418E+03  0.24508465753E+03  0.00000000000E+00 0. -1.
         -4    1    6    6    0  503  0.18842791191E+03  0.10385665821E+03 -0.94580491880E+03  0.96996815817E+03  0.00000000000E+00 0.  1.
<mgrwt>
<rscale>  0 0.14564251E+04</rscale>
<asrwt>0</asrwt>
<pdfrwt beam="1">  1        1 0.23203566E+00 0.14564251E+04</pdfrwt>
<pdfrwt beam="2">  1       -1 0.54092232E-01 0.14564251E+04</pdfrwt>
<totfact> 0.21625381E+01</totfact>
</mgrwt>
</event>
<event>
12    2  0.3623523E-008  0.1540821E+04  0.7818608E-02  0.8857752E-01
          2   -1    0    0  501    0  0.00000000000E+00  0.00000000000E+00  0.24822157995E+04  0.24822157995E+04  0.00000000000E+00 0.  1.
         -2   -1    0    0    0  501 -0.00000000000E+00 -0.00000000000E+00 -0.23911388350E+03  0.23911388350E+03  0.00000000000E+00 0. -1.
         23    2    1    2    0    0  0.34558372451E+03  0.36359681739E+03  0.67412913896E+03  0.84666873269E+03  0.10376459254E+03 0.  0.
        254    2    1    2    0    0 -0.34558372451E+03 -0.36359681739E+03  0.15689727771E+04  0.18746609503E+04  0.89501248442E+03 0.  0.
         23    2    4    4    0    0  0.12137175553E+03  0.21928667804E+03  0.50388096150E+03  0.57068451105E+03  0.94694443268E+02 0.  0.
         23    2    4    4    0    0 -0.46695548004E+03 -0.58288349542E+03  0.10650918156E+04  0.13039764393E+04  0.90185303890E+02 0.  0.
          3    1    3    3  502    0  0.14254792106E+03  0.21004637442E+03  0.28487702320E+03  0.38156822137E+03  0.00000000000E+00 0.  1.
         -3    1    3    3    0  502  0.20303580344E+03  0.15355044296E+03  0.38925211575E+03  0.46510051132E+03  0.00000000000E+00 0. -1.
         11    1    5    5    0    0  0.83057286560E+02  0.17279393428E+03  0.45273695121E+03  0.49165740467E+03  0.00000000000E+00 0.  1.
        -11    1    5    5    0    0  0.38314468975E+02  0.46492743754E+02  0.51144010292E+02  0.79027106383E+02  0.00000000000E+00 0. -1.
          1    1    6    6  503    0 -0.12961398616E+01  0.32085349867E+01  0.28863394915E+01  0.45061769786E+01  0.00000000000E+00 0. -1.
         -1    1    6    6    0  503 -0.46565934018E+03 -0.58609203041E+03  0.10622054761E+04  0.12994702623E+04  0.00000000000E+00 0.  1.
<mgrwt>
<rscale>  0 0.15408209E+04</rscale>
<asrwt>0</asrwt>
<pdfrwt beam="1">  1        2 0.38187934E+00 0.15408209E+04</pdfrwt>
<pdfrwt beam="2">  1       -2 0.36786753E-01 0.15408209E+04</pdfrwt>
<totfact> 0.23959143E+01</totfact>
</mgrwt>
</event>
<event>
12    2  0.3623523E-008  0.1874077E+04  0.7818608E-02  0.8667869E-01
         -1   -1    0    0    0  501 -0.00000000000E+00  0.00000000000E+00  0.85701426253E+03  0.85701426253E+03  0.00000000000E+00 0.  1.
          1   -1    0    0  501    0  0.00000000000E+00 -0.00000000000E+00 -0.10245351169E+04  0.10245351169E+04  0.00000000000E+00 0. -1.
         23    2    1    2    0    0  0.42471057741E+02 -0.47536076741E+02  0.65251381296E+03  0.66195901885E+03  0.91389261918E+02 0.  0.
        254    2    1    2    0    0 -0.42471057741E+02  0.47536076741E+02 -0.82003466732E+03  0.12195903606E+04  0.90048893533E+03 0.  0.
         23    2    4    4    0    0 -0.42244979521E+03  0.95298010611E+02 -0.20072378444E+03  0.48571118478E+03  0.89887580289E+02 0.  0.
         23    2    4    4    0    0  0.37997873746E+03 -0.47761933871E+02 -0.61931088289E+03  0.73387917579E+03  0.91474760146E+02 0.  0.
          3    1    3    3  502    0 -0.50991550420E+01 -0.28947830280E+02  0.50498709382E+03  0.50584181637E+03  0.00000000000E+00 0.  1.
         -3    1    3    3    0  502  0.47570212783E+02 -0.18588246461E+02  0.14752671914E+03  0.15611720248E+03  0.00000000000E+00 0. -1.
         11    1    5    5    0    0 -0.18609961446E+03  0.43383312777E+02 -0.40049396790E+02  0.19524121622E+03  0.00000000000E+00 0. -1.
        -11    1    5    5    0    0 -0.23635018075E+03  0.51914697835E+02 -0.16067438765E+03  0.29046996856E+03  0.00000000000E+00 0.  1.
          4    1    6    6  503    0  0.37995765755E+03 -0.57156659489E+02 -0.60164911852E+03  0.71387419555E+03  0.00000000000E+00 0. -1.
         -4    1    6    6    0  503  0.21079911363E-01  0.93947256187E+01 -0.17661764370E+02  0.20004980242E+02  0.00000000000E+00 0.  1.
<mgrwt>
<rscale>  0 0.18740771E+04</rscale>
<asrwt>0</asrwt>
<pdfrwt beam="1">  1        1 0.15762079E+00 0.18740771E+04</pdfrwt>
<pdfrwt beam="2">  1       -1 0.13184835E+00 0.18740771E+04</pdfrwt>
<totfact> 0.66442533E+00</totfact>
</mgrwt>
</event>
<event>
12    2  0.3623523E-008  0.1143993E+04  0.7818608E-02  0.9163343E-01
         -1   -1    0    0    0  501 -0.00000000000E+00  0.00000000000E+00  0.59837082851E+03  0.59837082851E+03  0.00000000000E+00 0.  1.
          1   -1    0    0  501    0  0.00000000000E+00 -0.00000000000E+00 -0.54678488048E+03  0.54678488048E+03  0.00000000000E+00 0. -1.
         23    2    1    2    0    0 -0.19112891897E+03  0.44233310002E+02  0.34988970126E+02  0.21934829174E+03  0.91665673401E+02 0.  0.
        254    2    1    2    0    0  0.19112891897E+03 -0.44233310002E+02  0.16596977902E+02  0.92580741724E+03  0.90463089974E+03 0.  0.
         23    2    4    4    0    0  0.17472005728E+03 -0.21487133160E+03 -0.38251665158E+03  0.48187068684E+03  0.95831010324E+02 0.  0.
         23    2    4    4    0    0  0.16408861692E+02  0.17063802160E+03  0.39911362948E+03  0.44393673040E+03  0.91659948756E+02 0.  0.
          3    1    3    3  502    0 -0.17528481232E+03  0.26989947757E+02  0.57924350282E+02  0.18657023628E+03  0.00000000000E+00 0. -1.
         -3    1    3    3    0  502 -0.15844106649E+02  0.17243362245E+02 -0.22935380156E+02  0.32778055463E+02  0.00000000000E+00 0.  1.
         11    1    5    5    0    0 -0.11705278249E+02 -0.71833221845E+01 -0.22306363070E+02  0.26195180662E+02  0.00000000000E+00 0.  1.
        -11    1    5    5    0    0  0.18642533553E+03 -0.20768800942E+03 -0.36021028851E+03  0.45567550618E+03  0.00000000000E+00 0. -1.
          2    1    6    6  503    0 -0.26297105343E+02  0.12189971857E+03  0.30655382527E+03  0.33094761961E+03  0.00000000000E+00 0. -1.
         -2    1    6    6    0  503  0.42705967036E+02  0.48738303030E+02  0.92559804215E+02  0.11298911080E+03  0.00000000000E+00 0.  1.
<mgrwt>
<rscale>  0 0.11439932E+04</rscale>
<asrwt>0</asrwt>
<pdfrwt beam="1">  1        1 0.84120751E-01 0.11439932E+04</pdfrwt>
<pdfrwt beam="2">  1       -1 0.92057050E-01 0.11439932E+04</pdfrwt>
<totfact> 0.44674523E+01</totfact>
</mgrwt>
</event>
<event>
12    2  0.3623523E-008  0.1448539E+04  0.7818608E-02  0.8919414E-01
         -2   -1    0    0    0  501 -0.00000000000E+00  0.00000000000E+00  0.20411770749E+03  0.20411770749E+03  0.00000000000E+00 0.  1.
          2   -1    0    0  501    0  0.00000000000E+00 -0.00000000000E+00 -0.25699203446E+04  0.25699203446E+04  0.00000000000E+00 0. -1.
         23    2    1    2    0    0 -0.22924131959E+03 -0.33687561323E+03 -0.10439915419E+04  0.11251219368E+04  0.99720969708E+02 0.  0.
        254    2    1    2    0    0  0.22924131959E+03  0.33687561323E+03 -0.13218110953E+04  0.16489161153E+04  0.89760961579E+03 0.  0.
         23    2    4    4    0    0 -0.24352421882E+02 -0.28668303472E+03 -0.48179271944E+03  0.56884421021E+03  0.93162804485E+02 0.  0.
         23    2    4    4    0    0  0.25359374147E+03  0.62355864795E+03 -0.84001837585E+03  0.10800719051E+04  0.88256871154E+02 0.  0.
          2    1    3    3  502    0 -0.14355526848E+03 -0.17876851058E+03 -0.70557841102E+03  0.74189432508E+03  0.00000000000E+00 0. -1.
         -2    1    3    3    0  502 -0.85686051106E+02 -0.15810710265E+03 -0.33841313083E+03  0.38322761172E+03  0.00000000000E+00 0.  1.
         11    1    5    5    0    0  0.21594807981E+02 -0.17464056053E+03 -0.33623100177E+03  0.37949564907E+03  0.00000000000E+00 0. -1.
        -11    1    5    5    0    0 -0.45947229863E+02 -0.11204247419E+03 -0.14556171767E+03  0.18934856114E+03  0.00000000000E+00 0.  1.
          3    1    6    6  503    0  0.42865558160E+02  0.11861171684E+03 -0.10720637873E+03  0.16552765053E+03  0.00000000000E+00 0. -1.
         -3    1    6    6    0  503  0.21072818331E+03  0.50494693111E+03 -0.73281199712E+03  0.91454425459E+03  0.00000000000E+00 0.  1.
<mgrwt>
<rscale>  0 0.14485389E+04</rscale>
<asrwt>0</asrwt>
<pdfrwt beam="1">  1        2 0.39537234E+00 0.14485389E+04</pdfrwt>
<pdfrwt beam="2">  1       -2 0.31402726E-01 0.14485389E+04</pdfrwt>
<totfact> 0.29043053E+01</totfact>
</mgrwt>
</event>
<event>
12    2  0.3623523E-008  0.2221679E+04  0.7818608E-02  0.8509459E-01
          2   -1    0    0  501    0  0.00000000000E+00  0.00000000000E+00  0.86658281544E+03  0.86658281544E+03  0.00000000000E+00 0. -1.
         -2   -1    0    0    0  501 -0.00000000000E+00 -0.00000000000E+00 -0.14239431076E+04  0.14239431076E+04  0.00000000000E+00 0.  1.
         23    2    1    2    0    0  0.37132031520E+03 -0.81735993177E+03 -0.19394515480E+02  0.90306199889E+03  0.95858187264E+02 0.  0.
        254    2    1    2    0    0 -0.37132031520E+03  0.81735993177E+03 -0.53796577666E+03  0.13874639241E+04  0.91087481544E+03 0.  0.
         23    2    4    4    0    0  0.10398658488E+03  0.16520074369E+03  0.19715033958E+03  0.29222074314E+03  0.91761706472E+02 0.  0.
         23    2    4    4    0    0 -0.47530690007E+03  0.65215918808E+03 -0.73511611624E+03  0.10952431810E+04  0.89071125123E+02 0.  0.
          1    1    3    3  502    0  0.11585526209E+03 -0.32028304533E+03 -0.45236110814E+02  0.34358401680E+03  0.00000000000E+00 0. -1.
         -1    1    3    3    0  502  0.25546505310E+03 -0.49707688644E+03  0.25841595334E+02  0.55947798209E+03  0.00000000000E+00 0.  1.
         11    1    5    5    0    0  0.89166445024E+02  0.97915875427E+02  0.75571318941E+02  0.15247687636E+03  0.00000000000E+00 0. -1.
        -11    1    5    5    0    0  0.14820139853E+02  0.67284868266E+02  0.12157902064E+03  0.13974386678E+03  0.00000000000E+00 0.  1.
          1    1    6    6  503    0 -0.12615362225E+03  0.11315502118E+03 -0.16376224330E+03  0.23566261383E+03  0.00000000000E+00 0. -1.
         -1    1    6    6    0  503 -0.34915327782E+03  0.53900416689E+03 -0.57135387294E+03  0.85958056718E+03  0.00000000000E+00 0.  1.
<mgrwt>
<rscale>  0 0.22216792E+04</rscale>
<asrwt>0</asrwt>
<pdfrwt beam="1">  1        2 0.13332043E+00 0.22216792E+04</pdfrwt>
<pdfrwt beam="2">  1       -2 0.21906817E+00 0.22216792E+04</pdfrwt>
<totfact> 0.28244190E+00</totfact>
</mgrwt>
</event>
<event>
12    2  0.3623523E-008  0.1732392E+04  0.7818608E-02  0.8743103E-01
         -2   -1    0    0    0  501 -0.00000000000E+00  0.00000000000E+00  0.20929248616E+03  0.20929248616E+03  0.00000000000E+00 0. -1.
          2   -1    0    0  501    0  0.00000000000E+00 -0.00000000000E+00 -0.35849134562E+04  0.35849134562E+04  0.00000000000E+00 0.  1.
         23    2    1    2    0    0 -0.30030247400E+03 -0.54135556125E+03 -0.10030070844E+04  0.11821209965E+04  0.90218730436E+02 0.  0.
        254    2    1    2    0    0  0.30030247400E+03  0.54135556125E+03 -0.23726138856E+04  0.26120849459E+04  0.90024646333E+03 0.  0.
         23    2    4    4    0    0 -0.24302148405E+02 -0.12281649697E+03 -0.36685585501E+02  0.16026054501E+03  0.93075903207E+02 0.  0.
         23    2    4    4    0    0  0.32460462241E+03  0.66417205822E+03 -0.23359283001E+04  0.24518244009E+04  0.91592497799E+02 0.  0.
          1    1    3    3  502    0 -0.19437543425E+03 -0.32492036344E+03 -0.69058658632E+03  0.78756897172E+03  0.00000000000E+00 0. -1.
         -1    1    3    3    0  502 -0.10592703975E+03 -0.21643519781E+03 -0.31242049811E+03  0.39455202476E+03  0.00000000000E+00 0.  1.
         11    1    5    5    0    0 -0.40138669482E+02 -0.12077723934E+02  0.18135853425E+01  0.41955611007E+02  0.00000000000E+00 0. -1.
        -11    1    5    5    0    0  0.15836521077E+02 -0.11073877304E+03 -0.38499170843E+02  0.11830493400E+03  0.00000000000E+00 0.  1.
          4    1    6    6  503    0  0.42331932010E+00  0.52904613197E+02 -0.15657388776E+03  0.16527086745E+03  0.00000000000E+00 0. -1.
         -4    1    6    6    0  503  0.32418130309E+03  0.61126744502E+03 -0.21793544124E+04  0.22865535334E+04  0.00000000000E+00 0.  1.
<mgrwt>
<rscale>  0 0.17323919E+04</rscale>
<asrwt>0</asrwt>
<pdfrwt beam="1">  1        2 0.55152514E+00 0.17323919E+04</pdfrwt>
<pdfrwt beam="2">  1       -2 0.32198845E-01 0.17323919E+04</pdfrwt>
<totfact> 0.60950179E+00</totfact>
</mgrwt>
</event>
<event>
12    2  0.3623523E-008  0.1098130E+04  0.7818608E-02  0.9207016E-01
         -2   -1    0    0    0  501 -0.00000000000E+00  0.00000000000E+00  0.22467894119E+03  0.22467894119E+03  0.00000000000E+00 0.  1.
          2   -1    0    0  501    0  0.00000000000E+00 -0.00000000000E+00 -0.13417924406E+04  0.13417924406E+04  0.00000000000E+00 0. -1.
         23    2    1    2    0    0  0.36120646630E+02 -0.42106443551E+02  0.26484946626E+02  0.11233017990E+03  0.94015760467E+02 0.  0.
        254    2    1    2    0    0 -0.36120646630E+02  0.42106443551E+02 -0.11435984460E+04  0.14541412019E+04  0.89645500476E+03 0.  0.
         23    2    4    4    0    0 -0.79109929495E+02  0.13995158702E+03  0.95133101448E+02  0.20764188841E+03  0.90664321406E+02 0.  0.
         23    2    4    4    0    0  0.42989282866E+02 -0.97845143473E+02 -0.12387315475E+04  0.12464993135E+04  0.88785929327E+02 0.  0.
          3    1    3    3  502    0 -0.14299141821E+02 -0.26961845785E+02 -0.24429468383E+02  0.39092269190E+02  0.00000000000E+00 0. -1.
         -3    1    3    3    0  502  0.50419788450E+02 -0.15144597766E+02  0.50914415009E+02  0.73237910706E+02  0.00000000000E+00 0.  1.
         11    1    5    5    0    0 -0.90885874750E+02  0.78878950196E+02  0.76951301237E+02  0.14284128876E+03  0.00000000000E+00 0.  1.
        -11    1    5    5    0    0  0.11775945255E+02  0.61072636828E+02  0.18181800211E+02  0.64800599647E+02  0.00000000000E+00 0. -1.
          1    1    6    6  503    0  0.43807366237E+02 -0.31423332377E+01 -0.35444070256E+03  0.35715146818E+03  0.00000000000E+00 0. -1.
         -1    1    6    6    0  503 -0.81808337133E+00 -0.94702810236E+02 -0.88429084491E+03  0.88934784529E+03  0.00000000000E+00 0.  1.
<mgrwt>
<rscale>  0 0.10981302E+04</rscale>
<asrwt>0</asrwt>
<pdfrwt beam="1">  1        2 0.20642960E+00 0.10981302E+04</pdfrwt>
<pdfrwt beam="2">  1       -2 0.34565992E-01 0.10981302E+04</pdfrwt>
<totfact> 0.12166832E+02</totfact>
</mgrwt>
</event>
<event>
12    2  0.3623523E-008  0.1186390E+04  0.7818608E-02  0.9124853E-01
          2   -1    0    0  501    0  0.00000000000E+00  0.00000000000E+00  0.83904343672E+03  0.83904343672E+03  0.00000000000E+00 0.  1.
         -2   -1    0    0    0  501 -0.00000000000E+00 -0.00000000000E+00 -0.41938301222E+03  0.41938301222E+03  0.00000000000E+00 0. -1.
         23    2    1    2    0    0  0.91728459780E+02  0.16517270938E+03 -0.67401777330E+02  0.22073672189E+03  0.92117134926E+02 0.  0.
        254    2    1    2    0    0 -0.91728459780E+02 -0.16517270938E+03  0.48706220183E+03  0.10376897271E+04  0.89659034510E+03 0.  0.
         23    2    4    4    0    0  0.21110016068E+03 -0.43311494203E+03  0.18235734196E+03  0.52307282486E+03  0.90549152898E+02 0.  0.
         23    2    4    4    0    0 -0.30282862046E+03  0.26794223265E+03  0.30470485987E+03  0.51461690219E+03  0.92126494483E+02 0.  0.
          4    1    3    3  502    0  0.60272961261E+02  0.15121866080E+03 -0.83262525365E+02  0.18284573105E+03  0.00000000000E+00 0. -1.
         -4    1    3    3    0  502  0.31455498519E+02  0.13954048584E+02  0.15860748035E+02  0.37890990845E+02  0.00000000000E+00 0.  1.
         11    1    5    5    0    0  0.18400693242E+03 -0.40639158317E+03  0.18890949386E+03  0.48445791037E+03  0.00000000000E+00 0. -1.
        -11    1    5    5    0    0  0.27093228267E+02 -0.26723358857E+02 -0.65521518989E+01  0.38614914489E+02  0.00000000000E+00 0.  1.
          1    1    6    6  503    0 -0.21588476376E+03  0.20231462934E+03  0.26930177758E+03  0.40007610261E+03  0.00000000000E+00 0. -1.
         -1    1    6    6    0  503 -0.86943856702E+02  0.65627603307E+02  0.35403082290E+02  0.11454079959E+03  0.00000000000E+00 0.  1.
<mgrwt>
<rscale>  0 0.11863904E+04</rscale>
<asrwt>0</asrwt>
<pdfrwt beam="1">  1        2 0.12908361E+00 0.11863904E+04</pdfrwt>
<pdfrwt beam="2">  1       -2 0.64520464E-01 0.11863904E+04</pdfrwt>
<totfact> 0.70796916E+01</totfact>
</mgrwt>
</event>
<event>
12    2  0.3623523E-008  0.1172113E+04  0.7818608E-02  0.9137622E-01
         -2   -1    0    0    0  501 -0.00000000000E+00  0.00000000000E+00  0.13067461663E+03  0.13067461663E+03  0.00000000000E+00 0.  1.
          2   -1    0    0  501    0  0.00000000000E+00 -0.00000000000E+00 -0.26283791116E+04  0.26283791116E+04  0.00000000000E+00 0. -1.
         23    2    1    2    0    0  0.18584164167E+03  0.18838565739E+02 -0.21036752258E+03  0.29466414508E+03  0.87638213708E+02 0.  0.
        254    2    1    2    0    0 -0.18584164167E+03 -0.18838565739E+02 -0.22873369724E+04  0.24643895832E+04  0.89800533678E+03 0.  0.
         23    2    4    4    0    0  0.33109297301E+03  0.59038260989E+02 -0.12681512384E+04  0.13149987818E+04  0.88916588941E+02 0.  0.
         23    2    4    4    0    0 -0.51693461469E+03 -0.77876826728E+02 -0.10191857340E+04  0.11493908013E+04  0.95254699133E+02 0.  0.
          4    1    3    3  502    0  0.49303980011E+02  0.26650779671E+02 -0.18452126068E+02  0.59005317205E+02  0.00000000000E+00 0.  1.
         -4    1    3    3    0  502  0.13653766166E+03 -0.78122139313E+01 -0.19191539651E+03  0.23565882788E+03  0.00000000000E+00 0. -1.
         11    1    5    5    0    0  0.30280314824E+03  0.54549022860E+02 -0.12261268672E+04  0.12641409878E+04  0.00000000000E+00 0.  1.
        -11    1    5    5    0    0  0.28289824775E+02  0.44892381285E+01 -0.42024371178E+02  0.50857794070E+02  0.00000000000E+00 0. -1.
          4    1    6    6  503    0 -0.15781155362E+03 -0.62514663764E+01 -0.39959556525E+03  0.42967450827E+03  0.00000000000E+00 0. -1.
         -4    1    6    6    0  503 -0.35912306107E+03 -0.71625360352E+02 -0.61959016878E+03  0.71971629306E+03  0.00000000000E+00 0.  1.
<mgrwt>
<rscale>  0 0.11721134E+04</rscale>
<asrwt>0</asrwt>
<pdfrwt beam="1">  1        2 0.40436600E+00 0.11721134E+04</pdfrwt>
<pdfrwt beam="2">  1       -2 0.20103788E-01 0.11721134E+04</pdfrwt>
<totfact> 0.61861645E+01</totfact>
</mgrwt>
</event>
<event>
12    2  0.3623523E-008  0.1121243E+04  0.7818608E-02  0.9184731E-01
         -2   -1    0    0    0  501 -0.00000000000E+00  0.00000000000E+00  0.68599302214E+02  0.68599302214E+02  0.00000000000E+00 0.  1.
          2   -1    0    0  501    0  0.00000000000E+00 -0.00000000000E+00 -0.45816286116E+04  0.45816286116E+04  0.00000000000E+00 0. -1.
         23    2    1    2    0    0  0.17051119555E+02  0.32436528827E+02 -0.15660921051E+04  0.15692636224E+04  0.92741392550E+02 0.  0.
        254    2    1    2    0    0 -0.17051119555E+02 -0.32436528827E+02 -0.29469372043E+04  0.30809642914E+04  0.89808641555E+03 0.  0.
         23    2    4    4    0    0  0.39263148793E+03  0.53954336887E+02 -0.87046063677E+03  0.96075779393E+03  0.91012431339E+02 0.  0.
         23    2    4    4    0    0 -0.40968260748E+03 -0.86390865713E+02 -0.20764765675E+04  0.21202064975E+04  0.90650073968E+02 0.  0.
          4    1    3    3  502    0  0.46544515229E+01  0.46721217948E+02 -0.14938173824E+04  0.14945550870E+04  0.00000000000E+00 0. -1.
         -4    1    3    3    0  502  0.12396668032E+02 -0.14284689122E+02 -0.72274722659E+02  0.74708535369E+02  0.00000000000E+00 0.  1.
         11    1    5    5    0    0  0.28311582029E+03  0.72256060742E+02 -0.57190206986E+03  0.64222074360E+03  0.00000000000E+00 0. -1.
        -11    1    5    5    0    0  0.10951566764E+03 -0.18301723855E+02 -0.29855856691E+03  0.31853705033E+03  0.00000000000E+00 0.  1.
          1    1    6    6  503    0 -0.29540500443E+03 -0.69024193153E+02 -0.16822301437E+04  0.17093644176E+04  0.00000000000E+00 0. -1.
         -1    1    6    6    0  503 -0.11427760305E+03 -0.17366672560E+02 -0.39424642383E+03  0.41084207986E+03  0.00000000000E+00 0.  1.
<mgrwt>
<rscale>  0 0.11212431E+04</rscale>
<asrwt>0</asrwt>
<pdfrwt beam="1">  1        2 0.70486589E+00 0.11212431E+04</pdfrwt>
<pdfrwt beam="2">  1       -2 0.10553740E-01 0.11212431E+04</pdfrwt>
<totfact> 0.68296601E+00</totfact>
</mgrwt>
</event>
<event>
12    2  0.3623523E-008  0.1928007E+04  0.7818608E-02  0.8641040E-01
          2   -1    0    0  501    0  0.00000000000E+00  0.00000000000E+00  0.18637223598E+04  0.18637223598E+04  0.00000000000E+00 0. -1.
         -2   -1    0    0    0  501 -0.00000000000E+00 -0.00000000000E+00 -0.49862711370E+03  0.49862711370E+03  0.00000000000E+00 0.  1.
         23    2    1    2    0    0  0.66503378275E+03 -0.28301856373E+03  0.31444650583E+03  0.79250684570E+03  0.82589683563E+02 0.  0.
        254    2    1    2    0    0 -0.66503378275E+03  0.28301856373E+03  0.10506487402E+04  0.15698426278E+04  0.91551824721E+03 0.  0.
         23    2    4    4    0    0 -0.84191237470E+03  0.79340645205E+02  0.93089457537E+03  0.12609456584E+04  0.91147453624E+02 0.  0.
         23    2    4    4    0    0  0.17687859195E+03  0.20367791853E+03  0.11975416485E+03  0.30889696936E+03  0.91134773273E+02 0.  0.
          2    1    3    3  502    0  0.23050256939E+03 -0.12560965388E+03  0.14755188247E+03  0.30113249187E+03  0.00000000000E+00 0. -1.
         -2    1    3    3    0  502  0.43453121337E+03 -0.15740890986E+03  0.16689462336E+03  0.49137435382E+03  0.00000000000E+00 0.  1.
         11    1    5    5    0    0 -0.25639123970E+03 -0.12569227006E+02  0.25171254756E+03  0.35951865023E+03  0.00000000000E+00 0.  1.
        -11    1    5    5    0    0 -0.58552113500E+03  0.91909872211E+02  0.67918202782E+03  0.90142700817E+03  0.00000000000E+00 0. -1.
          4    1    6    6  503    0  0.66522923628E+02  0.69753154164E+02  0.91830607518E+02  0.13313024585E+03  0.00000000000E+00 0.  1.
         -4    1    6    6    0  503  0.11035566832E+03  0.13392476436E+03  0.27923557328E+02  0.17576672351E+03  0.00000000000E+00 0. -1.
<mgrwt>
<rscale>  0 0.19280067E+04</rscale>
<asrwt>0</asrwt>
<pdfrwt beam="1">  1        2 0.28672651E+00 0.19280067E+04</pdfrwt>
<pdfrwt beam="2">  1       -2 0.76711865E-01 0.19280067E+04</pdfrwt>
<totfact> 0.11286157E+01</totfact>
</mgrwt>
</event>
<event>
12    2  0.3623523E-008  0.1792451E+04  0.7818608E-02  0.8710324E-01
          2   -1    0    0  501    0  0.00000000000E+00  0.00000000000E+00  0.22003313853E+04  0.22003313853E+04  0.00000000000E+00 0.  1.
         -2   -1    0    0    0  501 -0.00000000000E+00 -0.00000000000E+00 -0.36504499758E+03  0.36504499758E+03  0.00000000000E+00 0. -1.
         23    2    1    2    0    0  0.30747642406E+03  0.10150402509E+03  0.15246134479E+04  0.15613994628E+04  0.93152018264E+02 0.  0.
        254    2    1    2    0    0 -0.30747642406E+03 -0.10150402509E+03  0.31067293981E+03  0.10039769201E+04  0.89811311203E+03 0.  0.
         23    2    4    4    0    0  0.21315606752E+03  0.86166216096E+02 -0.13998718351E+03  0.28445449949E+03  0.91966433075E+02 0.  0.
         23    2    4    4    0    0 -0.52063249159E+03 -0.18767024118E+03  0.45066012333E+03  0.71952242056E+03  0.91321718194E+02 0.  0.
          3    1    3    3  502    0  0.20267953894E+02  0.37339251285E+02  0.20866608659E+03  0.21294728299E+03  0.00000000000E+00 0. -1.
         -3    1    3    3    0  502  0.28720847017E+03  0.64164773803E+02  0.13159473613E+04  0.13484521798E+04  0.00000000000E+00 0.  1.
         11    1    5    5    0    0  0.86637858013E+02  0.24496750274E+02 -0.61697652054E+01  0.90245638220E+02  0.00000000000E+00 0.  1.
        -11    1    5    5    0    0  0.12651820951E+03  0.61669465822E+02 -0.13381741831E+03  0.19420886127E+03  0.00000000000E+00 0. -1.
          4    1    6    6  503    0 -0.66852670347E+02  0.15517134414E+01  0.33763556175E+02  0.74911047735E+02  0.00000000000E+00 0.  1.
         -4    1    6    6    0  503 -0.45377982124E+03 -0.18922195462E+03  0.41689656715E+03  0.64461137283E+03  0.00000000000E+00 0. -1.
<mgrwt>
<rscale>  0 0.17924508E+04</rscale>
<asrwt>0</asrwt>
<pdfrwt beam="1">  1        2 0.33851251E+00 0.17924508E+04</pdfrwt>
<pdfrwt beam="2">  1       -2 0.56160770E-01 0.17924508E+04</pdfrwt>
<totfact> 0.14517108E+01</totfact>
</mgrwt>
</event>
<event>
12    2  0.3623523E-008  0.1533767E+04  0.7818608E-02  0.8862304E-01
          2   -1    0    0  501    0  0.00000000000E+00  0.00000000000E+00  0.80744799479E+03  0.80744799479E+03  0.00000000000E+00 0. -1.
         -2   -1    0    0    0  501 -0.00000000000E+00 -0.00000000000E+00 -0.72835706867E+03  0.72835706867E+03  0.00000000000E+00 0.  1.
         23    2    1    2    0    0 -0.19570822014E+03  0.14573405486E+01 -0.42996793628E+03  0.48130572803E+03  0.92081194241E+02 0.  0.
        254    2    1    2    0    0  0.19570822014E+03 -0.14573405486E+01  0.50905886240E+03  0.10544993354E+04  0.90250988457E+03 0.  0.
         23    2    4    4    0    0  0.48135307906E+03 -0.23421179994E+03  0.26666666477E+03  0.60447586033E+03  0.87886299716E+02 0.  0.
         23    2    4    4    0    0 -0.28564485891E+03  0.23275445939E+03  0.24239219763E+03  0.45002347510E+03  0.89440074218E+02 0.  0.
          3    1    3    3  502    0  0.25800108705E+01  0.13857601687E+02 -0.11962099189E+02  0.18487330733E+02  0.00000000000E+00 0. -1.
         -3    1    3    3    0  502 -0.19828823101E+03 -0.12400261139E+02 -0.41800583709E+03  0.46281839730E+03  0.00000000000E+00 0.  1.
         11    1    5    5    0    0  0.38358021203E+02  0.28648655499E+01  0.77289098581E+01  0.39233675494E+02  0.00000000000E+00 0.  1.
        -11    1    5    5    0    0  0.44299505785E+03 -0.23707666549E+03  0.25893775491E+03  0.56524218484E+03  0.00000000000E+00 0. -1.
          2    1    6    6  503    0 -0.96290305876E+02  0.13103588038E+03  0.12505192164E+03  0.20513460960E+03  0.00000000000E+00 0. -1.
         -2    1    6    6    0  503 -0.18935455304E+03  0.10171857901E+03  0.11734027600E+03  0.24488886549E+03  0.00000000000E+00 0.  1.
<mgrwt>
<rscale>  0 0.15337672E+04</rscale>
<asrwt>0</asrwt>
<pdfrwt beam="1">  1        2 0.12422277E+00 0.15337672E+04</pdfrwt>
<pdfrwt beam="2">  1       -2 0.11205493E+00 0.15337672E+04</pdfrwt>
<totfact> 0.20597682E+01</totfact>
</mgrwt>
</event>
<event>
12    2  0.3623523E-008  0.1464238E+04  0.7818608E-02  0.8908589E-01
          2   -1    0    0  501    0  0.00000000000E+00  0.00000000000E+00  0.78109288106E+03  0.78109288106E+03  0.00000000000E+00 0. -1.
         -2   -1    0    0    0  501 -0.00000000000E+00 -0.00000000000E+00 -0.68621576181E+03  0.68621576181E+03  0.00000000000E+00 0.  1.
         23    2    1    2    0    0  0.15158619337E+03  0.75788424189E+02 -0.39008646387E+03  0.43507513535E+03  0.91655140830E+02 0.  0.
        254    2    1    2    0    0 -0.15158619337E+03 -0.75788424189E+02  0.48496358312E+03  0.10322335075E+04  0.89531786413E+03 0.  0.
         23    2    4    4    0    0 -0.15386348376E+02 -0.46905543225E+02 -0.25428577198E+03  0.27445906100E+03  0.90717432911E+02 0.  0.
         23    2    4    4    0    0 -0.13619984499E+03 -0.28882880964E+02  0.73924935510E+03  0.75777444652E+03  0.91366756495E+02 0.  0.
          2    1    3    3  502    0  0.25356990761E+02  0.32482534385E+02 -0.29761873651E+02  0.50831694283E+02  0.00000000000E+00 0. -1.
         -2    1    3    3    0  502  0.12622920260E+03  0.43305889804E+02 -0.36032459022E+03  0.38424344106E+03  0.00000000000E+00 0.  1.
         11    1    5    5    0    0 -0.36372953816E+01 -0.72474097607E+02 -0.15298161469E+03  0.16931951800E+03  0.00000000000E+00 0. -1.
        -11    1    5    5    0    0 -0.11749052995E+02  0.25568554382E+02 -0.10130415729E+03  0.10513954300E+03  0.00000000000E+00 0.  1.
          1    1    6    6  503    0 -0.39744895308E+02  0.10209138100E+02  0.41975481573E+03  0.42175583995E+03  0.00000000000E+00 0. -1.
         -1    1    6    6    0  503 -0.96454949682E+02 -0.39092019063E+02  0.31949453937E+03  0.33601860657E+03  0.00000000000E+00 0.  1.
<mgrwt>
<rscale>  0 0.14642380E+04</rscale>
<asrwt>0</asrwt>
<pdfrwt beam="1">  1        2 0.12016813E+00 0.14642380E+04</pdfrwt>
<pdfrwt beam="2">  1       -2 0.10557166E+00 0.14642380E+04</pdfrwt>
<totfact> 0.24996165E+01</totfact>
</mgrwt>
</event>
<event>
12    2  0.3623523E-008  0.1133514E+04  0.7818608E-02  0.9173129E-01
         -2   -1    0    0    0  501 -0.00000000000E+00  0.00000000000E+00  0.52578014204E+03  0.52578014204E+03  0.00000000000E+00 0.  1.
          2   -1    0    0  501    0  0.00000000000E+00 -0.00000000000E+00 -0.61092708411E+03  0.61092708411E+03  0.00000000000E+00 0. -1.
         23    2    1    2    0    0 -0.16016899420E+03 -0.85855600959E+02 -0.79564859038E+02  0.21674956625E+03  0.87318478893E+02 0.  0.
        254    2    1    2    0    0  0.16016899420E+03  0.85855600959E+02 -0.55820830273E+01  0.91995765990E+03  0.90181242254E+03 0.  0.
         23    2    4    4    0    0  0.11863945377E+03  0.14682893376E+03 -0.43015187399E+03  0.47847968244E+03  0.90984152630E+02 0.  0.
         23    2    4    4    0    0  0.41529540436E+02 -0.60973332802E+02  0.42456979096E+03  0.44147797746E+03  0.95921046412E+02 0.  0.
          3    1    3    3  502    0 -0.12116616983E+03 -0.86799094879E+02 -0.92770396932E+02  0.17556101541E+03  0.00000000000E+00 0. -1.
         -3    1    3    3    0  502 -0.39002824369E+02  0.94349391945E+00  0.13205537893E+02  0.41188550844E+02  0.00000000000E+00 0.  1.
         11    1    5    5    0    0  0.79212873746E+02  0.27521529524E+02 -0.16752351651E+03  0.18733991176E+03  0.00000000000E+00 0.  1.
        -11    1    5    5    0    0  0.39426580020E+02  0.11930740424E+03 -0.26262835748E+03  0.29113977068E+03  0.00000000000E+00 0. -1.
          3    1    6    6  503    0  0.21205975518E+02  0.87946761939E+01  0.20041451675E+02  0.30474571568E+02  0.00000000000E+00 0. -1.
         -3    1    6    6    0  503  0.20323564918E+02 -0.69768008996E+02  0.40452833929E+03  0.41100340590E+03  0.00000000000E+00 0.  1.
<mgrwt>
<rscale>  0 0.11335137E+04</rscale>
<asrwt>0</asrwt>
<pdfrwt beam="1">  1        2 0.93988782E-01 0.11335137E+04</pdfrwt>
<pdfrwt beam="2">  1       -2 0.80889253E-01 0.11335137E+04</pdfrwt>
<totfact> 0.64860081E+01</totfact>
</mgrwt>
</event>
<event>
12    2  0.3623523E-008  0.1467175E+04  0.7818608E-02  0.8906579E-01
         -1   -1    0    0    0  501 -0.00000000000E+00  0.00000000000E+00  0.40283558166E+03  0.40283558166E+03  0.00000000000E+00 0.  1.
          1   -1    0    0  501    0  0.00000000000E+00 -0.00000000000E+00 -0.13359068113E+04  0.13359068113E+04  0.00000000000E+00 0. -1.
         23    2    1    2    0    0 -0.32530273190E+03  0.28569958115E+03 -0.30526243068E+03  0.53881249217E+03  0.98425769416E+02 0.  0.
        254    2    1    2    0    0  0.32530273190E+03 -0.28569958115E+03 -0.62780879892E+03  0.11999299007E+04  0.92641338540E+03 0.  0.
         23    2    4    4    0    0  0.23267792227E+03 -0.61778791354E+03 -0.43108299239E+03  0.79363194616E+03  0.90654277365E+02 0.  0.
         23    2    4    4    0    0  0.92624809632E+02  0.33208833239E+03 -0.19672580653E+03  0.40629795458E+03  0.86688921271E+02 0.  0.
          1    1    3    3  502    0 -0.21252710265E+03  0.17152723628E+03 -0.13435035444E+03  0.30436717938E+03  0.00000000000E+00 0. -1.
         -1    1    3    3    0  502 -0.11277562926E+03  0.11417234487E+03 -0.17091207623E+03  0.23444531279E+03  0.00000000000E+00 0.  1.
         11    1    5    5    0    0  0.25068369352E+00 -0.29883758116E+02 -0.41181522961E+02  0.50882410270E+02  0.00000000000E+00 0. -1.
        -11    1    5    5    0    0  0.23242723858E+03 -0.58790415543E+03 -0.38990146942E+03  0.74274953589E+03  0.00000000000E+00 0.  1.
          2    1    6    6  503    0  0.51857704200E+02  0.56401025488E+02 -0.47979852649E+02  0.90401125110E+02  0.00000000000E+00 0. -1.
         -2    1    6    6    0  503  0.40767105432E+02  0.27568730691E+03 -0.14874595389E+03  0.31589682947E+03  0.00000000000E+00 0.  1.
<mgrwt>
<rscale>  0 0.14671752E+04</rscale>
<asrwt>0</asrwt>
<pdfrwt beam="1">  1        1 0.20552412E+00 0.14671752E+04</pdfrwt>
<pdfrwt beam="2">  1       -1 0.61974706E-01 0.14671752E+04</pdfrwt>
<totfact> 0.21840766E+01</totfact>
</mgrwt>
</event>
<event>
12    2  0.3623523E-008  0.2045933E+04  0.7818608E-02  0.8585441E-01
         -4   -1    0    0    0  501 -0.00000000000E+00  0.00000000000E+00  0.85460970377E+03  0.85460970377E+03  0.00000000000E+00 0.  1.
          4   -1    0    0  501    0  0.00000000000E+00 -0.00000000000E+00 -0.12244898157E+04  0.12244898157E+04  0.00000000000E+00 0. -1.
         23    2    1    2    0    0  0.31661726754E+03  0.48973089361E+03 -0.74288702320E+03  0.94821183527E+03  0.84508656661E+02 0.  0.
        254    2    1    2    0    0 -0.31661726754E+03 -0.48973089361E+03  0.37300691130E+03  0.11308876842E+04  0.89425385439E+03 0.  0.
         23    2    4    4    0    0 -0.50243974114E+03 -0.44351255148E+03  0.53728268524E+03  0.86386292605E+03  0.91855290256E+02 0.  0.
         23    2    4    4    0    0  0.18582247360E+03 -0.46218342127E+02 -0.16427577394E+03  0.26702475813E+03  0.87461789962E+02 0.  0.
          2    1    3    3  502    0  0.10110106482E+03  0.19911908037E+03 -0.33927332637E+03  0.40617265228E+03  0.00000000000E+00 0. -1.
         -2    1    3    3    0  502  0.21551620271E+03  0.29061181323E+03 -0.40361369683E+03  0.54203918298E+03  0.00000000000E+00 0.  1.
         11    1    5    5    0    0 -0.45387276844E+03 -0.36720106359E+03  0.48766099176E+03  0.76069070845E+03  0.00000000000E+00 0.  1.
        -11    1    5    5    0    0 -0.48566972699E+02 -0.76311487891E+02  0.49621693478E+02  0.10317221760E+03  0.00000000000E+00 0. -1.
          2    1    6    6  503    0  0.18128416447E+03 -0.63925164139E+02 -0.14931130195E+03  0.24340139644E+03  0.00000000000E+00 0.  1.
         -2    1    6    6    0  503  0.45383091342E+01  0.17706822011E+02 -0.14964471989E+02  0.23623361688E+02  0.00000000000E+00 0. -1.
<mgrwt>
<rscale>  0 0.20459334E+04</rscale>
<asrwt>0</asrwt>
<pdfrwt beam="1">  1        4 0.18838305E+00 0.20459334E+04</pdfrwt>
<pdfrwt beam="2">  1       -4 0.13147842E+00 0.20459334E+04</pdfrwt>
<totfact> 0.12247378E-01</totfact>
</mgrwt>
</event>
<event>
12    2  0.3623523E-008  0.1711947E+04  0.7818608E-02  0.8754580E-01
         -1   -1    0    0    0  501 -0.00000000000E+00  0.00000000000E+00  0.38711356649E+03  0.38711356649E+03  0.00000000000E+00 0.  1.
          1   -1    0    0  501    0  0.00000000000E+00 -0.00000000000E+00 -0.18927027907E+04  0.18927027907E+04  0.00000000000E+00 0. -1.
         23    2    1    2    0    0 -0.28022075305E+03  0.40193982325E+03 -0.10478171621E+04  0.11601437323E+04  0.89069536512E+02 0.  0.
        254    2    1    2    0    0  0.28022075305E+03 -0.40193982325E+03 -0.45777206203E+03  0.11196726249E+04  0.89667844523E+03 0.  0.
         23    2    4    4    0    0  0.40143000607E+03 -0.43321615096E+03  0.39453805956E+02  0.59896138458E+03  0.91519692927E+02 0.  0.
         23    2    4    4    0    0 -0.12120925302E+03  0.31276327710E+02 -0.49722586799E+03  0.52071124028E+03  0.90756488822E+02 0.  0.
          4    1    3    3  502    0 -0.65258016289E+02  0.10382878813E+03 -0.35962430253E+03  0.37995876738E+03  0.00000000000E+00 0. -1.
         -4    1    3    3    0  502 -0.21496273676E+03  0.29811103512E+03 -0.68819285961E+03  0.78018496491E+03  0.00000000000E+00 0.  1.
         11    1    5    5    0    0  0.31202620001E+03 -0.28045927828E+03  0.44462867184E+02  0.42189418440E+03  0.00000000000E+00 0. -1.
        -11    1    5    5    0    0  0.89403806051E+02 -0.15275687268E+03 -0.50090612275E+01  0.17706720019E+03  0.00000000000E+00 0.  1.
          2    1    6    6  503    0 -0.34340622883E+02 -0.32162269610E+02 -0.15042917535E+03  0.15761543948E+03  0.00000000000E+00 0. -1.
         -2    1    6    6    0  503 -0.86868630134E+02  0.63438597320E+02 -0.34679669264E+03  0.36309580080E+03  0.00000000000E+00 0.  1.
<mgrwt>
<rscale>  0 0.17119473E+04</rscale>
<asrwt>0</asrwt>
<pdfrwt beam="1">  1        1 0.29118504E+00 0.17119473E+04</pdfrwt>
<pdfrwt beam="2">  1       -1 0.59555933E-01 0.17119473E+04</pdfrwt>
<totfact> 0.95768572E+00</totfact>
</mgrwt>
</event>
<event>
12    2  0.3623523E-008  0.1490685E+04  0.7818608E-02  0.8890671E-01
          2   -1    0    0  501    0  0.00000000000E+00  0.00000000000E+00  0.16924832949E+04  0.16924832949E+04  0.00000000000E+00 0. -1.
         -2   -1    0    0    0  501 -0.00000000000E+00 -0.00000000000E+00 -0.32823687554E+03  0.32823687554E+03  0.00000000000E+00 0.  1.
         23    2    1    2    0    0  0.20491727596E+03 -0.20394717595E+03  0.91538318608E+03  0.96382368954E+03  0.86279699788E+02 0.  0.
        254    2    1    2    0    0 -0.20491727596E+03  0.20394717595E+03  0.44886323326E+03  0.10568964809E+04  0.91212193733E+03 0.  0.
         23    2    4    4    0    0 -0.34059245556E+01  0.37469720296E+03  0.62057873543E+03  0.73112460821E+03  0.94950679993E+02 0.  0.
         23    2    4    4    0    0 -0.20151135141E+03 -0.17075002701E+03 -0.17171550217E+03  0.32577187267E+03  0.82937945868E+02 0.  0.
          3    1    3    3  502    0  0.12774787066E+03 -0.66748458194E+02  0.45344249262E+03  0.47579929513E+03  0.00000000000E+00 0. -1.
         -3    1    3    3    0  502  0.77169405302E+02 -0.13719871776E+03  0.46194069346E+03  0.48802439442E+03  0.00000000000E+00 0.  1.
         11    1    5    5    0    0  0.30259881427E+02  0.14438353854E+03  0.17899612856E+03  0.23195232412E+03  0.00000000000E+00 0. -1.
        -11    1    5    5    0    0 -0.33665805983E+02  0.23031366442E+03  0.44158260687E+03  0.49917228409E+03  0.00000000000E+00 0.  1.
          3    1    6    6  503    0 -0.66166132553E+02 -0.12964505320E+02 -0.57303528736E+02  0.88485761006E+02  0.00000000000E+00 0. -1.
         -3    1    6    6    0  503 -0.13534521885E+03 -0.15778552169E+03 -0.11441197344E+03  0.23728611166E+03  0.00000000000E+00 0.  1.
<mgrwt>
<rscale>  0 0.14906850E+04</rscale>
<asrwt>0</asrwt>
<pdfrwt beam="1">  1        2 0.26038204E+00 0.14906850E+04</pdfrwt>
<pdfrwt beam="2">  1       -2 0.50497982E-01 0.14906850E+04</pdfrwt>
<totfact> 0.35498063E+01</totfact>
</mgrwt>
</event>
<event>
12    2  0.3623523E-008  0.1549169E+04  0.7818608E-02  0.8852399E-01
         -2   -1    0    0    0  501 -0.00000000000E+00  0.00000000000E+00  0.26878286323E+03  0.26878286323E+03  0.00000000000E+00 0.  1.
          2   -1    0    0  501    0  0.00000000000E+00 -0.00000000000E+00 -0.22322136573E+04  0.22322136573E+04  0.00000000000E+00 0. -1.
         23    2    1    2    0    0 -0.11821250500E+03  0.10516060419E+03  0.12195337328E+03  0.22222857158E+03  0.97365105464E+02 0.  0.
        254    2    1    2    0    0  0.11821250500E+03 -0.10516060419E+03 -0.20853841673E+04  0.22787679489E+04  0.90494380529E+03 0.  0.
         23    2    4    4    0    0  0.14016363673E+03 -0.49119984252E+03 -0.12329658896E+04  0.13379648169E+04  0.94983345915E+02 0.  0.
         23    2    4    4    0    0 -0.21951131738E+02  0.38603923833E+03 -0.85241827773E+03  0.94080313203E+03  0.94791704897E+02 0.  0.
          1    1    3    3  502    0  0.96450348924E+01  0.39096229313E+01  0.36800884462E+02  0.38244175331E+02  0.00000000000E+00 0. -1.
         -1    1    3    3    0  502 -0.12785753989E+03  0.10125098125E+03  0.85152488814E+02  0.18398439625E+03  0.00000000000E+00 0.  1.
         11    1    5    5    0    0  0.10218553818E+03 -0.22796443478E+03 -0.51693638663E+03  0.57413665234E+03  0.00000000000E+00 0. -1.
        -11    1    5    5    0    0  0.37978098553E+02 -0.26323540774E+03 -0.71602950298E+03  0.76382816457E+03  0.00000000000E+00 0.  1.
          3    1    6    6  503    0 -0.86059238901E+01  0.41065271164E+02 -0.18133522637E+03  0.18612598622E+03  0.00000000000E+00 0. -1.
         -3    1    6    6    0  503 -0.13345207848E+02  0.34497396717E+03 -0.67108305136E+03  0.75467714581E+03  0.00000000000E+00 0.  1.
<mgrwt>
<rscale>  0 0.15491685E+04</rscale>
<asrwt>0</asrwt>
<pdfrwt beam="1">  1        2 0.34341749E+00 0.15491685E+04</pdfrwt>
<pdfrwt beam="2">  1       -2 0.41351210E-01 0.15491685E+04</pdfrwt>
<totfact> 0.26439699E+01</totfact>
</mgrwt>
</event>
<event>
12    2  0.3623523E-008  0.2140986E+04  0.7818608E-02  0.8543401E-01
          2   -1    0    0  501    0  0.00000000000E+00  0.00000000000E+00  0.38161828204E+04  0.38161828204E+04  0.00000000000E+00 0. -1.
         -2   -1    0    0    0  501 -0.00000000000E+00 -0.00000000000E+00 -0.30028826756E+03  0.30028826756E+03  0.00000000000E+00 0.  1.
         23    2    1    2    0    0 -0.14115170488E+03  0.43299328039E+03  0.28852279552E+04  0.29223437694E+04  0.90253908388E+02 0.  0.
        254    2    1    2    0    0  0.14115170488E+03 -0.43299328039E+03  0.63066659755E+03  0.11941273186E+04  0.90597610951E+03 0.  0.
         23    2    4    4    0    0 -0.23957232207E+03 -0.13829347024E+03 -0.10634223907E+03  0.30870469144E+03  0.86428775850E+02 0.  0.
         23    2    4    4    0    0  0.38072402695E+03 -0.29469981016E+03  0.73700883662E+03  0.88542262711E+03  0.94828479627E+02 0.  0.
          3    1    3    3  502    0 -0.11523273447E+03  0.21538623609E+03  0.16091778515E+04  0.16276127216E+04  0.00000000000E+00 0. -1.
         -3    1    3    3    0  502 -0.25918970402E+02  0.21760704431E+03  0.12760501037E+04  0.12947310477E+04  0.00000000000E+00 0.  1.
         11    1    5    5    0    0 -0.91257785583E+02 -0.80541646081E+01 -0.44597205244E+02  0.10189094029E+03  0.00000000000E+00 0. -1.
        -11    1    5    5    0    0 -0.14831453649E+03 -0.13023930563E+03 -0.61745033822E+02  0.20681375115E+03  0.00000000000E+00 0.  1.
          3    1    6    6  503    0  0.45439010048E+02 -0.77683141622E+02  0.16195583024E+03  0.18528104349E+03  0.00000000000E+00 0. -1.
         -3    1    6    6    0  503  0.33528501690E+03 -0.21701666854E+03  0.57505300638E+03  0.70014158363E+03  0.00000000000E+00 0.  1.
<mgrwt>
<rscale>  0 0.21409857E+04</rscale>
<asrwt>0</asrwt>
<pdfrwt beam="1">  1        2 0.58710502E+00 0.21409857E+04</pdfrwt>
<pdfrwt beam="2">  1       -2 0.46198198E-01 0.21409857E+04</pdfrwt>
<totfact> 0.19604104E+00</totfact>
</mgrwt>
</event>
<event>
12    2  0.3623523E-008  0.1484842E+04  0.7818608E-02  0.8894596E-01
          2   -1    0    0  501    0  0.00000000000E+00  0.00000000000E+00  0.70592107608E+03  0.70592107608E+03  0.00000000000E+00 0. -1.
         -2   -1    0    0    0  501 -0.00000000000E+00 -0.00000000000E+00 -0.78080789235E+03  0.78080789235E+03  0.00000000000E+00 0.  1.
         23    2    1    2    0    0  0.58207757256E+00 -0.44204348240E+03  0.11520273854E+03  0.46586023623E+03  0.91385499842E+02 0.  0.
        254    2    1    2    0    0 -0.58207757256E+00  0.44204348240E+03 -0.19008955481E+03  0.10208687322E+04  0.90035334752E+03 0.  0.
         23    2    4    4    0    0 -0.39988209020E+03  0.42798016483E+03 -0.97210043113E+02  0.60082709056E+03  0.92036366229E+02 0.  0.
         23    2    4    4    0    0  0.39930001263E+03  0.14063317568E+02 -0.92879511700E+02  0.42004164164E+03  0.90388605653E+02 0.  0.
          2    1    3    3  502    0  0.31365606638E+02 -0.31837617805E+03  0.11004412630E+03  0.33831479684E+03  0.00000000000E+00 0. -1.
         -2    1    3    3    0  502 -0.30783529065E+02 -0.12366730435E+03  0.51586122395E+01  0.12754543938E+03  0.00000000000E+00 0.  1.
         11    1    5    5    0    0 -0.13478032350E+03  0.15746081933E+03 -0.78401354980E+02  0.22159967890E+03  0.00000000000E+00 0.  1.
        -11    1    5    5    0    0 -0.26510176671E+03  0.27051934550E+03 -0.18808688133E+02  0.37922741166E+03  0.00000000000E+00 0. -1.
          1    1    6    6  503    0  0.27063160706E+03  0.46251900946E+02 -0.83970058937E+02  0.28710917067E+03  0.00000000000E+00 0. -1.
         -1    1    6    6    0  503  0.12866840557E+03 -0.32188583379E+02 -0.89094527627E+01  0.13293247098E+03  0.00000000000E+00 0.  1.
<mgrwt>
<rscale>  0 0.14848417E+04</rscale>
<asrwt>0</asrwt>
<pdfrwt beam="1">  1        2 0.10860324E+00 0.14848417E+04</pdfrwt>
<pdfrwt beam="2">  1       -2 0.12012429E+00 0.14848417E+04</pdfrwt>
<totfact> 0.20764766E+01</totfact>
</mgrwt>
</event>
<event>
12    2  0.3623523E-008  0.3993982E+04  0.7818608E-02  0.8005762E-01
         -2   -1    0    0    0  501 -0.00000000000E+00  0.00000000000E+00  0.15773198477E+04  0.15773198477E+04  0.00000000000E+00 0.  1.
          2   -1    0    0  501    0  0.00000000000E+00 -0.00000000000E+00 -0.25283226271E+04  0.25283226271E+04  0.00000000000E+00 0. -1.
         23    2    1    2    0    0  0.84892094346E+03  0.91766579915E+03  0.10136760362E+04  0.16119893818E+04  0.90517255847E+02 0.  0.
        254    2    1    2    0    0 -0.84892094346E+03 -0.91766579915E+03 -0.19646788156E+04  0.24936530929E+04  0.89194484814E+03 0.  0.
         23    2    4    4    0    0 -0.10243263005E+04 -0.79595862559E+03 -0.17327792338E+04  0.21664225595E+04  0.89823880076E+02 0.  0.
         23    2    4    4    0    0  0.17540535699E+03 -0.12170717356E+03 -0.23189958178E+03  0.32723053347E+03  0.87879068305E+02 0.  0.
          3    1    3    3  502    0  0.17535840379E+03  0.18044434349E+03  0.15948921825E+03  0.29790525610E+03  0.00000000000E+00 0. -1.
         -3    1    3    3    0  502  0.67356253966E+03  0.73722145567E+03  0.85418681796E+03  0.13140841257E+04  0.00000000000E+00 0.  1.
         11    1    5    5    0    0 -0.89035556072E+03 -0.65113905080E+03 -0.14698500510E+04  0.18377089705E+04  0.00000000000E+00 0. -1.
        -11    1    5    5    0    0 -0.13397073973E+03 -0.14481957479E+03 -0.26292918288E+03  0.32871358895E+03  0.00000000000E+00 0.  1.
          3    1    6    6  503    0  0.16256830808E+03 -0.12692556270E+03 -0.23536555064E+03  0.31294647416E+03  0.00000000000E+00 0. -1.
         -3    1    6    6    0  503  0.12837048915E+02  0.52183891449E+01  0.34659688650E+01  0.14284059307E+02  0.00000000000E+00 0.  1.
<mgrwt>
<rscale>  0 0.39939822E+04</rscale>
<asrwt>0</asrwt>
<pdfrwt beam="1">  1        2 0.38897271E+00 0.39939822E+04</pdfrwt>
<pdfrwt beam="2">  1       -2 0.24266459E+00 0.39939822E+04</pdfrwt>
<totfact> 0.18865164E-01</totfact>
</mgrwt>
</event>
<event>
12    2  0.3623523E-008  0.2336340E+04  0.7818608E-02  0.8463729E-01
         -2   -1    0    0    0  501 -0.00000000000E+00  0.00000000000E+00  0.11750066767E+04  0.11750066767E+04  0.00000000000E+00 0. -1.
          2   -1    0    0  501    0  0.00000000000E+00 -0.00000000000E+00 -0.11613726914E+04  0.11613726914E+04  0.00000000000E+00 0.  1.
         23    2    1    2    0    0 -0.16365097973E+03  0.81136808288E+03 -0.54691673421E+03  0.99620299775E+03  0.90568700303E+02 0.  0.
        254    2    1    2    0    0  0.16365097973E+03 -0.81136808288E+03  0.56055071956E+03  0.13401763703E+04  0.89261177748E+03 0.  0.
         23    2    4    4    0    0  0.26383958075E+03 -0.96537298677E+03  0.40478249550E+03  0.10832201967E+04  0.89223303725E+02 0.  0.
         23    2    4    4    0    0 -0.10018860102E+03  0.15400490389E+03  0.15576822405E+03  0.25695617362E+03  0.89484464232E+02 0.  0.
          1    1    3    3  502    0 -0.45853870721E+02  0.83387220012E+02 -0.65432577066E+02  0.11548778318E+03  0.00000000000E+00 0. -1.
         -1    1    3    3    0  502 -0.11779710901E+03  0.72798086287E+03 -0.48148415714E+03  0.88071521457E+03  0.00000000000E+00 0.  1.
         11    1    5    5    0    0 -0.52204752145E+01 -0.55858296640E+02  0.27212627787E+02  0.62353265962E+02  0.00000000000E+00 0. -1.
        -11    1    5    5    0    0  0.26906005596E+03 -0.90951469013E+03  0.37756986772E+03  0.10208669307E+04  0.00000000000E+00 0.  1.
          1    1    6    6  503    0  0.12035942210E+02  0.10200109736E+00  0.18898695280E+02  0.22406137383E+02  0.00000000000E+00 0. -1.
         -1    1    6    6    0  503 -0.11222454323E+03  0.15390290280E+03  0.13686952877E+03  0.23455003624E+03  0.00000000000E+00 0.  1.
<mgrwt>
<rscale>  0 0.23363396E+04</rscale>
<asrwt>0</asrwt>
<pdfrwt beam="1">  1        2 0.17867272E+00 0.23363396E+04</pdfrwt>
<pdfrwt beam="2">  1       -2 0.18077026E+00 0.23363396E+04</pdfrwt>
<totfact> 0.32352900E+00</totfact>
</mgrwt>
</event>
<event>
12    2  0.3623523E-008  0.1985941E+04  0.7818608E-02  0.8613222E-01
         -1   -1    0    0    0  501 -0.00000000000E+00  0.00000000000E+00  0.62299608274E+03  0.62299608274E+03  0.00000000000E+00 0.  1.
          1   -1    0    0  501    0  0.00000000000E+00 -0.00000000000E+00 -0.15826597500E+04  0.15826597500E+04  0.00000000000E+00 0. -1.
         23    2    1    2    0    0 -0.69166540443E+03  0.19715612098E+01  0.27811870375E+02  0.69846061711E+03  0.93106470163E+02 0.  0.
        254    2    1    2    0    0  0.69166540443E+03 -0.19715612098E+01 -0.98747553763E+03  0.15071952156E+04  0.90450238355E+03 0.  0.
         23    2    4    4    0    0  0.20679347325E+03  0.14790903476E+03 -0.95285932828E+03  0.99051541911E+03  0.92408186057E+02 0.  0.
         23    2    4    4    0    0  0.48487193118E+03 -0.14988059597E+03 -0.34616209346E+02  0.51667979651E+03  0.90524844578E+02 0.  0.
          4    1    3    3  502    0 -0.31710493795E+02 -0.21537428166E+01  0.21663299098E+02  0.38464172325E+02  0.00000000000E+00 0.  1.
         -4    1    3    3    0  502 -0.65995491064E+03  0.41253040263E+01  0.61485712768E+01  0.65999644479E+03  0.00000000000E+00 0. -1.
         11    1    5    5    0    0  0.51693944422E+02  0.90536175529E+02 -0.40829992142E+03  0.42139991552E+03  0.00000000000E+00 0. -1.
        -11    1    5    5    0    0  0.15509952883E+03  0.57372859233E+02 -0.54455940687E+03  0.56911550359E+03  0.00000000000E+00 0.  1.
          4    1    6    6  503    0  0.43419221464E+03 -0.13360748638E+03 -0.59060603752E+02  0.45810696850E+03  0.00000000000E+00 0. -1.
         -4    1    6    6    0  503  0.50679716532E+02 -0.16273109588E+02  0.24444394406E+02  0.58572828012E+02  0.00000000000E+00 0.  1.
<mgrwt>
<rscale>  0 0.19859414E+04</rscale>
<asrwt>0</asrwt>
<pdfrwt beam="1">  1        1 0.24348611E+00 0.19859414E+04</pdfrwt>
<pdfrwt beam="2">  1       -1 0.95845552E-01 0.19859414E+04</pdfrwt>
<totfact> 0.55907790E+00</totfact>
</mgrwt>
</event>
<event>
12    2  0.3623523E-008  0.1479449E+04  0.7818608E-02  0.8898236E-01
          2   -1    0    0  501    0  0.00000000000E+00  0.00000000000E+00  0.61156658331E+03  0.61156658331E+03  0.00000000000E+00 0. -1.
         -2   -1    0    0    0  501 -0.00000000000E+00 -0.00000000000E+00 -0.89473829512E+03  0.89473829512E+03  0.00000000000E+00 0.  1.
         23    2    1    2    0    0 -0.10974958504E+03  0.17755200702E+03 -0.48923131286E+03  0.53931750162E+03  0.89142601821E+02 0.  0.
        254    2    1    2    0    0  0.10974958504E+03 -0.17755200702E+03  0.20605960105E+03  0.96698737682E+03  0.92143059485E+03 0.  0.
         23    2    4    4    0    0 -0.32163782761E+02 -0.52982163784E+03  0.20579325203E+03  0.57668824863E+03  0.92048881980E+02 0.  0.
         23    2    4    4    0    0  0.14191336780E+03  0.35226963082E+03  0.26634901609E+00  0.39029912819E+03  0.90000232024E+02 0.  0.
          4    1    3    3  502    0 -0.82756630007E+02  0.16994298863E+03 -0.35499061015E+03  0.40217858284E+03  0.00000000000E+00 0. -1.
         -4    1    3    3    0  502 -0.26992955029E+02  0.76090183852E+01 -0.13424070270E+03  0.13713891878E+03  0.00000000000E+00 0.  1.
         11    1    5    5    0    0  0.12453659488E+02 -0.10055836484E+03  0.71124490080E+01  0.10157590907E+03  0.00000000000E+00 0. -1.
        -11    1    5    5    0    0 -0.44617442250E+02 -0.42926327301E+03  0.19868080303E+03  0.47511233955E+03  0.00000000000E+00 0.  1.
          1    1    6    6  503    0  0.15452206525E+01  0.76647238920E+02 -0.23218384196E+02  0.80101687283E+02  0.00000000000E+00 0. -1.
         -1    1    6    6    0  503  0.14036814715E+03  0.27562239190E+03  0.23484733212E+02  0.31019744091E+03  0.00000000000E+00 0.  1.
<mgrwt>
<rscale>  0 0.14794486E+04</rscale>
<asrwt>0</asrwt>
<pdfrwt beam="1">  1        2 0.94087167E-01 0.14794486E+04</pdfrwt>
<pdfrwt beam="2">  1       -2 0.13765205E+00 0.14794486E+04</pdfrwt>
<totfact> 0.17587941E+01</totfact>
</mgrwt>
</event>
<event>
12    2  0.3623523E-008  0.2439294E+04  0.7818608E-02  0.8424937E-01
          2   -1    0    0  501    0  0.00000000000E+00  0.00000000000E+00  0.14691028640E+04  0.14691028640E+04  0.00000000000E+00 0. -1.
         -2   -1    0    0    0  501 -0.00000000000E+00 -0.00000000000E+00 -0.10125494215E+04  0.10125494215E+04  0.00000000000E+00 0.  1.
         23    2    1    2    0    0 -0.10070607229E+04  0.21811484496E+03 -0.18392701158E+02  0.10347053422E+04  0.92365948255E+02 0.  0.
        254    2    1    2    0    0  0.10070607229E+04 -0.21811484496E+03  0.47494614372E+03  0.14469469434E+04  0.89796226655E+03 0.  0.
         23    2    4    4    0    0  0.23693637830E+03 -0.13066018948E+03 -0.25167739188E+03  0.38075842347E+03  0.91785265628E+02 0.  0.
         23    2    4    4    0    0  0.77012434464E+03 -0.87454655485E+02  0.72662353559E+03  0.10661885199E+04  0.89645827926E+02 0.  0.
          2    1    3    3  502    0 -0.59851410537E+03  0.10354495048E+03 -0.48454847700E+02  0.60933452501E+03  0.00000000000E+00 0. -1.
         -2    1    3    3    0  502 -0.40854661757E+03  0.11456989448E+03  0.30062146542E+02  0.42537081718E+03  0.00000000000E+00 0.  1.
         11    1    5    5    0    0  0.11840565415E+03 -0.11626788288E+03 -0.15589071296E+03  0.22768406600E+03  0.00000000000E+00 0. -1.
        -11    1    5    5    0    0  0.11853072416E+03 -0.14392306600E+02 -0.95786678916E+02  0.15307435747E+03  0.00000000000E+00 0.  1.
          1    1    6    6  503    0  0.63620860081E+03 -0.38443696245E+02  0.60444809483E+03  0.87840582925E+03  0.00000000000E+00 0. -1.
         -1    1    6    6    0  503  0.13391574383E+03 -0.49010959241E+02  0.12217544076E+03  0.18778269062E+03  0.00000000000E+00 0.  1.
<mgrwt>
<rscale>  0 0.24392944E+04</rscale>
<asrwt>0</asrwt>
<pdfrwt beam="1">  1        2 0.22601583E+00 0.24392944E+04</pdfrwt>
<pdfrwt beam="2">  1       -2 0.15577683E+00 0.24392944E+04</pdfrwt>
<totfact> 0.32089295E+00</totfact>
</mgrwt>
</event>
<event>
12    2  0.3623523E-008  0.1320145E+04  0.7818608E-02  0.9013741E-01
         -1   -1    0    0    0  501 -0.00000000000E+00  0.00000000000E+00  0.32737663397E+03  0.32737663397E+03  0.00000000000E+00 0.  1.
          1   -1    0    0  501    0  0.00000000000E+00 -0.00000000000E+00 -0.13308689906E+04  0.13308689906E+04  0.00000000000E+00 0. -1.
         23    2    1    2    0    0  0.27588930532E+02 -0.32270194684E+03 -0.35748419767E+03  0.49094586700E+03  0.91297300951E+02 0.  0.
        254    2    1    2    0    0 -0.27588930532E+02  0.32270194684E+03 -0.64600815891E+03  0.11672997575E+04  0.91671396136E+03 0.  0.
         23    2    4    4    0    0 -0.24694375509E+03  0.18063185970E+03  0.12904913085E+03  0.34437285016E+03  0.91268257546E+02 0.  0.
         23    2    4    4    0    0  0.21935482456E+03  0.14207008714E+03 -0.77505728976E+03  0.82292690737E+03  0.90523166855E+02 0.  0.
          3    1    3    3  502    0  0.86678306722E+01 -0.27317278807E+03 -0.33749524914E+03  0.43428279568E+03  0.00000000000E+00 0. -1.
         -3    1    3    3    0  502  0.18921099860E+02 -0.49529158769E+02 -0.19988948526E+02  0.56663071320E+02  0.00000000000E+00 0.  1.
         11    1    5    5    0    0 -0.19576088221E+03  0.18308885467E+03  0.10833385082E+03  0.28910218772E+03  0.00000000000E+00 0.  1.
        -11    1    5    5    0    0 -0.51182872878E+02 -0.24569949642E+01  0.20715280029E+02  0.55270662443E+02  0.00000000000E+00 0. -1.
          1    1    6    6  503    0  0.14293859632E+03  0.96133023636E+02 -0.36944262357E+03  0.40762832662E+03  0.00000000000E+00 0. -1.
         -1    1    6    6    0  503  0.76416228241E+02  0.45937063501E+02 -0.40561466619E+03  0.41529858075E+03  0.00000000000E+00 0.  1.
<mgrwt>
<rscale>  0 0.13201446E+04</rscale>
<asrwt>0</asrwt>
<pdfrwt beam="1">  1        1 0.20474908E+00 0.13201446E+04</pdfrwt>
<pdfrwt beam="2">  1       -1 0.50365636E-01 0.13201446E+04</pdfrwt>
<totfact> 0.33384698E+01</totfact>
</mgrwt>
</event>
<event>
12    2  0.3623523E-008  0.1411639E+04  0.7818608E-02  0.8945436E-01
         -2   -1    0    0    0  501 -0.00000000000E+00  0.00000000000E+00  0.54396966854E+03  0.54396966854E+03  0.00000000000E+00 0.  1.
          2   -1    0    0  501    0  0.00000000000E+00 -0.00000000000E+00 -0.91582531475E+03  0.91582531475E+03  0.00000000000E+00 0. -1.
         23    2    1    2    0    0 -0.50616159465E+02  0.31352480356E+02  0.31124454547E+03  0.33089586856E+03  0.95257205091E+02 0.  0.
        254    2    1    2    0    0  0.50616159465E+02 -0.31352480356E+02 -0.68310019167E+03  0.11288991147E+04  0.89679560980E+03 0.  0.
         23    2    4    4    0    0  0.19404357311E+03 -0.41213801589E+03 -0.24407239050E+03  0.52449035176E+03  0.89488238804E+02 0.  0.
         23    2    4    4    0    0 -0.14342741364E+03  0.38078553553E+03 -0.43902780118E+03  0.60440876297E+03  0.83639078776E+02 0.  0.
          2    1    3    3  502    0 -0.44832509686E+02  0.41063667748E+02  0.85734446764E+02  0.10510268358E+03  0.00000000000E+00 0. -1.
         -2    1    3    3    0  502 -0.57836497785E+01 -0.97111873921E+01  0.22551009870E+03  0.22579318498E+03  0.00000000000E+00 0.  1.
         11    1    5    5    0    0  0.51135343077E+02 -0.57035661197E+02 -0.70835491134E+02  0.10433387160E+03  0.00000000000E+00 0.  1.
        -11    1    5    5    0    0  0.14290823003E+03 -0.35510235469E+03 -0.17323689936E+03  0.42015648016E+03  0.00000000000E+00 0. -1.
          4    1    6    6  503    0 -0.78435088350E+02  0.30799190207E+03 -0.33531298025E+03  0.46200202332E+03  0.00000000000E+00 0. -1.
         -4    1    6    6    0  503 -0.64992325294E+02  0.72793633462E+02 -0.10371482093E+03  0.14240673966E+03  0.00000000000E+00 0.  1.
<mgrwt>
<rscale>  0 0.14116390E+04</rscale>
<asrwt>0</asrwt>
<pdfrwt beam="1">  1        2 0.14089620E+00 0.14116390E+04</pdfrwt>
<pdfrwt beam="2">  1       -2 0.83687642E-01 0.14116390E+04</pdfrwt>
<totfact> 0.34742435E+01</totfact>
</mgrwt>
</event>
<event>
12    2  0.3623523E-008  0.1732961E+04  0.7818608E-02  0.8742786E-01
         -1   -1    0    0    0  501 -0.00000000000E+00  0.00000000000E+00  0.28633919363E+03  0.28633919363E+03  0.00000000000E+00 0.  1.
          1   -1    0    0  501    0  0.00000000000E+00 -0.00000000000E+00 -0.26220253050E+04  0.26220253050E+04  0.00000000000E+00 0. -1.
         23    2    1    2    0    0  0.97145470083E+02  0.18957612433E+03 -0.18237820408E+04  0.18384022403E+04  0.90363240926E+02 0.  0.
        254    2    1    2    0    0 -0.97145470083E+02 -0.18957612433E+03 -0.51190407051E+03  0.10699622583E+04  0.91509404303E+03 0.  0.
         23    2    4    4    0    0 -0.58203817482E+02  0.36108480150E+03 -0.24994827825E+03  0.45266148238E+03  0.93050295982E+02 0.  0.
         23    2    4    4    0    0 -0.38941652601E+02 -0.55066092583E+03 -0.26195579227E+03  0.61730077596E+03  0.87724018157E+02 0.  0.
          1    1    3    3  502    0  0.91958548812E+02  0.19540691097E+03 -0.18073944180E+04  0.18202513062E+04  0.00000000000E+00 0. -1.
         -1    1    3    3    0  502  0.51869212708E+01 -0.58307866461E+01 -0.16387622835E+02  0.18150934063E+02  0.00000000000E+00 0.  1.
         11    1    5    5    0    0 -0.65559361982E+02  0.29024826361E+03 -0.15973054209E+03  0.33772167616E+03  0.00000000000E+00 0. -1.
        -11    1    5    5    0    0  0.73555445002E+01  0.70836537891E+02 -0.90217736156E+02  0.11493980621E+03  0.00000000000E+00 0.  1.
          3    1    6    6  503    0  0.27027787996E+02 -0.11142937289E+03 -0.59455941656E+02  0.12915887684E+03  0.00000000000E+00 0. -1.
         -3    1    6    6    0  503 -0.65969440597E+02 -0.43923155294E+03 -0.20249985061E+03  0.48814189913E+03  0.00000000000E+00 0.  1.
<mgrwt>
<rscale>  0 0.17329612E+04</rscale>
<asrwt>0</asrwt>
<pdfrwt beam="1">  1        1 0.40338851E+00 0.17329612E+04</pdfrwt>
<pdfrwt beam="2">  1       -1 0.44052184E-01 0.17329612E+04</pdfrwt>
<totfact> 0.53950881E+00</totfact>
</mgrwt>
</event>
<event>
12    2  0.3623523E-008  0.1543284E+04  0.7818608E-02  0.8856169E-01
         -1   -1    0    0    0  501 -0.00000000000E+00  0.00000000000E+00  0.48557933543E+03  0.48557933543E+03  0.00000000000E+00 0.  1.
          1   -1    0    0  501    0  0.00000000000E+00 -0.00000000000E+00 -0.12262287927E+04  0.12262287927E+04  0.00000000000E+00 0. -1.
         23    2    1    2    0    0  0.59294280695E+02  0.46604156303E+03 -0.45013237435E+03  0.65703307599E+03  0.91448118145E+02 0.  0.
        254    2    1    2    0    0 -0.59294280695E+02 -0.46604156303E+03 -0.29051708291E+03  0.10547750521E+04  0.89857647696E+03 0.  0.
         23    2    4    4    0    0 -0.65009204101E+02 -0.19380276248E+02 -0.52882928550E+03  0.54016774837E+03  0.86712118236E+02 0.  0.
         23    2    4    4    0    0  0.57149234057E+01 -0.44666128678E+03  0.23831220259E+03  0.51460730376E+03  0.92135800441E+02 0.  0.
          2    1    3    3  502    0  0.57236250044E+02  0.20031449805E+03 -0.24319260099E+03  0.32022574479E+03  0.00000000000E+00 0. -1.
         -2    1    3    3    0  502  0.20580306506E+01  0.26572706498E+03 -0.20693977336E+03  0.33680733120E+03  0.00000000000E+00 0.  1.
         11    1    5    5    0    0 -0.33120357346E+02 -0.33550164552E+02 -0.46532893874E+03  0.46771101424E+03  0.00000000000E+00 0. -1.
        -11    1    5    5    0    0 -0.31888846755E+02  0.14169888303E+02 -0.63500346761E+02  0.72456734129E+02  0.00000000000E+00 0.  1.
          4    1    6    6  503    0  0.33198832740E+02 -0.35963187935E+03  0.21537158099E+03  0.42050228185E+03  0.00000000000E+00 0. -1.
         -4    1    6    6    0  503 -0.27483909334E+02 -0.87029407428E+02  0.22940621597E+02  0.94105021911E+02  0.00000000000E+00 0.  1.
<mgrwt>
<rscale>  0 0.15432840E+04</rscale>
<asrwt>0</asrwt>
<pdfrwt beam="1">  1        1 0.18865058E+00 0.15432840E+04</pdfrwt>
<pdfrwt beam="2">  1       -1 0.74704513E-01 0.15432840E+04</pdfrwt>
<totfact> 0.17769733E+01</totfact>
</mgrwt>
</event>
<event>
12    2  0.3623523E-008  0.1321132E+04  0.7818608E-02  0.9012973E-01
         -1   -1    0    0    0  501 -0.00000000000E+00  0.00000000000E+00  0.35621096082E+03  0.35621096082E+03  0.00000000000E+00 0.  1.
          1   -1    0    0  501    0  0.00000000000E+00 -0.00000000000E+00 -0.12249693571E+04  0.12249693571E+04  0.00000000000E+00 0. -1.
         23    2    1    2    0    0  0.26014159168E+03 -0.84898038724E+02 -0.61254914787E+02  0.29468169582E+03  0.90574900280E+02 0.  0.
        254    2    1    2    0    0 -0.26014159168E+03  0.84898038724E+02 -0.80750348148E+03  0.12864986221E+04  0.96339789669E+03 0.  0.
         23    2    4    4    0    0  0.27929594482E+03  0.13913191321E+03 -0.19686158257E+02  0.32577508861E+03  0.91531139312E+02 0.  0.
         23    2    4    4    0    0 -0.53943753650E+03 -0.54233874491E+02 -0.78781732322E+03  0.96072353349E+03  0.91648262985E+02 0.  0.
          1    1    3    3  502    0  0.58367511743E+02 -0.29570161889E+02  0.22681548992E+02  0.69250368706E+02  0.00000000000E+00 0. -1.
         -1    1    3    3    0  502  0.20177407994E+03 -0.55327876835E+02 -0.83936463779E+02  0.22543132711E+03  0.00000000000E+00 0.  1.
         11    1    5    5    0    0  0.54276092954E+02  0.53540639481E+02  0.26349623032E+02  0.80664719526E+02  0.00000000000E+00 0.  1.
        -11    1    5    5    0    0  0.22501985186E+03  0.85591273734E+02 -0.46035781289E+02  0.24511036908E+03  0.00000000000E+00 0. -1.
          3    1    6    6  503    0 -0.40369510653E+03 -0.78305665081E+01 -0.62078664285E+03  0.74054514565E+03  0.00000000000E+00 0. -1.
         -3    1    6    6    0  503 -0.13574242997E+03 -0.46403307982E+02 -0.16703068037E+03  0.22017838784E+03  0.00000000000E+00 0.  1.
<mgrwt>
<rscale>  0 0.13211321E+04</rscale>
<asrwt>0</asrwt>
<pdfrwt beam="1">  1        1 0.18845682E+00 0.13211321E+04</pdfrwt>
<pdfrwt beam="2">  1       -1 0.54801687E-01 0.13211321E+04</pdfrwt>
<totfact> 0.33814974E+01</totfact>
</mgrwt>
</event>
<event>
12    2  0.3623523E-008  0.2568278E+04  0.7818608E-02  0.8379057E-01
          2   -1    0    0  501    0  0.00000000000E+00  0.00000000000E+00  0.12646631531E+04  0.12646631531E+04  0.00000000000E+00 0.  1.
         -2   -1    0    0    0  501 -0.00000000000E+00 -0.00000000000E+00 -0.13039150724E+04  0.13039150724E+04  0.00000000000E+00 0. -1.
         23    2    1    2    0    0 -0.92403129665E+03  0.40441777319E+03 -0.51717235353E+03  0.11364511790E+04  0.81648433069E+02 0.  0.
        254    2    1    2    0    0  0.92403129665E+03 -0.40441777319E+03  0.47792043429E+03  0.14321270465E+04  0.89732511573E+03 0.  0.
         23    2    4    4    0    0 -0.15127803464E+03 -0.51352970908E+02  0.18186117873E+03  0.25872210856E+03  0.91331647000E+02 0.  0.
         23    2    4    4    0    0  0.10753093313E+04 -0.35306480229E+03  0.29605925557E+03  0.11734049379E+04  0.91011828923E+02 0.  0.
          3    1    3    3  502    0 -0.68899050938E+03  0.33951377082E+03 -0.39546093528E+03  0.86392527103E+03  0.00000000000E+00 0. -1.
         -3    1    3    3    0  502 -0.23504078727E+03  0.64904002379E+02 -0.12171141825E+03  0.27252590802E+03  0.00000000000E+00 0.  1.
         11    1    5    5    0    0 -0.12035332709E+03 -0.77229922274E+02  0.13214534187E+03  0.19470946462E+03  0.00000000000E+00 0.  1.
        -11    1    5    5    0    0 -0.30924707541E+02  0.25876951366E+02  0.49715836859E+02  0.64012643931E+02  0.00000000000E+00 0. -1.
          2    1    6    6  503    0  0.98043427671E+03 -0.34533649130E+03  0.25900036787E+03  0.10712562036E+04  0.00000000000E+00 0.  1.
         -2    1    6    6    0  503  0.94875054578E+02 -0.77283109873E+01  0.37058887701E+02  0.10214873435E+03  0.00000000000E+00 0. -1.
<mgrwt>
<rscale>  0 0.25682783E+04</rscale>
<asrwt>0</asrwt>
<pdfrwt beam="1">  1        2 0.19456356E+00 0.25682783E+04</pdfrwt>
<pdfrwt beam="2">  1       -2 0.20060232E+00 0.25682783E+04</pdfrwt>
<totfact> 0.20267117E+00</totfact>
</mgrwt>
</event>
<event>
12    2  0.3623523E-008  0.1180907E+04  0.7818608E-02  0.9129735E-01
         -2   -1    0    0    0  501 -0.00000000000E+00  0.00000000000E+00  0.24084752230E+03  0.24084752230E+03  0.00000000000E+00 0.  1.
          2   -1    0    0  501    0  0.00000000000E+00 -0.00000000000E+00 -0.14475348940E+04  0.14475348940E+04  0.00000000000E+00 0. -1.
         23    2    1    2    0    0  0.18503307716E+03  0.82219728024E+02 -0.44087947573E+03  0.49353947437E+03  0.90604510500E+02 0.  0.
        254    2    1    2    0    0 -0.18503307716E+03 -0.82219728024E+02 -0.76580789600E+03  0.11948429420E+04  0.89453373277E+03 0.  0.
         23    2    4    4    0    0  0.12234754485E+03  0.26609836494E+03 -0.13410051252E+02  0.30655843454E+03  0.89559939495E+02 0.  0.
         23    2    4    4    0    0 -0.30738062200E+03 -0.34831809296E+03 -0.75239784475E+03  0.88828450742E+03  0.84489695634E+02 0.  0.
          4    1    3    3  502    0  0.31562311786E+02  0.13410061331E+02 -0.17932952145E+03  0.18257898711E+03  0.00000000000E+00 0. -1.
         -4    1    3    3    0  502  0.15347076537E+03  0.68809666693E+02 -0.26154995428E+03  0.31096048727E+03  0.00000000000E+00 0.  1.
         11    1    5    5    0    0  0.12473126865E+03  0.18037076746E+03  0.26150305812E+01  0.21931334095E+03  0.00000000000E+00 0. -1.
        -11    1    5    5    0    0 -0.23837238040E+01  0.85727597477E+02 -0.16025081833E+02  0.87245093593E+02  0.00000000000E+00 0.  1.
          3    1    6    6  503    0 -0.16441490912E+03 -0.15688296830E+03 -0.43751618276E+03  0.49301616430E+03  0.00000000000E+00 0. -1.
         -3    1    6    6    0  503 -0.14296571289E+03 -0.19143512466E+03 -0.31488166198E+03  0.39526834311E+03  0.00000000000E+00 0.  1.
<mgrwt>
<rscale>  0 0.11809068E+04</rscale>
<asrwt>0</asrwt>
<pdfrwt beam="1">  1        2 0.22269768E+00 0.11809068E+04</pdfrwt>
<pdfrwt beam="2">  1       -2 0.37053465E-01 0.11809068E+04</pdfrwt>
<totfact> 0.92131661E+01</totfact>
</mgrwt>
</event>
<event>
12    2  0.3623523E-008  0.1786286E+04  0.7818608E-02  0.8713627E-01
         -1   -1    0    0    0  501 -0.00000000000E+00  0.00000000000E+00  0.62936343999E+03  0.62936343999E+03  0.00000000000E+00 0.  1.
          1   -1    0    0  501    0  0.00000000000E+00 -0.00000000000E+00 -0.12674782031E+04  0.12674782031E+04  0.00000000000E+00 0. -1.
         23    2    1    2    0    0 -0.81937162528E+02  0.13350617706E+03 -0.91340142950E+03  0.93150592382E+03  0.94146252114E+02 0.  0.
        254    2    1    2    0    0  0.81937162528E+02 -0.13350617706E+03  0.27528666642E+03  0.96533571924E+03  0.91189511690E+03 0.  0.
         23    2    4    4    0    0  0.44002834154E+02 -0.35825809226E+03 -0.20547994727E+03  0.42555597315E+03  0.92686393106E+02 0.  0.
         23    2    4    4    0    0  0.37934328373E+02  0.22475191521E+03  0.48076661369E+03  0.53977974609E+03  0.90957137145E+02 0.  0.
          2    1    3    3  502    0 -0.53765458998E+02  0.13566171567E+03 -0.84485142519E+03  0.85736150854E+03  0.00000000000E+00 0. -1.
         -2    1    3    3    0  502 -0.28171703529E+02 -0.21555386171E+01 -0.68550004303E+02  0.74144415274E+02  0.00000000000E+00 0.  1.
         11    1    5    5    0    0  0.55151480569E+02 -0.10583599562E+03 -0.54329955164E+02  0.13112851637E+03  0.00000000000E+00 0. -1.
        -11    1    5    5    0    0 -0.11148646414E+02 -0.25242209664E+03 -0.15114999211E+03  0.29442745678E+03  0.00000000000E+00 0.  1.
          1    1    6    6  503    0 -0.66130197691E+01  0.14609101060E+03  0.22349906689E+03  0.26709202217E+03  0.00000000000E+00 0. -1.
         -1    1    6    6    0  503  0.44547348142E+02  0.78660904603E+02  0.25726754680E+03  0.27268772392E+03  0.00000000000E+00 0.  1.
<mgrwt>
<rscale>  0 0.17862860E+04</rscale>
<asrwt>0</asrwt>
<pdfrwt beam="1">  1        1 0.19499664E+00 0.17862860E+04</pdfrwt>
<pdfrwt beam="2">  1       -1 0.96825147E-01 0.17862860E+04</pdfrwt>
<totfact> 0.92505269E+00</totfact>
</mgrwt>
</event>
<event>
12    2  0.3623523E-008  0.1420690E+04  0.7818608E-02  0.8938977E-01
         -1   -1    0    0    0  501 -0.00000000000E+00  0.00000000000E+00  0.37345993867E+03  0.37345993867E+03  0.00000000000E+00 0.  1.
          1   -1    0    0  501    0  0.00000000000E+00 -0.00000000000E+00 -0.13511227553E+04  0.13511227553E+04  0.00000000000E+00 0. -1.
         23    2    1    2    0    0  0.13609102020E+03  0.40792445087E+03 -0.30393274353E+03  0.53568449416E+03  0.98283474192E+02 0.  0.
        254    2    1    2    0    0 -0.13609102020E+03 -0.40792445087E+03 -0.67373007309E+03  0.11888981998E+04  0.88013839519E+03 0.  0.
         23    2    4    4    0    0  0.91731948475E+02 -0.62192497834E+03 -0.33107345585E+03  0.71636056636E+03  0.91418809940E+02 0.  0.
         23    2    4    4    0    0 -0.22782296867E+03  0.21400052746E+03 -0.34265661723E+03  0.47253763343E+03  0.90436313862E+02 0.  0.
          3    1    3    3  502    0 -0.31459997629E-01  0.11608518282E+03 -0.10910843702E+03  0.15931234004E+03  0.00000000000E+00 0. -1.
         -3    1    3    3    0  502  0.13612248019E+03  0.29183926806E+03 -0.19482430651E+03  0.37637215412E+03  0.00000000000E+00 0.  1.
         11    1    5    5    0    0 -0.14157061043E+01  0.14079380902E+01  0.25599449611E+01  0.32465106874E+01  0.00000000000E+00 0.  1.
        -11    1    5    5    0    0  0.93147654579E+02 -0.62333291643E+03 -0.33363340081E+03  0.71311405567E+03  0.00000000000E+00 0. -1.
          2    1    6    6  503    0 -0.20363788575E+03  0.14358822178E+03 -0.28357860577E+03  0.37749541930E+03  0.00000000000E+00 0. -1.
         -2    1    6    6    0  503 -0.24185082923E+02  0.70412305680E+02 -0.59078011469E+02  0.95042214128E+02  0.00000000000E+00 0.  1.
<mgrwt>
<rscale>  0 0.14206903E+04</rscale>
<asrwt>0</asrwt>
<pdfrwt beam="1">  1        1 0.20786504E+00 0.14206903E+04</pdfrwt>
<pdfrwt beam="2">  1       -1 0.57455375E-01 0.14206903E+04</pdfrwt>
<totfact> 0.24841048E+01</totfact>
</mgrwt>
</event>
<event>
12    2  0.3623523E-008  0.1360394E+04  0.7818608E-02  0.8982997E-01
          1   -1    0    0  501    0  0.00000000000E+00  0.00000000000E+00  0.10483980153E+04  0.10483980153E+04  0.00000000000E+00 0. -1.
         -1   -1    0    0    0  501 -0.00000000000E+00 -0.00000000000E+00 -0.44130942877E+03  0.44130942877E+03  0.00000000000E+00 0.  1.
         23    2    1    2    0    0 -0.21705597938E+03 -0.27145669755E+03  0.43076170380E+02  0.36182724619E+03  0.90892039245E+02 0.  0.
        254    2    1    2    0    0  0.21705597938E+03  0.27145669755E+03  0.56401241616E+03  0.11278801979E+04  0.91279882690E+03 0.  0.
         23    2    4    4    0    0  0.53020861707E+02  0.83720276410E+02 -0.24276263652E+03  0.27803087025E+03  0.92450909498E+02 0.  0.
         23    2    4    4    0    0  0.16403511768E+03  0.18773642114E+03  0.80677505268E+03  0.84984932765E+03  0.95944830093E+02 0.  0.
          1    1    3    3  502    0 -0.20100611688E+03 -0.27039390619E+03  0.25324729478E+02  0.33787226203E+03  0.00000000000E+00 0. -1.
         -1    1    3    3    0  502 -0.16049862500E+02 -0.10627913622E+01  0.17751440902E+02  0.23954984155E+02  0.00000000000E+00 0.  1.
         11    1    5    5    0    0  0.34111700537E+02  0.98549932949E+02 -0.22548578504E+03  0.24843416966E+03  0.00000000000E+00 0.  1.
        -11    1    5    5    0    0  0.18909161171E+02 -0.14829656539E+02 -0.17276851475E+02  0.29596700595E+02  0.00000000000E+00 0. -1.
          2    1    6    6  503    0 -0.12173780611E+02  0.21195763422E+02  0.64284536214E+02  0.68774725864E+02  0.00000000000E+00 0. -1.
         -2    1    6    6    0  503  0.17620889829E+03  0.16654065772E+03  0.74249051646E+03  0.78107460178E+03  0.00000000000E+00 0.  1.
<mgrwt>
<rscale>  0 0.13603940E+04</rscale>
<asrwt>0</asrwt>
<pdfrwt beam="1">  1        1 0.16129200E+00 0.13603940E+04</pdfrwt>
<pdfrwt beam="2">  1       -1 0.67893759E-01 0.13603940E+04</pdfrwt>
<totfact> 0.29819055E+01</totfact>
</mgrwt>
</event>
<event>
12    2  0.3623523E-008  0.1800418E+04  0.7818608E-02  0.8706077E-01
          2   -1    0    0  501    0  0.00000000000E+00  0.00000000000E+00  0.17491266684E+04  0.17491266684E+04  0.00000000000E+00 0. -1.
         -2   -1    0    0    0  501 -0.00000000000E+00 -0.00000000000E+00 -0.46330314394E+03  0.46330314394E+03  0.00000000000E+00 0.  1.
         23    2    1    2    0    0 -0.97834381575E+02  0.57485391620E+03  0.89670470493E+03  0.10735245496E+04  0.91362134129E+02 0.  0.
        254    2    1    2    0    0  0.97834381575E+02 -0.57485391620E+03  0.38911881951E+03  0.11389052627E+04  0.89758740553E+03 0.  0.
         23    2    4    4    0    0  0.23367045087E+03 -0.15031030977E+03 -0.22835387660E+03  0.37053451819E+03  0.89192305635E+02 0.  0.
         23    2    4    4    0    0 -0.13583606929E+03 -0.42454360643E+03  0.61747269611E+03  0.76837074453E+03  0.10213892069E+03 0.  0.
          2    1    3    3  502    0 -0.29394229757E+02  0.27169578789E+03  0.49737906568E+03  0.56751084296E+03  0.00000000000E+00 0. -1.
         -2    1    3    3    0  502 -0.68440151818E+02  0.30315812831E+03  0.39932563924E+03  0.50601370663E+03  0.00000000000E+00 0.  1.
         11    1    5    5    0    0  0.20353320934E+03 -0.97041206321E+02 -0.20588181446E+03  0.30533601909E+03  0.00000000000E+00 0.  1.
        -11    1    5    5    0    0  0.30137241530E+02 -0.53269103445E+02 -0.22472062141E+02  0.65198499106E+02  0.00000000000E+00 0. -1.
          4    1    6    6  503    0  0.19266602298E+01 -0.90231906361E+02  0.17539056702E+03  0.19724948655E+03  0.00000000000E+00 0. -1.
         -4    1    6    6    0  503 -0.13776272952E+03 -0.33431170007E+03  0.44208212909E+03  0.57112125797E+03  0.00000000000E+00 0.  1.
<mgrwt>
<rscale>  0 0.18004176E+04</rscale>
<asrwt>0</asrwt>
<pdfrwt beam="1">  1        2 0.26909641E+00 0.18004176E+04</pdfrwt>
<pdfrwt beam="2">  1       -2 0.71277408E-01 0.18004176E+04</pdfrwt>
<totfact> 0.15531204E+01</totfact>
</mgrwt>
</event>
<event>
12    2  0.3623523E-008  0.2851432E+04  0.7818608E-02  0.8287476E-01
         -2   -1    0    0    0  501 -0.00000000000E+00  0.00000000000E+00  0.19537742166E+04  0.19537742166E+04  0.00000000000E+00 0.  1.
          2   -1    0    0  501    0  0.00000000000E+00 -0.00000000000E+00 -0.10403791444E+04  0.10403791444E+04  0.00000000000E+00 0. -1.
         23    2    1    2    0    0  0.11915754824E+04 -0.46814028140E+03  0.46140144514E+03  0.13640369172E+04  0.93262879353E+02 0.  0.
        254    2    1    2    0    0 -0.11915754824E+04  0.46814028140E+03  0.45199362701E+03  0.16301164438E+04  0.90220503666E+03 0.  0.
         23    2    4    4    0    0 -0.11041126396E+04  0.68713618848E+03  0.30935135812E+03  0.13398062370E+04  0.90341726167E+02 0.  0.
         23    2    4    4    0    0 -0.87462842791E+02 -0.21899590708E+03  0.14264226889E+03  0.29031020680E+03  0.91237290142E+02 0.  0.
          1    1    3    3  502    0  0.23048849730E+03 -0.11048562168E+03  0.12699491258E+03  0.28541150609E+03  0.00000000000E+00 0. -1.
         -1    1    3    3    0  502  0.96108698509E+03 -0.35765465972E+03  0.33440653256E+03  0.10786254111E+04  0.00000000000E+00 0.  1.
         11    1    5    5    0    0 -0.81475446039E+03  0.48546856737E+03  0.26196618204E+03  0.98393640098E+03  0.00000000000E+00 0. -1.
        -11    1    5    5    0    0 -0.28935817921E+03  0.20166762111E+03  0.47385176078E+02  0.35586983602E+03  0.00000000000E+00 0.  1.
          1    1    6    6  503    0 -0.85507130078E+02 -0.21305066107E+03  0.10551096627E+03  0.25265513547E+03  0.00000000000E+00 0. -1.
         -1    1    6    6    0  503 -0.19557127128E+01 -0.59452460022E+01  0.37131302620E+02  0.37655071325E+02  0.00000000000E+00 0.  1.
<mgrwt>
<rscale>  0 0.28514319E+04</rscale>
<asrwt>0</asrwt>
<pdfrwt beam="1">  1        2 0.16005833E+00 0.28514319E+04</pdfrwt>
<pdfrwt beam="2">  1       -2 0.30058065E+00 0.28514319E+04</pdfrwt>
<totfact> 0.64840796E-01</totfact>
</mgrwt>
</event>
<event>
12    2  0.3623523E-008  0.3340623E+04  0.7818608E-02  0.8152635E-01
          1   -1    0    0  501    0  0.00000000000E+00  0.00000000000E+00  0.10304057347E+04  0.10304057347E+04  0.00000000000E+00 0. -1.
         -1   -1    0    0    0  501 -0.00000000000E+00 -0.00000000000E+00 -0.27076129117E+04  0.27076129117E+04  0.00000000000E+00 0.  1.
         23    2    1    2    0    0 -0.14231291628E+03  0.10430965041E+04 -0.20432605466E+04  0.23003009169E+04  0.90373469631E+02 0.  0.
        254    2    1    2    0    0  0.14231291628E+03 -0.10430965041E+04  0.36605336948E+03  0.14377177295E+04  0.90814862088E+03 0.  0.
         23    2    4    4    0    0 -0.27825639586E+02 -0.11248840119E+04  0.44559440193E+03  0.12138134211E+04  0.93007225395E+02 0.  0.
         23    2    4    4    0    0  0.17013855587E+03  0.81787507799E+02 -0.79541032445E+02  0.22390430839E+03  0.90388267219E+02 0.  0.
          2    1    3    3  502    0 -0.30997952420E+02  0.36534048746E+03 -0.79744059668E+03  0.87769359691E+03  0.00000000000E+00 0. -1.
         -2    1    3    3    0  502 -0.11131496386E+03  0.67775601660E+03 -0.12458199499E+04  0.14226073199E+04  0.00000000000E+00 0.  1.
         11    1    5    5    0    0  0.25077429851E+02 -0.14888221177E+03  0.73852188041E+02  0.16807419834E+03  0.00000000000E+00 0. -1.
        -11    1    5    5    0    0 -0.52903069437E+02 -0.97600180008E+03  0.37174221389E+03  0.10457392228E+04  0.00000000000E+00 0.  1.
          2    1    6    6  503    0  0.22837747184E+02  0.22663296613E+02  0.18722880027E+02  0.37225447564E+02  0.00000000000E+00 0. -1.
         -2    1    6    6    0  503  0.14730080868E+03  0.59124211185E+02 -0.98263912471E+02  0.18667886083E+03  0.00000000000E+00 0.  1.
<mgrwt>
<rscale>  0 0.33406226E+04</rscale>
<asrwt>0</asrwt>
<pdfrwt beam="1">  1        1 0.15852396E+00 0.33406226E+04</pdfrwt>
<pdfrwt beam="2">  1       -1 0.41655583E+00 0.33406226E+04</pdfrwt>
<totfact> 0.65175772E-02</totfact>
</mgrwt>
</event>
<event>
12    2  0.3623523E-008  0.1191338E+04  0.7818608E-02  0.9120472E-01
         -2   -1    0    0    0  501 -0.00000000000E+00  0.00000000000E+00  0.12741450557E+03  0.12741450557E+03  0.00000000000E+00 0.  1.
          2   -1    0    0  501    0  0.00000000000E+00 -0.00000000000E+00 -0.27847813767E+04  0.27847813767E+04  0.00000000000E+00 0. -1.
         23    2    1    2    0    0 -0.15034903935E+03  0.11833770209E+02 -0.10322674733E+03  0.20232911069E+03  0.86812648372E+02 0.  0.
        254    2    1    2    0    0  0.15034903935E+03 -0.11833770209E+02 -0.25541401238E+04  0.27098667716E+04  0.89274927948E+03 0.  0.
         23    2    4    4    0    0 -0.23859944818E+03 -0.47261100588E+02 -0.20460091651E+04  0.20625398806E+04  0.93562531819E+02 0.  0.
         23    2    4    4    0    0  0.38894848754E+03  0.35427330379E+02 -0.50813095875E+03  0.64732689098E+03  0.91098906922E+02 0.  0.
          2    1    3    3  502    0 -0.87482255936E+02  0.35978099106E+02 -0.22556107035E+02  0.97243748815E+02  0.00000000000E+00 0. -1.
         -2    1    3    3    0  502 -0.62866783417E+02 -0.24144328896E+02 -0.80670640299E+02  0.10508536188E+03  0.00000000000E+00 0.  1.
         11    1    5    5    0    0 -0.31038117853E+02 -0.35080990903E+01 -0.94331277503E+02  0.99368312024E+02  0.00000000000E+00 0. -1.
        -11    1    5    5    0    0 -0.20756133033E+03 -0.43753001498E+02 -0.19516778876E+04  0.19631715686E+04  0.00000000000E+00 0.  1.
          3    1    6    6  503    0  0.60480449426E+01  0.15918724820E+02 -0.15026990921E+02  0.22711122907E+02  0.00000000000E+00 0. -1.
         -3    1    6    6    0  503  0.38290044260E+03  0.19508605559E+02 -0.49310396783E+03  0.62461576807E+03  0.00000000000E+00 0.  1.
<mgrwt>
<rscale>  0 0.11913380E+04</rscale>
<asrwt>0</asrwt>
<pdfrwt beam="1">  1        2 0.42842788E+00 0.11913380E+04</pdfrwt>
<pdfrwt beam="2">  1       -2 0.19602233E-01 0.11913380E+04</pdfrwt>
<totfact> 0.52203047E+01</totfact>
</mgrwt>
</event>
<event>
12    2  0.3623523E-008  0.1775333E+04  0.7818608E-02  0.8719528E-01
          2   -1    0    0  501    0  0.00000000000E+00  0.00000000000E+00  0.25150558210E+04  0.25150558210E+04  0.00000000000E+00 0. -1.
         -2   -1    0    0    0  501 -0.00000000000E+00 -0.00000000000E+00 -0.31329404176E+03  0.31329404176E+03  0.00000000000E+00 0.  1.
         23    2    1    2    0    0 -0.30402157378E+03  0.54953855908E+03  0.56518873854E+03  0.84989624391E+03  0.91997663058E+02 0.  0.
        254    2    1    2    0    0  0.30402157378E+03 -0.54953855908E+03  0.16365730407E+04  0.19784536188E+04  0.91732527444E+03 0.  0.
         23    2    4    4    0    0 -0.31013905245E+03 -0.28687599600E+03  0.54872438356E+03  0.69866583819E+03  0.92473971456E+02 0.  0.
         23    2    4    4    0    0  0.61416062624E+03 -0.26266256308E+03  0.10878486571E+04  0.12797877806E+04  0.90868948586E+02 0.  0.
          3    1    3    3  502    0 -0.37577453246E+02  0.25789448802E+02  0.26504996083E+02  0.52722627773E+02  0.00000000000E+00 0. -1.
         -3    1    3    3    0  502 -0.26644412054E+03  0.52374911027E+03  0.53868374246E+03  0.79717361614E+03  0.00000000000E+00 0.  1.
         11    1    5    5    0    0 -0.10447643299E+03 -0.13217704181E+03  0.27854920027E+03  0.32553917184E+03  0.00000000000E+00 0.  1.
        -11    1    5    5    0    0 -0.20566261946E+03 -0.15469895419E+03  0.27017518330E+03  0.37312666635E+03  0.00000000000E+00 0. -1.
          4    1    6    6  503    0  0.56607898722E+03 -0.22843255266E+03  0.94250008930E+03  0.11229128502E+04  0.00000000000E+00 0. -1.
         -4    1    6    6    0  503  0.48081639017E+02 -0.34230010415E+02  0.14534856780E+03  0.15687493039E+03  0.00000000000E+00 0.  1.
<mgrwt>
<rscale>  0 0.17753332E+04</rscale>
<asrwt>0</asrwt>
<pdfrwt beam="1">  1        2 0.38693165E+00 0.17753332E+04</pdfrwt>
<pdfrwt beam="2">  1       -2 0.48199085E-01 0.17753332E+04</pdfrwt>
<totfact> 0.13177525E+01</totfact>
</mgrwt>
</event>
<event>
12    2  0.3623523E-008  0.1796717E+04  0.7818608E-02  0.8708047E-01
          1   -1    0    0  501    0  0.00000000000E+00  0.00000000000E+00  0.14806278276E+04  0.14806278276E+04  0.00000000000E+00 0. -1.
         -1   -1    0    0    0  501 -0.00000000000E+00 -0.00000000000E+00 -0.54507168593E+03  0.54507168593E+03  0.00000000000E+00 0.  1.
         23    2    1    2    0    0 -0.13978315522E+03 -0.49064872551E+03  0.80344965844E+03  0.95584188476E+03  0.88469501380E+02 0.  0.
        254    2    1    2    0    0  0.13978315522E+03  0.49064872551E+03  0.13210648320E+03  0.10698576288E+04  0.93105731325E+03 0.  0.
         23    2    4    4    0    0  0.26009938511E+03  0.10517554057E+03  0.45673979887E+03  0.54305530547E+03  0.87087521833E+02 0.  0.
         23    2    4    4    0    0 -0.12031622989E+03  0.38547318494E+03 -0.32463331567E+03  0.52680232328E+03  0.95227762181E+02 0.  0.
          4    1    3    3  502    0 -0.10666787639E+03 -0.23658676623E+03  0.44680507519E+03  0.51670698565E+03  0.00000000000E+00 0. -1.
         -4    1    3    3    0  502 -0.33115278833E+02 -0.25406195929E+03  0.35664458326E+03  0.43913489911E+03  0.00000000000E+00 0.  1.
         11    1    5    5    0    0  0.25606498410E+03  0.11326460034E+03  0.45436476994E+03  0.53370918104E+03  0.00000000000E+00 0. -1.
        -11    1    5    5    0    0  0.40344010093E+01 -0.80890597644E+01  0.23750289355E+01  0.93461244278E+01  0.00000000000E+00 0.  1.
          1    1    6    6  503    0 -0.12737488607E+03  0.32787754321E+03 -0.30493061578E+03  0.46552199237E+03  0.00000000000E+00 0. -1.
         -1    1    6    6    0  503  0.70586561858E+01  0.57595641730E+02 -0.19702699895E+02  0.61280330912E+02  0.00000000000E+00 0.  1.
<mgrwt>
<rscale>  0 0.17967173E+04</rscale>
<asrwt>0</asrwt>
<pdfrwt beam="1">  1        1 0.22778889E+00 0.17967173E+04</pdfrwt>
<pdfrwt beam="2">  1       -1 0.83857183E-01 0.17967173E+04</pdfrwt>
<totfact> 0.89787849E+00</totfact>
</mgrwt>
</event>
<event>
12    2  0.3623523E-008  0.1267170E+04  0.7818608E-02  0.9056012E-01
          1   -1    0    0  501    0  0.00000000000E+00  0.00000000000E+00  0.24734890027E+04  0.24734890027E+04  0.00000000000E+00 0. -1.
         -1   -1    0    0    0  501 -0.00000000000E+00 -0.00000000000E+00 -0.16229309862E+03  0.16229309862E+03  0.00000000000E+00 0.  1.
         23    2    1    2    0    0  0.18527106936E+03  0.84379620687E+02  0.10193813760E+04  0.10433837621E+04  0.89810888747E+02 0.  0.
        254    2    1    2    0    0 -0.18527106936E+03 -0.84379620687E+02  0.12918145280E+04  0.15923983392E+04  0.90857162968E+03 0.  0.
         23    2    4    4    0    0  0.11205745694E+03 -0.38588005821E+03  0.30208752725E+03  0.51112276025E+03  0.92354257853E+02 0.  0.
         23    2    4    4    0    0 -0.29732852629E+03  0.30150043753E+03  0.98972700080E+03  0.10812755789E+04  0.10144247202E+03 0.  0.
          1    1    3    3  502    0  0.17524424385E+03  0.68410847203E+02  0.99465048174E+03  0.10122846289E+04  0.00000000000E+00 0. -1.
         -1    1    3    3    0  502  0.10026825510E+02  0.15968773484E+02  0.24730894249E+02  0.31099133215E+02  0.00000000000E+00 0.  1.
         11    1    5    5    0    0  0.12296027633E+03 -0.36552505580E+03  0.29866541721E+03  0.48777948646E+03  0.00000000000E+00 0. -1.
        -11    1    5    5    0    0 -0.10902819394E+02 -0.20355002417E+02  0.34221100331E+01  0.23343273790E+02  0.00000000000E+00 0.  1.
          3    1    6    6  503    0 -0.15311092736E+03  0.22227660002E+03  0.57924614762E+03  0.63904298957E+03  0.00000000000E+00 0. -1.
         -3    1    6    6    0  503 -0.14421759893E+03  0.79223837507E+02  0.41048085318E+03  0.44223258937E+03  0.00000000000E+00 0.  1.
<mgrwt>
<rscale>  0 0.12671704E+04</rscale>
<asrwt>0</asrwt>
<pdfrwt beam="1">  1        1 0.38053674E+00 0.12671704E+04</pdfrwt>
<pdfrwt beam="2">  1       -1 0.24968171E-01 0.12671704E+04</pdfrwt>
<totfact> 0.19636189E+01</totfact>
</mgrwt>
</event>
<event>
12    2  0.3623523E-008  0.2523141E+04  0.7818608E-02  0.8394788E-01
          2   -1    0    0  501    0  0.00000000000E+00  0.00000000000E+00  0.22891225920E+04  0.22891225920E+04  0.00000000000E+00 0. -1.
         -2   -1    0    0    0  501 -0.00000000000E+00 -0.00000000000E+00 -0.69527072962E+03  0.69527072962E+03  0.00000000000E+00 0.  1.
         23    2    1    2    0    0 -0.23518285822E+03 -0.82590009618E+03 -0.11089417400E+03  0.87064420116E+03  0.91114551638E+02 0.  0.
        254    2    1    2    0    0  0.23518285822E+03  0.82590009618E+03  0.17047460364E+04  0.21137491205E+04  0.90793961806E+03 0.  0.
         23    2    4    4    0    0 -0.31704951827E+02 -0.15173301734E+03  0.52908793586E+03  0.55883060910E+03  0.91266057620E+02 0.  0.
         23    2    4    4    0    0  0.26688781005E+03  0.97763311352E+03  0.11756581006E+04  0.15549185114E+04  0.92757748299E+02 0.  0.
          3    1    3    3  502    0 -0.29089514237E+02 -0.10956741967E+03  0.16139361434E+02  0.11450632419E+03  0.00000000000E+00 0. -1.
         -3    1    3    3    0  502 -0.20609334398E+03 -0.71633267651E+03 -0.12703353543E+03  0.75613787697E+03  0.00000000000E+00 0.  1.
         11    1    5    5    0    0 -0.31776519045E+02 -0.16044053876E+03  0.44169036815E+03  0.47100031311E+03  0.00000000000E+00 0.  1.
        -11    1    5    5    0    0  0.71567218507E-01  0.87075214156E+01  0.87397567714E+02  0.87830295988E+02  0.00000000000E+00 0. -1.
          3    1    6    6  503    0  0.35513111827E+02  0.15098003946E+03  0.13269284293E+03  0.20411649613E+03  0.00000000000E+00 0. -1.
         -3    1    6    6    0  503  0.23137469822E+03  0.82665307406E+03  0.10429652576E+04  0.13508020153E+04  0.00000000000E+00 0.  1.
<mgrwt>
<rscale>  0 0.25231408E+04</rscale>
<asrwt>0</asrwt>
<pdfrwt beam="1">  1        2 0.35217270E+00 0.25231408E+04</pdfrwt>
<pdfrwt beam="2">  1       -2 0.10696473E+00 0.25231408E+04</pdfrwt>
<totfact> 0.28773011E+00</totfact>
</mgrwt>
</event>
<event>
12    2  0.3623523E-008  0.2194874E+04  0.7818608E-02  0.8520565E-01
          1   -1    0    0  501    0  0.00000000000E+00  0.00000000000E+00  0.24377391195E+04  0.24377391195E+04  0.00000000000E+00 0. -1.
         -1   -1    0    0    0  501 -0.00000000000E+00 -0.00000000000E+00 -0.49405104045E+03  0.49405104045E+03  0.00000000000E+00 0.  1.
         23    2    1    2    0    0  0.45487942913E+03 -0.30670589496E+03 -0.16216346780E+03  0.57953143219E+03  0.92606098960E+02 0.  0.
        254    2    1    2    0    0 -0.45487942913E+03  0.30670589496E+03  0.21058515468E+04  0.23522587277E+04  0.89304343899E+03 0.  0.
         23    2    4    4    0    0 -0.54762272368E+03  0.31891262877E+03  0.73315243766E+03  0.97319550319E+03  0.89448746829E+02 0.  0.
         23    2    4    4    0    0  0.92743294552E+02 -0.12206733809E+02  0.13726991092E+04  0.13790632246E+04  0.93606676928E+02 0.  0.
          1    1    3    3  502    0  0.13760916693E+03 -0.13454300886E+03 -0.28223111076E+02  0.19451130573E+03  0.00000000000E+00 0. -1.
         -1    1    3    3    0  502  0.31727026220E+03 -0.17216288610E+03 -0.13394035672E+03  0.38502012647E+03  0.00000000000E+00 0.  1.
         11    1    5    5    0    0 -0.31348814278E+03  0.13090842441E+03  0.38964267305E+03  0.51694607446E+03  0.00000000000E+00 0. -1.
        -11    1    5    5    0    0 -0.23413458090E+03  0.18800420437E+03  0.34350976460E+03  0.45624942872E+03  0.00000000000E+00 0.  1.
          1    1    6    6  503    0  0.94516245591E+02  0.22786974309E+02  0.10287759680E+04  0.10333598401E+04  0.00000000000E+00 0. -1.
         -1    1    6    6    0  503 -0.17729510387E+01 -0.34993708118E+02  0.34392314121E+03  0.34570338445E+03  0.00000000000E+00 0.  1.
<mgrwt>
<rscale>  0 0.21948736E+04</rscale>
<asrwt>0</asrwt>
<pdfrwt beam="1">  1        1 0.37503678E+00 0.21948736E+04</pdfrwt>
<pdfrwt beam="2">  1       -1 0.76007853E-01 0.21948736E+04</pdfrwt>
<totfact> 0.23725404E+00</totfact>
</mgrwt>
</event>
<event>
12    2  0.3623523E-008  0.1657210E+04  0.7818608E-02  0.8786152E-01
          2   -1    0    0  501    0  0.00000000000E+00  0.00000000000E+00  0.17832706021E+04  0.17832706021E+04  0.00000000000E+00 0. -1.
         -2   -1    0    0    0  501 -0.00000000000E+00 -0.00000000000E+00 -0.38501532150E+03  0.38501532150E+03  0.00000000000E+00 0.  1.
         23    2    1    2    0    0 -0.24361473839E+03 -0.16154238092E+03  0.11474472145E+04  0.11884020123E+04  0.10109476321E+03 0.  0.
        254    2    1    2    0    0  0.24361473839E+03  0.16154238092E+03  0.25080806611E+03  0.97988391131E+03  0.90101260370E+03 0.  0.
         23    2    4    4    0    0  0.34496993880E+03  0.56288086839E+02 -0.25645513078E+03  0.44362436481E+03  0.94131480120E+02 0.  0.
         23    2    4    4    0    0 -0.10135520041E+03  0.10525429409E+03  0.50726319689E+03  0.53625954651E+03  0.94376942217E+02 0.  0.
          1    1    3    3  502    0 -0.20829963166E+03 -0.95032002066E+02  0.76139107049E+03  0.79506992157E+03  0.00000000000E+00 0. -1.
         -1    1    3    3    0  502 -0.35315106737E+02 -0.66510378859E+02  0.38605614403E+03  0.39333209073E+03  0.00000000000E+00 0.  1.
         11    1    5    5    0    0  0.25196226265E+03 -0.62521107208E+00 -0.19372718548E+03  0.31782950631E+03  0.00000000000E+00 0.  1.
        -11    1    5    5    0    0  0.93007676155E+02  0.56913297911E+02 -0.62727945307E+02  0.12579485850E+03  0.00000000000E+00 0. -1.
          1    1    6    6  503    0  0.15703058256E+02  0.22681175765E+02  0.12570765557E+03  0.12869901492E+03  0.00000000000E+00 0. -1.
         -1    1    6    6    0  503 -0.11705825866E+03  0.82573118321E+02  0.38155554132E+03  0.40756053158E+03  0.00000000000E+00 0.  1.
<mgrwt>
<rscale>  0 0.16572103E+04</rscale>
<asrwt>0</asrwt>
<pdfrwt beam="1">  1        2 0.27434932E+00 0.16572103E+04</pdfrwt>
<pdfrwt beam="2">  1       -2 0.59233128E-01 0.16572103E+04</pdfrwt>
<totfact> 0.22396631E+01</totfact>
</mgrwt>
</event>
<event>
12    2  0.3623523E-008  0.1428133E+04  0.7818608E-02  0.8933703E-01
          1   -1    0    0  501    0  0.00000000000E+00  0.00000000000E+00  0.10334707079E+04  0.10334707079E+04  0.00000000000E+00 0. -1.
         -1   -1    0    0    0  501 -0.00000000000E+00 -0.00000000000E+00 -0.49337694400E+03  0.49337694400E+03  0.00000000000E+00 0.  1.
         23    2    1    2    0    0  0.11560110091E+02  0.33609783473E+03 -0.10582191103E+03  0.36632244496E+03  0.99491035638E+02 0.  0.
        254    2    1    2    0    0 -0.11560110091E+02 -0.33609783473E+03  0.64591567491E+03  0.11605252069E+04  0.90361291830E+03 0.  0.
         23    2    4    4    0    0  0.37509319240E+03 -0.28299780376E+03  0.10947332356E+03  0.49075703116E+03  0.89863202412E+02 0.  0.
         23    2    4    4    0    0 -0.38665330249E+03 -0.53100030971E+02  0.53644235135E+03  0.66976817575E+03  0.92187978093E+02 0.  0.
          1    1    3    3  502    0  0.51789432888E+02  0.15166096988E+03 -0.66433020984E+02  0.17348354799E+03  0.00000000000E+00 0. -1.
         -1    1    3    3    0  502 -0.40229322797E+02  0.18443686485E+03 -0.39388890048E+02  0.19283889698E+03  0.00000000000E+00 0.  1.
         11    1    5    5    0    0  0.35055938929E+03 -0.24540284788E+03  0.75661418934E+02  0.43455620291E+03  0.00000000000E+00 0. -1.
        -11    1    5    5    0    0  0.24533803107E+02 -0.37594955878E+02  0.33811904625E+02  0.56200828257E+02  0.00000000000E+00 0.  1.
          2    1    6    6  503    0 -0.29707705089E+03 -0.67355868008E+01  0.43420670340E+03  0.52615169255E+03  0.00000000000E+00 0. -1.
         -2    1    6    6    0  503 -0.89576251600E+02 -0.46364444171E+02  0.10223564795E+03  0.14361648319E+03  0.00000000000E+00 0.  1.
<mgrwt>
<rscale>  0 0.14281325E+04</rscale>
<asrwt>0</asrwt>
<pdfrwt beam="1">  1        1 0.15899549E+00 0.14281325E+04</pdfrwt>
<pdfrwt beam="2">  1       -1 0.75904146E-01 0.14281325E+04</pdfrwt>
<totfact> 0.24177946E+01</totfact>
</mgrwt>
</event>
<event>
12    2  0.3623523E-008  0.1274486E+04  0.7818608E-02  0.9050046E-01
         -1   -1    0    0    0  501 -0.00000000000E+00  0.00000000000E+00  0.27633757932E+03  0.27633757932E+03  0.00000000000E+00 0.  1.
          1   -1    0    0  501    0  0.00000000000E+00 -0.00000000000E+00 -0.14695022916E+04  0.14695022916E+04  0.00000000000E+00 0. -1.
         23    2    1    2    0    0 -0.25403620859E+03 -0.71449550513E+01 -0.48095673904E+02  0.27439414563E+03  0.91616088386E+02 0.  0.
        254    2    1    2    0    0  0.25403620859E+03  0.71449550513E+01 -0.11450690384E+04  0.14714457253E+04  0.88847283258E+03 0.  0.
         23    2    4    4    0    0 -0.23456617280E+03 -0.11746239408E+03 -0.81562628073E+02  0.29030725905E+03  0.93846358006E+02 0.  0.
         23    2    4    4    0    0  0.48860238139E+03  0.12460734913E+03 -0.10635064103E+04  0.11811384663E+04  0.98908610125E+02 0.  0.
          3    1    3    3  502    0 -0.13910987880E+03 -0.29786662638E+02 -0.64343164095E+02  0.15613726787E+03  0.00000000000E+00 0. -1.
         -3    1    3    3    0  502 -0.11492632979E+03  0.22641707587E+02  0.16247490191E+02  0.11825687776E+03  0.00000000000E+00 0.  1.
         11    1    5    5    0    0 -0.78778526120E+00  0.21143455057E+01 -0.20619783471E+02  0.20742867037E+02  0.00000000000E+00 0. -1.
        -11    1    5    5    0    0 -0.23377838754E+03 -0.11957673959E+03 -0.60942844602E+02  0.26956439201E+03  0.00000000000E+00 0.  1.
          3    1    6    6  503    0  0.64001175954E+02  0.23427118288E+02 -0.79815458334E+02  0.10495469396E+03  0.00000000000E+00 0. -1.
         -3    1    6    6    0  503  0.42460120543E+03  0.10118023085E+03 -0.98369095200E+03  0.10761837723E+04  0.00000000000E+00 0.  1.
<mgrwt>
<rscale>  0 0.12744861E+04</rscale>
<asrwt>0</asrwt>
<pdfrwt beam="1">  1        1 0.22607727E+00 0.12744861E+04</pdfrwt>
<pdfrwt beam="2">  1       -1 0.42513474E-01 0.12744861E+04</pdfrwt>
<totfact> 0.36802520E+01</totfact>
</mgrwt>
</event>
<event>
12    2  0.3623523E-008  0.1599364E+04  0.7818608E-02  0.8820939E-01
         -3   -1    0    0    0  501 -0.00000000000E+00  0.00000000000E+00  0.11935609801E+04  0.11935609801E+04  0.00000000000E+00 0.  1.
          3   -1    0    0  501    0  0.00000000000E+00 -0.00000000000E+00 -0.53578407933E+03  0.53578407933E+03  0.00000000000E+00 0. -1.
         23    2    1    2    0    0 -0.74013757000E+01  0.22492484506E+02 -0.35979298258E+03  0.37161406507E+03  0.89918467633E+02 0.  0.
        254    2    1    2    0    0  0.74013757000E+01 -0.22492484506E+02  0.10175698834E+04  0.13577309944E+04  0.89856791249E+03 0.  0.
         23    2    4    4    0    0  0.59398080958E+02  0.42511978129E+03  0.51886890758E+03  0.67949264602E+03  0.90721288931E+02 0.  0.
         23    2    4    4    0    0 -0.51996705258E+02 -0.44761226580E+03  0.49870097579E+03  0.67823834838E+03  0.90797555591E+02 0.  0.
          1    1    3    3  502    0  0.10732294939E+02  0.54320335821E+02 -0.18938249638E+03  0.19731094996E+03  0.00000000000E+00 0.  1.
         -1    1    3    3    0  502 -0.18133670639E+02 -0.31827851315E+02 -0.17041048620E+03  0.17430311511E+03  0.00000000000E+00 0. -1.
         11    1    5    5    0    0  0.30256244552E+02  0.22585446546E+03  0.34485531745E+03  0.41334110596E+03  0.00000000000E+00 0.  1.
        -11    1    5    5    0    0  0.29141836406E+02  0.19926531583E+03  0.17401359013E+03  0.26615154006E+03  0.00000000000E+00 0. -1.
          2    1    6    6  503    0 -0.38435534496E+02 -0.11144986252E+03  0.17757407962E+03  0.21314529298E+03  0.00000000000E+00 0. -1.
         -2    1    6    6    0  503 -0.13561170762E+02 -0.33616240328E+03  0.32112689618E+03  0.46509305540E+03  0.00000000000E+00 0.  1.
<mgrwt>
<rscale>  0 0.15993636E+04</rscale>
<asrwt>0</asrwt>
<pdfrwt beam="1">  1        3 0.82428320E-01 0.15993636E+04</pdfrwt>
<pdfrwt beam="2">  1       -3 0.18362477E+00 0.15993636E+04</pdfrwt>
<totfact> 0.63880662E-01</totfact>
</mgrwt>
</event>
<event>
12    2  0.3623523E-008  0.2192490E+04  0.7818608E-02  0.8521561E-01
          1   -1    0    0  501    0  0.00000000000E+00  0.00000000000E+00  0.23343854231E+04  0.23343854231E+04  0.00000000000E+00 0. -1.
         -1   -1    0    0    0  501 -0.00000000000E+00 -0.00000000000E+00 -0.51480480321E+03  0.51480480321E+03  0.00000000000E+00 0.  1.
         23    2    1    2    0    0 -0.13595831893E+03  0.15075642378E+03 -0.39404604715E+03  0.45211922207E+03  0.89035610241E+02 0.  0.
        254    2    1    2    0    0  0.13595831893E+03 -0.15075642378E+03  0.22136266671E+04  0.23970710043E+04  0.89699175834E+03 0.  0.
         23    2    4    4    0    0 -0.35769271220E+03 -0.19163726447E+03  0.10710039102E+04  0.11482764791E+04  0.82586798412E+02 0.  0.
         23    2    4    4    0    0  0.49365103113E+03  0.40880840696E+02  0.11426227569E+04  0.12487945252E+04  0.92403560116E+02 0.  0.
          3    1    3    3  502    0  0.45455198683E+01 -0.16115033280E+01 -0.51679723361E+02  0.51904262835E+02  0.00000000000E+00 0. -1.
         -3    1    3    3    0  502 -0.14050383880E+03  0.15236792711E+03 -0.34236632379E+03  0.40021495923E+03  0.00000000000E+00 0.  1.
         11    1    5    5    0    0 -0.27341932926E+03 -0.18075964074E+03  0.81060088521E+03  0.87436032185E+03  0.00000000000E+00 0. -1.
        -11    1    5    5    0    0 -0.84273382940E+02 -0.10877623737E+02  0.26040302497E+03  0.27391615722E+03  0.00000000000E+00 0.  1.
          1    1    6    6  503    0  0.29356531691E+03  0.69117890880E+02  0.66580014506E+03  0.73092250704E+03  0.00000000000E+00 0. -1.
         -1    1    6    6    0  503  0.20008571422E+03 -0.28237050184E+02  0.47682261182E+03  0.51787201814E+03  0.00000000000E+00 0.  1.
<mgrwt>
<rscale>  0 0.21924898E+04</rscale>
<asrwt>0</asrwt>
<pdfrwt beam="1">  1        1 0.35913621E+00 0.21924898E+04</pdfrwt>
<pdfrwt beam="2">  1       -1 0.79200740E-01 0.21924898E+04</pdfrwt>
<totfact> 0.25626184E+00</totfact>
</mgrwt>
</event>
<event>
12    2  0.3623523E-008  0.1979436E+04  0.7818608E-02  0.8616296E-01
         -2   -1    0    0    0  501 -0.00000000000E+00  0.00000000000E+00  0.42259897524E+03  0.42259897524E+03  0.00000000000E+00 0.  1.
          2   -1    0    0  501    0  0.00000000000E+00 -0.00000000000E+00 -0.23178980518E+04  0.23178980518E+04  0.00000000000E+00 0. -1.
         23    2    1    2    0    0  0.45733013219E+02 -0.20435232559E+02  0.32288158881E+03  0.33898316793E+03  0.90266054116E+02 0.  0.
        254    2    1    2    0    0 -0.45733013219E+02  0.20435232559E+02 -0.22181806654E+04  0.24015138591E+04  0.91893103335E+03 0.  0.
         23    2    4    4    0    0 -0.33186655255E+03  0.14427527862E+03 -0.37447651192E+03  0.52893821778E+03  0.92694204426E+02 0.  0.
         23    2    4    4    0    0  0.28613353933E+03 -0.12384004607E+03 -0.18437041535E+04  0.18725756413E+04  0.10042792287E+03 0.  0.
          2    1    3    3  502    0 -0.26046630702E+02 -0.10163247310E+02  0.12877012495E+03  0.13177049612E+03  0.00000000000E+00 0. -1.
         -2    1    3    3    0  502  0.71779643922E+02 -0.10271985249E+02  0.19411146385E+03  0.20721267182E+03  0.00000000000E+00 0.  1.
         11    1    5    5    0    0  0.19898003655E+01  0.87585948008E+01  0.38517145113E+00  0.89900303351E+01  0.00000000000E+00 0.  1.
        -11    1    5    5    0    0 -0.33385635291E+03  0.13551668382E+03 -0.37486168337E+03  0.51994818745E+03  0.00000000000E+00 0. -1.
          1    1    6    6  503    0  0.21049321595E+03 -0.10699257639E+03 -0.11128577138E+04  0.11376322325E+04  0.00000000000E+00 0. -1.
         -1    1    6    6    0  503  0.75640323380E+02 -0.16847469674E+02 -0.73084643971E+03  0.73494340884E+03  0.00000000000E+00 0.  1.
<mgrwt>
<rscale>  0 0.19794356E+04</rscale>
<asrwt>0</asrwt>
<pdfrwt beam="1">  1        2 0.35659969E+00 0.19794356E+04</pdfrwt>
<pdfrwt beam="2">  1       -2 0.65015228E-01 0.19794356E+04</pdfrwt>
<totfact> 0.89948931E+00</totfact>
</mgrwt>
</event>
<event>
12    2  0.3623523E-008  0.2023966E+04  0.7818608E-02  0.8595497E-01
         -2   -1    0    0    0  501 -0.00000000000E+00  0.00000000000E+00  0.11092109349E+04  0.11092109349E+04  0.00000000000E+00 0.  1.
          2   -1    0    0  501    0  0.00000000000E+00 -0.00000000000E+00 -0.92327759719E+03  0.92327759719E+03  0.00000000000E+00 0. -1.
         23    2    1    2    0    0  0.68197042355E+02  0.42648609326E+03 -0.61307975886E+03  0.75534749719E+03  0.90232069985E+02 0.  0.
        254    2    1    2    0    0 -0.68197042355E+02 -0.42648609326E+03  0.79901309655E+03  0.12771410349E+04  0.89784523731E+03 0.  0.
         23    2    4    4    0    0  0.17244816496E+03 -0.30813420368E+03 -0.62707959872E+02  0.37006189766E+03  0.91260411955E+02 0.  0.
         23    2    4    4    0    0 -0.24064520731E+03 -0.11835188957E+03  0.86172105642E+03  0.90707913721E+03  0.91170699860E+02 0.  0.
          4    1    3    3  502    0  0.21231490961E+02  0.30176142208E+03 -0.47729993339E+03  0.56508933672E+03  0.00000000000E+00 0. -1.
         -4    1    3    3    0  502  0.46965551393E+02  0.12472467118E+03 -0.13577982547E+03  0.19025816047E+03  0.00000000000E+00 0.  1.
         11    1    5    5    0    0  0.16344694573E+03 -0.23006563309E+03 -0.26255433961E+02  0.28343332092E+03  0.00000000000E+00 0.  1.
        -11    1    5    5    0    0  0.90012192339E+01 -0.78068570597E+02 -0.36452525911E+02  0.86628576740E+02  0.00000000000E+00 0. -1.
          4    1    6    6  503    0 -0.16614814907E+02 -0.43757255043E+02  0.12718372549E+03  0.13552287436E+03  0.00000000000E+00 0. -1.
         -4    1    6    6    0  503 -0.22403039241E+03 -0.74594634529E+02  0.73453733093E+03  0.77155626285E+03  0.00000000000E+00 0.  1.
<mgrwt>
<rscale>  0 0.20239660E+04</rscale>
<asrwt>0</asrwt>
<pdfrwt beam="1">  1        2 0.14204271E+00 0.20239660E+04</pdfrwt>
<pdfrwt beam="2">  1       -2 0.17064784E+00 0.20239660E+04</pdfrwt>
<totfact> 0.55288140E+00</totfact>
</mgrwt>
</event>
<event>
12    2  0.3623523E-008  0.3008333E+04  0.7818608E-02  0.8241355E-01
          2   -1    0    0  501    0  0.00000000000E+00  0.00000000000E+00  0.80629416787E+03  0.80629416787E+03  0.00000000000E+00 0. -1.
         -2   -1    0    0    0  501 -0.00000000000E+00 -0.00000000000E+00 -0.28060679370E+04  0.28060679370E+04  0.00000000000E+00 0.  1.
         23    2    1    2    0    0  0.57850052126E+03 -0.11607243089E+04 -0.13927582789E+04  0.19054155571E+04  0.94281745482E+02 0.  0.
        254    2    1    2    0    0 -0.57850052126E+03  0.11607243089E+04 -0.60701549019E+03  0.17069465477E+04  0.92911513665E+03 0.  0.
         23    2    4    4    0    0  0.22357133383E+03  0.45675658837E+03 -0.12160494699E+03  0.53093349764E+03  0.92151470174E+02 0.  0.
         23    2    4    4    0    0 -0.80207185509E+03  0.70396772049E+03 -0.48541054320E+03  0.11760130501E+04  0.92160112255E+02 0.  0.
          1    1    3    3  502    0  0.36213791841E+03 -0.71387319967E+03 -0.79211612425E+03  0.11261468694E+04  0.00000000000E+00 0. -1.
         -1    1    3    3    0  502  0.21636260286E+03 -0.44685110919E+03 -0.60064215465E+03  0.77926868771E+03  0.00000000000E+00 0.  1.
         11    1    5    5    0    0  0.13548106211E+03  0.27272369983E+03 -0.26041705720E+02  0.30563295810E+03  0.00000000000E+00 0.  1.
        -11    1    5    5    0    0  0.88090271719E+02  0.18403288854E+03 -0.95563241270E+02  0.22530053954E+03  0.00000000000E+00 0. -1.
          1    1    6    6  503    0 -0.14876496574E+02  0.23437715045E+02  0.64980547739E-01  0.27760418933E+02  0.00000000000E+00 0. -1.
         -1    1    6    6    0  503 -0.78719535851E+03  0.68053000545E+03 -0.48547552375E+03  0.11482526311E+04  0.00000000000E+00 0.  1.
<mgrwt>
<rscale>  0 0.30083326E+04</rscale>
<asrwt>0</asrwt>
<pdfrwt beam="1">  1        2 0.12404526E+00 0.30083326E+04</pdfrwt>
<pdfrwt beam="2">  1       -2 0.43170276E+00 0.30083326E+04</pdfrwt>
<totfact> 0.13362376E-01</totfact>
</mgrwt>
</event>
<event>
12    2  0.3623523E-008  0.2467189E+04  0.7818608E-02  0.8414769E-01
          2   -1    0    0  501    0  0.00000000000E+00  0.00000000000E+00  0.19677723606E+04  0.19677723606E+04  0.00000000000E+00 0. -1.
         -2   -1    0    0    0  501 -0.00000000000E+00 -0.00000000000E+00 -0.77333911637E+03  0.77333911637E+03  0.00000000000E+00 0.  1.
         23    2    1    2    0    0 -0.67592525898E+03  0.60090382137E+03 -0.10046241773E+03  0.91480991365E+03  0.93936800443E+02 0.  0.
        254    2    1    2    0    0  0.67592525898E+03 -0.60090382137E+03  0.12948956620E+04  0.18263015633E+04  0.91687636383E+03 0.  0.
         23    2    4    4    0    0  0.70349670772E+03 -0.37557852469E+02  0.61752356040E+03  0.94129003594E+03  0.91506142181E+02 0.  0.
         23    2    4    4    0    0 -0.27571448738E+02 -0.56334596890E+03  0.67737210159E+03  0.88501152740E+03  0.79332050013E+02 0.  0.
          2    1    3    3  502    0 -0.66251356882E+03  0.59525154921E+03 -0.86828715962E+02  0.89486751066E+03  0.00000000000E+00 0.  1.
         -2    1    3    3    0  502 -0.13411690161E+02  0.56522721579E+01 -0.13633701766E+02  0.19942402998E+02  0.00000000000E+00 0. -1.
         11    1    5    5    0    0  0.67953544378E+03 -0.27080510285E+02  0.57134806873E+03  0.88822316398E+03  0.00000000000E+00 0. -1.
        -11    1    5    5    0    0  0.23961263942E+02 -0.10477342184E+02  0.46175491664E+02  0.53066871957E+02  0.00000000000E+00 0.  1.
          3    1    6    6  503    0 -0.11459947142E+02 -0.54470885474E+03  0.64445933101E+03  0.84389981404E+03  0.00000000000E+00 0. -1.
         -3    1    6    6    0  503 -0.16111501596E+02 -0.18637114166E+02  0.32912770575E+02  0.41111713356E+02  0.00000000000E+00 0.  1.
<mgrwt>
<rscale>  0 0.24671890E+04</rscale>
<asrwt>0</asrwt>
<pdfrwt beam="1">  1        2 0.30273421E+00 0.24671890E+04</pdfrwt>
<pdfrwt beam="2">  1       -2 0.11897525E+00 0.24671890E+04</pdfrwt>
<totfact> 0.33776981E+00</totfact>
</mgrwt>
</event>
<event>
12    2  0.3623523E-008  0.2257790E+04  0.7818608E-02  0.8494752E-01
          2   -1    0    0  501    0  0.00000000000E+00  0.00000000000E+00  0.20068883816E+04  0.20068883816E+04  0.00000000000E+00 0. -1.
         -2   -1    0    0    0  501 -0.00000000000E+00 -0.00000000000E+00 -0.63501480237E+03  0.63501480237E+03  0.00000000000E+00 0.  1.
         23    2    1    2    0    0  0.42152044006E+03 -0.72308993140E+03  0.51520455320E+02  0.84346431218E+03  0.90769809450E+02 0.  0.
        254    2    1    2    0    0 -0.42152044006E+03  0.72308993140E+03  0.13203531239E+04  0.17984388718E+04  0.88910712148E+03 0.  0.
         23    2    4    4    0    0 -0.36791603409E+03  0.47508939695E+03  0.19030924659E+03  0.63674831727E+03  0.90325339626E+02 0.  0.
         23    2    4    4    0    0 -0.53604405977E+02  0.24800053445E+03  0.11300438773E+04  0.11616905545E+04  0.90266729105E+02 0.  0.
          2    1    3    3  502    0  0.10276344996E+03 -0.22130738275E+03 -0.19443331760E+02  0.24477607615E+03  0.00000000000E+00 0. -1.
         -2    1    3    3    0  502  0.31875699011E+03 -0.50178254866E+03  0.70963787079E+02  0.59868823603E+03  0.00000000000E+00 0.  1.
         11    1    5    5    0    0 -0.30445873098E+03  0.43535589103E+03  0.15158473174E+03  0.55245615357E+03  0.00000000000E+00 0. -1.
        -11    1    5    5    0    0 -0.63457303109E+02  0.39733505919E+02  0.38724514856E+02  0.84292163700E+02  0.00000000000E+00 0.  1.
          1    1    6    6  503    0 -0.64339677774E+02  0.23160933434E+03  0.10989908158E+04  0.11249725735E+04  0.00000000000E+00 0. -1.
         -1    1    6    6    0  503  0.10735271797E+02  0.16391200109E+02  0.31053061495E+02  0.36717981015E+02  0.00000000000E+00 0.  1.
<mgrwt>
<rscale>  0 0.22577899E+04</rscale>
<asrwt>0</asrwt>
<pdfrwt beam="1">  1        2 0.30875206E+00 0.22577899E+04</pdfrwt>
<pdfrwt beam="2">  1       -2 0.97694586E-01 0.22577899E+04</pdfrwt>
<totfact> 0.52579342E+00</totfact>
</mgrwt>
</event>
<event>
12    2  0.3623523E-008  0.1189934E+04  0.7818608E-02  0.9121714E-01
          1   -1    0    0  501    0  0.00000000000E+00  0.00000000000E+00  0.59312219095E+03  0.59312219095E+03  0.00000000000E+00 0. -1.
         -1   -1    0    0    0  501 -0.00000000000E+00 -0.00000000000E+00 -0.59681707047E+03  0.59681707047E+03  0.00000000000E+00 0.  1.
         23    2    1    2    0    0  0.11250041506E+02 -0.21798265069E+03  0.96105022228E+02  0.25532593049E+03  0.91171026358E+02 0.  0.
        254    2    1    2    0    0 -0.11250041506E+02  0.21798265069E+03 -0.99799901746E+02  0.93461333093E+03  0.90327130948E+03 0.  0.
         23    2    4    4    0    0 -0.36068211006E+03  0.34435263197E+02 -0.30383296487E+03  0.48057985009E+03  0.85820451584E+02 0.  0.
         23    2    4    4    0    0  0.34943206855E+03  0.18354738749E+03  0.20403306312E+03  0.45403348084E+03  0.93405015315E+02 0.  0.
          4    1    3    3  502    0  0.13471337293E+02 -0.17218370291E+02  0.42060293276E+02  0.47402715897E+02  0.00000000000E+00 0. -1.
         -4    1    3    3    0  502 -0.22212957863E+01 -0.20076428040E+03  0.54044728952E+02  0.20792321459E+03  0.00000000000E+00 0.  1.
         11    1    5    5    0    0 -0.29400679279E+03 -0.57198073941E+01 -0.23039906360E+03  0.37357253501E+03  0.00000000000E+00 0.  1.
        -11    1    5    5    0    0 -0.66675317261E+02  0.40155070591E+02 -0.73433901267E+02  0.10700731508E+03  0.00000000000E+00 0. -1.
          2    1    6    6  503    0  0.19257229916E+03  0.68378899933E+02  0.14537476485E+03  0.25078593784E+03  0.00000000000E+00 0. -1.
         -2    1    6    6    0  503  0.15685976938E+03  0.11516848756E+03  0.58658298271E+02  0.20324754300E+03  0.00000000000E+00 0.  1.
<mgrwt>
<rscale>  0 0.11899335E+04</rscale>
<asrwt>0</asrwt>
<pdfrwt beam="1">  1        1 0.91249568E-01 0.11899335E+04</pdfrwt>
<pdfrwt beam="2">  1       -1 0.91818011E-01 0.11899335E+04</pdfrwt>
<totfact> 0.39878413E+01</totfact>
</mgrwt>
</event>
<event>
12    2  0.3623523E-008  0.1599382E+04  0.7818608E-02  0.8820928E-01
         -2   -1    0    0    0  501 -0.00000000000E+00  0.00000000000E+00  0.47014257005E+03  0.47014257005E+03  0.00000000000E+00 0.  1.
          2   -1    0    0  501    0  0.00000000000E+00 -0.00000000000E+00 -0.13602373905E+04  0.13602373905E+04  0.00000000000E+00 0. -1.
         23    2    1    2    0    0 -0.11131878919E+03 -0.86453190611E+02  0.29947698463E+03  0.34337633473E+03  0.91404682215E+02 0.  0.
        254    2    1    2    0    0  0.11131878919E+03  0.86453190611E+02 -0.11895718051E+04  0.14870036259E+04  0.88104067828E+03 0.  0.
         23    2    4    4    0    0 -0.21669939880E+03 -0.29238031556E+03 -0.40988002694E+03  0.55586826498E+03  0.92428421803E+02 0.  0.
         23    2    4    4    0    0  0.32801818799E+03  0.37883350617E+03 -0.77969177817E+03  0.93113536087E+03  0.89347827484E+02 0.  0.
          1    1    3    3  502    0 -0.24782938565E+02 -0.16919007856E+02  0.17086862744E+03  0.17348352865E+03  0.00000000000E+00 0. -1.
         -1    1    3    3    0  502 -0.86535850630E+02 -0.69534182755E+02  0.12860835719E+03  0.16989280607E+03  0.00000000000E+00 0.  1.
         11    1    5    5    0    0 -0.59242412706E+02 -0.38048296574E+02 -0.12115716982E+03  0.14012992590E+03  0.00000000000E+00 0. -1.
        -11    1    5    5    0    0 -0.15745698609E+03 -0.25433201898E+03 -0.28872285713E+03  0.41573833908E+03  0.00000000000E+00 0.  1.
          2    1    6    6  503    0  0.10926746202E+02  0.52475129920E+02 -0.71605916734E+02  0.89445180720E+02  0.00000000000E+00 0. -1.
         -2    1    6    6    0  503  0.31709144179E+03  0.32635837625E+03 -0.70808586144E+03  0.84169018015E+03  0.00000000000E+00 0.  1.
<mgrwt>
<rscale>  0 0.15993818E+04</rscale>
<asrwt>0</asrwt>
<pdfrwt beam="1">  1        2 0.20926729E+00 0.15993818E+04</pdfrwt>
<pdfrwt beam="2">  1       -2 0.72329627E-01 0.15993818E+04</pdfrwt>
<totfact> 0.25305937E+01</totfact>
</mgrwt>
</event>
<event>
12    2  0.3623523E-008  0.1276235E+04  0.7818608E-02  0.9048626E-01
         -1   -1    0    0    0  501 -0.00000000000E+00  0.00000000000E+00  0.63657866384E+03  0.63657866384E+03  0.00000000000E+00 0.  1.
          1   -1    0    0  501    0  0.00000000000E+00 -0.00000000000E+00 -0.63965990693E+03  0.63965990693E+03  0.00000000000E+00 0. -1.
         23    2    1    2    0    0  0.13380090633E+03  0.24752213127E+03 -0.14101205326E+03  0.32793702658E+03  0.92132547082E+02 0.  0.
        254    2    1    2    0    0 -0.13380090633E+03 -0.24752213127E+03  0.13793081016E+03  0.94830154420E+03  0.89503129685E+03 0.  0.
         23    2    4    4    0    0  0.60926900756E+02 -0.48982332428E+03 -0.14014292660E+03  0.52113088126E+03  0.91095440460E+02 0.  0.
         23    2    4    4    0    0 -0.19472780708E+03  0.24230119301E+03  0.27807373677E+03  0.42717066294E+03  0.92309182717E+02 0.  0.
          1    1    3    3  502    0  0.10314285167E+03  0.98684877722E+02 -0.84017644309E+02  0.16563851453E+03  0.00000000000E+00 0. -1.
         -1    1    3    3    0  502  0.30658054658E+02  0.14883725355E+03 -0.56994408947E+02  0.16229851204E+03  0.00000000000E+00 0.  1.
         11    1    5    5    0    0 -0.68055795103E+01 -0.30261287070E+03 -0.78139512567E+02  0.31261261787E+03  0.00000000000E+00 0.  1.
        -11    1    5    5    0    0  0.67732480267E+02 -0.18721045359E+03 -0.62003414038E+02  0.20851826339E+03  0.00000000000E+00 0. -1.
          3    1    6    6  503    0 -0.48123156476E+01 -0.71352187127E+01  0.17541874864E+02  0.19539373115E+02  0.00000000000E+00 0. -1.
         -3    1    6    6    0  503 -0.18991549144E+03  0.24943641172E+03  0.26053186190E+03  0.40763128983E+03  0.00000000000E+00 0.  1.
<mgrwt>
<rscale>  0 0.12762349E+04</rscale>
<asrwt>0</asrwt>
<pdfrwt beam="1">  1        1 0.98409217E-01 0.12762349E+04</pdfrwt>
<pdfrwt beam="2">  1       -1 0.97935179E-01 0.12762349E+04</pdfrwt>
<totfact> 0.30700495E+01</totfact>
</mgrwt>
</event>
<event>
12    2  0.3623523E-008  0.1758447E+04  0.7818608E-02  0.8728714E-01
          1   -1    0    0  501    0  0.00000000000E+00  0.00000000000E+00  0.19675518816E+04  0.19675518816E+04  0.00000000000E+00 0. -1.
         -1   -1    0    0    0  501 -0.00000000000E+00 -0.00000000000E+00 -0.39289122303E+03  0.39289122303E+03  0.00000000000E+00 0.  1.
         23    2    1    2    0    0 -0.35698851291E+03 -0.48976471197E+03  0.29837629627E+03  0.68230184174E+03  0.95901603899E+02 0.  0.
        254    2    1    2    0    0  0.35698851291E+03  0.48976471197E+03  0.12762843623E+04  0.16781412629E+04  0.90550872626E+03 0.  0.
         23    2    4    4    0    0 -0.33160308049E+02 -0.19417538477E+03  0.59730113743E+03  0.63449785730E+03  0.83756767204E+02 0.  0.
         23    2    4    4    0    0  0.39014882096E+03  0.68394009673E+03  0.67898322484E+03  0.10436434056E+04  0.90460930630E+02 0.  0.
          2    1    3    3  502    0 -0.27632122119E+03 -0.34318582769E+03  0.17351714079E+03  0.47353788418E+03  0.00000000000E+00 0. -1.
         -2    1    3    3    0  502 -0.80667291721E+02 -0.14657888428E+03  0.12485915548E+03  0.20876395756E+03  0.00000000000E+00 0.  1.
         11    1    5    5    0    0  0.21376345774E+02 -0.74352155997E+02  0.29088596366E+03  0.30099806497E+03  0.00000000000E+00 0. -1.
        -11    1    5    5    0    0 -0.54536653824E+02 -0.11982322877E+03  0.30641517378E+03  0.33349979233E+03  0.00000000000E+00 0.  1.
          1    1    6    6  503    0  0.15497286117E+02  0.28615850584E+02  0.56608269595E+02  0.65295704056E+02  0.00000000000E+00 0. -1.
         -1    1    6    6    0  503  0.37465153484E+03  0.65532424615E+03  0.62237495524E+03  0.97834770152E+03  0.00000000000E+00 0.  1.
<mgrwt>
<rscale>  0 0.17584469E+04</rscale>
<asrwt>0</asrwt>
<pdfrwt beam="1">  1        1 0.30270028E+00 0.17584469E+04</pdfrwt>
<pdfrwt beam="2">  1       -1 0.60444805E-01 0.17584469E+04</pdfrwt>
<totfact> 0.82408733E+00</totfact>
</mgrwt>
</event>
<event>
12    2  0.3623523E-008  0.3186499E+04  0.7818608E-02  0.8192392E-01
         -1   -1    0    0    0  501 -0.00000000000E+00  0.00000000000E+00  0.23771899865E+04  0.23771899865E+04  0.00000000000E+00 0.  1.
          1   -1    0    0  501    0  0.00000000000E+00 -0.00000000000E+00 -0.10678337666E+04  0.10678337666E+04  0.00000000000E+00 0. -1.
         23    2    1    2    0    0  0.29928384171E+03  0.24224831418E+03  0.21323862759E+04  0.21687420217E+04  0.90086975825E+02 0.  0.
        254    2    1    2    0    0 -0.29928384171E+03 -0.24224831418E+03 -0.82303005609E+03  0.12762817314E+04  0.89624858222E+03 0.  0.
         23    2    4    4    0    0 -0.30743324537E+03 -0.53399127949E+03 -0.36297736837E+03  0.72209978294E+03  0.10006817496E+03 0.  0.
         23    2    4    4    0    0  0.81494036570E+01  0.29174296532E+03 -0.46005268772E+03  0.55418194849E+03  0.10143365302E+03 0.  0.
          1    1    3    3  502    0  0.98112691330E+01  0.44346660206E+01  0.20508270918E+03  0.20536515008E+03  0.00000000000E+00 0. -1.
         -1    1    3    3    0  502  0.28947257258E+03  0.23781364815E+03  0.19273035667E+04  0.19633768716E+04  0.00000000000E+00 0.  1.
         11    1    5    5    0    0 -0.21968906607E+03 -0.29849298602E+03 -0.24646542067E+03  0.44509162208E+03  0.00000000000E+00 0. -1.
        -11    1    5    5    0    0 -0.87744179297E+02 -0.23549829347E+03 -0.11651194770E+03  0.27700816087E+03  0.00000000000E+00 0.  1.
          4    1    6    6  503    0 -0.24250295320E+02  0.11859856716E+02 -0.46606854961E+02  0.53860300350E+02  0.00000000000E+00 0.  1.
         -4    1    6    6    0  503  0.32399698977E+02  0.27988310860E+03 -0.41344583276E+03  0.50032164814E+03  0.00000000000E+00 0. -1.
<mgrwt>
<rscale>  0 0.31864989E+04</rscale>
<asrwt>0</asrwt>
<pdfrwt beam="1">  1        1 0.16428212E+00 0.31864989E+04</pdfrwt>
<pdfrwt beam="2">  1       -1 0.36572154E+00 0.31864989E+04</pdfrwt>
<totfact> 0.13705135E-01</totfact>
</mgrwt>
</event>
<event>
12    2  0.3623523E-008  0.1785018E+04  0.7818608E-02  0.8714307E-01
         -2   -1    0    0    0  501 -0.00000000000E+00  0.00000000000E+00  0.48417047675E+03  0.48417047675E+03  0.00000000000E+00 0. -1.
          2   -1    0    0  501    0  0.00000000000E+00 -0.00000000000E+00 -0.16452316514E+04  0.16452316514E+04  0.00000000000E+00 0.  1.
         23    2    1    2    0    0  0.32830420668E+03  0.56961234723E+03 -0.51306674284E+03  0.83906320726E+03  0.92453798830E+02 0.  0.
        254    2    1    2    0    0 -0.32830420668E+03 -0.56961234723E+03 -0.64799443180E+03  0.12903389209E+04  0.90157410613E+03 0.  0.
         23    2    4    4    0    0 -0.31822752256E+03 -0.72857369240E+03 -0.73419178746E+03  0.10860535411E+04  0.91576918727E+02 0.  0.
         23    2    4    4    0    0 -0.10076684120E+02  0.15896134516E+03  0.86197355654E+02  0.20428537976E+03  0.94510758349E+02 0.  0.
          3    1    3    3  502    0  0.50581977663E+02  0.11689370123E+03 -0.59275188326E+02  0.14048566404E+03  0.00000000000E+00 0. -1.
         -3    1    3    3    0  502  0.27772222902E+03  0.45271864601E+03 -0.45379155452E+03  0.69857754322E+03  0.00000000000E+00 0.  1.
         11    1    5    5    0    0 -0.18725662431E+03 -0.32734461605E+03 -0.31793216040E+03  0.49325490329E+03  0.00000000000E+00 0.  1.
        -11    1    5    5    0    0 -0.13097089826E+03 -0.40122907634E+03 -0.41625962706E+03  0.59279863783E+03  0.00000000000E+00 0. -1.
          2    1    6    6  503    0 -0.49405379431E+01  0.16486728511E+03  0.96691951157E+02  0.19119352508E+03  0.00000000000E+00 0. -1.
         -2    1    6    6    0  503 -0.51361461767E+01 -0.59059399456E+01 -0.10494595504E+02  0.13091854680E+02  0.00000000000E+00 0.  1.
<mgrwt>
<rscale>  0 0.17850183E+04</rscale>
<asrwt>0</asrwt>
<pdfrwt beam="1">  1        2 0.25311256E+00 0.17850183E+04</pdfrwt>
<pdfrwt beam="2">  1       -2 0.74487767E-01 0.17850183E+04</pdfrwt>
<totfact> 0.16121342E+01</totfact>
</mgrwt>
</event>
<event>
12    2  0.3623523E-008  0.1686083E+04  0.7818608E-02  0.8769342E-01
          1   -1    0    0  501    0  0.00000000000E+00  0.00000000000E+00  0.36834096783E+03  0.36834096783E+03  0.00000000000E+00 0. -1.
         -1   -1    0    0    0  501 -0.00000000000E+00 -0.00000000000E+00 -0.19295132639E+04  0.19295132639E+04  0.00000000000E+00 0.  1.
         23    2    1    2    0    0 -0.22643509919E+02 -0.10415236354E+03  0.24505882185E+03  0.28237567862E+03  0.91223650116E+02 0.  0.
        254    2    1    2    0    0  0.22643509919E+02  0.10415236354E+03 -0.18062311179E+04  0.20154785531E+04  0.88787527463E+03 0.  0.
         23    2    4    4    0    0 -0.20131125835E+03  0.22769811256E+03 -0.16914516853E+04  0.17210652519E+04  0.93188755380E+02 0.  0.
         23    2    4    4    0    0  0.22395476827E+03 -0.12354574902E+03 -0.11477943254E+03  0.29441330120E+03  0.89919872429E+02 0.  0.
          3    1    3    3  502    0 -0.25202703303E+02 -0.81918888962E+02  0.24545849336E+03  0.25999183177E+03  0.00000000000E+00 0. -1.
         -3    1    3    3    0  502  0.25591933841E+01 -0.22233474580E+02 -0.39967151647E+00  0.22383846854E+02  0.00000000000E+00 0.  1.
         11    1    5    5    0    0 -0.52230647764E+02  0.50496072823E+02 -0.65733881412E+03  0.66134122092E+03  0.00000000000E+00 0. -1.
        -11    1    5    5    0    0 -0.14908061059E+03  0.17720203974E+03 -0.10341128712E+04  0.10597240309E+04  0.00000000000E+00 0.  1.
          3    1    6    6  503    0  0.15556239885E+03 -0.69334027176E+02 -0.30372637792E+02  0.17300105314E+03  0.00000000000E+00 0. -1.
         -3    1    6    6    0  503  0.68392369423E+02 -0.54211721845E+02 -0.84406794747E+02  0.12141224806E+03  0.00000000000E+00 0.  1.
<mgrwt>
<rscale>  0 0.16860828E+04</rscale>
<asrwt>0</asrwt>
<pdfrwt beam="1">  1        1 0.56667841E-01 0.16860828E+04</pdfrwt>
<pdfrwt beam="2">  1       -1 0.29684819E+00 0.16860828E+04</pdfrwt>
<totfact> 0.22111019E+00</totfact>
</mgrwt>
</event>
<event>
12    2  0.3623523E-008  0.2822920E+04  0.7818608E-02  0.8296188E-01
         -2   -1    0    0    0  501 -0.00000000000E+00  0.00000000000E+00  0.17655662509E+04  0.17655662509E+04  0.00000000000E+00 0.  1.
          2   -1    0    0  501    0  0.00000000000E+00 -0.00000000000E+00 -0.11283739674E+04  0.11283739674E+04  0.00000000000E+00 0. -1.
         23    2    1    2    0    0 -0.10481339201E+04  0.67211824434E+03  0.53725208641E+02  0.12497847515E+04  0.93530091689E+02 0.  0.
        254    2    1    2    0    0  0.10481339201E+04 -0.67211824434E+03  0.58346707481E+03  0.16441554668E+04  0.90137989929E+03 0.  0.
         23    2    4    4    0    0  0.11746918199E+04 -0.49140043153E+03  0.58919388764E+03  0.14059993854E+04  0.91156889506E+02 0.  0.
         23    2    4    4    0    0 -0.12655789981E+03 -0.18071781281E+03 -0.57268128258E+01  0.23815608146E+03  0.89496887556E+02 0.  0.
          2    1    3    3  502    0 -0.31316707434E+03  0.21154465555E+03 -0.25741193994E+02  0.37879726347E+03  0.00000000000E+00 0. -1.
         -2    1    3    3    0  502 -0.73496684578E+03  0.46057358878E+03  0.79466402635E+02  0.87098748799E+03  0.00000000000E+00 0.  1.
         11    1    5    5    0    0  0.12794098337E+03 -0.23780631238E+02  0.58834665788E+02  0.14281432542E+03  0.00000000000E+00 0. -1.
        -11    1    5    5    0    0  0.10467508366E+04 -0.46761980029E+03  0.53035922185E+03  0.12631850599E+04  0.00000000000E+00 0.  1.
          4    1    6    6  503    0 -0.41214569936E+02 -0.11082390816E+03 -0.36299986797E+02  0.12368616914E+03  0.00000000000E+00 0. -1.
         -4    1    6    6    0  503 -0.85343329873E+02 -0.69893904653E+02  0.30573173972E+02  0.11446991233E+03  0.00000000000E+00 0.  1.
<mgrwt>
<rscale>  0 0.28229198E+04</rscale>
<asrwt>0</asrwt>
<pdfrwt beam="1">  1        2 0.17359599E+00 0.28229198E+04</pdfrwt>
<pdfrwt beam="2">  1       -2 0.27162558E+00 0.28229198E+04</pdfrwt>
<totfact> 0.86103481E-01</totfact>
</mgrwt>
</event>
<event>
12    2  0.3623523E-008  0.1173614E+04  0.7818608E-02  0.9136271E-01
         -1   -1    0    0    0  501 -0.00000000000E+00  0.00000000000E+00  0.82569202825E+03  0.82569202825E+03  0.00000000000E+00 0.  1.
          1   -1    0    0  501    0  0.00000000000E+00 -0.00000000000E+00 -0.41703499588E+03  0.41703499588E+03  0.00000000000E+00 0. -1.
         23    2    1    2    0    0 -0.16937223803E+03  0.14827591999E+03  0.14067219564E+03  0.27997270910E+03  0.89013188643E+02 0.  0.
        254    2    1    2    0    0  0.16937223803E+03 -0.14827591999E+03  0.26798483672E+03  0.96275431502E+03  0.89688755980E+03 0.  0.
         23    2    4    4    0    0  0.44708198606E+03 -0.17484720380E+03  0.40883283092E+03  0.63707857127E+03  0.90944903057E+02 0.  0.
         23    2    4    4    0    0 -0.27770974804E+03  0.26571283808E+02 -0.14084799420E+03  0.32567574376E+03  0.91639485624E+02 0.  0.
          1    1    3    3  502    0 -0.62955012901E+02  0.40066912698E+02  0.24023898886E+01  0.74662323963E+02  0.00000000000E+00 0. -1.
         -1    1    3    3    0  502 -0.10641722513E+03  0.10820900729E+03  0.13826980575E+03  0.20531038514E+03  0.00000000000E+00 0.  1.
         11    1    5    5    0    0  0.31039703875E+03 -0.13202643525E+03  0.33712248052E+03  0.47689502843E+03  0.00000000000E+00 0. -1.
        -11    1    5    5    0    0  0.13668494731E+03 -0.42820768546E+02  0.71710350396E+02  0.16018354284E+03  0.00000000000E+00 0.  1.
          1    1    6    6  503    0 -0.26354146510E+03  0.16254588689E+02 -0.15222561999E+03  0.30478017465E+03  0.00000000000E+00 0. -1.
         -1    1    6    6    0  503 -0.14168282937E+02  0.10316695120E+02  0.11377625792E+02  0.20895569105E+02  0.00000000000E+00 0.  1.
<mgrwt>
<rscale>  0 0.11736140E+04</rscale>
<asrwt>0</asrwt>
<pdfrwt beam="1">  1        1 0.64159230E-01 0.11736140E+04</pdfrwt>
<pdfrwt beam="2">  1       -1 0.12702954E+00 0.11736140E+04</pdfrwt>
<totfact> 0.30251773E+01</totfact>
</mgrwt>
</event>
<event>
12    2  0.3623523E-008  0.1699872E+04  0.7818608E-02  0.8761438E-01
          1   -1    0    0  501    0  0.00000000000E+00  0.00000000000E+00  0.13571103943E+04  0.13571103943E+04  0.00000000000E+00 0. -1.
         -1   -1    0    0    0  501 -0.00000000000E+00 -0.00000000000E+00 -0.53230067861E+03  0.53230067861E+03  0.00000000000E+00 0.  1.
         23    2    1    2    0    0 -0.45581023031E+03 -0.25784246665E+03  0.66089415548E+03  0.84707089736E+03  0.80636943973E+02 0.  0.
        254    2    1    2    0    0  0.45581023031E+03  0.25784246665E+03  0.16391556019E+03  0.10423401755E+04  0.88620484483E+03 0.  0.
         23    2    4    4    0    0 -0.40822272096E+02 -0.26389643583E+03 -0.48371844711E+02  0.28636782496E+03  0.91427069648E+02 0.  0.
         23    2    4    4    0    0  0.49663250241E+03  0.52173890249E+03  0.21228740490E+03  0.75597235058E+03  0.87022570328E+02 0.  0.
          2    1    3    3  502    0 -0.39943372452E+03 -0.23097859634E+03  0.53462597792E+03  0.70620347529E+03  0.00000000000E+00 0. -1.
         -2    1    3    3    0  502 -0.56376505790E+02 -0.26863870311E+02  0.12626817757E+03  0.14086742207E+03  0.00000000000E+00 0.  1.
         11    1    5    5    0    0 -0.42523665828E+02 -0.95688906815E+02  0.16639765135E+02  0.10602599128E+03  0.00000000000E+00 0.  1.
        -11    1    5    5    0    0  0.17013937324E+01 -0.16820752902E+03 -0.65011609846E+02  0.18034183368E+03  0.00000000000E+00 0. -1.
          3    1    6    6  503    0  0.11131283469E+03  0.11121161378E+03  0.84577415291E+02  0.17863904776E+03  0.00000000000E+00 0. -1.
         -3    1    6    6    0  503  0.38531966772E+03  0.41052728870E+03  0.12770998961E+03  0.57733330282E+03  0.00000000000E+00 0.  1.
<mgrwt>
<rscale>  0 0.16998715E+04</rscale>
<asrwt>0</asrwt>
<pdfrwt beam="1">  1        1 0.20878621E+00 0.16998715E+04</pdfrwt>
<pdfrwt beam="2">  1       -1 0.81892413E-01 0.16998715E+04</pdfrwt>
<totfact> 0.11631135E+01</totfact>
</mgrwt>
</event>
<event>
12    2  0.3623523E-008  0.1476813E+04  0.7818608E-02  0.8900020E-01
         -2   -1    0    0    0  501 -0.00000000000E+00  0.00000000000E+00  0.30079108936E+03  0.30079108936E+03  0.00000000000E+00 0.  1.
          2   -1    0    0  501    0  0.00000000000E+00 -0.00000000000E+00 -0.18127002841E+04  0.18127002841E+04  0.00000000000E+00 0. -1.
         23    2    1    2    0    0 -0.83040121561E+02 -0.36747811687E+03 -0.10831066864E+03  0.40232114852E+03  0.90527771662E+02 0.  0.
        254    2    1    2    0    0  0.83040121561E+02  0.36747811687E+03 -0.14035985261E+04  0.17111702249E+04  0.90337084747E+03 0.  0.
         23    2    4    4    0    0 -0.14216659249E+03 -0.10582389136E+03 -0.10571432179E+04  0.10760684692E+04  0.94665364726E+02 0.  0.
         23    2    4    4    0    0  0.22520671405E+03  0.47330200822E+03 -0.34645530815E+03  0.63510175568E+03  0.92682816525E+02 0.  0.
          2    1    3    3  502    0 -0.31570715220E+01 -0.13827417625E+03 -0.74953380636E+02  0.15731409405E+03  0.00000000000E+00 0. -1.
         -2    1    3    3    0  502 -0.79883050039E+02 -0.22920394062E+03 -0.33357288004E+02  0.24500705447E+03  0.00000000000E+00 0.  1.
         11    1    5    5    0    0 -0.13631939696E+03 -0.62555791659E+02 -0.91990725619E+03  0.93205448610E+03  0.00000000000E+00 0. -1.
        -11    1    5    5    0    0 -0.58471955287E+01 -0.43268099696E+02 -0.13723596171E+03  0.14401398312E+03  0.00000000000E+00 0.  1.
          3    1    6    6  503    0  0.21038596058E+03  0.38656661207E+03 -0.31670545570E+03  0.54221614108E+03  0.00000000000E+00 0. -1.
         -3    1    6    6    0  503  0.14820753472E+02  0.86735396149E+02 -0.29749852457E+02  0.92885614601E+02  0.00000000000E+00 0.  1.
<mgrwt>
<rscale>  0 0.14768129E+04</rscale>
<asrwt>0</asrwt>
<pdfrwt beam="1">  1        2 0.27887696E+00 0.14768129E+04</pdfrwt>
<pdfrwt beam="2">  1       -2 0.46275553E-01 0.14768129E+04</pdfrwt>
<totfact> 0.36381460E+01</totfact>
</mgrwt>
</event>
<event>
12    2  0.3623523E-008  0.2019725E+04  0.7818608E-02  0.8597454E-01
          2   -1    0    0  501    0  0.00000000000E+00  0.00000000000E+00  0.91875104786E+03  0.91875104786E+03  0.00000000000E+00 0. -1.
         -2   -1    0    0    0  501 -0.00000000000E+00 -0.00000000000E+00 -0.11100089313E+04  0.11100089313E+04  0.00000000000E+00 0.  1.
         23    2    1    2    0    0  0.50087072830E+03  0.20814786756E+03 -0.67158096316E+03  0.86788283252E+03  0.89457250474E+02 0.  0.
        254    2    1    2    0    0 -0.50087072830E+03 -0.20814786756E+03  0.48032307971E+03  0.11608771467E+04  0.90704380682E+03 0.  0.
         23    2    4    4    0    0  0.19958563207E+03 -0.22343471370E+03  0.29350498037E+03  0.43009679567E+03  0.95292100034E+02 0.  0.
         23    2    4    4    0    0 -0.70045636038E+03  0.15286846133E+02  0.18681809934E+03  0.73078035099E+03  0.90918197800E+02 0.  0.
          1    1    3    3  502    0  0.38445711907E+03  0.17083882053E+03 -0.57288946120E+03  0.71077106986E+03  0.00000000000E+00 0. -1.
         -1    1    3    3    0  502  0.11641360923E+03  0.37309047033E+02 -0.98691501960E+02  0.15711176266E+03  0.00000000000E+00 0.  1.
         11    1    5    5    0    0  0.10708190204E+03 -0.13354758682E+03  0.10217937369E+03  0.19935424775E+03  0.00000000000E+00 0. -1.
        -11    1    5    5    0    0  0.92503730032E+02 -0.89887126880E+02  0.19132560668E+03  0.23074254791E+03  0.00000000000E+00 0.  1.
          4    1    6    6  503    0 -0.87286263948E+02  0.31040254506E+02  0.33747431190E+02  0.98596543477E+02  0.00000000000E+00 0. -1.
         -4    1    6    6    0  503 -0.61317009643E+03 -0.15753408373E+02  0.15307066815E+03  0.63218380751E+03  0.00000000000E+00 0.  1.
<mgrwt>
<rscale>  0 0.20197246E+04</rscale>
<asrwt>0</asrwt>
<pdfrwt beam="1">  1        2 0.14134631E+00 0.20197246E+04</pdfrwt>
<pdfrwt beam="2">  1       -2 0.17077061E+00 0.20197246E+04</pdfrwt>
<totfact> 0.55582435E+00</totfact>
</mgrwt>
</event>
<event>
12    2  0.3623523E-008  0.1039232E+04  0.7818608E-02  0.9266533E-01
          1   -1    0    0  501    0  0.00000000000E+00  0.00000000000E+00  0.13294046327E+04  0.13294046327E+04  0.00000000000E+00 0. -1.
         -1   -1    0    0    0  501 -0.00000000000E+00 -0.00000000000E+00 -0.20309886143E+03  0.20309886143E+03  0.00000000000E+00 0.  1.
         23    2    1    2    0    0 -0.59658984776E+02 -0.83955445234E+02  0.13208932844E+03  0.19116900518E+03  0.92142751240E+02 0.  0.
        254    2    1    2    0    0  0.59658984776E+02  0.83955445234E+02  0.99421644286E+03  0.13413344890E+04  0.89448541901E+03 0.  0.
         23    2    4    4    0    0 -0.32797134023E+03 -0.21178062819E+03  0.51533042941E+03  0.65307295720E+03  0.92317936853E+02 0.  0.
         23    2    4    4    0    0  0.38763032500E+03  0.29573607343E+03  0.47888601345E+03  0.68826153177E+03  0.81578356553E+02 0.  0.
          1    1    3    3  502    0 -0.11538121010E+02 -0.69264402522E+02  0.12061148723E+03  0.13956294832E+03  0.00000000000E+00 0. -1.
         -1    1    3    3    0  502 -0.48120863765E+02 -0.14691042712E+02  0.11477841207E+02  0.51606056856E+02  0.00000000000E+00 0.  1.
         11    1    5    5    0    0 -0.14880801299E+03 -0.43074639833E+02  0.19006380942E+03  0.24520094001E+03  0.00000000000E+00 0. -1.
        -11    1    5    5    0    0 -0.17916332724E+03 -0.16870598836E+03  0.32526661999E+03  0.40787201720E+03  0.00000000000E+00 0.  1.
          1    1    6    6  503    0  0.15246699139E+03  0.68958561335E+02  0.15079800116E+03  0.22525874855E+03  0.00000000000E+00 0. -1.
         -1    1    6    6    0  503  0.23516333362E+03  0.22677751209E+03  0.32808801229E+03  0.46300278323E+03  0.00000000000E+00 0.  1.
<mgrwt>
<rscale>  0 0.10392316E+04</rscale>
<asrwt>0</asrwt>
<pdfrwt beam="1">  1        1 0.20452378E+00 0.10392316E+04</pdfrwt>
<pdfrwt beam="2">  1       -1 0.31245979E-01 0.10392316E+04</pdfrwt>
<totfact> 0.81820579E+01</totfact>
</mgrwt>
</event>
<event>
12    2  0.3623523E-008  0.2919705E+04  0.7818608E-02  0.8267039E-01
          1   -1    0    0  501    0  0.00000000000E+00  0.00000000000E+00  0.25578156632E+04  0.25578156632E+04  0.00000000000E+00 0. -1.
         -1   -1    0    0    0  501 -0.00000000000E+00 -0.00000000000E+00 -0.83319923179E+03  0.83319923179E+03  0.00000000000E+00 0.  1.
         23    2    1    2    0    0  0.66114712397E+02 -0.42459016688E+03  0.22300646831E+04  0.22736161307E+04  0.10720939287E+03 0.  0.
        254    2    1    2    0    0 -0.66114712397E+02  0.42459016688E+03 -0.50544825169E+03  0.11173987643E+04  0.89914075555E+03 0.  0.
         23    2    4    4    0    0 -0.23858114834E+03  0.28022937018E+03  0.15801956787E+03  0.41089440649E+03  0.91730939202E+02 0.  0.
         23    2    4    4    0    0  0.17246643594E+03  0.14436079670E+03 -0.66346781956E+03  0.70650435780E+03  0.91510375635E+02 0.  0.
          1    1    3    3  502    0  0.20904216831E+02 -0.30212621407E+03  0.17551582578E+04  0.17810945358E+04  0.00000000000E+00 0. -1.
         -1    1    3    3    0  502  0.45210495566E+02 -0.12246395282E+03  0.47490642524E+03  0.49252159484E+03  0.00000000000E+00 0.  1.
         11    1    5    5    0    0 -0.19704227561E+03  0.21996966399E+03  0.16339825626E+03  0.33750748378E+03  0.00000000000E+00 0.  1.
        -11    1    5    5    0    0 -0.41538872724E+02  0.60259706190E+02 -0.53786883977E+01  0.73386922719E+02  0.00000000000E+00 0. -1.
          4    1    6    6  503    0  0.13416282061E+03  0.62507060480E+02 -0.47430812075E+03  0.49686516124E+03  0.00000000000E+00 0. -1.
         -4    1    6    6    0  503  0.38303615333E+02  0.81853736223E+02 -0.18915969881E+03  0.20963919656E+03  0.00000000000E+00 0.  1.
<mgrwt>
<rscale>  0 0.29197055E+04</rscale>
<asrwt>0</asrwt>
<pdfrwt beam="1">  1        1 0.39351010E+00 0.29197055E+04</pdfrwt>
<pdfrwt beam="2">  1       -1 0.12818450E+00 0.29197055E+04</pdfrwt>
<totfact> 0.55577769E-01</totfact>
</mgrwt>
</event>
<event>
12    2  0.3623523E-008  0.2235928E+04  0.7818608E-02  0.8503621E-01
         -2   -1    0    0    0  501 -0.00000000000E+00  0.00000000000E+00  0.41135508286E+03  0.41135508286E+03  0.00000000000E+00 0.  1.
          2   -1    0    0  501    0  0.00000000000E+00 -0.00000000000E+00 -0.30383578804E+04  0.30383578804E+04  0.00000000000E+00 0. -1.
         23    2    1    2    0    0  0.21920616024E+02  0.86778344045E+03 -0.57749941571E+03  0.10467157179E+04  0.92626162300E+02 0.  0.
        254    2    1    2    0    0 -0.21920616024E+02 -0.86778344045E+03 -0.20495033818E+04  0.24029972454E+04  0.90576102605E+03 0.  0.
         23    2    4    4    0    0 -0.15205076979E+03 -0.10103781179E+04 -0.18216947341E+04  0.20906574005E+04  0.91067471178E+02 0.  0.
         23    2    4    4    0    0  0.13013015376E+03  0.14259467746E+03 -0.22780864770E+03  0.31233984486E+03  0.91609496011E+02 0.  0.
          2    1    3    3  502    0 -0.99149156450E+01  0.84847926963E+01 -0.73029609796E+01  0.14954280271E+02  0.00000000000E+00 0. -1.
         -2    1    3    3    0  502  0.31835531669E+02  0.85929864775E+03 -0.57019645473E+03  0.10317614376E+04  0.00000000000E+00 0.  1.
         11    1    5    5    0    0 -0.99023353815E+02 -0.39398890429E+03 -0.67963553202E+03  0.79179374694E+03  0.00000000000E+00 0.  1.
        -11    1    5    5    0    0 -0.53027415972E+02 -0.61638921363E+03 -0.11420592021E+04  0.12988636536E+04  0.00000000000E+00 0. -1.
          3    1    6    6  503    0  0.47877771502E+02  0.55762423364E+02 -0.26398651444E+02  0.78093646743E+02  0.00000000000E+00 0. -1.
         -3    1    6    6    0  503  0.82252382259E+02  0.86832254099E+02 -0.20140999626E+03  0.23424619811E+03  0.00000000000E+00 0.  1.
<mgrwt>
<rscale>  0 0.22359284E+04</rscale>
<asrwt>0</asrwt>
<pdfrwt beam="1">  1        2 0.46743967E+00 0.22359284E+04</pdfrwt>
<pdfrwt beam="2">  1       -2 0.63285398E-01 0.22359284E+04</pdfrwt>
<totfact> 0.34744913E+00</totfact>
</mgrwt>
</event>
<event>
12    2  0.3623523E-008  0.2846645E+04  0.7818608E-02  0.8288931E-01
          2   -1    0    0  501    0  0.00000000000E+00  0.00000000000E+00  0.18293078303E+04  0.18293078303E+04  0.00000000000E+00 0.  1.
         -2   -1    0    0    0  501 -0.00000000000E+00 -0.00000000000E+00 -0.11074393342E+04  0.11074393342E+04  0.00000000000E+00 0. -1.
         23    2    1    2    0    0 -0.37124139133E+03  0.38137147928E+03  0.15258298294E+04  0.16187750107E+04  0.94928873970E+02 0.  0.
        254    2    1    2    0    0  0.37124139133E+03 -0.38137147928E+03 -0.80396133336E+03  0.13179721538E+04  0.89857242153E+03 0.  0.
         23    2    4    4    0    0  0.98186299489E+02  0.23604198384E+03 -0.50728162195E+03  0.57511233844E+03  0.89795268843E+02 0.  0.
         23    2    4    4    0    0  0.27305509185E+03 -0.61741346313E+03 -0.29667971140E+03  0.74285981534E+03  0.89796360985E+02 0.  0.
          1    1    3    3  502    0 -0.75493400813E+02  0.12225117714E+03  0.49752062959E+03  0.51785266316E+03  0.00000000000E+00 0. -1.
         -1    1    3    3    0  502 -0.29574799052E+03  0.25912030214E+03  0.10283091998E+04  0.11009223476E+04  0.00000000000E+00 0.  1.
         11    1    5    5    0    0  0.36985849252E+02  0.64981889461E+02 -0.24423692884E+03  0.25542567688E+03  0.00000000000E+00 0. -1.
        -11    1    5    5    0    0  0.61200450237E+02  0.17106009438E+03 -0.26304469311E+03  0.31968666155E+03  0.00000000000E+00 0.  1.
          3    1    6    6  503    0  0.23419269525E+03 -0.44589369364E+03 -0.19781239871E+03  0.54110733651E+03  0.00000000000E+00 0. -1.
         -3    1    6    6    0  503  0.38862396593E+02 -0.17151976949E+03 -0.98867312694E+02  0.20175247883E+03  0.00000000000E+00 0.  1.
<mgrwt>
<rscale>  0 0.28466454E+04</rscale>
<asrwt>0</asrwt>
<pdfrwt beam="1">  1        2 0.28143197E+00 0.28466454E+04</pdfrwt>
<pdfrwt beam="2">  1       -2 0.17037528E+00 0.28466454E+04</pdfrwt>
<totfact> 0.15263685E+00</totfact>
</mgrwt>
</event>
<event>
12    2  0.3623523E-008  0.1809918E+04  0.7818608E-02  0.8701043E-01
         -1   -1    0    0    0  501 -0.00000000000E+00  0.00000000000E+00  0.12236870719E+04  0.12236870719E+04  0.00000000000E+00 0.  1.
          1   -1    0    0  501    0  0.00000000000E+00 -0.00000000000E+00 -0.66924824925E+03  0.66924824925E+03  0.00000000000E+00 0. -1.
         23    2    1    2    0    0  0.54522811847E+03  0.25456654316E+03 -0.10679225940E+03  0.61791013301E+03  0.91271680904E+02 0.  0.
        254    2    1    2    0    0 -0.54522811847E+03 -0.25456654316E+03  0.66123108206E+03  0.12750251881E+04  0.90905712716E+03 0.  0.
         23    2    4    4    0    0 -0.56689423952E+02 -0.42648738720E+03  0.12977873045E+02  0.44042416161E+03  0.93272904497E+02 0.  0.
         23    2    4    4    0    0 -0.48853869452E+03  0.17192084403E+03  0.64825320902E+03  0.83460102653E+03  0.89998987929E+02 0.  0.
          2    1    3    3  502    0  0.17136816553E+03  0.73219047731E+02 -0.75976756781E+02  0.20124747123E+03  0.00000000000E+00 0. -1.
         -2    1    3    3    0  502  0.37385995295E+03  0.18134749543E+03 -0.30815502622E+02  0.41666266178E+03  0.00000000000E+00 0.  1.
         11    1    5    5    0    0 -0.68976616397E+02 -0.25456606116E+03 -0.21606005887E+02  0.26462893378E+03  0.00000000000E+00 0.  1.
        -11    1    5    5    0    0  0.12287192445E+02 -0.17192132604E+03  0.34583878932E+02  0.17579522783E+03  0.00000000000E+00 0. -1.
          4    1    6    6  503    0 -0.39296145914E+03  0.12283572230E+03  0.45602391987E+03  0.61438191586E+03  0.00000000000E+00 0. -1.
         -4    1    6    6    0  503 -0.95577235379E+02  0.49085121733E+02  0.19222928914E+03  0.22021911067E+03  0.00000000000E+00 0.  1.
<mgrwt>
<rscale>  0 0.18099176E+04</rscale>
<asrwt>0</asrwt>
<pdfrwt beam="1">  1        1 0.10296127E+00 0.18099176E+04</pdfrwt>
<pdfrwt beam="2">  1       -1 0.18825955E+00 0.18099176E+04</pdfrwt>
<totfact> 0.49959149E+00</totfact>
</mgrwt>
</event>
<event>
12    2  0.3623523E-008  0.1101768E+04  0.7818608E-02  0.9203471E-01
          3   -1    0    0  501    0  0.00000000000E+00  0.00000000000E+00  0.66117977194E+03  0.66117977194E+03  0.00000000000E+00 0. -1.
         -3   -1    0    0    0  501 -0.00000000000E+00 -0.00000000000E+00 -0.45898703927E+03  0.45898703927E+03  0.00000000000E+00 0.  1.
         23    2    1    2    0    0 -0.10957900046E+03 -0.60255483575E+02 -0.71758112186E+02  0.17255490307E+03  0.94803413793E+02 0.  0.
        254    2    1    2    0    0  0.10957900046E+03  0.60255483575E+02  0.27395084485E+03  0.94761190814E+03  0.89848816487E+03 0.  0.
         23    2    4    4    0    0  0.26347200407E+03 -0.26315218049E+03 -0.12683096309E+03  0.40244054532E+03  0.84886584906E+02 0.  0.
         23    2    4    4    0    0 -0.15389300361E+03  0.32340766407E+03  0.40078180794E+03  0.54517136281E+03  0.91160207997E+02 0.  0.
          4    1    3    3  502    0 -0.51108212082E+02 -0.92433060704E+01  0.17011073645E+02  0.54652215654E+02  0.00000000000E+00 0. -1.
         -4    1    3    3    0  502 -0.58470788381E+02 -0.51012177505E+02 -0.88769185830E+02  0.11790268742E+03  0.00000000000E+00 0.  1.
         11    1    5    5    0    0  0.90521865959E+02 -0.14785651965E+03 -0.69900817928E+02  0.18692748050E+03  0.00000000000E+00 0.  1.
        -11    1    5    5    0    0  0.17295013811E+03 -0.11529566084E+03 -0.56930145161E+02  0.21551306482E+03  0.00000000000E+00 0. -1.
          1    1    6    6  503    0 -0.51413382167E+02  0.35743743383E+02  0.50315166326E+02  0.80327871995E+02  0.00000000000E+00 0. -1.
         -1    1    6    6    0  503 -0.10247962144E+03  0.28766392068E+03  0.35046664161E+03  0.46484349082E+03  0.00000000000E+00 0.  1.
<mgrwt>
<rscale>  0 0.11017676E+04</rscale>
<asrwt>0</asrwt>
<pdfrwt beam="1">  1        3 0.10171996E+00 0.11017676E+04</pdfrwt>
<pdfrwt beam="2">  1       -3 0.70613391E-01 0.11017676E+04</pdfrwt>
<totfact> 0.41884489E+00</totfact>
</mgrwt>
</event>
<event>
12    2  0.3623523E-008  0.3030537E+04  0.7818608E-02  0.8235064E-01
         -1   -1    0    0    0  501 -0.00000000000E+00  0.00000000000E+00  0.26018442124E+04  0.26018442124E+04  0.00000000000E+00 0.  1.
          1   -1    0    0  501    0  0.00000000000E+00 -0.00000000000E+00 -0.88246557990E+03  0.88246557990E+03  0.00000000000E+00 0. -1.
         23    2    1    2    0    0  0.75276377489E+03 -0.26949154959E+03 -0.50785424387E+03  0.95151003749E+03  0.90423571862E+02 0.  0.
        254    2    1    2    0    0 -0.75276377489E+03  0.26949154959E+03  0.22272328763E+04  0.25327997548E+04  0.90290050184E+03 0.  0.
         23    2    4    4    0    0 -0.58258484071E+03 -0.19086805643E+03  0.16889393277E+04  0.17987719831E+04  0.85022837052E+02 0.  0.
         23    2    4    4    0    0 -0.17017893418E+03  0.46035960602E+03  0.53829354859E+03  0.73402777165E+03  0.90249590661E+02 0.  0.
          3    1    3    3  502    0  0.64273414718E+03 -0.26088790049E+03 -0.45068938854E+03  0.82721859597E+03  0.00000000000E+00 0. -1.
         -3    1    3    3    0  502  0.11002962770E+03 -0.86036490993E+01 -0.57164855332E+02  0.12429144152E+03  0.00000000000E+00 0.  1.
         11    1    5    5    0    0 -0.10382720302E+03 -0.27052007860E+02  0.39788703283E+03  0.41209949055E+03  0.00000000000E+00 0. -1.
        -11    1    5    5    0    0 -0.47875763769E+03 -0.16381604857E+03  0.12910522949E+04  0.13866724926E+04  0.00000000000E+00 0.  1.
          3    1    6    6  503    0 -0.47164408258E+02  0.60028323787E+02  0.11915176536E+03  0.14150980267E+03  0.00000000000E+00 0. -1.
         -3    1    6    6    0  503 -0.12301452592E+03  0.40033128223E+03  0.41914178322E+03  0.59251796898E+03  0.00000000000E+00 0.  1.
<mgrwt>
<rscale>  0 0.30305366E+04</rscale>
<asrwt>0</asrwt>
<pdfrwt beam="1">  1        1 0.13576394E+00 0.30305366E+04</pdfrwt>
<pdfrwt beam="2">  1       -1 0.40028372E+00 0.30305366E+04</pdfrwt>
<totfact> 0.11364956E-01</totfact>
</mgrwt>
</event>
<event>
12    2  0.3623523E-008  0.1643167E+04  0.7818608E-02  0.8794459E-01
          1   -1    0    0  501    0  0.00000000000E+00  0.00000000000E+00  0.12762081402E+04  0.12762081402E+04  0.00000000000E+00 0. -1.
         -1   -1    0    0    0  501 -0.00000000000E+00 -0.00000000000E+00 -0.52891025794E+03  0.52891025794E+03  0.00000000000E+00 0.  1.
         23    2    1    2    0    0 -0.43289694000E+03  0.17256835125E+02 -0.14481160144E+03  0.46597066358E+03  0.91982065524E+02 0.  0.
        254    2    1    2    0    0  0.43289694000E+03 -0.17256835125E+02  0.89210948373E+03  0.13391477346E+04  0.89986652624E+03 0.  0.
         23    2    4    4    0    0  0.13163990118E+03 -0.20222689794E+03  0.93643150984E+03  0.97133582699E+03  0.91457828192E+02 0.  0.
         23    2    4    4    0    0  0.30125703882E+03  0.18497006282E+03 -0.44322026115E+02  0.36781190759E+03  0.91386157512E+02 0.  0.
          4    1    3    3  502    0 -0.39815421140E+03 -0.56671591898E+01 -0.14656036582E+03  0.42430983205E+03  0.00000000000E+00 0. -1.
         -4    1    3    3    0  502 -0.34742728607E+02  0.22923994315E+02  0.17487643795E+01  0.41660831524E+02  0.00000000000E+00 0.  1.
         11    1    5    5    0    0  0.22005114500E+02 -0.44806861422E+02  0.85119928871E+02  0.98677668120E+02  0.00000000000E+00 0. -1.
        -11    1    5    5    0    0  0.10963478668E+03 -0.15742003652E+03  0.85131158097E+03  0.87265815887E+03  0.00000000000E+00 0.  1.
          2    1    6    6  503    0  0.10695772144E+03  0.86774013768E+02  0.23645648184E+02  0.13974548408E+03  0.00000000000E+00 0. -1.
         -2    1    6    6    0  503  0.19429931738E+03  0.98196049049E+02 -0.67967674299E+02  0.22806642351E+03  0.00000000000E+00 0.  1.
<mgrwt>
<rscale>  0 0.16431672E+04</rscale>
<asrwt>0</asrwt>
<pdfrwt beam="1">  1        1 0.19633971E+00 0.16431672E+04</pdfrwt>
<pdfrwt beam="2">  1       -1 0.81370809E-01 0.16431672E+04</pdfrwt>
<totfact> 0.13532098E+01</totfact>
</mgrwt>
</event>
<event>
12    2  0.3623523E-008  0.1622009E+04  0.7818608E-02  0.8807140E-01
         -1   -1    0    0    0  501 -0.00000000000E+00  0.00000000000E+00  0.43136447238E+03  0.43136447238E+03  0.00000000000E+00 0.  1.
          1   -1    0    0  501    0  0.00000000000E+00 -0.00000000000E+00 -0.15247622023E+04  0.15247622023E+04  0.00000000000E+00 0. -1.
         23    2    1    2    0    0  0.24289772823E+03 -0.35474167646E+03  0.24253130210E+02  0.43999528987E+03  0.90369670733E+02 0.  0.
        254    2    1    2    0    0 -0.24289772823E+03  0.35474167646E+03 -0.11176508602E+04  0.15161313848E+04  0.92987631836E+03 0.  0.
         23    2    4    4    0    0 -0.36332665470E+03  0.26856838304E+02 -0.10911703049E+04  0.11539582953E+04  0.90772050967E+02 0.  0.
         23    2    4    4    0    0  0.12042892646E+03  0.32788483815E+03 -0.26480555287E+02  0.36217308955E+03  0.91959412592E+02 0.  0.
          4    1    3    3  502    0  0.15342570811E+01 -0.45215222277E+02 -0.88303594274E+01  0.46094961959E+02  0.00000000000E+00 0. -1.
         -4    1    3    3    0  502  0.24136347115E+03 -0.30952645418E+03  0.33083489637E+02  0.39390032791E+03  0.00000000000E+00 0.  1.
         11    1    5    5    0    0 -0.35312576110E+03  0.43272652956E+02 -0.10452412106E+04  0.11041283956E+04  0.00000000000E+00 0. -1.
        -11    1    5    5    0    0 -0.10200893595E+02 -0.16415814652E+02 -0.45929094220E+02  0.49829899626E+02  0.00000000000E+00 0.  1.
          2    1    6    6  503    0  0.16658265533E+02  0.15332436738E+03 -0.37768891976E+02  0.15878396847E+03  0.00000000000E+00 0. -1.
         -2    1    6    6    0  503  0.10377066093E+03  0.17456047078E+03  0.11288336689E+02  0.20338912108E+03  0.00000000000E+00 0.  1.
<mgrwt>
<rscale>  0 0.16220089E+04</rscale>
<asrwt>0</asrwt>
<pdfrwt beam="1">  1        1 0.23457880E+00 0.16220089E+04</pdfrwt>
<pdfrwt beam="2">  1       -1 0.66363765E-01 0.16220089E+04</pdfrwt>
<totfact> 0.13857195E+01</totfact>
</mgrwt>
</event>
<event>
12    2  0.3623523E-008  0.1723636E+04  0.7818608E-02  0.8747998E-01
         -2   -1    0    0    0  501 -0.00000000000E+00  0.00000000000E+00  0.64043690771E+03  0.64043690771E+03  0.00000000000E+00 0.  1.
          2   -1    0    0  501    0  0.00000000000E+00 -0.00000000000E+00 -0.11597242069E+04  0.11597242069E+04  0.00000000000E+00 0. -1.
         23    2    1    2    0    0 -0.34643663659E+03  0.49955465786E+03 -0.27273841497E+03  0.67207477459E+03  0.87892322083E+02 0.  0.
        254    2    1    2    0    0  0.34643663659E+03 -0.49955465786E+03 -0.24654888422E+03  0.11280863400E+04  0.91772503446E+03 0.  0.
         23    2    4    4    0    0  0.24858464885E+03 -0.50610108711E+03  0.24291648109E+03  0.62062425593E+03  0.90738152111E+02 0.  0.
         23    2    4    4    0    0  0.97851987744E+02  0.65464292474E+01 -0.48946536531E+03  0.50746208410E+03  0.91233522954E+02 0.  0.
          1    1    3    3  502    0 -0.15531715322E+03  0.22141249612E+03 -0.73873333310E+02  0.28036437166E+03  0.00000000000E+00 0. -1.
         -1    1    3    3    0  502 -0.19111948337E+03  0.27814216174E+03 -0.19886508166E+03  0.39171040293E+03  0.00000000000E+00 0.  1.
         11    1    5    5    0    0  0.50665560729E+02 -0.47717912817E+02  0.48454663677E+02  0.84804791608E+02  0.00000000000E+00 0. -1.
        -11    1    5    5    0    0  0.19791908812E+03 -0.45838317429E+03  0.19446181742E+03  0.53581946432E+03  0.00000000000E+00 0.  1.
          3    1    6    6  503    0 -0.11990871887E+02  0.75281695103E+01 -0.14999347916E+03  0.15066020754E+03  0.00000000000E+00 0. -1.
         -3    1    6    6    0  503  0.10984285963E+03 -0.98174026288E+00 -0.33947188615E+03  0.35680187656E+03  0.00000000000E+00 0.  1.
<mgrwt>
<rscale>  0 0.17236359E+04</rscale>
<asrwt>0</asrwt>
<pdfrwt beam="1">  1        2 0.17841911E+00 0.17236359E+04</pdfrwt>
<pdfrwt beam="2">  1       -2 0.98528757E-01 0.17236359E+04</pdfrwt>
<totfact> 0.16276443E+01</totfact>
</mgrwt>
</event>
<event>
12    2  0.3623523E-008  0.2540470E+04  0.7818608E-02  0.8388708E-01
          2   -1    0    0  501    0  0.00000000000E+00  0.00000000000E+00  0.16492853404E+04  0.16492853404E+04  0.00000000000E+00 0. -1.
         -2   -1    0    0    0  501 -0.00000000000E+00 -0.00000000000E+00 -0.97830095447E+03  0.97830095447E+03  0.00000000000E+00 0.  1.
         23    2    1    2    0    0 -0.39171306042E+03 -0.20293526343E+03  0.13424598978E+04  0.14161664976E+04  0.93311998063E+02 0.  0.
        254    2    1    2    0    0  0.39171306042E+03  0.20293526343E+03 -0.67147551187E+03  0.12114197972E+04  0.90666240644E+03 0.  0.
         23    2    4    4    0    0  0.46279728082E+03  0.15064241039E+03  0.32843889976E+02  0.49634471780E+03  0.91678235345E+02 0.  0.
         23    2    4    4    0    0 -0.71084220405E+02  0.52292853046E+02 -0.70431940185E+03  0.71507507944E+03  0.86481446241E+02 0.  0.
          1    1    3    3  502    0 -0.32575584067E+03 -0.16360513853E+03  0.12023051719E+04  0.12563523532E+04  0.00000000000E+00 0. -1.
         -1    1    3    3    0  502 -0.65957219742E+02 -0.39330124897E+02  0.14015472590E+03  0.15981414441E+03  0.00000000000E+00 0.  1.
         11    1    5    5    0    0  0.16282709662E+02 -0.11656748412E+02 -0.95509700864E+00  0.20047908314E+02  0.00000000000E+00 0. -1.
        -11    1    5    5    0    0  0.44651457116E+03  0.16229915880E+03  0.33798986984E+02  0.47629680948E+03  0.00000000000E+00 0.  1.
          2    1    6    6  503    0  0.94210272079E+01  0.39294394948E+02 -0.18231093290E+03  0.18673532468E+03  0.00000000000E+00 0. -1.
         -2    1    6    6    0  503 -0.80505247613E+02  0.12998458098E+02 -0.52200846895E+03  0.52833975476E+03  0.00000000000E+00 0.  1.
<mgrwt>
<rscale>  0 0.25404704E+04</rscale>
<asrwt>0</asrwt>
<pdfrwt beam="1">  1        2 0.25373621E+00 0.25404704E+04</pdfrwt>
<pdfrwt beam="2">  1       -2 0.15050784E+00 0.25404704E+04</pdfrwt>
<totfact> 0.27631267E+00</totfact>
</mgrwt>
</event>
<event>
12    2  0.3623523E-008  0.2985281E+04  0.7818608E-02  0.8247947E-01
          2   -1    0    0  501    0  0.00000000000E+00  0.00000000000E+00  0.32415642589E+04  0.32415642589E+04  0.00000000000E+00 0.  1.
         -2   -1    0    0    0  501 -0.00000000000E+00 -0.00000000000E+00 -0.68731492937E+03  0.68731492937E+03  0.00000000000E+00 0. -1.
         23    2    1    2    0    0 -0.64575340547E+03  0.77420976793E+02  0.27190087312E+04  0.27971374311E+04  0.89318867296E+02 0.  0.
        254    2    1    2    0    0  0.64575340547E+03 -0.77420976793E+02 -0.16475940169E+03  0.11317417571E+04  0.91142870045E+03 0.  0.
         23    2    4    4    0    0  0.68485961449E+03 -0.24694539266E+03 -0.39067827063E+03  0.83238517653E+03  0.10109823169E+03 0.  0.
         23    2    4    4    0    0 -0.39106209020E+02  0.16952441587E+03  0.22591886894E+03  0.29935658057E+03  0.91143863369E+02 0.  0.
          2    1    3    3  502    0 -0.70451063492E+02  0.19662822793E+02  0.43343247955E+03  0.43956079589E+03  0.00000000000E+00 0. -1.
         -2    1    3    3    0  502 -0.57530234198E+03  0.57758154000E+02  0.22855762516E+04  0.23575766352E+04  0.00000000000E+00 0.  1.
         11    1    5    5    0    0  0.13324322380E+02 -0.23781431309E+02 -0.17166964646E+02  0.32214883473E+02  0.00000000000E+00 0.  1.
        -11    1    5    5    0    0  0.67153529211E+03 -0.22316396135E+03 -0.37351130599E+03  0.80017029306E+03  0.00000000000E+00 0. -1.
          3    1    6    6  503    0 -0.65146343812E+02  0.10001217679E+03  0.16312619066E+03  0.20213024439E+03  0.00000000000E+00 0. -1.
         -3    1    6    6    0  503  0.26040134792E+02  0.69512239082E+02  0.62792678281E+02  0.97226336185E+02  0.00000000000E+00 0.  1.
<mgrwt>
<rscale>  0 0.29852809E+04</rscale>
<asrwt>0</asrwt>
<pdfrwt beam="1">  1        2 0.49870219E+00 0.29852809E+04</pdfrwt>
<pdfrwt beam="2">  1       -2 0.10574076E+00 0.29852809E+04</pdfrwt>
<totfact> 0.75384669E-01</totfact>
</mgrwt>
</event>
<event>
12    2  0.3623523E-008  0.1392235E+04  0.7818608E-02  0.8959459E-01
          2   -1    0    0  501    0  0.00000000000E+00  0.00000000000E+00  0.33578742487E+04  0.33578742487E+04  0.00000000000E+00 0. -1.
         -2   -1    0    0    0  501 -0.00000000000E+00 -0.00000000000E+00 -0.14431137591E+03  0.14431137591E+03  0.00000000000E+00 0.  1.
         23    2    1    2    0    0  0.33423198646E+03  0.10227190374E+03  0.40320839157E+03  0.54160244922E+03  0.92658744303E+02 0.  0.
        254    2    1    2    0    0 -0.33423198646E+03 -0.10227190374E+03  0.28103544812E+04  0.29605831754E+04  0.86301208869E+03 0.  0.
         23    2    4    4    0    0 -0.28816959382E+03  0.13605053125E+03  0.26149923388E+04  0.26362712572E+04  0.10094428036E+03 0.  0.
         23    2    4    4    0    0 -0.46062392637E+02 -0.23832243499E+03  0.19536214247E+03  0.32431191823E+03  0.89958471317E+02 0.  0.
          1    1    3    3  502    0  0.16060006294E+02 -0.32462441141E+01 -0.10795809373E+01  0.16420334893E+02  0.00000000000E+00 0. -1.
         -1    1    3    3    0  502  0.31817198016E+03  0.10551814785E+03  0.40428797251E+03  0.52518211432E+03  0.00000000000E+00 0.  1.
         11    1    5    5    0    0 -0.18596217163E+03  0.64902753013E+02  0.12275271234E+04  0.12432285129E+04  0.00000000000E+00 0. -1.
        -11    1    5    5    0    0 -0.10220742219E+03  0.71147778236E+02  0.13874652154E+04  0.13930427443E+04  0.00000000000E+00 0.  1.
          2    1    6    6  503    0  0.21480783164E+02 -0.10821360701E+03  0.10374447991E+03  0.15144149332E+03  0.00000000000E+00 0. -1.
         -2    1    6    6    0  503 -0.67543175801E+02 -0.13010882798E+03  0.91617662553E+02  0.17287042491E+03  0.00000000000E+00 0.  1.
<mgrwt>
<rscale>  0 0.13922348E+04</rscale>
<asrwt>0</asrwt>
<pdfrwt beam="1">  1        2 0.51659598E+00 0.13922348E+04</pdfrwt>
<pdfrwt beam="2">  1       -2 0.22201753E-01 0.13922348E+04</pdfrwt>
<totfact> 0.17882170E+01</totfact>
</mgrwt>
</event>
<event>
12    2  0.3623523E-008  0.2301956E+04  0.7818608E-02  0.8477150E-01
          1   -1    0    0  501    0  0.00000000000E+00  0.00000000000E+00  0.38578428678E+04  0.38578428678E+04  0.00000000000E+00 0. -1.
         -1   -1    0    0    0  501 -0.00000000000E+00 -0.00000000000E+00 -0.34339152755E+03  0.34339152755E+03  0.00000000000E+00 0.  1.
         23    2    1    2    0    0 -0.25844207377E+03 -0.91159425669E+03  0.19539831760E+04  0.21734432201E+04  0.89491813874E+02 0.  0.
        254    2    1    2    0    0  0.25844207377E+03  0.91159425669E+03  0.15604681642E+04  0.20277911752E+04  0.88265495197E+03 0.  0.
         23    2    4    4    0    0 -0.13424841490E+03  0.81090552907E+03  0.12856378739E+04  0.15282822640E+04  0.84802839708E+02 0.  0.
         23    2    4    4    0    0  0.39269048868E+03  0.10068872763E+03  0.27483029032E+03  0.49950891119E+03  0.98150008221E+02 0.  0.
          3    1    3    3  502    0 -0.24479652919E+03 -0.90303347313E+03  0.19217159280E+04  0.21373785117E+04  0.00000000000E+00 0. -1.
         -3    1    3    3    0  502 -0.13645544586E+02 -0.85607835629E+01  0.32267247970E+02  0.36064708426E+02  0.00000000000E+00 0.  1.
         11    1    5    5    0    0 -0.11904145973E+03  0.49990098760E+03  0.83750555832E+03  0.98259219758E+03  0.00000000000E+00 0.  1.
        -11    1    5    5    0    0 -0.15206955172E+02  0.31100454147E+03  0.44813231561E+03  0.54569006642E+03  0.00000000000E+00 0. -1.
          3    1    6    6  503    0  0.30323063395E+02 -0.11927517340E+02  0.46055819978E+02  0.56417128582E+02  0.00000000000E+00 0. -1.
         -3    1    6    6    0  503  0.36236742528E+03  0.11261624497E+03  0.22877447034E+03  0.44309178261E+03  0.00000000000E+00 0.  1.
<mgrwt>
<rscale>  0 0.23019562E+04</rscale>
<asrwt>0</asrwt>
<pdfrwt beam="1">  1        1 0.59351426E+00 0.23019562E+04</pdfrwt>
<pdfrwt beam="2">  1       -1 0.52829469E-01 0.23019562E+04</pdfrwt>
<totfact> 0.41726169E-01</totfact>
</mgrwt>
</event>
<event>
12    2  0.3623523E-008  0.2189001E+04  0.7818608E-02  0.8523020E-01
          1   -1    0    0  501    0  0.00000000000E+00  0.00000000000E+00  0.13685985789E+04  0.13685985789E+04  0.00000000000E+00 0. -1.
         -1   -1    0    0    0  501 -0.00000000000E+00 -0.00000000000E+00 -0.87529792229E+03  0.87529792229E+03  0.00000000000E+00 0.  1.
         23    2    1    2    0    0 -0.37340972253E+00  0.25118786025E+03  0.11014345593E+04  0.11340814939E+04  0.99434731617E+02 0.  0.
        254    2    1    2    0    0  0.37340972253E+00 -0.25118786025E+03 -0.60813390269E+03  0.11098150073E+04  0.89373767191E+03 0.  0.
         23    2    4    4    0    0 -0.38378679883E+03 -0.33694862002E+03 -0.28176358528E+03  0.59049082864E+03  0.91989245159E+02 0.  0.
         23    2    4    4    0    0  0.38416020855E+03  0.85760759773E+02 -0.32637031740E+03  0.51932417863E+03  0.90807734685E+02 0.  0.
          1    1    3    3  502    0  0.11314289327E+02  0.25664951653E+03  0.10599138018E+04  0.10906027025E+04  0.00000000000E+00 0. -1.
         -1    1    3    3    0  502 -0.11687699049E+02 -0.54616562886E+01  0.41520757460E+02  0.43478791365E+02  0.00000000000E+00 0.  1.
         11    1    5    5    0    0 -0.36923043789E+03 -0.34000178766E+03 -0.28178609548E+03  0.57561769907E+03  0.00000000000E+00 0. -1.
        -11    1    5    5    0    0 -0.14556360937E+02  0.30531676399E+01  0.22510199471E-01  0.14873129566E+02  0.00000000000E+00 0.  1.
          4    1    6    6  503    0  0.29456954457E+03  0.27721415601E+02 -0.22068132304E+03  0.36910694902E+03  0.00000000000E+00 0.  1.
         -4    1    6    6    0  503  0.89590663978E+02  0.58039344173E+02 -0.10568899436E+03  0.15021722962E+03  0.00000000000E+00 0. -1.
<mgrwt>
<rscale>  0 0.21890011E+04</rscale>
<asrwt>0</asrwt>
<pdfrwt beam="1">  1        1 0.21055363E+00 0.21890011E+04</pdfrwt>
<pdfrwt beam="2">  1       -1 0.13466122E+00 0.21890011E+04</pdfrwt>
<totfact> 0.34207816E+00</totfact>
</mgrwt>
</event>
<event>
12    2  0.3623523E-008  0.1264390E+04  0.7818608E-02  0.9058291E-01
         -1   -1    0    0    0  501 -0.00000000000E+00  0.00000000000E+00  0.20793317894E+03  0.20793317894E+03  0.00000000000E+00 0.  1.
          1   -1    0    0  501    0  0.00000000000E+00 -0.00000000000E+00 -0.19221101586E+04  0.19221101586E+04  0.00000000000E+00 0. -1.
         23    2    1    2    0    0  0.50581400585E+02  0.92310441068E+02 -0.87364668829E+03  0.88495783442E+03  0.93872983997E+02 0.  0.
        254    2    1    2    0    0 -0.50581400585E+02 -0.92310441068E+02 -0.84053029141E+03  0.12450855032E+04  0.91250591438E+03 0.  0.
         23    2    4    4    0    0  0.40065872999E+02  0.30102707444E+03 -0.76163658462E+03  0.82439955261E+03  0.85567292765E+02 0.  0.
         23    2    4    4    0    0 -0.90647273584E+02 -0.39333751550E+03 -0.78893706792E+02  0.42068595055E+03  0.88437111575E+02 0.  0.
          3    1    3    3  502    0  0.11051239602E+02  0.66318338738E+02 -0.74251879017E+03  0.74555644032E+03  0.00000000000E+00 0. -1.
         -3    1    3    3    0  502  0.39530160983E+02  0.25992102331E+02 -0.13112789812E+03  0.13940139409E+03  0.00000000000E+00 0.  1.
         11    1    5    5    0    0 -0.15907359350E+02  0.68076185310E+02 -0.24746568058E+03  0.25715107262E+03  0.00000000000E+00 0.  1.
        -11    1    5    5    0    0  0.55973232349E+02  0.23295088913E+03 -0.51417090404E+03  0.56724847999E+03  0.00000000000E+00 0. -1.
          3    1    6    6  503    0 -0.91597884059E+02 -0.21515784451E+03 -0.60589404578E+02  0.24156602899E+03  0.00000000000E+00 0. -1.
         -3    1    6    6    0  503  0.95061047501E+00 -0.17817967100E+03 -0.18304302214E+02  0.17911992155E+03  0.00000000000E+00 0.  1.
<mgrwt>
<rscale>  0 0.12643899E+04</rscale>
<asrwt>0</asrwt>
<pdfrwt beam="1">  1        1 0.29570925E+00 0.12643899E+04</pdfrwt>
<pdfrwt beam="2">  1       -1 0.31989720E-01 0.12643899E+04</pdfrwt>
<totfact> 0.30238493E+01</totfact>
</mgrwt>
</event>
<event>
12    2  0.3623523E-008  0.2561818E+04  0.7818608E-02  0.8381288E-01
         -2   -1    0    0    0  501 -0.00000000000E+00  0.00000000000E+00  0.61278372010E+03  0.61278372010E+03  0.00000000000E+00 0.  1.
          2   -1    0    0  501    0  0.00000000000E+00 -0.00000000000E+00 -0.26774992934E+04  0.26774992934E+04  0.00000000000E+00 0. -1.
         23    2    1    2    0    0 -0.57171600284E+03 -0.70157688482E+03 -0.17525237458E+04  0.19745618814E+04  0.92118568900E+02 0.  0.
        254    2    1    2    0    0  0.57171600284E+03  0.70157688482E+03 -0.31219182751E+03  0.13157211321E+04  0.90254586977E+03 0.  0.
         23    2    4    4    0    0  0.19141727129E+03 -0.18248558622E+03 -0.19843314685E+03  0.34246437670E+03  0.89244465469E+02 0.  0.
         23    2    4    4    0    0  0.38029873155E+03  0.88406247104E+03 -0.11375868066E+03  0.97325675539E+03  0.89967197169E+02 0.  0.
          4    1    3    3  502    0 -0.10600759703E+03 -0.15729226722E+03 -0.29859664419E+03  0.35374909735E+03  0.00000000000E+00 0. -1.
         -4    1    3    3    0  502 -0.46570840581E+03 -0.54428461760E+03 -0.14539271016E+04  0.16208127840E+04  0.00000000000E+00 0.  1.
         11    1    5    5    0    0  0.10536179675E+03 -0.60995612979E+02 -0.13158292667E+03  0.17926416152E+03  0.00000000000E+00 0. -1.
        -11    1    5    5    0    0  0.86055474538E+02 -0.12148997324E+03 -0.66850220181E+02  0.16320021518E+03  0.00000000000E+00 0.  1.
          4    1    6    6  503    0  0.25470845652E+03  0.68779340724E+03 -0.93217597096E+02  0.73934138886E+03  0.00000000000E+00 0. -1.
         -4    1    6    6    0  503  0.12559027503E+03  0.19626906379E+03 -0.20541083569E+02  0.23391536653E+03  0.00000000000E+00 0.  1.
<mgrwt>
<rscale>  0 0.25618181E+04</rscale>
<asrwt>0</asrwt>
<pdfrwt beam="1">  1        2 0.41192297E+00 0.25618181E+04</pdfrwt>
<pdfrwt beam="2">  1       -2 0.94274417E-01 0.25618181E+04</pdfrwt>
<totfact> 0.23054408E+00</totfact>
</mgrwt>
</event>
<event>
12    2  0.3623523E-008  0.1271323E+04  0.7818608E-02  0.9052620E-01
         -2   -1    0    0    0  501 -0.00000000000E+00  0.00000000000E+00  0.40605385456E+03  0.40605385456E+03  0.00000000000E+00 0.  1.
          2   -1    0    0  501    0  0.00000000000E+00 -0.00000000000E+00 -0.99510351266E+03  0.99510351266E+03  0.00000000000E+00 0. -1.
         23    2    1    2    0    0  0.16048622198E+03  0.26198657157E+03 -0.17581673239E+03  0.36591102411E+03  0.92663709421E+02 0.  0.
        254    2    1    2    0    0 -0.16048622198E+03 -0.26198657157E+03 -0.41323292571E+03  0.10352463431E+04  0.89809840715E+03 0.  0.
         23    2    4    4    0    0 -0.22646894498E+03 -0.37569423685E+03 -0.62550219617E+03  0.76998008443E+03  0.95822702715E+02 0.  0.
         23    2    4    4    0    0  0.65982722994E+02  0.11370766528E+03  0.21226927046E+03  0.26526625869E+03  0.89581203057E+02 0.  0.
          2    1    3    3  502    0  0.82066689076E+02  0.15820353517E+03 -0.50385161604E+02  0.18520789536E+03  0.00000000000E+00 0. -1.
         -2    1    3    3    0  502  0.78419532909E+02  0.10378303640E+03 -0.12543157079E+03  0.18070312874E+03  0.00000000000E+00 0.  1.
         11    1    5    5    0    0 -0.71521618555E+02 -0.69518138668E+02 -0.92265604095E+02  0.13587146582E+03  0.00000000000E+00 0.  1.
        -11    1    5    5    0    0 -0.15494732642E+03 -0.30617609818E+03 -0.53323659207E+03  0.63410861861E+03  0.00000000000E+00 0. -1.
          3    1    6    6  503    0  0.85983339259E+02  0.83574062761E+02  0.18277969412E+03  0.21860049218E+03  0.00000000000E+00 0. -1.
         -3    1    6    6    0  503 -0.20000616264E+02  0.30133602522E+02  0.29489576338E+02  0.46665766516E+02  0.00000000000E+00 0.  1.
<mgrwt>
<rscale>  0 0.12713231E+04</rscale>
<asrwt>0</asrwt>
<pdfrwt beam="1">  1        2 0.15309284E+00 0.12713231E+04</pdfrwt>
<pdfrwt beam="2">  1       -2 0.62469825E-01 0.12713231E+04</pdfrwt>
<totfact> 0.59241539E+01</totfact>
</mgrwt>
</event>
<event>
12    2  0.3623523E-008  0.1328959E+04  0.7818608E-02  0.9006911E-01
         -1   -1    0    0    0  501 -0.00000000000E+00  0.00000000000E+00  0.15717510120E+03  0.15717510120E+03  0.00000000000E+00 0.  1.
          1   -1    0    0  501    0  0.00000000000E+00 -0.00000000000E+00 -0.28091783623E+04  0.28091783623E+04  0.00000000000E+00 0. -1.
         23    2    1    2    0    0 -0.34849283537E+03 -0.37451346711E+02 -0.10145028875E+04  0.10769895260E+04  0.88546433165E+02 0.  0.
        254    2    1    2    0    0  0.34849283537E+03  0.37451346711E+02 -0.16375003737E+04  0.18893639375E+04  0.87489356777E+03 0.  0.
         23    2    4    4    0    0 -0.36607001576E+02 -0.35370746985E+03 -0.47166607215E+03  0.59768596642E+03  0.91162404791E+02 0.  0.
         23    2    4    4    0    0  0.38509983694E+03  0.39115881656E+03 -0.11658343015E+04  0.12916779711E+04  0.89192254172E+02 0.  0.
          2    1    3    3  502    0 -0.15789492361E+03  0.19655655216E+02 -0.52539205080E+03  0.54895715564E+03  0.00000000000E+00 0. -1.
         -2    1    3    3    0  502 -0.19059791175E+03 -0.57107001927E+02 -0.48911083666E+03  0.52803237038E+03  0.00000000000E+00 0.  1.
         11    1    5    5    0    0 -0.24076984581E+02 -0.27016916709E+03 -0.28852454102E+03  0.39600188232E+03  0.00000000000E+00 0. -1.
        -11    1    5    5    0    0 -0.12530016995E+02 -0.83538302760E+02 -0.18314153113E+03  0.20168408410E+03  0.00000000000E+00 0.  1.
          1    1    6    6  503    0  0.35955416530E+03  0.38208667128E+03 -0.10643917307E+04  0.11866756838E+04  0.00000000000E+00 0. -1.
         -1    1    6    6    0  503  0.25545671640E+02  0.90721452828E+01 -0.10144257082E+03  0.10500228728E+03  0.00000000000E+00 0.  1.
<mgrwt>
<rscale>  0 0.13289588E+04</rscale>
<asrwt>0</asrwt>
<pdfrwt beam="1">  1        1 0.43218121E+00 0.13289588E+04</pdfrwt>
<pdfrwt beam="2">  1       -1 0.24180789E-01 0.13289588E+04</pdfrwt>
<totfact> 0.12022403E+01</totfact>
</mgrwt>
</event>
<event>
12    2  0.3623523E-008  0.1888955E+04  0.7818608E-02  0.8660374E-01
         -1   -1    0    0    0  501 -0.00000000000E+00  0.00000000000E+00  0.89296163443E+03  0.89296163443E+03  0.00000000000E+00 0.  1.
          1   -1    0    0  501    0  0.00000000000E+00 -0.00000000000E+00 -0.99896520582E+03  0.99896520582E+03  0.00000000000E+00 0. -1.
         23    2    1    2    0    0 -0.59583290921E+03 -0.24030652651E+03 -0.37961623524E+03  0.75045119282E+03  0.79400405403E+02 0.  0.
        254    2    1    2    0    0  0.59583290921E+03  0.24030652651E+03  0.27361266385E+03  0.11414756474E+04  0.90296106310E+03 0.  0.
         23    2    4    4    0    0  0.74222799085E+02  0.22545483703E+03  0.50408116970E+03  0.56373926880E+03  0.85820918765E+02 0.  0.
         23    2    4    4    0    0  0.52161011012E+03  0.14851689474E+02 -0.23046850585E+03  0.57773637863E+03  0.91465355939E+02 0.  0.
          3    1    3    3  502    0 -0.59284609830E+03 -0.24221224020E+03 -0.36868474805E+03  0.73895988323E+03  0.00000000000E+00 0. -1.
         -3    1    3    3    0  502 -0.29868109041E+01  0.19057136957E+01 -0.10931487187E+02  0.11491309594E+02  0.00000000000E+00 0.  1.
         11    1    5    5    0    0  0.15206837068E+02  0.22994286409E+02  0.15589599860E+02  0.31670502441E+02  0.00000000000E+00 0.  1.
        -11    1    5    5    0    0  0.59015962017E+02  0.20246055063E+03  0.48849156984E+03  0.53206876636E+03  0.00000000000E+00 0. -1.
          1    1    6    6  503    0  0.48286871971E+03 -0.49828268840E+01 -0.22834380827E+03  0.53416095310E+03  0.00000000000E+00 0. -1.
         -1    1    6    6    0  503  0.38741390409E+02  0.19834516358E+02 -0.21246975803E+01  0.43575425526E+02  0.00000000000E+00 0.  1.
<mgrwt>
<rscale>  0 0.18889548E+04</rscale>
<asrwt>0</asrwt>
<pdfrwt beam="1">  1        1 0.15368695E+00 0.18889548E+04</pdfrwt>
<pdfrwt beam="2">  1       -1 0.13737871E+00 0.18889548E+04</pdfrwt>
<totfact> 0.62521515E+00</totfact>
</mgrwt>
</event>
<event>
12    2  0.3623523E-008  0.4679426E+04  0.7818608E-02  0.7879956E-01
          2   -1    0    0  501    0  0.00000000000E+00  0.00000000000E+00  0.28257469272E+04  0.28257469272E+04  0.00000000000E+00 0. -1.
         -2   -1    0    0    0  501 -0.00000000000E+00 -0.00000000000E+00 -0.19372781523E+04  0.19372781523E+04  0.00000000000E+00 0.  1.
         23    2    1    2    0    0 -0.20377086108E+03  0.36490234444E+03 -0.18245474739E+04  0.18737564197E+04  0.85518132259E+02 0.  0.
        254    2    1    2    0    0  0.20377086108E+03 -0.36490234444E+03  0.27130162489E+04  0.28892686598E+04  0.90152090231E+03 0.  0.
         23    2    4    4    0    0  0.16556138852E+03  0.27391019060E+03  0.70319121974E+03  0.77791038458E+03  0.90715539167E+02 0.  0.
         23    2    4    4    0    0  0.38209472559E+02 -0.63881253504E+03  0.20098250291E+04  0.21113582753E+04  0.94317018810E+02 0.  0.
          1    1    3    3  502    0 -0.53577050352E+02  0.11547782377E+03 -0.40032754755E+03  0.42008067492E+03  0.00000000000E+00 0. -1.
         -1    1    3    3    0  502 -0.15019381073E+03  0.24942452067E+03 -0.14242199264E+04  0.14536757448E+04  0.00000000000E+00 0.  1.
         11    1    5    5    0    0  0.12225210326E+03  0.25724342259E+03  0.57721944945E+03  0.64366299260E+03  0.00000000000E+00 0. -1.
        -11    1    5    5    0    0  0.43309285264E+02  0.16666768007E+02  0.12597177028E+03  0.13424739198E+03  0.00000000000E+00 0.  1.
          4    1    6    6  503    0  0.45403985410E+02 -0.26994888582E+03  0.73929364769E+03  0.78834574925E+03  0.00000000000E+00 0.  1.
         -4    1    6    6    0  503 -0.71945128513E+01 -0.36886364922E+03  0.12705313814E+04  0.13230125260E+04  0.00000000000E+00 0. -1.
<mgrwt>
<rscale>  0 0.46794264E+04</rscale>
<asrwt>0</asrwt>
<pdfrwt beam="1">  1        2 0.43473030E+00 0.46794264E+04</pdfrwt>
<pdfrwt beam="2">  1       -2 0.29804279E+00 0.46794264E+04</pdfrwt>
<totfact> 0.54416830E-02</totfact>
</mgrwt>
</event>
<event>
12    2  0.3623523E-008  0.1873088E+04  0.7818608E-02  0.8668369E-01
          1   -1    0    0  501    0  0.00000000000E+00  0.00000000000E+00  0.78210771024E+03  0.78210771024E+03  0.00000000000E+00 0. -1.
         -1   -1    0    0    0  501 -0.00000000000E+00 -0.00000000000E+00 -0.11214759427E+04  0.11214759427E+04  0.00000000000E+00 0.  1.
         23    2    1    2    0    0 -0.30024432971E+03  0.49219529319E+03 -0.56559545948E+03  0.81295845468E+03  0.92738131818E+02 0.  0.
        254    2    1    2    0    0  0.30024432971E+03 -0.49219529319E+03  0.22622722699E+03  0.10906251983E+04  0.89770914040E+03 0.  0.
         23    2    4    4    0    0  0.43166064413E+03 -0.68083807535E+03  0.23337342922E+03  0.84432445014E+03  0.92462008964E+02 0.  0.
         23    2    4    4    0    0 -0.13141631442E+03  0.18864278215E+03 -0.71462022258E+01  0.24630074816E+03  0.88071808104E+02 0.  0.
          2    1    3    3  502    0 -0.64036335635E+02  0.11578705929E+03 -0.18753681073E+03  0.22951546954E+03  0.00000000000E+00 0. -1.
         -2    1    3    3    0  502 -0.23620799408E+03  0.37640823391E+03 -0.37805864875E+03  0.58344298514E+03  0.00000000000E+00 0.  1.
         11    1    5    5    0    0  0.39979265314E+03 -0.64714589582E+03  0.23962556724E+03  0.79752892641E+03  0.00000000000E+00 0.  1.
        -11    1    5    5    0    0  0.31867990995E+02 -0.33692179525E+02 -0.62521380270E+01  0.46795523729E+02  0.00000000000E+00 0. -1.
          1    1    6    6  503    0 -0.58982103348E+02  0.33318619677E+02 -0.28692407390E+02  0.73568153262E+02  0.00000000000E+00 0. -1.
         -1    1    6    6    0  503 -0.72434211073E+02  0.15532416248E+03  0.21546205164E+02  0.17273259490E+03  0.00000000000E+00 0.  1.
<mgrwt>
<rscale>  0 0.18730883E+04</rscale>
<asrwt>0</asrwt>
<pdfrwt beam="1">  1        1 0.12032426E+00 0.18730883E+04</pdfrwt>
<pdfrwt beam="2">  1       -1 0.17253476E+00 0.18730883E+04</pdfrwt>
<totfact> 0.50680132E+00</totfact>
</mgrwt>
</event>
<event>
12    2  0.3623523E-008  0.2474301E+04  0.7818608E-02  0.8412198E-01
         -2   -1    0    0    0  501 -0.00000000000E+00  0.00000000000E+00  0.19366618255E+04  0.19366618255E+04  0.00000000000E+00 0.  1.
          2   -1    0    0  501    0  0.00000000000E+00 -0.00000000000E+00 -0.79029881467E+03  0.79029881467E+03  0.00000000000E+00 0. -1.
         23    2    1    2    0    0 -0.14732823936E+03 -0.75080564283E+03 -0.32803928730E+03  0.83747638188E+03  0.91335605236E+02 0.  0.
        254    2    1    2    0    0  0.14732823936E+03  0.75080564283E+03  0.14744022981E+04  0.18894842583E+04  0.90048537031E+03 0.  0.
         23    2    4    4    0    0  0.25088087464E+03 -0.78310747830E+02  0.67306548310E+03  0.72817057409E+03  0.90230005814E+02 0.  0.
         23    2    4    4    0    0 -0.10355263528E+03  0.82911639066E+03  0.80133681505E+03  0.11613136842E+04  0.91387331857E+02 0.  0.
          1    1    3    3  502    0 -0.14797095280E+03 -0.63870253671E+03 -0.30471222887E+03  0.72297017621E+03  0.00000000000E+00 0. -1.
         -1    1    3    3    0  502  0.64271343637E+00 -0.11210310612E+03 -0.23327058434E+02  0.11450620567E+03  0.00000000000E+00 0.  1.
         11    1    5    5    0    0  0.88513199533E+02  0.16128900306E+02  0.21037690585E+03  0.22880815202E+03  0.00000000000E+00 0.  1.
        -11    1    5    5    0    0  0.16236767511E+03 -0.94439648135E+02  0.46268857725E+03  0.49936242207E+03  0.00000000000E+00 0. -1.
          3    1    6    6  503    0 -0.88208870089E+02  0.81444678435E+03  0.77814511809E+03  0.11298735301E+04  0.00000000000E+00 0. -1.
         -3    1    6    6    0  503 -0.15343765191E+02  0.14669606305E+02  0.23191696959E+02  0.31440154058E+02  0.00000000000E+00 0.  1.
<mgrwt>
<rscale>  0 0.24743011E+04</rscale>
<asrwt>0</asrwt>
<pdfrwt beam="1">  1        2 0.12158443E+00 0.24743011E+04</pdfrwt>
<pdfrwt beam="2">  1       -2 0.29794797E+00 0.24743011E+04</pdfrwt>
<totfact> 0.10238944E+00</totfact>
</mgrwt>
</event>
<event>
12    2  0.3623523E-008  0.1946728E+04  0.7818608E-02  0.8631940E-01
          2   -1    0    0  501    0  0.00000000000E+00  0.00000000000E+00  0.11177375135E+04  0.11177375135E+04  0.00000000000E+00 0. -1.
         -2   -1    0    0    0  501 -0.00000000000E+00 -0.00000000000E+00 -0.84763837906E+03  0.84763837906E+03  0.00000000000E+00 0.  1.
         23    2    1    2    0    0 -0.23377319633E+03  0.24207047549E+03 -0.56970174518E+03  0.66793027154E+03  0.91229089402E+02 0.  0.
        254    2    1    2    0    0  0.23377319633E+03 -0.24207047549E+03  0.83980087959E+03  0.12974456210E+04  0.92997397795E+03 0.  0.
         23    2    4    4    0    0 -0.36943358601E+02  0.31796944131E+03  0.15519489259E+03  0.36785741341E+03  0.93617544099E+02 0.  0.
         23    2    4    4    0    0  0.27071655493E+03 -0.56003991680E+03  0.68460598700E+03  0.92958820759E+03  0.92286059198E+02 0.  0.
          1    1    3    3  502    0 -0.88955718422E+02  0.48064596512E+02 -0.22533724943E+03  0.24698218814E+03  0.00000000000E+00 0. -1.
         -1    1    3    3    0  502 -0.14481747790E+03  0.19400587898E+03 -0.34436449575E+03  0.42094808340E+03  0.00000000000E+00 0.  1.
         11    1    5    5    0    0  0.13812301644E+00  0.32268490372E+02  0.53232275385E+02  0.62249093901E+02  0.00000000000E+00 0. -1.
        -11    1    5    5    0    0 -0.37081481618E+02  0.28570095094E+03  0.10196261721E+03  0.30560831951E+03  0.00000000000E+00 0.  1.
          1    1    6    6  503    0  0.93177833649E+02 -0.18380935448E+03  0.16521552759E+03  0.26412905564E+03  0.00000000000E+00 0. -1.
         -1    1    6    6    0  503  0.17753872128E+03 -0.37623056233E+03  0.51939045941E+03  0.66545915195E+03  0.00000000000E+00 0.  1.
<mgrwt>
<rscale>  0 0.19467277E+04</rscale>
<asrwt>0</asrwt>
<pdfrwt beam="1">  1        2 0.17195962E+00 0.19467277E+04</pdfrwt>
<pdfrwt beam="2">  1       -2 0.13040591E+00 0.19467277E+04</pdfrwt>
<totfact> 0.85420452E+00</totfact>
</mgrwt>
</event>
<event>
12    2  0.3623523E-008  0.1711876E+04  0.7818608E-02  0.8754620E-01
          2   -1    0    0  501    0  0.00000000000E+00  0.00000000000E+00  0.19483331595E+04  0.19483331595E+04  0.00000000000E+00 0. -1.
         -2   -1    0    0    0  501 -0.00000000000E+00 -0.00000000000E+00 -0.37602912347E+03  0.37602912347E+03  0.00000000000E+00 0.  1.
         23    2    1    2    0    0 -0.36473339763E+03  0.67194091988E+02 -0.91797176044E+02  0.39985138986E+03  0.11793606363E+03 0.  0.
        254    2    1    2    0    0  0.36473339763E+03 -0.67194091988E+02  0.16641012120E+04  0.19245108931E+04  0.89272831044E+03 0.  0.
         23    2    4    4    0    0 -0.12863435833E+02  0.21985610642E+03  0.12932108109E+04  0.13154437352E+04  0.97446619111E+02 0.  0.
         23    2    4    4    0    0  0.37759683346E+03 -0.28705019841E+03  0.37089040110E+03  0.60906715781E+03  0.91792854030E+02 0.  0.
          1    1    3    3  502    0 -0.87494527422E+02  0.60264155216E+02  0.43562318186E+01  0.10632985229E+03  0.00000000000E+00 0. -1.
         -1    1    3    3    0  502 -0.27723887020E+03  0.69299367719E+01 -0.96153407862E+02  0.29352153757E+03  0.00000000000E+00 0.  1.
         11    1    5    5    0    0 -0.17311339960E+02  0.19466945776E+03  0.12503492681E+04  0.12655311819E+04  0.00000000000E+00 0. -1.
        -11    1    5    5    0    0  0.44479041276E+01  0.25186648664E+02  0.42861542864E+02  0.49912553318E+02  0.00000000000E+00 0.  1.
          4    1    6    6  503    0  0.34841122503E+03 -0.26417036637E+03  0.36866080951E+03  0.57191534046E+03  0.00000000000E+00 0. -1.
         -4    1    6    6    0  503  0.29185608432E+02 -0.22879832039E+02  0.22295915990E+01  0.37151817350E+02  0.00000000000E+00 0.  1.
<mgrwt>
<rscale>  0 0.17118762E+04</rscale>
<asrwt>0</asrwt>
<pdfrwt beam="1">  1        2 0.29974356E+00 0.17118762E+04</pdfrwt>
<pdfrwt beam="2">  1       -2 0.57850636E-01 0.17118762E+04</pdfrwt>
<totfact> 0.18981841E+01</totfact>
</mgrwt>
</event>
<event>
12    2  0.3623523E-008  0.2007140E+04  0.7818608E-02  0.8603290E-01
         -2   -1    0    0    0  501 -0.00000000000E+00  0.00000000000E+00  0.47670945524E+03  0.47670945524E+03  0.00000000000E+00 0.  1.
          2   -1    0    0  501    0  0.00000000000E+00 -0.00000000000E+00 -0.21127181526E+04  0.21127181526E+04  0.00000000000E+00 0. -1.
         23    2    1    2    0    0 -0.14227059428E+03  0.11424409138E+03 -0.16632517938E+04  0.16756105837E+04  0.89284177103E+02 0.  0.
        254    2    1    2    0    0  0.14227059428E+03 -0.11424409138E+03  0.27243096412E+02  0.91381702414E+03  0.89500096810E+03 0.  0.
         23    2    4    4    0    0 -0.34272296499E+03 -0.17274594184E+03  0.11014166981E+03  0.41005560798E+03  0.93350002963E+02 0.  0.
         23    2    4    4    0    0  0.48499355927E+03  0.58501850456E+02 -0.82898573398E+02  0.50376141616E+03  0.90896490019E+02 0.  0.
          4    1    3    3  502    0 -0.37515306870E+01 -0.25025667961E+01 -0.28047300444E+01  0.53106810944E+01  0.00000000000E+00 0.  1.
         -4    1    3    3    0  502 -0.13851906360E+03  0.11674665818E+03 -0.16604470638E+04  0.16702999026E+04  0.00000000000E+00 0. -1.
         11    1    5    5    0    0 -0.23349568001E+03 -0.69302392009E+02  0.82097679582E+02  0.25702739759E+03  0.00000000000E+00 0. -1.
        -11    1    5    5    0    0 -0.10922728498E+03 -0.10344354983E+03  0.28043990229E+02  0.15302821039E+03  0.00000000000E+00 0.  1.
          4    1    6    6  503    0  0.35206411362E+03  0.54022936606E+02 -0.99252506924E+02  0.36975488896E+03  0.00000000000E+00 0. -1.
         -4    1    6    6    0  503  0.13292944565E+03  0.44789138502E+01  0.16353933526E+02  0.13400652720E+03  0.00000000000E+00 0.  1.
<mgrwt>
<rscale>  0 0.20071400E+04</rscale>
<asrwt>0</asrwt>
<pdfrwt beam="1">  1        2 0.32503356E+00 0.20071400E+04</pdfrwt>
<pdfrwt beam="2">  1       -2 0.73339918E-01 0.20071400E+04</pdfrwt>
<totfact> 0.90054667E+00</totfact>
</mgrwt>
</event>
<event>
12    2  0.3623523E-008  0.1975531E+04  0.7818608E-02  0.8618147E-01
          2   -1    0    0  501    0  0.00000000000E+00  0.00000000000E+00  0.33468702239E+04  0.33468702239E+04  0.00000000000E+00 0. -1.
         -2   -1    0    0    0  501 -0.00000000000E+00 -0.00000000000E+00 -0.29152041997E+03  0.29152041997E+03  0.00000000000E+00 0.  1.
         23    2    1    2    0    0 -0.18157454379E+03 -0.53113752075E+03  0.22665651260E+04  0.23371367141E+04  0.99066487235E+02 0.  0.
        254    2    1    2    0    0  0.18157454379E+03  0.53113752075E+03  0.78878467789E+03  0.13012539298E+04  0.86948498595E+03 0.  0.
         23    2    4    4    0    0 -0.12116791478E+03  0.52374691484E+03  0.11617819178E+03  0.55790464083E+03  0.93636112906E+02 0.  0.
         23    2    4    4    0    0  0.30274245857E+03  0.73906059078E+01  0.67260648611E+03  0.74334928894E+03  0.91984036349E+02 0.  0.
          2    1    3    3  502    0 -0.18908234506E+03 -0.47425410158E+03  0.20912294593E+04  0.21526517920E+04  0.00000000000E+00 0. -1.
         -2    1    3    3    0  502  0.75078012712E+01 -0.56883419169E+02  0.17533566676E+03  0.18448492214E+03  0.00000000000E+00 0.  1.
         11    1    5    5    0    0 -0.17474944103E+02  0.10904285357E+02  0.13713285341E+02  0.24745328961E+02  0.00000000000E+00 0.  1.
        -11    1    5    5    0    0 -0.10369297068E+03  0.51284262948E+03  0.10246490644E+03  0.53315931187E+03  0.00000000000E+00 0. -1.
          1    1    6    6  503    0  0.26287858627E+03  0.35964617936E+02  0.53322555790E+03  0.59559054766E+03  0.00000000000E+00 0. -1.
         -1    1    6    6    0  503  0.39863872297E+02 -0.28574012028E+02  0.13938092821E+03  0.14775874128E+03  0.00000000000E+00 0.  1.
<mgrwt>
<rscale>  0 0.19755313E+04</rscale>
<asrwt>0</asrwt>
<pdfrwt beam="1">  1        2 0.51490308E+00 0.19755313E+04</pdfrwt>
<pdfrwt beam="2">  1       -2 0.44849298E-01 0.19755313E+04</pdfrwt>
<totfact> 0.45685296E+00</totfact>
</mgrwt>
</event>
<event>
12    2  0.3623523E-008  0.1043646E+04  0.7818608E-02  0.9261929E-01
         -2   -1    0    0    0  501 -0.00000000000E+00  0.00000000000E+00  0.14710072853E+03  0.14710072853E+03  0.00000000000E+00 0.  1.
          2   -1    0    0  501    0  0.00000000000E+00 -0.00000000000E+00 -0.18511061719E+04  0.18511061719E+04  0.00000000000E+00 0. -1.
         23    2    1    2    0    0  0.45878197698E+02  0.71868264091E+01 -0.51181529447E+02  0.11420682824E+03  0.90924095607E+02 0.  0.
        254    2    1    2    0    0 -0.45878197698E+02 -0.71868264091E+01 -0.16528239139E+04  0.18840000722E+04  0.90303539360E+03 0.  0.
         23    2    4    4    0    0  0.31965210366E+03  0.13900900694E+03 -0.12937041033E+04  0.13430113058E+04  0.92239303650E+02 0.  0.
         23    2    4    4    0    0 -0.36553030135E+03 -0.14619583335E+03 -0.35911981060E+03  0.54098876641E+03  0.93360506180E+02 0.  0.
          1    1    3    3  502    0 -0.21141604419E+02  0.24779862792E+02 -0.20003676405E+02  0.38225071709E+02  0.00000000000E+00 0. -1.
         -1    1    3    3    0  502  0.67019802118E+02 -0.17593036383E+02 -0.31177853042E+02  0.75981756530E+02  0.00000000000E+00 0.  1.
         11    1    5    5    0    0  0.28673267025E+03  0.13435112128E+03 -0.10399585047E+04  0.10870968400E+04  0.00000000000E+00 0.  1.
        -11    1    5    5    0    0  0.32919433409E+02  0.46578856601E+01 -0.25374559859E+03  0.25591446578E+03  0.00000000000E+00 0. -1.
          2    1    6    6  503    0 -0.11116031364E+03 -0.46755611538E+00 -0.10787951117E+03  0.15490262382E+03  0.00000000000E+00 0. -1.
         -2    1    6    6    0  503 -0.25436998771E+03 -0.14572827724E+03 -0.25124029943E+03  0.38608614258E+03  0.00000000000E+00 0.  1.
<mgrwt>
<rscale>  0 0.10436457E+04</rscale>
<asrwt>0</asrwt>
<pdfrwt beam="1">  1        2 0.28478557E+00 0.10436457E+04</pdfrwt>
<pdfrwt beam="2">  1       -2 0.22630881E-01 0.10436457E+04</pdfrwt>
<totfact> 0.13839916E+02</totfact>
</mgrwt>
</event>
<event>
12    2  0.3623523E-008  0.2330737E+04  0.7818608E-02  0.8465900E-01
          2   -1    0    0  501    0  0.00000000000E+00  0.00000000000E+00  0.89668405268E+03  0.89668405268E+03  0.00000000000E+00 0. -1.
         -2   -1    0    0    0  501 -0.00000000000E+00 -0.00000000000E+00 -0.15145616700E+04  0.15145616700E+04  0.00000000000E+00 0.  1.
         23    2    1    2    0    0  0.38672420518E+03  0.13018375390E+02 -0.12120998225E+04  0.12756343855E+04  0.91279881872E+02 0.  0.
        254    2    1    2    0    0 -0.38672420518E+03 -0.13018375390E+02  0.59422220514E+03  0.11356113372E+04  0.88701070520E+03 0.  0.
         23    2    4    4    0    0  0.45750973442E+01  0.20041485931E+03  0.64105581963E+03  0.67805675921E+03  0.92851265345E+02 0.  0.
         23    2    4    4    0    0 -0.39129930253E+03 -0.21343323470E+03 -0.46833614495E+02  0.45755457800E+03  0.92162435773E+02 0.  0.
          2    1    3    3  502    0  0.13562132985E+02  0.18690452012E+02 -0.98134055882E+02  0.10081447005E+03  0.00000000000E+00 0. -1.
         -2    1    3    3    0  502  0.37316207220E+03 -0.56720766219E+01 -0.11139657666E+04  0.11748199155E+04  0.00000000000E+00 0.  1.
         11    1    5    5    0    0  0.57536696851E+01  0.19118302452E+03  0.64081056860E+03  0.66874676702E+03  0.00000000000E+00 0.  1.
        -11    1    5    5    0    0 -0.11785723409E+01  0.92318347937E+01  0.24525103496E+00  0.93099921854E+01  0.00000000000E+00 0. -1.
          4    1    6    6  503    0 -0.29015971510E+01  0.58681986854E+01 -0.72498141115E+01  0.97680513148E+01  0.00000000000E+00 0. -1.
         -4    1    6    6    0  503 -0.38839770538E+03 -0.21930143339E+03 -0.39583800383E+02  0.44778652668E+03  0.00000000000E+00 0.  1.
<mgrwt>
<rscale>  0 0.23307366E+04</rscale>
<asrwt>0</asrwt>
<pdfrwt beam="1">  1        2 0.13795139E+00 0.23307366E+04</pdfrwt>
<pdfrwt beam="2">  1       -2 0.23300949E+00 0.23307366E+04</pdfrwt>
<totfact> 0.21817536E+00</totfact>
</mgrwt>
</event>
<event>
12    2  0.3623523E-008  0.2527977E+04  0.7818608E-02  0.8393086E-01
         -2   -1    0    0    0  501 -0.00000000000E+00  0.00000000000E+00  0.10196451570E+04  0.10196451570E+04  0.00000000000E+00 0.  1.
          2   -1    0    0  501    0  0.00000000000E+00 -0.00000000000E+00 -0.15668853542E+04  0.15668853542E+04  0.00000000000E+00 0. -1.
         23    2    1    2    0    0  0.59243426239E+03  0.42400030745E+03 -0.10863759686E+04  0.13111905893E+04  0.90848226997E+02 0.  0.
        254    2    1    2    0    0 -0.59243426239E+03 -0.42400030745E+03  0.53913577146E+03  0.12753399219E+04  0.89725688653E+03 0.  0.
         23    2    4    4    0    0  0.66856788970E+02 -0.14490001880E+03  0.52205296916E+03  0.55357921994E+03  0.91895617218E+02 0.  0.
         23    2    4    4    0    0 -0.65929105136E+03 -0.27910028866E+03  0.17082802306E+02  0.72176070199E+03  0.89916779735E+02 0.  0.
          1    1    3    3  502    0  0.50680013749E+03  0.37290566918E+03 -0.87796499303E+03  0.10801516312E+04  0.00000000000E+00 0. -1.
         -1    1    3    3    0  502  0.85634124899E+02  0.51094638275E+02 -0.20841097559E+03  0.23103895809E+03  0.00000000000E+00 0.  1.
         11    1    5    5    0    0  0.32406840714E+02 -0.26024633331E+02  0.47336065995E+02  0.62993555297E+02  0.00000000000E+00 0. -1.
        -11    1    5    5    0    0  0.34449948256E+02 -0.11887538547E+03  0.47471690316E+03  0.49058566464E+03  0.00000000000E+00 0.  1.
          3    1    6    6  503    0  0.13849069385E+01  0.26269505607E+01 -0.14084018374E+01  0.32867053735E+01  0.00000000000E+00 0. -1.
         -3    1    6    6    0  503 -0.66067595829E+03 -0.28172723922E+03  0.18491204143E+02  0.71847399662E+03  0.00000000000E+00 0.  1.
<mgrwt>
<rscale>  0 0.25279771E+04</rscale>
<asrwt>0</asrwt>
<pdfrwt beam="1">  1        2 0.24105929E+00 0.25279771E+04</pdfrwt>
<pdfrwt beam="2">  1       -2 0.15686849E+00 0.25279771E+04</pdfrwt>
<totfact> 0.27531271E+00</totfact>
</mgrwt>
</event>
<event>
12    2  0.3623523E-008  0.4262993E+04  0.7818608E-02  0.7953497E-01
          2   -1    0    0  501    0  0.00000000000E+00  0.00000000000E+00  0.35166887421E+04  0.35166887421E+04  0.00000000000E+00 0. -1.
         -2   -1    0    0    0  501 -0.00000000000E+00 -0.00000000000E+00 -0.12919190379E+04  0.12919190379E+04  0.00000000000E+00 0.  1.
         23    2    1    2    0    0  0.17382791828E+03  0.42493948705E+03  0.32965896700E+04  0.33296604512E+04  0.91354008300E+02 0.  0.
        254    2    1    2    0    0 -0.17382791828E+03 -0.42493948705E+03 -0.10718199658E+04  0.14789473289E+04  0.90977879167E+03 0.  0.
         23    2    4    4    0    0  0.36656048446E+03 -0.17196681559E+03 -0.41086428432E+03  0.58362537961E+03  0.88712733921E+02 0.  0.
         23    2    4    4    0    0 -0.54038840274E+03 -0.25297267146E+03 -0.66095568147E+03  0.89532194929E+03  0.93403328078E+02 0.  0.
          1    1    3    3  502    0  0.17696300275E+03  0.42833255725E+03  0.32685508971E+04  0.33012436521E+04  0.00000000000E+00 0. -1.
         -1    1    3    3    0  502 -0.31350844701E+01 -0.33930702020E+01  0.28038772933E+02  0.28416799039E+02  0.00000000000E+00 0.  1.
         11    1    5    5    0    0  0.27105544633E+03 -0.11451250021E+03 -0.24045170942E+03  0.38000156874E+03  0.00000000000E+00 0. -1.
        -11    1    5    5    0    0  0.95505038134E+02 -0.57454315385E+02 -0.17041257490E+03  0.20362381086E+03  0.00000000000E+00 0.  1.
          3    1    6    6  503    0 -0.53331693553E+03 -0.24471601185E+03 -0.66173368193E+03  0.88442317132E+03  0.00000000000E+00 0. -1.
         -3    1    6    6    0  503 -0.70714672175E+01 -0.82566596057E+01  0.77800046309E+00  0.10898777967E+02  0.00000000000E+00 0.  1.
<mgrwt>
<rscale>  0 0.42629929E+04</rscale>
<asrwt>0</asrwt>
<pdfrwt beam="1">  1        2 0.54102903E+00 0.42629929E+04</pdfrwt>
<pdfrwt beam="2">  1       -2 0.19875678E+00 0.42629929E+04</pdfrwt>
<totfact> 0.82673204E-02</totfact>
</mgrwt>
</event>
<event>
12    2  0.3623523E-008  0.2018461E+04  0.7818608E-02  0.8598038E-01
         -1   -1    0    0    0  501 -0.00000000000E+00  0.00000000000E+00  0.13733986551E+04  0.13733986551E+04  0.00000000000E+00 0.  1.
          1   -1    0    0  501    0  0.00000000000E+00 -0.00000000000E+00 -0.74162428422E+03  0.74162428422E+03  0.00000000000E+00 0. -1.
         23    2    1    2    0    0 -0.51009922597E+03  0.55585481275E+03 -0.54604555686E+02  0.76242768524E+03  0.95595630315E+02 0.  0.
        254    2    1    2    0    0  0.51009922597E+03 -0.55585481275E+03  0.68637892653E+03  0.13525952540E+04  0.88838172949E+03 0.  0.
         23    2    4    4    0    0 -0.68433266926E+02  0.19307943047E+01 -0.14960025775E+03  0.18968081367E+03  0.94401980735E+02 0.  0.
         23    2    4    4    0    0  0.57853249289E+03 -0.55778560705E+03  0.83597918428E+03  0.11629144404E+04  0.87659399357E+02 0.  0.
          2    1    3    3  502    0 -0.28630344566E+03  0.33453314375E+03 -0.76500525008E+02  0.44691656670E+03  0.00000000000E+00 0. -1.
         -2    1    3    3    0  502 -0.22379578031E+03  0.22132166899E+03  0.21895969322E+02  0.31551111854E+03  0.00000000000E+00 0.  1.
         11    1    5    5    0    0  0.22199923343E+01  0.17567126917E+02  0.54908710357E+01  0.18538661732E+02  0.00000000000E+00 0. -1.
        -11    1    5    5    0    0 -0.70653259260E+02 -0.15636332613E+02 -0.15509112879E+03  0.17114215194E+03  0.00000000000E+00 0.  1.
          2    1    6    6  503    0  0.18736320304E+03 -0.16436207667E+03  0.20497345307E+03  0.32269796802E+03  0.00000000000E+00 0. -1.
         -2    1    6    6    0  503  0.39116928986E+03 -0.39342353038E+03  0.63100573122E+03  0.84021647235E+03  0.00000000000E+00 0.  1.
<mgrwt>
<rscale>  0 0.20184606E+04</rscale>
<asrwt>0</asrwt>
<pdfrwt beam="1">  1        1 0.11409604E+00 0.20184606E+04</pdfrwt>
<pdfrwt beam="2">  1       -1 0.21129210E+00 0.20184606E+04</pdfrwt>
<totfact> 0.29081004E+00</totfact>
</mgrwt>
</event>
<event>
12    2  0.3623523E-008  0.1948594E+04  0.7818608E-02  0.8631039E-01
          1   -1    0    0  501    0  0.00000000000E+00  0.00000000000E+00  0.94267918342E+03  0.94267918342E+03  0.00000000000E+00 0. -1.
         -1   -1    0    0    0  501 -0.00000000000E+00 -0.00000000000E+00 -0.10069755345E+04  0.10069755345E+04  0.00000000000E+00 0.  1.
         23    2    1    2    0    0  0.51887802462E+03  0.57525702345E+03  0.14310677836E+02  0.78020610164E+03  0.91442430439E+02 0.  0.
        254    2    1    2    0    0 -0.51887802462E+03 -0.57525702345E+03 -0.78607028922E+02  0.11694486163E+04  0.87251129143E+03 0.  0.
         23    2    4    4    0    0 -0.46643392930E+03 -0.43896123601E+02  0.24745172075E+03  0.53726535307E+03  0.89074269247E+02 0.  0.
         23    2    4    4    0    0 -0.52444095314E+02 -0.53136089985E+03 -0.32605874967E+03  0.63218326321E+03  0.90810687823E+02 0.  0.
          2    1    3    3  502    0  0.38179156871E+03  0.43792556057E+03  0.49150574024E+02  0.58306035491E+03  0.00000000000E+00 0. -1.
         -2    1    3    3    0  502  0.13708645591E+03  0.13733146288E+03 -0.34839896188E+02  0.19714574674E+03  0.00000000000E+00 0.  1.
         11    1    5    5    0    0 -0.54836719698E+02  0.14487524672E+02  0.55560677329E+02  0.79397374412E+02  0.00000000000E+00 0. -1.
        -11    1    5    5    0    0 -0.41159720961E+03 -0.58383648273E+02  0.19189104342E+03  0.45786797866E+03  0.00000000000E+00 0.  1.
          3    1    6    6  503    0 -0.58857571385E+02 -0.53159051166E+03 -0.32448940475E+03  0.62557658171E+03  0.00000000000E+00 0. -1.
         -3    1    6    6    0  503  0.64134760708E+01  0.22961180947E+00 -0.15693449223E+01  0.66066814951E+01  0.00000000000E+00 0.  1.
<mgrwt>
<rscale>  0 0.19485942E+04</rscale>
<asrwt>0</asrwt>
<pdfrwt beam="1">  1        1 0.14502757E+00 0.19485942E+04</pdfrwt>
<pdfrwt beam="2">  1       -1 0.15491931E+00 0.19485942E+04</pdfrwt>
<totfact> 0.50029633E+00</totfact>
</mgrwt>
</event>
<event>
12    2  0.3623523E-008  0.1612902E+04  0.7818608E-02  0.8812661E-01
          2   -1    0    0  501    0  0.00000000000E+00  0.00000000000E+00  0.10500768977E+04  0.10500768977E+04  0.00000000000E+00 0. -1.
         -2   -1    0    0    0  501 -0.00000000000E+00 -0.00000000000E+00 -0.61934850485E+03  0.61934850485E+03  0.00000000000E+00 0.  1.
         23    2    1    2    0    0 -0.22738938323E+03 -0.12032861609E+03  0.64362796044E+03  0.69906578772E+03  0.90835657319E+02 0.  0.
        254    2    1    2    0    0  0.22738938323E+03  0.12032861609E+03 -0.21289956757E+03  0.97035961484E+03  0.91109091137E+03 0.  0.
         23    2    4    4    0    0  0.48665429227E+03 -0.52350060513E+02  0.11340448440E+03  0.51058770703E+03  0.90919197495E+02 0.  0.
         23    2    4    4    0    0 -0.25926490904E+03  0.17267867661E+03 -0.32630405197E+03  0.45977190781E+03  0.88767417796E+02 0.  0.
          2    1    3    3  502    0 -0.12351680518E+03 -0.46987280478E+02  0.43607320359E+03  0.45565781523E+03  0.00000000000E+00 0. -1.
         -2    1    3    3    0  502 -0.10387257805E+03 -0.73341335616E+02  0.20755475685E+03  0.24340797249E+03  0.00000000000E+00 0.  1.
         11    1    5    5    0    0  0.16169681607E+02 -0.10514596599E+02  0.22400294150E+02  0.29559914122E+02  0.00000000000E+00 0. -1.
        -11    1    5    5    0    0  0.47048461066E+03 -0.41835463913E+02  0.91004190250E+02  0.48102779291E+03  0.00000000000E+00 0.  1.
          2    1    6    6  503    0 -0.20603902049E+02  0.29091381643E+02 -0.81496861203E+02  0.88952614641E+02  0.00000000000E+00 0. -1.
         -2    1    6    6    0  503 -0.23866100699E+03  0.14358729496E+03 -0.24480719077E+03  0.37081929317E+03  0.00000000000E+00 0.  1.
<mgrwt>
<rscale>  0 0.16129024E+04</rscale>
<asrwt>0</asrwt>
<pdfrwt beam="1">  1        2 0.16155029E+00 0.16129024E+04</pdfrwt>
<pdfrwt beam="2">  1       -2 0.95284385E-01 0.16129024E+04</pdfrwt>
<totfact> 0.20756382E+01</totfact>
</mgrwt>
</event>
<event>
12    2  0.3623523E-008  0.1818485E+04  0.7818608E-02  0.8696531E-01
          2   -1    0    0  501    0  0.00000000000E+00  0.00000000000E+00  0.13990242223E+04  0.13990242223E+04  0.00000000000E+00 0. -1.
         -2   -1    0    0    0  501 -0.00000000000E+00 -0.00000000000E+00 -0.59092721988E+03  0.59092721988E+03  0.00000000000E+00 0.  1.
         23    2    1    2    0    0 -0.90585355808E+02  0.28048956495E+03  0.98566277632E+03  0.10329489270E+04  0.92586577837E+02 0.  0.
        254    2    1    2    0    0  0.90585355808E+02 -0.28048956495E+03 -0.17756577390E+03  0.95700251521E+03  0.89299726053E+03 0.  0.
         23    2    4    4    0    0  0.46003861396E+03 -0.65114588112E+02  0.26674437927E+02  0.47386228892E+03  0.89210466312E+02 0.  0.
         23    2    4    4    0    0 -0.36945325815E+03 -0.21537497684E+03 -0.20424021182E+03  0.48314022629E+03  0.93959158800E+02 0.  0.
          3    1    3    3  502    0 -0.87532157750E+02  0.15115350420E+03  0.65468290035E+03  0.67758317606E+03  0.00000000000E+00 0. -1.
         -3    1    3    3    0  502 -0.30531980582E+01  0.12933606075E+03  0.33097987598E+03  0.35536575092E+03  0.00000000000E+00 0.  1.
         11    1    5    5    0    0  0.28675874829E+03 -0.83936285569E+02  0.14685274022E+02  0.29915136140E+03  0.00000000000E+00 0. -1.
        -11    1    5    5    0    0  0.17327986567E+03  0.18821697457E+02  0.11989163905E+02  0.17471092752E+03  0.00000000000E+00 0.  1.
          4    1    6    6  503    0 -0.11018762961E+03 -0.59784179575E+02 -0.10901243287E+03  0.16612998635E+03  0.00000000000E+00 0. -1.
         -4    1    6    6    0  503 -0.25926562854E+03 -0.15559079727E+03 -0.95227778956E+02  0.31701023993E+03  0.00000000000E+00 0.  1.
<mgrwt>
<rscale>  0 0.18184845E+04</rscale>
<asrwt>0</asrwt>
<pdfrwt beam="1">  1        2 0.21523449E+00 0.18184845E+04</pdfrwt>
<pdfrwt beam="2">  1       -2 0.90911880E-01 0.18184845E+04</pdfrwt>
<totfact> 0.14103362E+01</totfact>
</mgrwt>
</event>
<event>
12    2  0.3623523E-008  0.1559029E+04  0.7818608E-02  0.8846121E-01
          1   -1    0    0  501    0  0.00000000000E+00  0.00000000000E+00  0.65722247664E+03  0.65722247664E+03  0.00000000000E+00 0. -1.
         -1   -1    0    0    0  501 -0.00000000000E+00 -0.00000000000E+00 -0.92456196926E+03  0.92456196926E+03  0.00000000000E+00 0.  1.
         23    2    1    2    0    0 -0.14845404598E+03  0.11718579743E+03  0.39923056671E+03  0.45075015418E+03  0.89551891142E+02 0.  0.
        254    2    1    2    0    0  0.14845404598E+03 -0.11718579743E+03 -0.66657005933E+03  0.11310342917E+04  0.89395291272E+03 0.  0.
         23    2    4    4    0    0 -0.53682438959E+02  0.36566471098E+03 -0.26464277503E+03  0.46475541972E+03  0.96795230629E+02 0.  0.
         23    2    4    4    0    0  0.20213648494E+03 -0.48285050841E+03 -0.40192728429E+03  0.66627887200E+03  0.91532624789E+02 0.  0.
          4    1    3    3  502    0  0.31083445162E+01  0.31968002800E+02  0.95679986598E+02  0.10092707686E+03  0.00000000000E+00 0.  1.
         -4    1    3    3    0  502 -0.15156239050E+03  0.85217794633E+02  0.30355058011E+03  0.34982307732E+03  0.00000000000E+00 0. -1.
         11    1    5    5    0    0 -0.98626268996E+01  0.31426692305E+03 -0.22156913653E+03  0.38464769932E+03  0.00000000000E+00 0. -1.
        -11    1    5    5    0    0 -0.43819812059E+02  0.51397787929E+02 -0.43073638502E+02  0.80107720394E+02  0.00000000000E+00 0.  1.
          3    1    6    6  503    0  0.79872752895E+02 -0.30559222708E+03 -0.24802518244E+03  0.40160024531E+03  0.00000000000E+00 0. -1.
         -3    1    6    6    0  503  0.12226373205E+03 -0.17725828133E+03 -0.15390210186E+03  0.26467862670E+03  0.00000000000E+00 0.  1.
<mgrwt>
<rscale>  0 0.15590291E+04</rscale>
<asrwt>0</asrwt>
<pdfrwt beam="1">  1        1 0.10111115E+00 0.15590291E+04</pdfrwt>
<pdfrwt beam="2">  1       -1 0.14224030E+00 0.15590291E+04</pdfrwt>
<totfact> 0.11597590E+01</totfact>
</mgrwt>
</event>
<event>
12    2  0.3623523E-008  0.2058642E+04  0.7818608E-02  0.8579684E-01
          2   -1    0    0  501    0  0.00000000000E+00  0.00000000000E+00  0.19208851094E+04  0.19208851094E+04  0.00000000000E+00 0.  1.
         -2   -1    0    0    0  501 -0.00000000000E+00 -0.00000000000E+00 -0.55156979053E+03  0.55156979053E+03  0.00000000000E+00 0. -1.
         23    2    1    2    0    0 -0.18428241796E+02 -0.76292507156E+03  0.98223997188E+03  0.12464238722E+04  0.79892690052E+02 0.  0.
        254    2    1    2    0    0  0.18428241796E+02  0.76292507156E+03  0.38707534699E+03  0.12260310277E+04  0.87802647556E+03 0.  0.
         23    2    4    4    0    0 -0.24299301913E+03  0.33272009002E+03 -0.18161279732E+03  0.45956863592E+03  0.92042692930E+02 0.  0.
         23    2    4    4    0    0  0.26142126093E+03  0.43020498155E+03  0.56868814431E+03  0.76646239181E+03  0.10315517808E+03 0.  0.
          3    1    3    3  502    0  0.71360895461E+01 -0.68238418265E+02  0.57385414605E+02  0.89445465568E+02  0.00000000000E+00 0. -1.
         -3    1    3    3    0  502 -0.25564331342E+02 -0.69468665330E+03  0.92485455727E+03  0.11569784066E+04  0.00000000000E+00 0.  1.
         11    1    5    5    0    0 -0.14098556660E+02  0.22053040867E+02  0.10870261959E+02  0.28341991928E+02  0.00000000000E+00 0.  1.
        -11    1    5    5    0    0 -0.22889446247E+03  0.31066704915E+03 -0.19248305928E+03  0.43122664399E+03  0.00000000000E+00 0. -1.
          4    1    6    6  503    0  0.19397976087E+03  0.38884643302E+03  0.48880720387E+03  0.65403530383E+03  0.00000000000E+00 0. -1.
         -4    1    6    6    0  503  0.67441500052E+02  0.41358548528E+02  0.79880940435E+02  0.11242708797E+03  0.00000000000E+00 0.  1.
<mgrwt>
<rscale>  0 0.20586425E+04</rscale>
<asrwt>0</asrwt>
<pdfrwt beam="1">  1        2 0.29552078E+00 0.20586425E+04</pdfrwt>
<pdfrwt beam="2">  1       -2 0.84856892E-01 0.20586425E+04</pdfrwt>
<totfact> 0.82681662E+00</totfact>
</mgrwt>
</event>
<event>
12    2  0.3623523E-008  0.1525139E+04  0.7818608E-02  0.8867906E-01
          1   -1    0    0  501    0  0.00000000000E+00  0.00000000000E+00  0.14029582762E+04  0.14029582762E+04  0.00000000000E+00 0. -1.
         -1   -1    0    0    0  501 -0.00000000000E+00 -0.00000000000E+00 -0.41448977780E+03  0.41448977780E+03  0.00000000000E+00 0.  1.
         23    2    1    2    0    0  0.47645497735E+03  0.63377357962E+02  0.20330677593E+03  0.53048332142E+03  0.95146593346E+02 0.  0.
        254    2    1    2    0    0 -0.47645497735E+03 -0.63377357962E+02  0.78516172249E+03  0.12869647326E+04  0.89931821817E+03 0.  0.
         23    2    4    4    0    0 -0.42741688150E+02 -0.35015251525E+03  0.32173488027E+02  0.36689352030E+03  0.95614256620E+02 0.  0.
         23    2    4    4    0    0 -0.43371328920E+03  0.28677515728E+03  0.75298823446E+03  0.92007121229E+03  0.95877767938E+02 0.  0.
          2    1    3    3  502    0  0.21482126873E+03  0.58167621190E+02  0.13396753044E+03  0.25976710505E+03  0.00000000000E+00 0. -1.
         -2    1    3    3    0  502  0.26163370862E+03  0.52097367724E+01  0.69339245497E+02  0.27071621637E+03  0.00000000000E+00 0.  1.
         11    1    5    5    0    0 -0.52964111171E+02 -0.14673119683E+03 -0.18264919941E+02  0.15706319905E+03  0.00000000000E+00 0. -1.
        -11    1    5    5    0    0  0.10222423021E+02 -0.20342131842E+03  0.50438407968E+02  0.20983032125E+03  0.00000000000E+00 0.  1.
          3    1    6    6  503    0 -0.30525968725E+03  0.19923715103E+03  0.59944575316E+03  0.70157973887E+03  0.00000000000E+00 0. -1.
         -3    1    6    6    0  503 -0.12845360195E+03  0.87538006258E+02  0.15354248130E+03  0.21849147342E+03  0.00000000000E+00 0.  1.
<mgrwt>
<rscale>  0 0.15251385E+04</rscale>
<asrwt>0</asrwt>
<pdfrwt beam="1">  1        1 0.21583973E+00 0.15251385E+04</pdfrwt>
<pdfrwt beam="2">  1       -1 0.63767659E-01 0.15251385E+04</pdfrwt>
<totfact> 0.18408911E+01</totfact>
</mgrwt>
</event>
<event>
12    2  0.3623523E-008  0.2341257E+04  0.7818608E-02  0.8461829E-01
         -2   -1    0    0    0  501 -0.00000000000E+00  0.00000000000E+00  0.11347857543E+04  0.11347857543E+04  0.00000000000E+00 0. -1.
          2   -1    0    0  501    0  0.00000000000E+00 -0.00000000000E+00 -0.12076036418E+04  0.12076036418E+04  0.00000000000E+00 0.  1.
         23    2    1    2    0    0 -0.79117308087E+03 -0.14955375362E+03  0.55335423412E+03  0.98198314498E+03  0.98837338526E+02 0.  0.
        254    2    1    2    0    0  0.79117308087E+03  0.14955375362E+03 -0.62617212161E+03  0.13604062512E+04  0.90016247048E+03 0.  0.
         23    2    4    4    0    0  0.45594013581E+03 -0.32772592352E+03 -0.49911100009E+03  0.75659312189E+03  0.89641917001E+02 0.  0.
         23    2    4    4    0    0  0.33523294506E+03  0.47727967714E+03 -0.12706112153E+03  0.60381312930E+03  0.90932661061E+02 0.  0.
          4    1    3    3  502    0 -0.45761662321E+03 -0.91676763432E+02  0.26132040983E+03  0.53488873552E+03  0.00000000000E+00 0.  1.
         -4    1    3    3    0  502 -0.33355645766E+03 -0.57876990184E+02  0.29203382429E+03  0.44709440945E+03  0.00000000000E+00 0. -1.
         11    1    5    5    0    0  0.28239230459E+02 -0.53446777663E+02 -0.49367389891E+02  0.78045828615E+02  0.00000000000E+00 0. -1.
        -11    1    5    5    0    0  0.42770090535E+03 -0.27427914586E+03 -0.44974361020E+03  0.67854729327E+03  0.00000000000E+00 0.  1.
          3    1    6    6  503    0  0.60272513514E+02  0.12333062001E+03 -0.63076426030E+02  0.15106903468E+03  0.00000000000E+00 0. -1.
         -3    1    6    6    0  503  0.27496043155E+03  0.35394905713E+03 -0.63984695497E+02  0.45274409462E+03  0.00000000000E+00 0.  1.
<mgrwt>
<rscale>  0 0.23412573E+04</rscale>
<asrwt>0</asrwt>
<pdfrwt beam="1">  1        2 0.18578517E+00 0.23412573E+04</pdfrwt>
<pdfrwt beam="2">  1       -2 0.17458242E+00 0.23412573E+04</pdfrwt>
<totfact> 0.33502057E+00</totfact>
</mgrwt>
</event>
<event>
12    2  0.3623523E-008  0.3597612E+04  0.7818608E-02  0.8091039E-01
         -1   -1    0    0    0  501 -0.00000000000E+00  0.00000000000E+00  0.94218131948E+03  0.94218131948E+03  0.00000000000E+00 0.  1.
          1   -1    0    0  501    0  0.00000000000E+00 -0.00000000000E+00 -0.34342675180E+04  0.34342675180E+04  0.00000000000E+00 0. -1.
         23    2    1    2    0    0 -0.11930780566E+04 -0.90680185286E+03 -0.21087534661E+04  0.25887770797E+04  0.95920478379E+02 0.  0.
        254    2    1    2    0    0  0.11930780566E+04  0.90680185286E+03 -0.38333273245E+03  0.17876717578E+04  0.89615929403E+03 0.  0.
         23    2    4    4    0    0  0.79138969847E+02 -0.72666349973E+02 -0.26201331002E+03  0.29658354504E+03  0.88133135614E+02 0.  0.
         23    2    4    4    0    0  0.11139390868E+04  0.97946820283E+03 -0.12131942242E+03  0.14910882127E+04  0.91691910891E+02 0.  0.
          1    1    3    3  502    0 -0.11815285363E+04 -0.89428670851E+03 -0.20635478398E+04  0.25404700522E+04  0.00000000000E+00 0. -1.
         -1    1    3    3    0  502 -0.11549520369E+02 -0.12515144348E+02 -0.45205626287E+02  0.48307027509E+02  0.00000000000E+00 0.  1.
         11    1    5    5    0    0  0.43358829258E+02 -0.58439093753E+02 -0.24295859396E+03  0.25362175406E+03  0.00000000000E+00 0.  1.
        -11    1    5    5    0    0  0.35780140589E+02 -0.14227256220E+02 -0.19054716064E+02  0.42961790983E+02  0.00000000000E+00 0. -1.
          4    1    6    6  503    0  0.95186962395E+02  0.52115588074E+02 -0.97436993101E+01  0.10895656018E+03  0.00000000000E+00 0. -1.
         -4    1    6    6    0  503  0.10187521244E+04  0.92735261476E+03 -0.11157572311E+03  0.13821316526E+04  0.00000000000E+00 0.  1.
<mgrwt>
<rscale>  0 0.35976118E+04</rscale>
<asrwt>0</asrwt>
<pdfrwt beam="1">  1        1 0.52834884E+00 0.35976118E+04</pdfrwt>
<pdfrwt beam="2">  1       -1 0.14495097E+00 0.35976118E+04</pdfrwt>
<totfact> 0.86955305E-02</totfact>
</mgrwt>
</event>
<event>
12    2  0.3623523E-008  0.1193385E+04  0.7818608E-02  0.9118666E-01
          1   -1    0    0  501    0  0.00000000000E+00  0.00000000000E+00  0.63159720257E+03  0.63159720257E+03  0.00000000000E+00 0. -1.
         -1   -1    0    0    0  501 -0.00000000000E+00 -0.00000000000E+00 -0.56371717632E+03  0.56371717632E+03  0.00000000000E+00 0.  1.
         23    2    1    2    0    0  0.16060500011E+03 -0.28867404095E+03  0.81159174115E+02  0.35291035000E+03  0.93979974511E+02 0.  0.
        254    2    1    2    0    0 -0.16060500011E+03  0.28867404095E+03 -0.13279147870E+02  0.84240402889E+03  0.77481710367E+03 0.  0.
         23    2    4    4    0    0  0.26609894837E+01 -0.92774257446E+02 -0.30241182422E+03  0.32901892728E+03  0.90478723301E+02 0.  0.
         23    2    4    4    0    0 -0.16326598960E+03  0.38144829840E+03  0.28913267635E+03  0.51338510161E+03  0.88362720149E+02 0.  0.
          3    1    3    3  502    0  0.12077645337E+03 -0.24743189552E+03  0.99424868812E+02  0.29273674034E+03  0.00000000000E+00 0. -1.
         -3    1    3    3    0  502  0.39828546747E+02 -0.41242145437E+02 -0.18265694697E+02  0.60173609656E+02  0.00000000000E+00 0.  1.
         11    1    5    5    0    0  0.31845002411E+02 -0.74808344113E+02 -0.13073303918E+03  0.15395298003E+03  0.00000000000E+00 0. -1.
        -11    1    5    5    0    0 -0.29184012928E+02 -0.17965913332E+02 -0.17167878505E+03  0.17506594725E+03  0.00000000000E+00 0.  1.
          3    1    6    6  503    0 -0.75662229573E+02  0.12864711584E+03  0.59031604901E+02  0.16049792452E+03  0.00000000000E+00 0. -1.
         -3    1    6    6    0  503 -0.87603760025E+02  0.25280118256E+03  0.23010107145E+03  0.35288717709E+03  0.00000000000E+00 0.  1.
<mgrwt>
<rscale>  0 0.11933854E+04</rscale>
<asrwt>0</asrwt>
<pdfrwt beam="1">  1        1 0.97168800E-01 0.11933854E+04</pdfrwt>
<pdfrwt beam="2">  1       -1 0.86725720E-01 0.11933854E+04</pdfrwt>
<totfact> 0.41255673E+01</totfact>
</mgrwt>
</event>
<event>
12    2  0.3623523E-008  0.2246298E+04  0.7818608E-02  0.8499401E-01
         -1   -1    0    0    0  501 -0.00000000000E+00  0.00000000000E+00  0.50561773561E+03  0.50561773561E+03  0.00000000000E+00 0.  1.
          1   -1    0    0  501    0  0.00000000000E+00 -0.00000000000E+00 -0.24948967956E+04  0.24948967956E+04  0.00000000000E+00 0. -1.
         23    2    1    2    0    0  0.77083056234E+03 -0.36170896875E+03 -0.13220146422E+04  0.15750702853E+04  0.90058622974E+02 0.  0.
        254    2    1    2    0    0 -0.77083056234E+03  0.36170896875E+03 -0.66726441783E+03  0.14254442459E+04  0.92824369701E+03 0.  0.
         23    2    4    4    0    0 -0.60962795304E+03  0.10526587346E+03  0.63839719624E+02  0.62903797481E+03  0.94266211908E+02 0.  0.
         23    2    4    4    0    0 -0.16120260930E+03  0.25644309530E+03 -0.73110413745E+03  0.79640627112E+03  0.89444656094E+02 0.  0.
          3    1    3    3  502    0  0.43183035798E+03 -0.24955039794E+03 -0.79415125482E+03  0.93777879839E+03  0.00000000000E+00 0. -1.
         -3    1    3    3    0  502  0.33900020437E+03 -0.11215857081E+03 -0.52786338739E+03  0.63729148693E+03  0.00000000000E+00 0.  1.
         11    1    5    5    0    0 -0.23154385234E+03  0.73916551954E+02 -0.67283939984E+01  0.24314909725E+03  0.00000000000E+00 0.  1.
        -11    1    5    5    0    0 -0.37808410071E+03  0.31349321502E+02  0.70568113622E+02  0.38588887756E+03  0.00000000000E+00 0. -1.
          3    1    6    6  503    0 -0.16166654326E+03  0.24571293542E+03 -0.63624712085E+03  0.70094316219E+03  0.00000000000E+00 0. -1.
         -3    1    6    6    0  503  0.46393395467E+00  0.10730159873E+02 -0.94857016608E+02  0.95463108924E+02  0.00000000000E+00 0.  1.
<mgrwt>
<rscale>  0 0.22462983E+04</rscale>
<asrwt>0</asrwt>
<pdfrwt beam="1">  1        1 0.38383027E+00 0.22462983E+04</pdfrwt>
<pdfrwt beam="2">  1       -1 0.77787345E-01 0.22462983E+04</pdfrwt>
<totfact> 0.20534071E+00</totfact>
</mgrwt>
</event>
<event>
12    2  0.3623523E-008  0.1531474E+04  0.7818608E-02  0.8863789E-01
         -1   -1    0    0    0  501 -0.00000000000E+00  0.00000000000E+00  0.34740963330E+03  0.34740963330E+03  0.00000000000E+00 0.  1.
          1   -1    0    0  501    0  0.00000000000E+00 -0.00000000000E+00 -0.16877856424E+04  0.16877856424E+04  0.00000000000E+00 0. -1.
         23    2    1    2    0    0 -0.18072670661E+03 -0.92242122958E+02  0.15976717128E+03  0.27453507165E+03  0.93130042509E+02 0.  0.
        254    2    1    2    0    0  0.18072670661E+03  0.92242122958E+02 -0.15001431803E+04  0.17606602040E+04  0.89906842940E+03 0.  0.
         23    2    4    4    0    0 -0.57567933714E+01  0.22888956736E+03 -0.10404567833E+02  0.25040172772E+03  0.10084242906E+03 0.  0.
         23    2    4    4    0    0  0.18648349999E+03 -0.13664744440E+03 -0.14897386125E+04  0.15102584763E+04  0.90060600692E+02 0.  0.
          1    1    3    3  502    0 -0.11733349802E+02 -0.18896392722E+02 -0.96576180255E+01  0.24249015267E+02  0.00000000000E+00 0. -1.
         -1    1    3    3    0  502 -0.16899335681E+03 -0.73345730236E+02  0.16942478930E+03  0.25028605639E+03  0.00000000000E+00 0.  1.
         11    1    5    5    0    0  0.44253673109E+02  0.14073488234E+03 -0.18706854631E+02  0.14870992267E+03  0.00000000000E+00 0.  1.
        -11    1    5    5    0    0 -0.50010466480E+02  0.88154685018E+02  0.83022867978E+01  0.10169180505E+03  0.00000000000E+00 0. -1.
          3    1    6    6  503    0  0.74376564631E+02 -0.73357539476E+01 -0.36491768177E+03  0.37249241753E+03  0.00000000000E+00 0. -1.
         -3    1    6    6    0  503  0.11210693535E+03 -0.12931169045E+03 -0.11248209307E+04  0.11377660587E+04  0.00000000000E+00 0.  1.
<mgrwt>
<rscale>  0 0.15314738E+04</rscale>
<asrwt>0</asrwt>
<pdfrwt beam="1">  1        1 0.25965933E+00 0.15314738E+04</pdfrwt>
<pdfrwt beam="2">  1       -1 0.53447637E-01 0.15314738E+04</pdfrwt>
<totfact> 0.16556558E+01</totfact>
</mgrwt>
</event>
<event>
12    2  0.3623523E-008  0.1543081E+04  0.7818608E-02  0.8856300E-01
          1   -1    0    0  501    0  0.00000000000E+00  0.00000000000E+00  0.13907892309E+04  0.13907892309E+04  0.00000000000E+00 0. -1.
         -1   -1    0    0    0  501 -0.00000000000E+00 -0.00000000000E+00 -0.42801197641E+03  0.42801197641E+03  0.00000000000E+00 0.  1.
         23    2    1    2    0    0 -0.39577132037E+03 -0.23565661824E+03  0.68518497860E+03  0.83057053631E+03  0.90553747269E+02 0.  0.
        254    2    1    2    0    0  0.39577132037E+03  0.23565661824E+03  0.27759227592E+03  0.98823067103E+03  0.82907985609E+03 0.  0.
         23    2    4    4    0    0  0.21731966667E+03  0.45789179216E+03  0.41268413085E+03  0.65998368970E+03  0.91528946056E+02 0.  0.
         23    2    4    4    0    0  0.17845165370E+03 -0.22223517392E+03 -0.13509185492E+03  0.32824698133E+03  0.90899979391E+02 0.  0.
          3    1    3    3  502    0 -0.32663420779E+03 -0.17251499880E+03  0.48574448760E+03  0.61024506368E+03  0.00000000000E+00 0. -1.
         -3    1    3    3    0  502 -0.69137112577E+02 -0.63141619440E+02  0.19944049100E+03  0.22032547263E+03  0.00000000000E+00 0.  1.
         11    1    5    5    0    0  0.10123253234E+03  0.12424067415E+03  0.15267761687E+03  0.22134639236E+03  0.00000000000E+00 0. -1.
        -11    1    5    5    0    0  0.11608713433E+03  0.33365111801E+03  0.26000651398E+03  0.43863729734E+03  0.00000000000E+00 0.  1.
          4    1    6    6  503    0  0.38324292298E+02 -0.48423120324E+02  0.91708374131E+01  0.62431195895E+02  0.00000000000E+00 0. -1.
         -4    1    6    6    0  503  0.14012736140E+03 -0.17381205359E+03 -0.14426269234E+03  0.26581578544E+03  0.00000000000E+00 0.  1.
<mgrwt>
<rscale>  0 0.15430806E+04</rscale>
<asrwt>0</asrwt>
<pdfrwt beam="1">  1        1 0.21396757E+00 0.15430806E+04</pdfrwt>
<pdfrwt beam="2">  1       -1 0.65847997E-01 0.15430806E+04</pdfrwt>
<totfact> 0.17572125E+01</totfact>
</mgrwt>
</event>
<event>
12    2  0.3623523E-008  0.2428719E+04  0.7818608E-02  0.8428829E-01
         -1   -1    0    0    0  501 -0.00000000000E+00  0.00000000000E+00  0.10043750194E+04  0.10043750194E+04  0.00000000000E+00 0.  1.
          1   -1    0    0  501    0  0.00000000000E+00 -0.00000000000E+00 -0.14682453324E+04  0.14682453324E+04  0.00000000000E+00 0. -1.
         23    2    1    2    0    0  0.35034089169E+03  0.67651645612E+03 -0.93403037674E+03  0.12087955489E+04  0.91436746417E+02 0.  0.
        254    2    1    2    0    0 -0.35034089169E+03 -0.67651645612E+03  0.47016006373E+03  0.12638248029E+04  0.89207028379E+03 0.  0.
         23    2    4    4    0    0 -0.52016479850E+03 -0.41889396909E+03 -0.23589671646E+02  0.67441211134E+03  0.90728431966E+02 0.  0.
         23    2    4    4    0    0  0.16982390681E+03 -0.25762248702E+03  0.49374973537E+03  0.58941269160E+03  0.91700679932E+02 0.  0.
          2    1    3    3  502    0  0.31573087268E+03  0.53376668349E+03 -0.74222365960E+03  0.96720670864E+03  0.00000000000E+00 0. -1.
         -2    1    3    3    0  502  0.34610019003E+02  0.14274977263E+03 -0.19180671714E+03  0.24158884026E+03  0.00000000000E+00 0.  1.
         11    1    5    5    0    0 -0.36167359235E+03 -0.31832447243E+03  0.18039664489E+02  0.48214488138E+03  0.00000000000E+00 0. -1.
        -11    1    5    5    0    0 -0.15849120615E+03 -0.10056949667E+03 -0.41629336135E+02  0.19226722996E+03  0.00000000000E+00 0.  1.
          2    1    6    6  503    0  0.16027658874E+03 -0.19995871358E+03  0.44404493718E+03  0.51268701785E+03  0.00000000000E+00 0. -1.
         -2    1    6    6    0  503  0.95473180774E+01 -0.57663773444E+02  0.49704798187E+02  0.76725673755E+02  0.00000000000E+00 0.  1.
<mgrwt>
<rscale>  0 0.24287189E+04</rscale>
<asrwt>0</asrwt>
<pdfrwt beam="1">  1        1 0.22588390E+00 0.24287189E+04</pdfrwt>
<pdfrwt beam="2">  1       -1 0.15451923E+00 0.24287189E+04</pdfrwt>
<totfact> 0.19803151E+00</totfact>
</mgrwt>
</event>
<event>
12    2  0.3623523E-008  0.1308856E+04  0.7818608E-02  0.9022571E-01
          1   -1    0    0  501    0  0.00000000000E+00  0.00000000000E+00  0.18713275370E+04  0.18713275370E+04  0.00000000000E+00 0. -1.
         -1   -1    0    0    0  501 -0.00000000000E+00 -0.00000000000E+00 -0.22886229595E+03  0.22886229595E+03  0.00000000000E+00 0.  1.
         23    2    1    2    0    0  0.44835580414E+02 -0.52771876317E+02  0.95029524815E+03  0.95702579028E+03  0.89678338603E+02 0.  0.
        254    2    1    2    0    0 -0.44835580414E+02  0.52771876317E+02  0.69216999289E+03  0.11431640427E+04  0.90715468867E+03 0.  0.
         23    2    4    4    0    0  0.38767308241E+03  0.19671273765E+03  0.30268010140E+03  0.53674836700E+03  0.86586637066E+02 0.  0.
         23    2    4    4    0    0 -0.43250866282E+03 -0.14394086133E+03  0.38948989149E+03  0.60641567566E+03  0.90856376427E+02 0.  0.
          4    1    3    3  502    0  0.28823927196E+02  0.10970168301E+02  0.11232110092E+03  0.11647829448E+03  0.00000000000E+00 0.  1.
         -4    1    3    3    0  502  0.16011653218E+02 -0.63742044618E+02  0.83797414722E+03  0.84054749580E+03  0.00000000000E+00 0. -1.
         11    1    5    5    0    0  0.18368362321E+02  0.19644084744E+02 -0.95599541854E+00  0.26910977817E+02  0.00000000000E+00 0.  1.
        -11    1    5    5    0    0  0.36930472009E+03  0.17706865290E+03  0.30363609682E+03  0.50983738918E+03  0.00000000000E+00 0. -1.
          3    1    6    6  503    0 -0.34886126048E+03 -0.14082988982E+03  0.35006811169E+03  0.51389193393E+03  0.00000000000E+00 0. -1.
         -3    1    6    6    0  503 -0.83647402336E+02 -0.31109715112E+01  0.39421779794E+02  0.92523741728E+02  0.00000000000E+00 0.  1.
<mgrwt>
<rscale>  0 0.13088565E+04</rscale>
<asrwt>0</asrwt>
<pdfrwt beam="1">  1        1 0.28789653E+00 0.13088565E+04</pdfrwt>
<pdfrwt beam="2">  1       -1 0.35209585E-01 0.13088565E+04</pdfrwt>
<totfact> 0.27486394E+01</totfact>
</mgrwt>
</event>
<event>
12    2  0.3623523E-008  0.1344158E+04  0.7818608E-02  0.8995262E-01
         -3   -1    0    0    0  501 -0.00000000000E+00  0.00000000000E+00  0.51445473315E+03  0.51445473315E+03  0.00000000000E+00 0. -1.
          3   -1    0    0  501    0  0.00000000000E+00 -0.00000000000E+00 -0.87799772318E+03  0.87799772318E+03  0.00000000000E+00 0.  1.
         23    2    1    2    0    0 -0.56981851797E+02  0.19127790073E+03  0.21669253865E+03  0.30837502245E+03  0.91133591066E+02 0.  0.
        254    2    1    2    0    0  0.56981851797E+02 -0.19127790073E+03 -0.58023552868E+03  0.10840774339E+04  0.89370937511E+03 0.  0.
         23    2    4    4    0    0 -0.15357189800E+03 -0.14891826818E+03  0.17668501591E+03  0.29231311353E+03  0.92023817783E+02 0.  0.
         23    2    4    4    0    0  0.21055374979E+03 -0.42359632548E+02 -0.75692054460E+03  0.79176432036E+03  0.88514451563E+02 0.  0.
          3    1    3    3  502    0 -0.18248067164E+02  0.14778069576E+03  0.19689270399E+03  0.24685798119E+03  0.00000000000E+00 0. -1.
         -3    1    3    3    0  502 -0.38733784633E+02  0.43497204969E+02  0.19799834664E+02  0.61517041255E+02  0.00000000000E+00 0.  1.
         11    1    5    5    0    0 -0.28237731643E-01  0.15214191505E+01 -0.84698020315E+01  0.86054087673E+01  0.00000000000E+00 0. -1.
        -11    1    5    5    0    0 -0.15354366027E+03 -0.15043968734E+03  0.18515481794E+03  0.28370770476E+03  0.00000000000E+00 0.  1.
          1    1    6    6  503    0  0.21546583819E+02  0.23451792689E+02 -0.90488555135E+02  0.95929247182E+02  0.00000000000E+00 0. -1.
         -1    1    6    6    0  503  0.18900716598E+03 -0.65811425237E+02 -0.66643198946E+03  0.69583507317E+03  0.00000000000E+00 0.  1.
<mgrwt>
<rscale>  0 0.13441579E+04</rscale>
<asrwt>0</asrwt>
<pdfrwt beam="1">  1        3 0.13507657E+00 0.13441579E+04</pdfrwt>
<pdfrwt beam="2">  1       -3 0.79146883E-01 0.13441579E+04</pdfrwt>
<totfact> 0.16123726E+00</totfact>
</mgrwt>
</event>
<event>
12    2  0.3623523E-008  0.1022304E+04  0.7818608E-02  0.9284415E-01
         -1   -1    0    0    0  501 -0.00000000000E+00  0.00000000000E+00  0.24673081648E+03  0.24673081648E+03  0.00000000000E+00 0.  1.
          1   -1    0    0  501    0  0.00000000000E+00 -0.00000000000E+00 -0.10589535885E+04  0.10589535885E+04  0.00000000000E+00 0. -1.
         23    2    1    2    0    0  0.45187881809E+02  0.59083134661E+01 -0.16408302126E+02  0.10375926170E+03  0.91760008610E+02 0.  0.
        254    2    1    2    0    0 -0.45187881809E+02 -0.59083134661E+01 -0.79581446991E+03  0.12019251433E+04  0.89957019000E+03 0.  0.
         23    2    4    4    0    0  0.31622215229E+03 -0.28454773321E+03 -0.35175372570E+03  0.55856139914E+03  0.85418329383E+02 0.  0.
         23    2    4    4    0    0 -0.36141003410E+03  0.27863941974E+03 -0.44406074421E+03  0.64336374416E+03  0.92031645459E+02 0.  0.
          1    1    3    3  502    0 -0.11508654851E+02 -0.74829157766E+01 -0.38946483941E+02  0.41294936450E+02  0.00000000000E+00 0. -1.
         -1    1    3    3    0  502  0.56696536660E+02  0.13391229243E+02  0.22538181815E+02  0.62464325254E+02  0.00000000000E+00 0.  1.
         11    1    5    5    0    0  0.54933049541E+02 -0.91726781721E+02 -0.11254197487E+03  0.15523253049E+03  0.00000000000E+00 0.  1.
        -11    1    5    5    0    0  0.26128910275E+03 -0.19282095149E+03 -0.23921175084E+03  0.40332886865E+03  0.00000000000E+00 0. -1.
          3    1    6    6  503    0 -0.48812550991E+02  0.69350215048E+02 -0.11937851862E+03  0.14643547443E+03  0.00000000000E+00 0. -1.
         -3    1    6    6    0  503 -0.31259748311E+03  0.20928920469E+03 -0.32468222559E+03  0.49692826973E+03  0.00000000000E+00 0.  1.
<mgrwt>
<rscale>  0 0.10223042E+04</rscale>
<asrwt>0</asrwt>
<pdfrwt beam="1">  1        1 0.16291594E+00 0.10223042E+04</pdfrwt>
<pdfrwt beam="2">  1       -1 0.37958586E-01 0.10223042E+04</pdfrwt>
<totfact> 0.91325702E+01</totfact>
</mgrwt>
</event>
<event>
12    2  0.3623523E-008  0.1358858E+04  0.7818608E-02  0.8984150E-01
         -2   -1    0    0    0  501 -0.00000000000E+00  0.00000000000E+00  0.78189891465E+03  0.78189891465E+03  0.00000000000E+00 0.  1.
          2   -1    0    0  501    0  0.00000000000E+00 -0.00000000000E+00 -0.59038815825E+03  0.59038815825E+03  0.00000000000E+00 0. -1.
         23    2    1    2    0    0 -0.84443647403E+02 -0.25916881808E+03  0.28173930903E+03  0.40305769798E+03  0.93697725698E+02 0.  0.
        254    2    1    2    0    0  0.84443647403E+02  0.25916881808E+03 -0.90228552630E+02  0.96922937492E+03  0.92572414015E+03 0.  0.
         23    2    4    4    0    0  0.51634040505E+02 -0.32494854609E+03 -0.15183547098E+03  0.37374514662E+03  0.91508429259E+02 0.  0.
         23    2    4    4    0    0  0.32809606898E+02  0.58411736417E+03  0.61606918350E+02  0.59548422831E+03  0.92393118470E+02 0.  0.
          2    1    3    3  502    0 -0.38246129713E+02 -0.12615457231E+03  0.71346669007E+02  0.14989359470E+03  0.00000000000E+00 0. -1.
         -2    1    3    3    0  502 -0.46197517690E+02 -0.13301424577E+03  0.21039264002E+03  0.25316410329E+03  0.00000000000E+00 0.  1.
         11    1    5    5    0    0  0.55052832821E+02 -0.19275077065E+03 -0.49362122343E+02  0.20644682877E+03  0.00000000000E+00 0. -1.
        -11    1    5    5    0    0 -0.34187923166E+01 -0.13219777544E+03 -0.10247334864E+03  0.16729831784E+03  0.00000000000E+00 0.  1.
          3    1    6    6  503    0 -0.24714535370E+02  0.30969845840E+03  0.13280581432E+02  0.31096674619E+03  0.00000000000E+00 0. -1.
         -3    1    6    6    0  503  0.57524142268E+02  0.27441890577E+03  0.48326336919E+02  0.28451748212E+03  0.00000000000E+00 0.  1.
<mgrwt>
<rscale>  0 0.13588581E+04</rscale>
<asrwt>0</asrwt>
<pdfrwt beam="1">  1        2 0.90828948E-01 0.13588581E+04</pdfrwt>
<pdfrwt beam="2">  1       -2 0.12029214E+00 0.13588581E+04</pdfrwt>
<totfact> 0.26051204E+01</totfact>
</mgrwt>
</event>
<event>
12    2  0.3623523E-008  0.1195636E+04  0.7818608E-02  0.9116685E-01
          3   -1    0    0  501    0  0.00000000000E+00  0.00000000000E+00  0.94744016518E+03  0.94744016518E+03  0.00000000000E+00 0.  1.
         -3   -1    0    0    0  501 -0.00000000000E+00 -0.00000000000E+00 -0.37721246558E+03  0.37721246558E+03  0.00000000000E+00 0. -1.
         23    2    1    2    0    0  0.23123124519E+03 -0.55225659480E+02  0.18201299866E+03  0.31471732941E+03  0.96956193865E+02 0.  0.
        254    2    1    2    0    0 -0.23123124519E+03  0.55225659480E+02  0.38821470094E+03  0.10099353014E+04  0.90152143440E+03 0.  0.
         23    2    4    4    0    0 -0.51907417660E+03  0.11547755452E+03  0.44226676425E+03  0.69756162683E+03  0.90660167979E+02 0.  0.
         23    2    4    4    0    0  0.28784293141E+03 -0.60251895041E+02 -0.54052063304E+02  0.31237367453E+03  0.90398246528E+02 0.  0.
          2    1    3    3  502    0  0.30319212991E+02 -0.18001999930E+02 -0.74782898734E+01  0.36045131395E+02  0.00000000000E+00 0. -1.
         -2    1    3    3    0  502  0.20091203220E+03 -0.37223659549E+02  0.18949128854E+03  0.27867219801E+03  0.00000000000E+00 0.  1.
         11    1    5    5    0    0 -0.16087492447E+03  0.45974408920E+02  0.19423331201E+03  0.25636100931E+03  0.00000000000E+00 0. -1.
        -11    1    5    5    0    0 -0.35819925212E+03  0.69503145601E+02  0.24803345224E+03  0.44120061752E+03  0.00000000000E+00 0.  1.
          4    1    6    6  503    0  0.26854029714E+03 -0.72870677621E+02 -0.31348584757E+02  0.28001207226E+03  0.00000000000E+00 0.  1.
         -4    1    6    6    0  503  0.19302634269E+02  0.12618782580E+02 -0.22703478546E+02  0.32361602272E+02  0.00000000000E+00 0. -1.
<mgrwt>
<rscale>  0 0.11956358E+04</rscale>
<asrwt>0</asrwt>
<pdfrwt beam="1">  1        3 0.14576003E+00 0.11956358E+04</pdfrwt>
<pdfrwt beam="2">  1       -3 0.58032687E-01 0.11956358E+04</pdfrwt>
<totfact> 0.26257114E+00</totfact>
</mgrwt>
</event>
<event>
12    2  0.3623523E-008  0.1594531E+04  0.7818608E-02  0.8823915E-01
          2   -1    0    0  501    0  0.00000000000E+00  0.00000000000E+00  0.85436377893E+03  0.85436377893E+03  0.00000000000E+00 0. -1.
         -2   -1    0    0    0  501 -0.00000000000E+00 -0.00000000000E+00 -0.74398273018E+03  0.74398273018E+03  0.00000000000E+00 0.  1.
         23    2    1    2    0    0 -0.40225524888E+02  0.37461882932E+03  0.42923750058E+03  0.57802738184E+03  0.88957642255E+02 0.  0.
        254    2    1    2    0    0  0.40225524888E+02 -0.37461882932E+03 -0.31885645183E+03  0.10203191273E+04  0.89298618380E+03 0.  0.
         23    2    4    4    0    0  0.20384887581E+03 -0.48344382413E+03 -0.50646225614E+03  0.73442676182E+03  0.87214427214E+02 0.  0.
         23    2    4    4    0    0 -0.16362335093E+03  0.10882499481E+03  0.18760580432E+03  0.28589236545E+03  0.89011383240E+02 0.  0.
          2    1    3    3  502    0  0.75684589107E+01  0.10785849136E+01  0.22316204173E+02  0.23589359558E+02  0.00000000000E+00 0.  1.
         -2    1    3    3    0  502 -0.47793983798E+02  0.37354024441E+03  0.40692129641E+03  0.55443802228E+03  0.00000000000E+00 0. -1.
         11    1    5    5    0    0  0.13712512341E+03 -0.40917925137E+03 -0.42324186309E+03  0.60445399651E+03  0.00000000000E+00 0.  1.
        -11    1    5    5    0    0  0.66723752402E+02 -0.74264572756E+02 -0.83220393049E+02  0.12997276530E+03  0.00000000000E+00 0. -1.
          2    1    6    6  503    0 -0.15585749266E+03  0.11041856282E+03  0.19645985278E+03  0.27400782979E+03  0.00000000000E+00 0.  1.
         -2    1    6    6    0  503 -0.77658582663E+01 -0.15935680066E+01 -0.88540484649E+01  0.11884535659E+02  0.00000000000E+00 0. -1.
<mgrwt>
<rscale>  0 0.15945305E+04</rscale>
<asrwt>0</asrwt>
<pdfrwt beam="1">  1        2 0.13144058E+00 0.15945305E+04</pdfrwt>
<pdfrwt beam="2">  1       -2 0.11445888E+00 0.15945305E+04</pdfrwt>
<totfact> 0.18035568E+01</totfact>
</mgrwt>
</event>
<event>
12    2  0.3623523E-008  0.2621176E+04  0.7818608E-02  0.8361044E-01
          1   -1    0    0  501    0  0.00000000000E+00  0.00000000000E+00  0.20392704030E+04  0.20392704030E+04  0.00000000000E+00 0. -1.
         -1   -1    0    0    0  501 -0.00000000000E+00 -0.00000000000E+00 -0.84228225481E+03  0.84228225481E+03  0.00000000000E+00 0.  1.
         23    2    1    2    0    0  0.23315785239E+03 -0.42822078408E+03  0.16672785989E+04  0.17394989632E+04  0.91121308222E+02 0.  0.
        254    2    1    2    0    0 -0.23315785239E+03  0.42822078408E+03 -0.47029045066E+03  0.11420536946E+04  0.91944434813E+03 0.  0.
         23    2    4    4    0    0 -0.12871656773E+03  0.10062358582E+03  0.26473628377E+03  0.32562884136E+03  0.96206972455E+02 0.  0.
         23    2    4    4    0    0 -0.10444128466E+03  0.32759719825E+03 -0.73502673443E+03  0.81642485323E+03  0.89762655908E+02 0.  0.
          2    1    3    3  502    0  0.20512699935E+03 -0.40328031392E+03  0.15967005547E+04  0.16595676421E+04  0.00000000000E+00 0. -1.
         -2    1    3    3    0  502  0.28030853043E+02 -0.24940470157E+02  0.70578044182E+02  0.79931321111E+02  0.00000000000E+00 0.  1.
         11    1    5    5    0    0 -0.41647024968E+02 -0.10617256546E+02  0.98557191181E+02  0.10752079222E+03  0.00000000000E+00 0. -1.
        -11    1    5    5    0    0 -0.87069542763E+02  0.11124084237E+03  0.16617909259E+03  0.21810804915E+03  0.00000000000E+00 0.  1.
          2    1    6    6  503    0 -0.11261467044E+03  0.25189860632E+03 -0.52629465485E+03  0.59423988051E+03  0.00000000000E+00 0. -1.
         -2    1    6    6    0  503  0.81733857804E+01  0.75698591932E+02 -0.20873207958E+03  0.22218497272E+03  0.00000000000E+00 0.  1.
<mgrwt>
<rscale>  0 0.26211763E+04</rscale>
<asrwt>0</asrwt>
<pdfrwt beam="1">  1        1 0.31373391E+00 0.26211763E+04</pdfrwt>
<pdfrwt beam="2">  1       -1 0.12958189E+00 0.26211763E+04</pdfrwt>
<totfact> 0.12594814E+00</totfact>
</mgrwt>
</event>
<event>
12    2  0.3623523E-008  0.3466813E+04  0.7818608E-02  0.8121700E-01
          2   -1    0    0  501    0  0.00000000000E+00  0.00000000000E+00  0.19169222637E+04  0.19169222637E+04  0.00000000000E+00 0.  1.
         -2   -1    0    0    0  501 -0.00000000000E+00 -0.00000000000E+00 -0.15674595000E+04  0.15674595000E+04  0.00000000000E+00 0. -1.
         23    2    1    2    0    0 -0.14727961781E+04  0.66554047130E+03  0.23314450957E+03  0.16354320034E+04  0.90602286142E+02 0.  0.
        254    2    1    2    0    0  0.14727961781E+04 -0.66554047130E+03  0.11631825414E+03  0.18489497602E+04  0.89051253692E+03 0.  0.
         23    2    4    4    0    0  0.61202542379E+03 -0.30912480007E+03 -0.37931613472E+03  0.78943961560E+03  0.95921401345E+02 0.  0.
         23    2    4    4    0    0  0.86077075434E+03 -0.35641567122E+03  0.49563438885E+03  0.10595101446E+04  0.94603789391E+02 0.  0.
          2    1    3    3  502    0 -0.11397656833E+04  0.50196248196E+03  0.21603277061E+03  0.12640024937E+04  0.00000000000E+00 0. -1.
         -2    1    3    3    0  502 -0.33303049482E+03  0.16357798933E+03  0.17111738958E+02  0.37142950971E+03  0.00000000000E+00 0.  1.
         11    1    5    5    0    0  0.24768761968E+03 -0.11888222407E+03 -0.20592369664E+03  0.34334633969E+03  0.00000000000E+00 0.  1.
        -11    1    5    5    0    0  0.36433780411E+03 -0.19024257600E+03 -0.17339243808E+03  0.44609327590E+03  0.00000000000E+00 0. -1.
          3    1    6    6  503    0  0.79255778690E+03 -0.33452559852E+03  0.48357266144E+03  0.98686257429E+03  0.00000000000E+00 0. -1.
         -3    1    6    6    0  503  0.68212967435E+02 -0.21890072705E+02  0.12061727407E+02  0.72647570347E+02  0.00000000000E+00 0.  1.
<mgrwt>
<rscale>  0 0.34668130E+04</rscale>
<asrwt>0</asrwt>
<pdfrwt beam="1">  1        2 0.29491112E+00 0.34668130E+04</pdfrwt>
<pdfrwt beam="2">  1       -2 0.24114762E+00 0.34668130E+04</pdfrwt>
<totfact> 0.44620328E-01</totfact>
</mgrwt>
</event>
<event>
12    2  0.3623523E-008  0.1286436E+04  0.7818608E-02  0.9040391E-01
          2   -1    0    0  501    0  0.00000000000E+00  0.00000000000E+00  0.18707293195E+04  0.18707293195E+04  0.00000000000E+00 0. -1.
         -2   -1    0    0    0  501 -0.00000000000E+00 -0.00000000000E+00 -0.22115951726E+03  0.22115951726E+03  0.00000000000E+00 0.  1.
         23    2    1    2    0    0  0.77688401061E+02  0.17008272834E+03  0.83996893143E+03  0.86522645073E+03  0.90029901367E+02 0.  0.
        254    2    1    2    0    0 -0.77688401061E+02 -0.17008272834E+03  0.80960087083E+03  0.12266623861E+04  0.90237653847E+03 0.  0.
         23    2    4    4    0    0 -0.69665585128E+02 -0.52472423359E+03  0.36485274757E+03  0.64970707880E+03  0.93877290971E+02 0.  0.
         23    2    4    4    0    0 -0.80228159335E+01  0.35464150525E+03  0.44474812326E+03  0.57695530726E+03  0.96133087973E+02 0.  0.
          1    1    3    3  502    0  0.75276890925E+02  0.13531899568E+03  0.49880721652E+03  0.52228965158E+03  0.00000000000E+00 0. -1.
         -1    1    3    3    0  502  0.24115101366E+01  0.34763732659E+02  0.34116171492E+03  0.34293679915E+03  0.00000000000E+00 0.  1.
         11    1    5    5    0    0  0.21499681752E+02 -0.61297511622E+02  0.36946592007E+02  0.74730662431E+02  0.00000000000E+00 0. -1.
        -11    1    5    5    0    0 -0.91165266880E+02 -0.46342672197E+03  0.32790615556E+03  0.57497641637E+03  0.00000000000E+00 0.  1.
          3    1    6    6  503    0 -0.38918163630E+02  0.25177475800E+03  0.35518964124E+03  0.43710963552E+03  0.00000000000E+00 0. -1.
         -3    1    6    6    0  503  0.30895347696E+02  0.10286674726E+03  0.89558482027E+02  0.13984567174E+03  0.00000000000E+00 0.  1.
<mgrwt>
<rscale>  0 0.12864363E+04</rscale>
<asrwt>0</asrwt>
<pdfrwt beam="1">  1        2 0.28780450E+00 0.12864363E+04</pdfrwt>
<pdfrwt beam="2">  1       -2 0.34024542E-01 0.12864363E+04</pdfrwt>
<totfact> 0.62557907E+01</totfact>
</mgrwt>
</event>
<event>
12    2  0.3623523E-008  0.1833322E+04  0.7818608E-02  0.8688777E-01
         -1   -1    0    0    0  501 -0.00000000000E+00  0.00000000000E+00  0.27099911351E+03  0.27099911351E+03  0.00000000000E+00 0.  1.
          1   -1    0    0  501    0  0.00000000000E+00 -0.00000000000E+00 -0.31006280634E+04  0.31006280634E+04  0.00000000000E+00 0. -1.
         23    2    1    2    0    0  0.61534979672E+03 -0.16936563312E+03 -0.12069752184E+04  0.13683061579E+04  0.90180230360E+02 0.  0.
        254    2    1    2    0    0 -0.61534979672E+03  0.16936563312E+03 -0.16226537315E+04  0.20033210190E+04  0.98638221944E+03 0.  0.
         23    2    4    4    0    0 -0.43284487177E+03  0.15105034750E+03 -0.17154425196E+04  0.17781050271E+04  0.93507000500E+02 0.  0.
         23    2    4    4    0    0 -0.18250492495E+03  0.18315285624E+02  0.92788788086E+02  0.22521599184E+03  0.92027096375E+02 0.  0.
          3    1    3    3  502    0  0.12213424059E+03 -0.54647815655E+02 -0.32206248892E+03  0.34875120537E+03  0.00000000000E+00 0.  1.
         -3    1    3    3    0  502  0.49321555613E+03 -0.11471781747E+03 -0.88491272949E+03  0.10195549525E+04  0.00000000000E+00 0. -1.
         11    1    5    5    0    0 -0.17029730969E+03  0.81390127366E+02 -0.55213426978E+03  0.58350473725E+03  0.00000000000E+00 0.  1.
        -11    1    5    5    0    0 -0.26254756208E+03  0.69660220131E+02 -0.11633082498E+04  0.11946002899E+04  0.00000000000E+00 0. -1.
          3    1    6    6  503    0 -0.15528964251E+03  0.48432724960E+02  0.86191146551E+02  0.18409105264E+03  0.00000000000E+00 0. -1.
         -3    1    6    6    0  503 -0.27215282443E+02 -0.30117439336E+02  0.65976415358E+01  0.41124939203E+02  0.00000000000E+00 0.  1.
<mgrwt>
<rscale>  0 0.18333221E+04</rscale>
<asrwt>0</asrwt>
<pdfrwt beam="1">  1        1 0.47701967E+00 0.18333221E+04</pdfrwt>
<pdfrwt beam="2">  1       -1 0.41692174E-01 0.18333221E+04</pdfrwt>
<totfact> 0.26863100E+00</totfact>
</mgrwt>
</event>
<event>
12    2  0.3623523E-008  0.2083235E+04  0.7818608E-02  0.8568665E-01
         -1   -1    0    0    0  501 -0.00000000000E+00  0.00000000000E+00  0.59479670572E+03  0.59479670572E+03  0.00000000000E+00 0.  1.
          1   -1    0    0  501    0  0.00000000000E+00 -0.00000000000E+00 -0.18240968900E+04  0.18240968900E+04  0.00000000000E+00 0. -1.
         23    2    1    2    0    0 -0.65970064711E+03  0.47316865309E+03 -0.21973815538E+03  0.84595994375E+03  0.90938723589E+02 0.  0.
        254    2    1    2    0    0  0.65970064711E+03 -0.47316865309E+03 -0.10095620289E+04  0.15729336520E+04  0.89208254395E+03 0.  0.
         23    2    4    4    0    0 -0.12332735806E+01 -0.46191442106E+03 -0.17099566219E+03  0.50104727615E+03  0.91882550587E+02 0.  0.
         23    2    4    4    0    0  0.66093392069E+03 -0.11254232031E+02 -0.83856636673E+03  0.10718863758E+04  0.93736577841E+02 0.  0.
          3    1    3    3  502    0 -0.20483443995E+03  0.17218019637E+03 -0.33847755262E+02  0.26971992575E+03  0.00000000000E+00 0. -1.
         -3    1    3    3    0  502 -0.45486620716E+03  0.30098845672E+03 -0.18589040012E+03  0.57624001801E+03  0.00000000000E+00 0.  1.
         11    1    5    5    0    0  0.44479301748E+02 -0.21144021310E+03 -0.69797431773E+02  0.22706178340E+03  0.00000000000E+00 0.  1.
        -11    1    5    5    0    0 -0.45712575329E+02 -0.25047420796E+03 -0.10119823042E+03  0.27398549275E+03  0.00000000000E+00 0. -1.
          4    1    6    6  503    0 -0.17737991066E+01  0.20754126872E+01  0.30205050374E+00  0.27468046162E+01  0.00000000000E+00 0. -1.
         -4    1    6    6    0  503  0.66270771979E+03 -0.13329644719E+02 -0.83886841723E+03  0.10691395712E+04  0.00000000000E+00 0.  1.
<mgrwt>
<rscale>  0 0.20832348E+04</rscale>
<asrwt>0</asrwt>
<pdfrwt beam="1">  1        1 0.28063029E+00 0.20832348E+04</pdfrwt>
<pdfrwt beam="2">  1       -1 0.91507187E-01 0.20832348E+04</pdfrwt>
<totfact> 0.42064335E+00</totfact>
</mgrwt>
</event>
<event>
12    2  0.3623523E-008  0.1471616E+04  0.7818608E-02  0.8903551E-01
         -2   -1    0    0    0  501 -0.00000000000E+00  0.00000000000E+00  0.62589370092E+03  0.62589370092E+03  0.00000000000E+00 0.  1.
          2   -1    0    0  501    0  0.00000000000E+00 -0.00000000000E+00 -0.86502403012E+03  0.86502403012E+03  0.00000000000E+00 0. -1.
         23    2    1    2    0    0 -0.28857630880E+02 -0.10405624990E+03  0.37264685571E+03  0.39783399798E+03  0.88009913503E+02 0.  0.
        254    2    1    2    0    0  0.28857630880E+02  0.10405624990E+03 -0.61177718491E+03  0.10930837331E+04  0.89938882443E+03 0.  0.
         23    2    4    4    0    0  0.17626754267E+03  0.33428595366E+03 -0.69381070596E+03  0.79522367667E+03  0.90498921640E+02 0.  0.
         23    2    4    4    0    0 -0.14740991179E+03 -0.23022970376E+03  0.82033521053E+02  0.29786005639E+03  0.85180490866E+02 0.  0.
          2    1    3    3  502    0  0.16939915212E+02 -0.53248622742E+02  0.81879747060E+02  0.99129559314E+02  0.00000000000E+00 0. -1.
         -2    1    3    3    0  502 -0.45797546092E+02 -0.50807627155E+02  0.29076710865E+03  0.29870443867E+03  0.00000000000E+00 0.  1.
         11    1    5    5    0    0  0.48910885801E+02  0.77014103803E+02 -0.25523852525E+03  0.27105378010E+03  0.00000000000E+00 0.  1.
        -11    1    5    5    0    0  0.12735665687E+03  0.25727184986E+03 -0.43857218071E+03  0.52416989658E+03  0.00000000000E+00 0. -1.
          4    1    6    6  503    0 -0.42227087751E+02 -0.15393766469E+02 -0.11155289390E+00  0.44945605236E+02  0.00000000000E+00 0. -1.
         -4    1    6    6    0  503 -0.10518282404E+03 -0.21483593730E+03  0.82145073947E+02  0.25291445115E+03  0.00000000000E+00 0.  1.
<mgrwt>
<rscale>  0 0.14716156E+04</rscale>
<asrwt>0</asrwt>
<pdfrwt beam="1">  1        2 0.13308062E+00 0.14716156E+04</pdfrwt>
<pdfrwt beam="2">  1       -2 0.96291339E-01 0.14716156E+04</pdfrwt>
<totfact> 0.27096264E+01</totfact>
</mgrwt>
</event>
<event>
12    2  0.3623523E-008  0.1170179E+04  0.7818608E-02  0.9139367E-01
          2   -1    0    0  501    0  0.00000000000E+00  0.00000000000E+00  0.13893923059E+04  0.13893923059E+04  0.00000000000E+00 0. -1.
         -2   -1    0    0    0  501 -0.00000000000E+00 -0.00000000000E+00 -0.24638803778E+03  0.24638803778E+03  0.00000000000E+00 0.  1.
         23    2    1    2    0    0  0.13245630325E+03 -0.14463951324E+01 -0.10601643187E+02  0.16261179511E+03  0.93719991147E+02 0.  0.
        254    2    1    2    0    0 -0.13245630325E+03  0.14463951324E+01  0.11536059113E+04  0.14731685486E+04  0.90657167921E+03 0.  0.
         23    2    4    4    0    0  0.33282762286E+02 -0.38373195164E+03  0.23860845147E+03  0.46258903581E+03  0.93255937965E+02 0.  0.
         23    2    4    4    0    0 -0.16573906554E+03  0.38517834677E+03  0.91499745984E+03  0.10105795128E+04  0.90657616482E+02 0.  0.
          1    1    3    3  502    0  0.81560236851E+02  0.44754250853E+02 -0.12369748219E+02  0.93851083508E+02  0.00000000000E+00 0. -1.
         -1    1    3    3    0  502  0.50896066400E+02 -0.46200645986E+02  0.17681050318E+01  0.68760711601E+02  0.00000000000E+00 0.  1.
         11    1    5    5    0    0  0.81576954102E+01 -0.23009809262E+03  0.89504324836E+02  0.24702774012E+03  0.00000000000E+00 0. -1.
        -11    1    5    5    0    0  0.25125066876E+02 -0.15363385901E+03  0.14910412663E+03  0.21556129569E+03  0.00000000000E+00 0.  1.
          4    1    6    6  503    0 -0.76675264544E+02  0.19149917372E+03  0.55634929319E+03  0.59335955858E+03  0.00000000000E+00 0. -1.
         -4    1    6    6    0  503 -0.89063800993E+02  0.19367917305E+03  0.35864816665E+03  0.41721995418E+03  0.00000000000E+00 0.  1.
<mgrwt>
<rscale>  0 0.11701789E+04</rscale>
<asrwt>0</asrwt>
<pdfrwt beam="1">  1        2 0.21375266E+00 0.11701789E+04</pdfrwt>
<pdfrwt beam="2">  1       -2 0.37905853E-01 0.11701789E+04</pdfrwt>
<totfact> 0.95228244E+01</totfact>
</mgrwt>
</event>
<event>
12    2  0.3623523E-008  0.2423017E+04  0.7818608E-02  0.8430936E-01
          1   -1    0    0  501    0  0.00000000000E+00  0.00000000000E+00  0.18228239329E+04  0.18228239329E+04  0.00000000000E+00 0. -1.
         -1   -1    0    0    0  501 -0.00000000000E+00 -0.00000000000E+00 -0.80520849096E+03  0.80520849096E+03  0.00000000000E+00 0.  1.
         23    2    1    2    0    0  0.76381709497E+03  0.40517628981E+03 -0.19704947433E+03  0.89152551432E+03  0.91678061491E+02 0.  0.
        254    2    1    2    0    0 -0.76381709497E+03 -0.40517628981E+03  0.12146649163E+04  0.17365069096E+04  0.89020279022E+03 0.  0.
         23    2    4    4    0    0 -0.83437358807E+03 -0.49884514763E+03  0.12466408043E+04  0.15837025630E+04  0.94735142049E+02 0.  0.
         23    2    4    4    0    0  0.70556493101E+02  0.93668857827E+02 -0.31975888019E+02  0.15280434661E+03  0.92599337386E+02 0.  0.
          3    1    3    3  502    0  0.33603130628E+03  0.14814877133E+03 -0.46030088824E+02  0.37011331552E+03  0.00000000000E+00 0. -1.
         -3    1    3    3    0  502  0.42778578869E+03  0.25702751848E+03 -0.15101938551E+03  0.52141219880E+03  0.00000000000E+00 0.  1.
         11    1    5    5    0    0 -0.67115592109E+03 -0.37051441493E+03  0.10252821192E+04  0.12802088213E+04  0.00000000000E+00 0. -1.
        -11    1    5    5    0    0 -0.16321766698E+03 -0.12833073271E+03  0.22135868512E+03  0.30349374170E+03  0.00000000000E+00 0.  1.
          1    1    6    6  503    0  0.80081641656E+02  0.10661114797E+03 -0.29176396107E+02  0.13649274080E+03  0.00000000000E+00 0. -1.
         -1    1    6    6    0  503 -0.95251485546E+01 -0.12942290145E+02 -0.27994919119E+01  0.16311605811E+02  0.00000000000E+00 0.  1.
<mgrwt>
<rscale>  0 0.24230174E+04</rscale>
<asrwt>0</asrwt>
<pdfrwt beam="1">  1        1 0.28043445E+00 0.24230174E+04</pdfrwt>
<pdfrwt beam="2">  1       -1 0.12387823E+00 0.24230174E+04</pdfrwt>
<totfact> 0.20118979E+00</totfact>
</mgrwt>
</event>
<event>
12    2  0.3623523E-008  0.2130028E+04  0.7818608E-02  0.8548130E-01
          1   -1    0    0  501    0  0.00000000000E+00  0.00000000000E+00  0.97815395665E+03  0.97815395665E+03  0.00000000000E+00 0.  1.
         -1   -1    0    0    0  501 -0.00000000000E+00 -0.00000000000E+00 -0.11595871050E+04  0.11595871050E+04  0.00000000000E+00 0. -1.
         23    2    1    2    0    0 -0.58769914744E+03 -0.17195664917E+03 -0.69947269709E+03  0.93420306355E+03  0.92270975217E+02 0.  0.
        254    2    1    2    0    0  0.58769914744E+03  0.17195664917E+03  0.51803954871E+03  0.12035379981E+04  0.89731787113E+03 0.  0.
         23    2    4    4    0    0  0.89447959838E+02 -0.33349263794E+03  0.26623422886E+03  0.44529099111E+03  0.90471681072E+02 0.  0.
         23    2    4    4    0    0  0.49825118760E+03  0.50544928711E+03  0.25180531985E+03  0.75824700703E+03  0.88314080294E+02 0.  0.
          3    1    3    3  502    0 -0.14709789216E+03 -0.24317713397E+02 -0.22642139697E+03  0.27110106984E+03  0.00000000000E+00 0. -1.
         -3    1    3    3    0  502 -0.44060125528E+03 -0.14763893578E+03 -0.47305130012E+03  0.66310199371E+03  0.00000000000E+00 0.  1.
         11    1    5    5    0    0  0.99843850321E+02 -0.29683012641E+03  0.25923403262E+03  0.40654544895E+03  0.00000000000E+00 0. -1.
        -11    1    5    5    0    0 -0.10395890483E+02 -0.36662511523E+02  0.70001962315E+01  0.38745542161E+02  0.00000000000E+00 0.  1.
          3    1    6    6  503    0  0.48306918814E+03  0.48860040432E+03  0.25926236743E+03  0.73437263756E+03  0.00000000000E+00 0. -1.
         -3    1    6    6    0  503  0.15181999464E+02  0.16848882789E+02 -0.74570475808E+01  0.23874369470E+02  0.00000000000E+00 0.  1.
<mgrwt>
<rscale>  0 0.21300279E+04</rscale>
<asrwt>0</asrwt>
<pdfrwt beam="1">  1        1 0.15048522E+00 0.21300279E+04</pdfrwt>
<pdfrwt beam="2">  1       -1 0.17839802E+00 0.21300279E+04</pdfrwt>
<totfact> 0.30859918E+00</totfact>
</mgrwt>
</event>
<event>
12    2  0.3623523E-008  0.1719446E+04  0.7818608E-02  0.8750351E-01
          1   -1    0    0  501    0  0.00000000000E+00  0.00000000000E+00  0.70330909711E+03  0.70330909711E+03  0.00000000000E+00 0. -1.
         -1   -1    0    0    0  501 -0.00000000000E+00 -0.00000000000E+00 -0.10509229483E+04  0.10509229483E+04  0.00000000000E+00 0.  1.
         23    2    1    2    0    0  0.21686946188E+02 -0.21884404479E+03  0.44897003615E+03  0.50828319832E+03  0.91731547255E+02 0.  0.
        254    2    1    2    0    0 -0.21686946188E+02  0.21884404479E+03 -0.79658388733E+03  0.12459488471E+04  0.93245890012E+03 0.  0.
         23    2    4    4    0    0 -0.17842100281E+03  0.32279493080E+03  0.41467462239E+02  0.38219139196E+03  0.91214516771E+02 0.  0.
         23    2    4    4    0    0  0.15673405662E+03 -0.10395088601E+03 -0.83805134957E+03  0.86375745512E+03  0.91517897438E+02 0.  0.
          2    1    3    3  502    0 -0.14623483870E+02 -0.19250845716E+03  0.35293101452E+03  0.40228553711E+03  0.00000000000E+00 0. -1.
         -2    1    3    3    0  502  0.36310430058E+02 -0.26335587634E+02  0.96039021633E+02  0.10599766122E+03  0.00000000000E+00 0.  1.
         11    1    5    5    0    0 -0.44006026786E+02  0.46480248381E+02 -0.23390281228E+02  0.68147260686E+02  0.00000000000E+00 0. -1.
        -11    1    5    5    0    0 -0.13441497602E+03  0.27631468242E+03  0.64857743467E+02  0.31404413127E+03  0.00000000000E+00 0.  1.
          2    1    6    6  503    0  0.13525655692E+03 -0.12033397598E+03 -0.69594064909E+03  0.71910221042E+03  0.00000000000E+00 0. -1.
         -2    1    6    6    0  503  0.21477499694E+02  0.16383089967E+02 -0.14211070048E+03  0.14465524470E+03  0.00000000000E+00 0.  1.
<mgrwt>
<rscale>  0 0.17194460E+04</rscale>
<asrwt>0</asrwt>
<pdfrwt beam="1">  1        1 0.10820140E+00 0.17194460E+04</pdfrwt>
<pdfrwt beam="2">  1       -1 0.16168045E+00 0.17194460E+04</pdfrwt>
<totfact> 0.72933843E+00</totfact>
</mgrwt>
</event>
<event>
12    2  0.3623523E-008  0.1209324E+04  0.7818608E-02  0.9104734E-01
          1   -1    0    0  501    0  0.00000000000E+00  0.00000000000E+00  0.16731764545E+04  0.16731764545E+04  0.00000000000E+00 0. -1.
         -1   -1    0    0    0  501 -0.00000000000E+00 -0.00000000000E+00 -0.21851618632E+03  0.21851618632E+03  0.00000000000E+00 0.  1.
         23    2    1    2    0    0  0.12939225429E+03 -0.18836530939E+02 -0.17198950344E+02  0.16011348810E+03  0.90792922694E+02 0.  0.
        254    2    1    2    0    0 -0.12939225429E+03  0.18836530939E+02  0.14718592185E+04  0.17315791527E+04  0.90271791419E+03 0.  0.
         23    2    4    4    0    0 -0.45395030098E+03 -0.64583405264E+02  0.12079677000E+04  0.12956453605E+04  0.96275874760E+02 0.  0.
         23    2    4    4    0    0  0.32455804669E+03  0.83419936203E+02  0.26389151851E+03  0.43593379216E+03  0.90015144165E+02 0.  0.
          2    1    3    3  502    0  0.31995433656E+02 -0.44286034862E+02  0.10655194432E+02  0.55664116153E+02  0.00000000000E+00 0. -1.
         -2    1    3    3    0  502  0.97396820633E+02  0.25449503924E+02 -0.27854144776E+02  0.10444937195E+03  0.00000000000E+00 0.  1.
         11    1    5    5    0    0 -0.71947768555E+02 -0.30004970916E+02  0.13132504927E+03  0.15271885360E+03  0.00000000000E+00 0. -1.
        -11    1    5    5    0    0 -0.38200253243E+03 -0.34578434348E+02  0.10766426507E+04  0.11429265069E+04  0.00000000000E+00 0.  1.
          3    1    6    6  503    0  0.14091472984E+03  0.55781523590E+02  0.17030433388E+03  0.22797391429E+03  0.00000000000E+00 0. -1.
         -3    1    6    6    0  503  0.18364331685E+03  0.27638412613E+02  0.93587184630E+02  0.20795987787E+03  0.00000000000E+00 0.  1.
<mgrwt>
<rscale>  0 0.12093240E+04</rscale>
<asrwt>0</asrwt>
<pdfrwt beam="1">  1        1 0.25741175E+00 0.12093240E+04</pdfrwt>
<pdfrwt beam="2">  1       -1 0.33617876E-01 0.12093240E+04</pdfrwt>
<totfact> 0.41018523E+01</totfact>
</mgrwt>
</event>
<event>
12    2  0.3623523E-008  0.1998060E+04  0.7818608E-02  0.8607528E-01
         -1   -1    0    0    0  501 -0.00000000000E+00  0.00000000000E+00  0.21909889275E+04  0.21909889275E+04  0.00000000000E+00 0.  1.
          1   -1    0    0  501    0  0.00000000000E+00 -0.00000000000E+00 -0.45552971235E+03  0.45552971235E+03  0.00000000000E+00 0. -1.
         23    2    1    2    0    0 -0.56412972258E+03 -0.53213560249E+03  0.47980881180E+03  0.91646166302E+03  0.90966150725E+02 0.  0.
        254    2    1    2    0    0  0.56412972258E+03  0.53213560249E+03  0.12556504034E+04  0.17300569769E+04  0.90278932445E+03 0.  0.
         23    2    4    4    0    0  0.55994609957E+03  0.61649429438E+03  0.52667441487E+03  0.98968334062E+03  0.92099543987E+02 0.  0.
         23    2    4    4    0    0  0.41836230097E+01 -0.84358691890E+02  0.72897598851E+03  0.74037363623E+03  0.98047120351E+02 0.  0.
          3    1    3    3  502    0 -0.39589144371E+03 -0.31417049676E+03  0.31678112584E+03  0.59647583180E+03  0.00000000000E+00 0. -1.
         -3    1    3    3    0  502 -0.16823827887E+03 -0.21796510573E+03  0.16302768596E+03  0.31998583122E+03  0.00000000000E+00 0.  1.
         11    1    5    5    0    0  0.31405158304E+02  0.73276923711E+02  0.57563694022E+02  0.98332956765E+02  0.00000000000E+00 0. -1.
        -11    1    5    5    0    0  0.52854094127E+03  0.54321737067E+03  0.46911072085E+03  0.89135038386E+03  0.00000000000E+00 0.  1.
          1    1    6    6  503    0  0.41863801556E+02 -0.21986855362E+02  0.43234340292E+03  0.43492162252E+03  0.00000000000E+00 0. -1.
         -1    1    6    6    0  503 -0.37680178546E+02 -0.62371836528E+02  0.29663258559E+03  0.30545201371E+03  0.00000000000E+00 0.  1.
<mgrwt>
<rscale>  0 0.19980596E+04</rscale>
<asrwt>0</asrwt>
<pdfrwt beam="1">  1        1 0.70081495E-01 0.19980596E+04</pdfrwt>
<pdfrwt beam="2">  1       -1 0.33707522E+00 0.19980596E+04</pdfrwt>
<totfact> 0.88500561E-01</totfact>
</mgrwt>
</event>
<event>
12    2  0.3623523E-008  0.2349513E+04  0.7818608E-02  0.8458651E-01
         -2   -1    0    0    0  501 -0.00000000000E+00  0.00000000000E+00  0.15037547971E+04  0.15037547971E+04  0.00000000000E+00 0.  1.
          2   -1    0    0  501    0  0.00000000000E+00 -0.00000000000E+00 -0.91773803457E+03  0.91773803457E+03  0.00000000000E+00 0. -1.
         23    2    1    2    0    0 -0.74744970097E+03  0.66291149020E+03  0.30654087409E+03  0.10490716047E+04  0.91930544050E+02 0.  0.
        254    2    1    2    0    0  0.74744970097E+03 -0.66291149020E+03  0.27947588845E+03  0.13724212270E+04  0.89849905554E+03 0.  0.
         23    2    4    4    0    0  0.74222984921E+03 -0.17349507480E+03 -0.59226185394E+02  0.77043159632E+03  0.95138917033E+02 0.  0.
         23    2    4    4    0    0  0.52198517592E+01 -0.48941641540E+03  0.33870207384E+03  0.60198963069E+03  0.90092985936E+02 0.  0.
          4    1    3    3  502    0 -0.58870025566E+03  0.54404464146E+03  0.21078295317E+03  0.82884378278E+03  0.00000000000E+00 0. -1.
         -4    1    3    3    0  502 -0.15874944531E+03  0.11886684874E+03  0.95757920919E+02  0.22022782189E+03  0.00000000000E+00 0.  1.
         11    1    5    5    0    0  0.26523103947E+03 -0.10630837125E+03 -0.61495165436E+01  0.28580901079E+03  0.00000000000E+00 0. -1.
        -11    1    5    5    0    0  0.47699880974E+03 -0.67186703546E+02 -0.53076668851E+02  0.48462258553E+03  0.00000000000E+00 0.  1.
          3    1    6    6  503    0 -0.21042782382E+02 -0.15047572403E+03  0.63796751729E+02  0.16479007174E+03  0.00000000000E+00 0. -1.
         -3    1    6    6    0  503  0.26262634141E+02 -0.33894069137E+03  0.27490532211E+03  0.43719955895E+03  0.00000000000E+00 0.  1.
<mgrwt>
<rscale>  0 0.23495131E+04</rscale>
<asrwt>0</asrwt>
<pdfrwt beam="1">  1        2 0.14119047E+00 0.23495131E+04</pdfrwt>
<pdfrwt beam="2">  1       -2 0.23134689E+00 0.23495131E+04</pdfrwt>
<totfact> 0.21593348E+00</totfact>
</mgrwt>
</event>
<event>
12    2  0.3623523E-008  0.2863377E+04  0.7818608E-02  0.8283858E-01
         -1   -1    0    0    0  501 -0.00000000000E+00  0.00000000000E+00  0.14466142025E+04  0.14466142025E+04  0.00000000000E+00 0.  1.
          1   -1    0    0  501    0  0.00000000000E+00 -0.00000000000E+00 -0.14169166965E+04  0.14169166965E+04  0.00000000000E+00 0. -1.
         23    2    1    2    0    0  0.69827976208E+03 -0.90596986298E+03 -0.58123915582E+03  0.12861361413E+04  0.89057278939E+02 0.  0.
        254    2    1    2    0    0 -0.69827976208E+03  0.90596986298E+03  0.61093666184E+03  0.15773947576E+04  0.89808384793E+03 0.  0.
         23    2    4    4    0    0 -0.89564072744E+03  0.72667858458E+03  0.39461536492E+03  0.12223303346E+04  0.90200236395E+02 0.  0.
         23    2    4    4    0    0  0.19736096536E+03  0.17929127840E+03  0.21632129692E+03  0.35506442308E+03  0.90438530920E+02 0.  0.
          1    1    3    3  502    0  0.65454255707E+03 -0.82534989466E+03 -0.55543644229E+03  0.11908560152E+04  0.00000000000E+00 0. -1.
         -1    1    3    3    0  502  0.43737205018E+02 -0.80619968323E+02 -0.25802713526E+02  0.95280126052E+02  0.00000000000E+00 0.  1.
         11    1    5    5    0    0 -0.18676852470E+03  0.16661149204E+03  0.12354804290E+03  0.27911644524E+03  0.00000000000E+00 0.  1.
        -11    1    5    5    0    0 -0.70887220274E+03  0.56006709254E+03  0.27106732202E+03  0.94321388933E+03  0.00000000000E+00 0. -1.
          4    1    6    6  503    0  0.13347375368E+03  0.65651904654E+02  0.13846381186E+03  0.20321821449E+03  0.00000000000E+00 0. -1.
         -4    1    6    6    0  503  0.63887211680E+02  0.11363937375E+03  0.77857485060E+02  0.15184620859E+03  0.00000000000E+00 0.  1.
<mgrwt>
<rscale>  0 0.28633769E+04</rscale>
<asrwt>0</asrwt>
<pdfrwt beam="1">  1        1 0.21798718E+00 0.28633769E+04</pdfrwt>
<pdfrwt beam="2">  1       -1 0.22255603E+00 0.28633769E+04</pdfrwt>
<totfact> 0.68102527E-01</totfact>
</mgrwt>
</event>
<event>
12    2  0.3623523E-008  0.1628908E+04  0.7818608E-02  0.8802983E-01
          2   -1    0    0  501    0  0.00000000000E+00  0.00000000000E+00  0.99527195539E+03  0.99527195539E+03  0.00000000000E+00 0. -1.
         -2   -1    0    0    0  501 -0.00000000000E+00 -0.00000000000E+00 -0.66648623994E+03  0.66648623994E+03  0.00000000000E+00 0.  1.
         23    2    1    2    0    0 -0.60993188893E+01  0.15749485402E+02 -0.45800892482E+03  0.46730242499E+03  0.91181868866E+02 0.  0.
        254    2    1    2    0    0  0.60993188893E+01 -0.15749485402E+02  0.78679464027E+03  0.11944557703E+04  0.89855079620E+03 0.  0.
         23    2    4    4    0    0 -0.30847832444E+03  0.15728439293E+03  0.73865646238E+03  0.82077087100E+03  0.90300588924E+02 0.  0.
         23    2    4    4    0    0  0.31457764332E+03 -0.17303387834E+03  0.48138177898E+02  0.37368489935E+03  0.91778554661E+02 0.  0.
          2    1    3    3  502    0 -0.69433516426E+01  0.21062752474E+02 -0.21926693657E+02  0.31187009612E+02  0.00000000000E+00 0. -1.
         -2    1    3    3    0  502  0.84403275327E+00 -0.53132670721E+01 -0.43608223116E+03  0.43611541538E+03  0.00000000000E+00 0.  1.
         11    1    5    5    0    0 -0.30799698088E+03  0.16318004455E+03  0.73584352777E+03  0.81422083278E+03  0.00000000000E+00 0.  1.
        -11    1    5    5    0    0 -0.48134356023E+00 -0.58956516130E+01  0.28129346023E+01  0.65500382168E+01  0.00000000000E+00 0. -1.
          3    1    6    6  503    0  0.45410369766E+02  0.80651819317E+01  0.43988573464E+01  0.46330322553E+02  0.00000000000E+00 0. -1.
         -3    1    6    6    0  503  0.26916727356E+03 -0.18109906027E+03  0.43739320552E+02  0.32735457679E+03  0.00000000000E+00 0.  1.
<mgrwt>
<rscale>  0 0.16289077E+04</rscale>
<asrwt>0</asrwt>
<pdfrwt beam="1">  1        2 0.15311876E+00 0.16289077E+04</pdfrwt>
<pdfrwt beam="2">  1       -2 0.10253634E+00 0.16289077E+04</pdfrwt>
<totfact> 0.18888748E+01</totfact>
</mgrwt>
</event>
<event>
12    2  0.3623523E-008  0.2636136E+04  0.7818608E-02  0.8356029E-01
         -1   -1    0    0    0  501 -0.00000000000E+00  0.00000000000E+00  0.13544924948E+04  0.13544924948E+04  0.00000000000E+00 0.  1.
          1   -1    0    0  501    0  0.00000000000E+00 -0.00000000000E+00 -0.12826225446E+04  0.12826225446E+04  0.00000000000E+00 0. -1.
         23    2    1    2    0    0 -0.28422359665E+03 -0.99583618475E+03  0.53779700491E+03  0.11706429818E+04  0.93309231034E+02 0.  0.
        254    2    1    2    0    0  0.28422359665E+03  0.99583618475E+03 -0.46592705468E+03  0.14664720576E+04  0.92788981877E+03 0.  0.
         23    2    4    4    0    0 -0.27519148392E+03  0.58975068074E+02 -0.11548627831E+03  0.31693929113E+03  0.88910192391E+02 0.  0.
         23    2    4    4    0    0  0.55941508057E+03  0.93686111668E+03 -0.35044077638E+03  0.11495327665E+04  0.89234854099E+02 0.  0.
          1    1    3    3  502    0 -0.10146453317E+03 -0.25109870502E+03  0.17387514275E+03  0.32183563572E+03  0.00000000000E+00 0. -1.
         -1    1    3    3    0  502 -0.18275906348E+03 -0.74473747973E+03  0.36392186216E+03  0.84880734608E+03  0.00000000000E+00 0.  1.
         11    1    5    5    0    0 -0.26930164602E+03  0.47175978472E+02 -0.89294820155E+02  0.28761521935E+03  0.00000000000E+00 0. -1.
        -11    1    5    5    0    0 -0.58898378989E+01  0.11799089602E+02 -0.26191458154E+02  0.29324071786E+02  0.00000000000E+00 0.  1.
          2    1    6    6  503    0  0.41105327900E+03  0.60661207101E+03 -0.23633411934E+03  0.76993299633E+03  0.00000000000E+00 0. -1.
         -2    1    6    6    0  503  0.14836180157E+03  0.33024904567E+03 -0.11410665704E+03  0.37959977017E+03  0.00000000000E+00 0.  1.
<mgrwt>
<rscale>  0 0.26361355E+04</rscale>
<asrwt>0</asrwt>
<pdfrwt beam="1">  1        1 0.19732655E+00 0.26361355E+04</pdfrwt>
<pdfrwt beam="2">  1       -1 0.20838346E+00 0.26361355E+04</pdfrwt>
<totfact> 0.10776792E+00</totfact>
</mgrwt>
</event>
<event>
12    2  0.3623523E-008  0.1268066E+04  0.7818608E-02  0.9055280E-01
          2   -1    0    0  501    0  0.00000000000E+00  0.00000000000E+00  0.21928164955E+04  0.21928164955E+04  0.00000000000E+00 0. -1.
         -2   -1    0    0    0  501 -0.00000000000E+00 -0.00000000000E+00 -0.18332491481E+03  0.18332491481E+03  0.00000000000E+00 0.  1.
         23    2    1    2    0    0 -0.13168394384E+03 -0.18944709311E+03  0.97546064947E+03  0.10067737745E+04  0.94016446140E+02 0.  0.
        254    2    1    2    0    0  0.13168394384E+03  0.18944709311E+03  0.10340309312E+04  0.13693676359E+04  0.86759258481E+03 0.  0.
         23    2    4    4    0    0  0.38328856705E+03  0.25208056060E+03  0.98455386142E+03  0.10900787260E+04  0.92035798994E+02 0.  0.
         23    2    4    4    0    0 -0.25160462320E+03 -0.62633467485E+02  0.49477069827E+02  0.27928890981E+03  0.91249531715E+02 0.  0.
          2    1    3    3  502    0 -0.14441479256E+03 -0.16099386979E+03  0.80843301788E+03  0.83686235596E+03  0.00000000000E+00 0. -1.
         -2    1    3    3    0  502  0.12730848722E+02 -0.28453223320E+02  0.16702763159E+03  0.16991141851E+03  0.00000000000E+00 0.  1.
         11    1    5    5    0    0  0.15842047936E+03  0.11671620140E+03  0.52774532193E+03  0.56323604712E+03  0.00000000000E+00 0. -1.
        -11    1    5    5    0    0  0.22486808768E+03  0.13536435919E+03  0.45680853948E+03  0.52684267893E+03  0.00000000000E+00 0.  1.
          4    1    6    6  503    0  0.60414801468E+01 -0.27778012847E+01 -0.60796361812E+01  0.90098633973E+01  0.00000000000E+00 0. -1.
         -4    1    6    6    0  503 -0.25764610335E+03 -0.59855666201E+02  0.55556706008E+02  0.27027904641E+03  0.00000000000E+00 0.  1.
<mgrwt>
<rscale>  0 0.12680661E+04</rscale>
<asrwt>0</asrwt>
<pdfrwt beam="1">  1        2 0.33735637E+00 0.12680661E+04</pdfrwt>
<pdfrwt beam="2">  1       -2 0.28203835E-01 0.12680661E+04</pdfrwt>
<totfact> 0.59021790E+01</totfact>
</mgrwt>
</event>
<event>
12    2  0.3623523E-008  0.1147470E+04  0.7818608E-02  0.9160120E-01
         -2   -1    0    0    0  501 -0.00000000000E+00  0.00000000000E+00  0.33145971679E+03  0.33145971679E+03  0.00000000000E+00 0. -1.
          2   -1    0    0  501    0  0.00000000000E+00 -0.00000000000E+00 -0.99309842931E+03  0.99309842931E+03  0.00000000000E+00 0.  1.
         23    2    1    2    0    0  0.36257034004E+02  0.18869054558E+03 -0.23498055919E+03  0.31697059690E+03  0.91300611138E+02 0.  0.
        254    2    1    2    0    0 -0.36257034004E+02 -0.18869054558E+03 -0.42665815333E+03  0.10075875492E+04  0.89234342885E+03 0.  0.
         23    2    4    4    0    0  0.15422000558E+03  0.40241696420E+02  0.22155319569E+03  0.28839305228E+03  0.93174727417E+02 0.  0.
         23    2    4    4    0    0 -0.19047703959E+03 -0.22893224200E+03 -0.64821134902E+03  0.71919449693E+03  0.91494794249E+02 0.  0.
          1    1    3    3  502    0  0.29895313922E+02  0.50486630295E+02 -0.21317457539E+02  0.62426465774E+02  0.00000000000E+00 0. -1.
         -1    1    3    3    0  502  0.63617200828E+01  0.13820391529E+03 -0.21366310165E+03  0.25454413112E+03  0.00000000000E+00 0.  1.
         11    1    5    5    0    0  0.52050557865E+00  0.16071363491E+02  0.67692517020E+02  0.69576120264E+02  0.00000000000E+00 0. -1.
        -11    1    5    5    0    0  0.15369950000E+03  0.24170332929E+02  0.15386067867E+03  0.21881693202E+03  0.00000000000E+00 0.  1.
          1    1    6    6  503    0  0.24219767991E+01 -0.19919155716E+02 -0.15046749916E+02  0.25080738009E+02  0.00000000000E+00 0. -1.
         -1    1    6    6    0  503 -0.19289901639E+03 -0.20901308629E+03 -0.63316459910E+03  0.69411375892E+03  0.00000000000E+00 0.  1.
<mgrwt>
<rscale>  0 0.11474705E+04</rscale>
<asrwt>0</asrwt>
<pdfrwt beam="1">  1        2 0.15278437E+00 0.11474705E+04</pdfrwt>
<pdfrwt beam="2">  1       -2 0.50993803E-01 0.11474705E+04</pdfrwt>
<totfact> 0.91562218E+01</totfact>
</mgrwt>
</event>
<event>
12    2  0.3623523E-008  0.2213314E+04  0.7818608E-02  0.8512907E-01
          1   -1    0    0  501    0  0.00000000000E+00  0.00000000000E+00  0.61399179159E+03  0.61399179159E+03  0.00000000000E+00 0. -1.
         -1   -1    0    0    0  501 -0.00000000000E+00 -0.00000000000E+00 -0.19946347600E+04  0.19946347600E+04  0.00000000000E+00 0.  1.
         23    2    1    2    0    0 -0.90772760585E+03  0.63012786320E+02 -0.77607456101E+03  0.11992872016E+04  0.89766641845E+02 0.  0.
        254    2    1    2    0    0  0.90772760585E+03 -0.63012786320E+02 -0.60456840740E+03  0.14093393500E+04  0.89039004181E+03 0.  0.
         23    2    4    4    0    0  0.70904036468E+03 -0.11349853147E+03 -0.82237060906E+03  0.10955287192E+04  0.90937344503E+02 0.  0.
         23    2    4    4    0    0  0.19868724117E+03  0.50485745147E+02  0.21780220166E+03  0.31381063076E+03  0.94941469680E+02 0.  0.
          3    1    3    3  502    0 -0.57820113762E+03  0.65666519449E+00 -0.46754333221E+03  0.74358170650E+03  0.00000000000E+00 0. -1.
         -3    1    3    3    0  502 -0.32952646823E+03  0.62356121125E+02 -0.30853122881E+03  0.45570549509E+03  0.00000000000E+00 0.  1.
         11    1    5    5    0    0  0.55681839705E+03 -0.11469561039E+03 -0.60545960793E+03  0.83053184597E+03  0.00000000000E+00 0. -1.
        -11    1    5    5    0    0  0.15222196763E+03  0.11970789252E+01 -0.21691100113E+03  0.26499687326E+03  0.00000000000E+00 0.  1.
          3    1    6    6  503    0  0.59250999240E+02  0.58757448014E+02  0.10594651258E+03  0.13486208561E+03  0.00000000000E+00 0. -1.
         -3    1    6    6    0  503  0.13943624193E+03 -0.82717028662E+01  0.11185568909E+03  0.17894854515E+03  0.00000000000E+00 0.  1.
<mgrwt>
<rscale>  0 0.22133137E+04</rscale>
<asrwt>0</asrwt>
<pdfrwt beam="1">  1        1 0.94460276E-01 0.22133137E+04</pdfrwt>
<pdfrwt beam="2">  1       -1 0.30686688E+00 0.22133137E+04</pdfrwt>
<totfact> 0.89926261E-01</totfact>
</mgrwt>
</event>
<event>
12    2  0.3623523E-008  0.2211633E+04  0.7818608E-02  0.8513602E-01
         -2   -1    0    0    0  501 -0.00000000000E+00  0.00000000000E+00  0.83244480133E+03  0.83244480133E+03  0.00000000000E+00 0. -1.
          2   -1    0    0  501    0  0.00000000000E+00 -0.00000000000E+00 -0.14689630316E+04  0.14689630316E+04  0.00000000000E+00 0.  1.
         23    2    1    2    0    0 -0.86315089908E+03  0.22756636418E+03  0.38151164839E+02  0.89811839841E+03  0.91352183935E+02 0.  0.
        254    2    1    2    0    0  0.86315089908E+03 -0.22756636418E+03 -0.67466939511E+03  0.14032894345E+04  0.84689227156E+03 0.  0.
         23    2    4    4    0    0  0.47234546880E+03 -0.50612665849E+03 -0.21104293748E+03  0.72958950661E+03  0.92126491135E+02 0.  0.
         23    2    4    4    0    0  0.39080543027E+03  0.27856029431E+03 -0.46362645763E+03  0.67369992789E+03  0.92722050980E+02 0.  0.
          1    1    3    3  502    0 -0.77326633798E+03  0.23175597690E+03  0.37837142613E+02  0.80813570125E+03  0.00000000000E+00 0. -1.
         -1    1    3    3    0  502 -0.89884561097E+02 -0.41896127183E+01  0.31402222552E+00  0.89982697160E+02  0.00000000000E+00 0.  1.
         11    1    5    5    0    0  0.36923995872E+03 -0.41028025067E+03 -0.20460325006E+03  0.58866843056E+03  0.00000000000E+00 0. -1.
        -11    1    5    5    0    0  0.10310551009E+03 -0.95846407817E+02 -0.64396874179E+01  0.14092107605E+03  0.00000000000E+00 0.  1.
          2    1    6    6  503    0  0.11715820608E+03  0.53366594576E+02 -0.17138685666E+03  0.21435366408E+03  0.00000000000E+00 0.  1.
         -2    1    6    6    0  503  0.27364722419E+03  0.22519369973E+03 -0.29223960096E+03  0.45934626381E+03  0.00000000000E+00 0. -1.
<mgrwt>
<rscale>  0 0.22116335E+04</rscale>
<asrwt>0</asrwt>
<pdfrwt beam="1">  1        2 0.22599431E+00 0.22116335E+04</pdfrwt>
<pdfrwt beam="2">  1       -2 0.12806843E+00 0.22116335E+04</pdfrwt>
<totfact> 0.54455172E+00</totfact>
</mgrwt>
</event>
<event>
12    2  0.3623523E-008  0.1410837E+04  0.7818608E-02  0.8946011E-01
          2   -1    0    0  501    0  0.00000000000E+00  0.00000000000E+00  0.31733756945E+03  0.31733756945E+03  0.00000000000E+00 0. -1.
         -2   -1    0    0    0  501 -0.00000000000E+00 -0.00000000000E+00 -0.15680939849E+04  0.15680939849E+04  0.00000000000E+00 0.  1.
         23    2    1    2    0    0 -0.22780524361E+03 -0.64399452620E+01 -0.83674764528E+03  0.87204668903E+03  0.91553831395E+02 0.  0.
        254    2    1    2    0    0  0.22780524361E+03  0.64399452620E+01 -0.41400877017E+03  0.10133848653E+04  0.89644236936E+03 0.  0.
         23    2    4    4    0    0 -0.31618132793E+03  0.72490512433E+02 -0.34444301846E+02  0.34083538244E+03  0.98776725324E+02 0.  0.
         23    2    4    4    0    0  0.54398657154E+03 -0.66050567171E+02 -0.37956446832E+03  0.67254948289E+03  0.89272357881E+02 0.  0.
          1    1    3    3  502    0 -0.10451478509E+02 -0.25306144185E+02 -0.87976624890E+02  0.92138595950E+02  0.00000000000E+00 0. -1.
         -1    1    3    3    0  502 -0.21735376510E+03  0.18866198923E+02 -0.74877102039E+03  0.77990809308E+03  0.00000000000E+00 0.  1.
         11    1    5    5    0    0 -0.14771122440E+03 -0.95209450181E+01 -0.40186300323E+02  0.15337598554E+03  0.00000000000E+00 0. -1.
        -11    1    5    5    0    0 -0.16847010353E+03  0.82011457451E+02  0.57419984772E+01  0.18745939690E+03  0.00000000000E+00 0.  1.
          1    1    6    6  503    0  0.41803868235E+03 -0.12301695605E+02 -0.28206977228E+03  0.50445121478E+03  0.00000000000E+00 0. -1.
         -1    1    6    6    0  503  0.12594788919E+03 -0.53748871566E+02 -0.97494696039E+02  0.16809826811E+03  0.00000000000E+00 0.  1.
<mgrwt>
<rscale>  0 0.14108368E+04</rscale>
<asrwt>0</asrwt>
<pdfrwt beam="1">  1        2 0.48821165E-01 0.14108368E+04</pdfrwt>
<pdfrwt beam="2">  1       -2 0.24124523E+00 0.14108368E+04</pdfrwt>
<totfact> 0.73019330E+00</totfact>
</mgrwt>
</event>
<event>
12    2  0.3623523E-008  0.1586967E+04  0.7818608E-02  0.8828595E-01
         -1   -1    0    0    0  501 -0.00000000000E+00  0.00000000000E+00  0.14402717889E+04  0.14402717889E+04  0.00000000000E+00 0.  1.
          1   -1    0    0  501    0  0.00000000000E+00 -0.00000000000E+00 -0.43715089429E+03  0.43715089429E+03  0.00000000000E+00 0. -1.
         23    2    1    2    0    0  0.56366934730E+02 -0.34056680740E+03  0.83616592922E+03  0.90906849556E+03  0.89828095770E+02 0.  0.
        254    2    1    2    0    0 -0.56366934730E+02  0.34056680740E+03  0.16695496538E+03  0.96835418762E+03  0.88919789169E+03 0.  0.
         23    2    4    4    0    0 -0.46362858386E+03  0.18012353771E+03  0.11476455773E+03  0.51830915970E+03  0.89875072777E+02 0.  0.
         23    2    4    4    0    0  0.40726164913E+03  0.16044326969E+03  0.52190407648E+02  0.45004502792E+03  0.90623368207E+02 0.  0.
          4    1    3    3  502    0  0.19091227524E+02 -0.25637466741E+03  0.52500458829E+03  0.58457015215E+03  0.00000000000E+00 0. -1.
         -4    1    3    3    0  502  0.37275707206E+02 -0.84192139989E+02  0.31116134093E+03  0.32449834341E+03  0.00000000000E+00 0.  1.
         11    1    5    5    0    0 -0.59698319036E+02 -0.60377122353E+01  0.50688958845E+01  0.60216583848E+02  0.00000000000E+00 0.  1.
        -11    1    5    5    0    0 -0.40393026483E+03  0.18616124994E+03  0.10969566185E+03  0.45809257585E+03  0.00000000000E+00 0. -1.
          3    1    6    6  503    0  0.25070541241E+03  0.61957307992E+02  0.14429839360E+01  0.25825180354E+03  0.00000000000E+00 0. -1.
         -3    1    6    6    0  503  0.15655623672E+03  0.98485961703E+02  0.50747423712E+02  0.19179322439E+03  0.00000000000E+00 0.  1.
<mgrwt>
<rscale>  0 0.15869670E+04</rscale>
<asrwt>0</asrwt>
<pdfrwt beam="1">  1        1 0.67253985E-01 0.15869670E+04</pdfrwt>
<pdfrwt beam="2">  1       -1 0.22158027E+00 0.15869670E+04</pdfrwt>
<totfact> 0.54934333E+00</totfact>
</mgrwt>
</event>
<event>
12    2  0.3623523E-008  0.1487295E+04  0.7818608E-02  0.8892946E-01
          1   -1    0    0  501    0  0.00000000000E+00  0.00000000000E+00  0.93865298198E+03  0.93865298198E+03  0.00000000000E+00 0. -1.
         -1   -1    0    0    0  501 -0.00000000000E+00 -0.00000000000E+00 -0.58915419079E+03  0.58915419079E+03  0.00000000000E+00 0.  1.
         23    2    1    2    0    0 -0.97638396400E+02  0.44778918242E+02 -0.36071722565E+03  0.38696091297E+03  0.89907860165E+02 0.  0.
        254    2    1    2    0    0  0.97638396400E+02 -0.44778918242E+02  0.71021601684E+03  0.11408462598E+04  0.88633232477E+03 0.  0.
         23    2    4    4    0    0  0.67507409811E+02 -0.45407366976E+03  0.43672609534E+03  0.64005361137E+03  0.90547198364E+02 0.  0.
         23    2    4    4    0    0  0.30130986588E+02  0.40929475151E+03  0.27348992150E+03  0.50079264843E+03  0.86985456162E+02 0.  0.
          4    1    3    3  502    0 -0.42637915328E+02  0.44727612648E+02 -0.29434490252E+03  0.30076148822E+03  0.00000000000E+00 0.  1.
         -4    1    3    3    0  502 -0.55000481071E+02  0.51305594358E-01 -0.66372323126E+02  0.86199424752E+02  0.00000000000E+00 0. -1.
         11    1    5    5    0    0 -0.49293331453E+01  0.24515866372E+01  0.71532668241E+01  0.90265069963E+01  0.00000000000E+00 0. -1.
        -11    1    5    5    0    0  0.72436742957E+02 -0.45652525639E+03  0.42957282851E+03  0.63102710437E+03  0.00000000000E+00 0.  1.
          1    1    6    6  503    0 -0.21991743707E+02  0.46786695084E+02  0.48999747933E+02  0.71229256108E+02  0.00000000000E+00 0. -1.
         -1    1    6    6    0  503  0.52122730295E+02  0.36250805643E+03  0.22449017357E+03  0.42956339232E+03  0.00000000000E+00 0.  1.
<mgrwt>
<rscale>  0 0.14872946E+04</rscale>
<asrwt>0</asrwt>
<pdfrwt beam="1">  1        1 0.14440815E+00 0.14872946E+04</pdfrwt>
<pdfrwt beam="2">  1       -1 0.90639106E-01 0.14872946E+04</pdfrwt>
<totfact> 0.19496750E+01</totfact>
</mgrwt>
</event>
<event>
12    2  0.3623523E-008  0.1583179E+04  0.7818608E-02  0.8830949E-01
         -2   -1    0    0    0  501 -0.00000000000E+00  0.00000000000E+00  0.42321575528E+03  0.42321575528E+03  0.00000000000E+00 0.  1.
          2   -1    0    0  501    0  0.00000000000E+00 -0.00000000000E+00 -0.14806023152E+04  0.14806023152E+04  0.00000000000E+00 0. -1.
         23    2    1    2    0    0 -0.25050654266E+03 -0.35321383898E+03  0.85140914791E+01  0.44215756312E+03  0.88979081314E+02 0.  0.
        254    2    1    2    0    0  0.25050654266E+03  0.35321383898E+03 -0.10659006514E+04  0.14616605074E+04  0.90155071747E+03 0.  0.
         23    2    4    4    0    0 -0.99804707969E+02  0.14992037573E+03  0.99446279072E+02  0.22465947172E+03  0.90250856065E+02 0.  0.
         23    2    4    4    0    0  0.35031125063E+03  0.20329346325E+03 -0.11653469305E+04  0.12370010357E+04  0.89954929220E+02 0.  0.
          2    1    3    3  502    0 -0.17161769778E+03 -0.24619261178E+03 -0.35287907778E+02  0.30217324951E+03  0.00000000000E+00 0. -1.
         -2    1    3    3    0  502 -0.78888844885E+02 -0.10702122720E+03  0.43801999257E+02  0.13998431361E+03  0.00000000000E+00 0.  1.
         11    1    5    5    0    0 -0.56605191717E+01  0.49086018356E+02 -0.76709839941E+01  0.50003226604E+02  0.00000000000E+00 0. -1.
        -11    1    5    5    0    0 -0.94144188797E+02  0.10083435738E+03  0.10711726307E+03  0.17465624512E+03  0.00000000000E+00 0.  1.
          3    1    6    6  503    0  0.15838739490E+03  0.41768598600E+02 -0.43974668253E+03  0.46926360128E+03  0.00000000000E+00 0. -1.
         -3    1    6    6    0  503  0.19192385573E+03  0.16152486464E+03 -0.72560024797E+03  0.76773743439E+03  0.00000000000E+00 0.  1.
<mgrwt>
<rscale>  0 0.15831794E+04</rscale>
<asrwt>0</asrwt>
<pdfrwt beam="1">  1        2 0.22778497E+00 0.15831794E+04</pdfrwt>
<pdfrwt beam="2">  1       -2 0.65110117E-01 0.15831794E+04</pdfrwt>
<totfact> 0.27187879E+01</totfact>
</mgrwt>
</event>
<event>
12    2  0.3623523E-008  0.1676609E+04  0.7818608E-02  0.8774819E-01
          2   -1    0    0  501    0  0.00000000000E+00  0.00000000000E+00  0.17793798603E+04  0.17793798603E+04  0.00000000000E+00 0. -1.
         -2   -1    0    0    0  501 -0.00000000000E+00 -0.00000000000E+00 -0.39494334046E+03  0.39494334046E+03  0.00000000000E+00 0.  1.
         23    2    1    2    0    0  0.46104418717E+03  0.26797526363E+03  0.84356281088E+03  0.10021318621E+04  0.91090991174E+02 0.  0.
        254    2    1    2    0    0 -0.46104418717E+03 -0.26797526363E+03  0.54087370891E+03  0.11721913386E+04  0.89281335166E+03 0.  0.
         23    2    4    4    0    0  0.13069686075E+03 -0.15582820895E+03 -0.13567356331E+03  0.26176235871E+03  0.93531366632E+02 0.  0.
         23    2    4    4    0    0 -0.59174104793E+03 -0.11214705469E+03  0.67654727222E+03  0.91042897991E+03  0.91816590149E+02 0.  0.
          1    1    3    3  502    0  0.35249275249E+03  0.20875888459E+03  0.57027628115E+03  0.70217266345E+03  0.00000000000E+00 0. -1.
         -1    1    3    3    0  502  0.10855143469E+03  0.59216379045E+02  0.27328652972E+03  0.29995919864E+03  0.00000000000E+00 0.  1.
         11    1    5    5    0    0  0.13829905965E+03 -0.13965249210E+03 -0.97039323216E+02  0.21919415754E+03  0.00000000000E+00 0.  1.
        -11    1    5    5    0    0 -0.76021988947E+01 -0.16175716842E+02 -0.38634240093E+02  0.42568201171E+02  0.00000000000E+00 0. -1.
          1    1    6    6  503    0 -0.21746495314E+03 -0.83722910688E+02  0.28278834797E+03  0.36642841234E+03  0.00000000000E+00 0. -1.
         -1    1    6    6    0  503 -0.37427609479E+03 -0.28424144000E+02  0.39375892425E+03  0.54400056757E+03  0.00000000000E+00 0.  1.
<mgrwt>
<rscale>  0 0.16766088E+04</rscale>
<asrwt>0</asrwt>
<pdfrwt beam="1">  1        2 0.27375074E+00 0.16766088E+04</pdfrwt>
<pdfrwt beam="2">  1       -2 0.60760515E-01 0.16766088E+04</pdfrwt>
<totfact> 0.21295050E+01</totfact>
</mgrwt>
</event>
<event>
12    2  0.3623523E-008  0.1318784E+04  0.7818608E-02  0.9014801E-01
          2   -1    0    0  501    0  0.00000000000E+00  0.00000000000E+00  0.17222096570E+04  0.17222096570E+04  0.00000000000E+00 0. -1.
         -2   -1    0    0    0  501 -0.00000000000E+00 -0.00000000000E+00 -0.25246506296E+03  0.25246506296E+03  0.00000000000E+00 0.  1.
         23    2    1    2    0    0 -0.14151132281E+03 -0.30496503296E+03  0.46042134969E+03  0.57740637921E+03  0.91548794026E+02 0.  0.
        254    2    1    2    0    0  0.14151132281E+03  0.30496503296E+03  0.10093232444E+04  0.13972683408E+04  0.90586769381E+03 0.  0.
         23    2    4    4    0    0 -0.24831752497E+03  0.83082205589E+02 -0.11199976373E+02  0.27863507039E+03  0.94592900828E+02 0.  0.
         23    2    4    4    0    0  0.38982884778E+03  0.22188282737E+03  0.10205232207E+04  0.11186332704E+04  0.93135545863E+02 0.  0.
          3    1    3    3  502    0 -0.12232899677E+03 -0.30398330214E+03  0.42041557919E+03  0.53302860209E+03  0.00000000000E+00 0. -1.
         -3    1    3    3    0  502 -0.19182326047E+02 -0.98173082173E+00  0.40005770500E+02  0.44377777111E+02  0.00000000000E+00 0.  1.
         11    1    5    5    0    0 -0.17370088642E+03  0.79279003774E+02 -0.45715750770E+02  0.19633412401E+03  0.00000000000E+00 0. -1.
        -11    1    5    5    0    0 -0.74616638545E+02  0.38032018153E+01  0.34515774397E+02  0.82300946374E+02  0.00000000000E+00 0.  1.
          2    1    6    6  503    0  0.93411340273E+02  0.41811835546E+02  0.33630920317E+03  0.35153632561E+03  0.00000000000E+00 0.  1.
         -2    1    6    6    0  503  0.29641750751E+03  0.18007099182E+03  0.68421401757E+03  0.76709694478E+03  0.00000000000E+00 0. -1.
<mgrwt>
<rscale>  0 0.13187839E+04</rscale>
<asrwt>0</asrwt>
<pdfrwt beam="1">  1        2 0.26495533E+00 0.13187839E+04</pdfrwt>
<pdfrwt beam="2">  1       -2 0.38840780E-01 0.13187839E+04</pdfrwt>
<totfact> 0.58444354E+01</totfact>
</mgrwt>
</event>
<event>
12    2  0.3623523E-008  0.1132655E+04  0.7818608E-02  0.9173935E-01
         -4   -1    0    0    0  501 -0.00000000000E+00  0.00000000000E+00  0.11533397332E+04  0.11533397332E+04  0.00000000000E+00 0.  1.
          4   -1    0    0  501    0  0.00000000000E+00 -0.00000000000E+00 -0.27808551736E+03  0.27808551736E+03  0.00000000000E+00 0. -1.
         23    2    1    2    0    0 -0.84612688264E+02 -0.15571139129E+02  0.43323022283E+03  0.45114737190E+03  0.91889922252E+02 0.  0.
        254    2    1    2    0    0  0.84612688264E+02  0.15571139129E+02  0.44202399303E+03  0.98027787869E+03  0.87072253998E+03 0.  0.
         23    2    4    4    0    0 -0.21544989837E+03 -0.57589353767E+02  0.58169220913E+03  0.62994654306E+03  0.93443183633E+02 0.  0.
         23    2    4    4    0    0  0.30006258664E+03  0.73160492896E+02 -0.13966821610E+03  0.35033133563E+03  0.88514521495E+02 0.  0.
          2    1    3    3  502    0 -0.21837900493E+02  0.24939718589E+02  0.26510366008E+03  0.26716817559E+03  0.00000000000E+00 0.  1.
         -2    1    3    3    0  502 -0.62774787770E+02 -0.40510857718E+02  0.16812656275E+03  0.18397919631E+03  0.00000000000E+00 0. -1.
         11    1    5    5    0    0 -0.57134930789E+02 -0.20894832385E+01  0.64329777480E+02  0.86064432416E+02  0.00000000000E+00 0.  1.
        -11    1    5    5    0    0 -0.15831496758E+03 -0.55499870529E+02  0.51736243165E+03  0.54388211064E+03  0.00000000000E+00 0. -1.
          3    1    6    6  503    0  0.27178756748E+03  0.76491039535E+02 -0.15039983616E+03  0.31990541053E+03  0.00000000000E+00 0. -1.
         -3    1    6    6    0  503  0.28275019156E+02 -0.33305466389E+01  0.10731620063E+02  0.30425925103E+02  0.00000000000E+00 0.  1.
<mgrwt>
<rscale>  0 0.11326554E+04</rscale>
<asrwt>0</asrwt>
<pdfrwt beam="1">  1        4 0.42782388E-01 0.11326554E+04</pdfrwt>
<pdfrwt beam="2">  1       -4 0.17743688E+00 0.11326554E+04</pdfrwt>
<totfact> 0.19705394E+00</totfact>
</mgrwt>
</event>
<event>
12    2  0.3623523E-008  0.1540913E+04  0.7818608E-02  0.8857693E-01
         -2   -1    0    0    0  501 -0.00000000000E+00  0.00000000000E+00  0.26290145342E+03  0.26290145342E+03  0.00000000000E+00 0.  1.
          2   -1    0    0  501    0  0.00000000000E+00 -0.00000000000E+00 -0.22578922470E+04  0.22578922470E+04  0.00000000000E+00 0. -1.
         23    2    1    2    0    0  0.40604224814E+03 -0.27901878605E+03 -0.82339262895E+03  0.96393233469E+03  0.92023552420E+02 0.  0.
        254    2    1    2    0    0 -0.40604224814E+03  0.27901878605E+03 -0.11715981646E+04  0.15568613657E+04  0.89914029077E+03 0.  0.
         23    2    4    4    0    0 -0.14600742135E+03  0.37828894447E+03 -0.11924284449E+04  0.12627325360E+04  0.90482974202E+02 0.  0.
         23    2    4    4    0    0 -0.26003482680E+03 -0.99270158416E+02  0.20830280315E+02  0.29412882971E+03  0.92764176217E+02 0.  0.
          2    1    3    3  502    0  0.39824481484E+03 -0.28439024253E+03 -0.81751057370E+03  0.95278553763E+03  0.00000000000E+00 0. -1.
         -2    1    3    3    0  502  0.77974333044E+01  0.53714564769E+01 -0.58820552469E+01  0.11146797062E+02  0.00000000000E+00 0.  1.
         11    1    5    5    0    0 -0.91969541234E+02  0.20703982264E+03 -0.52983858829E+03  0.57624024010E+03  0.00000000000E+00 0. -1.
        -11    1    5    5    0    0 -0.54037880112E+02  0.17124912183E+03 -0.66258985663E+03  0.68649229589E+03  0.00000000000E+00 0.  1.
          2    1    6    6  503    0 -0.53546572717E+02  0.17283298000E+02  0.50221430151E+01  0.56490439544E+02  0.00000000000E+00 0. -1.
         -2    1    6    6    0  503 -0.20648825408E+03 -0.11655345642E+03  0.15808137300E+02  0.23763839016E+03  0.00000000000E+00 0.  1.
<mgrwt>
<rscale>  0 0.15409129E+04</rscale>
<asrwt>0</asrwt>
<pdfrwt beam="1">  1        2 0.34736802E+00 0.15409129E+04</pdfrwt>
<pdfrwt beam="2">  1       -2 0.40446380E-01 0.15409129E+04</pdfrwt>
<totfact> 0.26729512E+01</totfact>
</mgrwt>
</event>
<event>
12    2  0.3623523E-008  0.3258904E+04  0.7818608E-02  0.8173432E-01
          1   -1    0    0  501    0  0.00000000000E+00  0.00000000000E+00  0.13149262769E+04  0.13149262769E+04  0.00000000000E+00 0. -1.
         -1   -1    0    0    0  501 -0.00000000000E+00 -0.00000000000E+00 -0.20192115617E+04  0.20192115617E+04  0.00000000000E+00 0.  1.
         23    2    1    2    0    0 -0.83012050512E+03 -0.11570979747E+04  0.16451378359E+03  0.14364948191E+04  0.92069561642E+02 0.  0.
        254    2    1    2    0    0  0.83012050512E+03  0.11570979747E+04 -0.86879906841E+03  0.18976430196E+04  0.90457804107E+03 0.  0.
         23    2    4    4    0    0  0.12097438037E+03  0.91871184245E+03 -0.52839484912E+03  0.10707394367E+04  0.92820119995E+02 0.  0.
         23    2    4    4    0    0  0.70914612475E+03  0.23838613225E+03 -0.34040421929E+03  0.82690358282E+03  0.90434111229E+02 0.  0.
          2    1    3    3  502    0 -0.76742117507E+03 -0.10362980479E+04  0.12977228305E+03  0.12960284524E+04  0.00000000000E+00 0. -1.
         -2    1    3    3    0  502 -0.62699330056E+02 -0.12079992684E+03  0.34741500542E+02  0.14046636670E+03  0.00000000000E+00 0.  1.
         11    1    5    5    0    0  0.11308168739E+03  0.85535034371E+03 -0.51713593356E+03  0.10059032022E+04  0.00000000000E+00 0.  1.
        -11    1    5    5    0    0  0.78926929812E+01  0.63361498743E+02 -0.11258915552E+02  0.64836234506E+02  0.00000000000E+00 0. -1.
          3    1    6    6  503    0  0.46431287671E+03  0.19529001508E+03 -0.20506104685E+03  0.54385169891E+03  0.00000000000E+00 0. -1.
         -3    1    6    6    0  503  0.24483324804E+03  0.43096117167E+02 -0.13534317244E+03  0.28305188391E+03  0.00000000000E+00 0.  1.
<mgrwt>
<rscale>  0 0.32589043E+04</rscale>
<asrwt>0</asrwt>
<pdfrwt beam="1">  1        1 0.20229635E+00 0.32589043E+04</pdfrwt>
<pdfrwt beam="2">  1       -1 0.31064793E+00 0.32589043E+04</pdfrwt>
<totfact> 0.20688301E-01</totfact>
</mgrwt>
</event>
<event>
12    2  0.3623523E-008  0.1874890E+04  0.7818608E-02  0.8667457E-01
         -3   -1    0    0    0  501 -0.00000000000E+00  0.00000000000E+00  0.15035212071E+04  0.15035212071E+04  0.00000000000E+00 0.  1.
          3   -1    0    0  501    0  0.00000000000E+00 -0.00000000000E+00 -0.58449674968E+03  0.58449674968E+03  0.00000000000E+00 0. -1.
         23    2    1    2    0    0 -0.30052005363E+03 -0.19175479608E+03  0.10429743579E+04  0.11057801871E+04  0.88724892395E+02 0.  0.
        254    2    1    2    0    0  0.30052005363E+03  0.19175479608E+03 -0.12394990044E+03  0.98223776970E+03  0.90683253910E+03 0.  0.
         23    2    4    4    0    0 -0.17726085561E+03  0.17985238822E+03  0.25227251289E+03  0.36814773859E+03  0.90127932367E+02 0.  0.
         23    2    4    4    0    0  0.47778090923E+03  0.11902407853E+02 -0.37622241333E+03  0.61409003111E+03  0.84539916466E+02 0.  0.
          2    1    3    3  502    0 -0.11516317720E+03 -0.26702476718E+02  0.30028267831E+03  0.32271545755E+03  0.00000000000E+00 0. -1.
         -2    1    3    3    0  502 -0.18535687642E+03 -0.16505231936E+03  0.74269167958E+03  0.78306472956E+03  0.00000000000E+00 0.  1.
         11    1    5    5    0    0 -0.16765934066E+03  0.13777287993E+03  0.17159733049E+03  0.27665260669E+03  0.00000000000E+00 0. -1.
        -11    1    5    5    0    0 -0.96015149436E+01  0.42079508295E+02  0.80675182400E+02  0.91495131908E+02  0.00000000000E+00 0.  1.
          4    1    6    6  503    0  0.69606890093E+02  0.38918110605E+01 -0.97120032200E+02  0.11955152026E+03  0.00000000000E+00 0.  1.
         -4    1    6    6    0  503  0.40817401914E+03  0.80105967928E+01 -0.27910238113E+03  0.49453851085E+03  0.00000000000E+00 0. -1.
<mgrwt>
<rscale>  0 0.18748901E+04</rscale>
<asrwt>0</asrwt>
<pdfrwt beam="1">  1        3 0.89922577E-01 0.18748901E+04</pdfrwt>
<pdfrwt beam="2">  1       -3 0.23131095E+00 0.18748901E+04</pdfrwt>
<totfact> 0.25831353E-01</totfact>
</mgrwt>
</event>
<event>
12    2  0.3623523E-008  0.2880392E+04  0.7818608E-02  0.8278735E-01
          1   -1    0    0  501    0  0.00000000000E+00  0.00000000000E+00  0.18874395398E+04  0.18874395398E+04  0.00000000000E+00 0. -1.
         -1   -1    0    0    0  501 -0.00000000000E+00 -0.00000000000E+00 -0.10989302305E+04  0.10989302305E+04  0.00000000000E+00 0.  1.
         23    2    1    2    0    0  0.12017996483E+04 -0.45250415113E+03  0.15227924017E+03  0.12964196755E+04  0.91829224306E+02 0.  0.
        254    2    1    2    0    0 -0.12017996483E+04  0.45250415113E+03  0.63623006911E+03  0.16899500949E+04  0.89557814894E+03 0.  0.
         23    2    4    4    0    0 -0.91959232283E+03  0.68156633557E+03  0.30008738551E+03  0.11867556203E+04  0.90298135921E+02 0.  0.
         23    2    4    4    0    0 -0.28220732549E+03 -0.22906218444E+03  0.33614268359E+03  0.50319447459E+03  0.90012869227E+02 0.  0.
          1    1    3    3  502    0  0.82766962950E+03 -0.31061872910E+03  0.61851249699E+02  0.88619782642E+03  0.00000000000E+00 0. -1.
         -1    1    3    3    0  502  0.37413001882E+03 -0.14188542203E+03  0.90427990470E+02  0.41022184904E+03  0.00000000000E+00 0.  1.
         11    1    5    5    0    0 -0.85777954366E+03  0.61253854475E+03  0.25896229697E+03  0.10853804336E+04  0.00000000000E+00 0.  1.
        -11    1    5    5    0    0 -0.61812779171E+02  0.69027790823E+02  0.41125088544E+02  0.10137518672E+03  0.00000000000E+00 0. -1.
          1    1    6    6  503    0 -0.11715243295E+03 -0.57405857512E+02  0.16293322663E+03  0.20872796019E+03  0.00000000000E+00 0. -1.
         -1    1    6    6    0  503 -0.16505489254E+03 -0.17165632693E+03  0.17320945696E+03  0.29446651441E+03  0.00000000000E+00 0.  1.
<mgrwt>
<rscale>  0 0.28803919E+04</rscale>
<asrwt>0</asrwt>
<pdfrwt beam="1">  1        1 0.29037531E+00 0.28803919E+04</pdfrwt>
<pdfrwt beam="2">  1       -1 0.16906619E+00 0.28803919E+04</pdfrwt>
<totfact> 0.76373061E-01</totfact>
</mgrwt>
</event>
<event>
12    2  0.3623523E-008  0.1730144E+04  0.7818608E-02  0.8744357E-01
         -1   -1    0    0    0  501 -0.00000000000E+00  0.00000000000E+00  0.17492729478E+04  0.17492729478E+04  0.00000000000E+00 0.  1.
          1   -1    0    0  501    0  0.00000000000E+00 -0.00000000000E+00 -0.42780587018E+03  0.42780587018E+03  0.00000000000E+00 0. -1.
         23    2    1    2    0    0 -0.53718530628E+03 -0.17995172578E+03  0.16121111880E+03  0.59600407674E+03  0.91000866845E+02 0.  0.
        254    2    1    2    0    0  0.53718530628E+03  0.17995172578E+03  0.11602559588E+04  0.15810747412E+04  0.91249809344E+03 0.  0.
         23    2    4    4    0    0  0.31191302859E+02 -0.32861670909E+03  0.28276356174E+03  0.44395071843E+03  0.90416644936E+02 0.  0.
         23    2    4    4    0    0  0.50599400343E+03  0.50856843487E+03  0.87749239708E+03  0.11371240228E+04  0.91577027005E+02 0.  0.
          1    1    3    3  502    0 -0.18329060053E+03 -0.10340784481E+03  0.40309698603E+02  0.21427435314E+03  0.00000000000E+00 0. -1.
         -1    1    3    3    0  502 -0.35389470576E+03 -0.76543880964E+02  0.12090142019E+03  0.38172972360E+03  0.00000000000E+00 0.  1.
         11    1    5    5    0    0  0.80029944246E+00 -0.28461241883E+03  0.26114932428E+03  0.38626912769E+03  0.00000000000E+00 0. -1.
        -11    1    5    5    0    0  0.30391003416E+02 -0.44004290259E+02  0.21614237456E+02  0.57681590743E+02  0.00000000000E+00 0.  1.
          4    1    6    6  503    0  0.36055972042E+02  0.10842014499E+02  0.33177905474E+02  0.50183222395E+02  0.00000000000E+00 0.  1.
         -4    1    6    6    0  503  0.46993803138E+03  0.49772642037E+03  0.84431449161E+03  0.10869408004E+04  0.00000000000E+00 0. -1.
<mgrwt>
<rscale>  0 0.17301436E+04</rscale>
<asrwt>0</asrwt>
<pdfrwt beam="1">  1        1 0.65816289E-01 0.17301436E+04</pdfrwt>
<pdfrwt beam="2">  1       -1 0.26911891E+00 0.17301436E+04</pdfrwt>
<totfact> 0.27261599E+00</totfact>
</mgrwt>
</event>
<event>
12    2  0.3623523E-008  0.2688887E+04  0.7818608E-02  0.8338620E-01
         -1   -1    0    0    0  501 -0.00000000000E+00  0.00000000000E+00  0.71486665823E+03  0.71486665823E+03  0.00000000000E+00 0.  1.
          1   -1    0    0  501    0  0.00000000000E+00 -0.00000000000E+00 -0.25284839032E+04  0.25284839032E+04  0.00000000000E+00 0. -1.
         23    2    1    2    0    0  0.40822343338E+02 -0.72240401963E+03 -0.19491543639E+04  0.20810304366E+04  0.89167888981E+02 0.  0.
        254    2    1    2    0    0 -0.40822343338E+02  0.72240401963E+03  0.13553711894E+03  0.11623201248E+04  0.89949081745E+03 0.  0.
         23    2    4    4    0    0  0.31475700636E+03  0.29585032234E+03 -0.22444990692E+03  0.49510067269E+03  0.90263664363E+02 0.  0.
         23    2    4    4    0    0 -0.35557934969E+03  0.42655369730E+03  0.35998702587E+03  0.66721945213E+03  0.84890564310E+02 0.  0.
          1    1    3    3  502    0  0.72801339796E+01 -0.96300820200E+02 -0.35794923661E+03  0.37074857291E+03  0.00000000000E+00 0. -1.
         -1    1    3    3    0  502  0.33542209358E+02 -0.62610319944E+03 -0.15912051273E+04  0.17102818637E+04  0.00000000000E+00 0.  1.
         11    1    5    5    0    0  0.22272208108E+03  0.14892815239E+03 -0.13496615250E+03  0.30000097049E+03  0.00000000000E+00 0.  1.
        -11    1    5    5    0    0  0.92034925278E+02  0.14692216995E+03 -0.89483754427E+02  0.19509970221E+03  0.00000000000E+00 0. -1.
          1    1    6    6  503    0 -0.46711811727E+02  0.34563097554E+02  0.66304587331E+02  0.88164048049E+02  0.00000000000E+00 0. -1.
         -1    1    6    6    0  503 -0.30886753797E+03  0.39199059974E+03  0.29368243854E+03  0.57905540408E+03  0.00000000000E+00 0.  1.
<mgrwt>
<rscale>  0 0.26888874E+04</rscale>
<asrwt>0</asrwt>
<pdfrwt beam="1">  1        1 0.38899753E+00 0.26888874E+04</pdfrwt>
<pdfrwt beam="2">  1       -1 0.10997948E+00 0.26888874E+04</pdfrwt>
<totfact> 0.86334369E-01</totfact>
</mgrwt>
</event>
<event>
12    2  0.3623523E-008  0.1205610E+04  0.7818608E-02  0.9107960E-01
         -1   -1    0    0    0  501 -0.00000000000E+00  0.00000000000E+00  0.13311038874E+03  0.13311038874E+03  0.00000000000E+00 0.  1.
          1   -1    0    0  501    0  0.00000000000E+00 -0.00000000000E+00 -0.27298679915E+04  0.27298679915E+04  0.00000000000E+00 0. -1.
         23    2    1    2    0    0  0.32390329101E+00 -0.12879794355E+03 -0.11251419837E+04  0.11361011590E+04  0.90511572134E+02 0.  0.
        254    2    1    2    0    0 -0.32390329101E+00  0.12879794355E+03 -0.14716156190E+04  0.17268772213E+04  0.89435082155E+03 0.  0.
         23    2    4    4    0    0  0.12511485396E+02  0.16745134507E+03 -0.15734055626E+04  0.15849429701E+04  0.90789117508E+02 0.  0.
         23    2    4    4    0    0 -0.12835388687E+02 -0.38653401526E+02  0.10178994356E+03  0.14193425117E+03  0.90140481437E+02 0.  0.
          1    1    3    3  502    0 -0.33653465843E+02 -0.34329437039E+02 -0.56435097530E+03  0.56639481754E+03  0.00000000000E+00 0. -1.
         -1    1    3    3    0  502  0.33977369134E+02 -0.94468506508E+02 -0.56079100841E+03  0.56970634142E+03  0.00000000000E+00 0.  1.
         11    1    5    5    0    0 -0.18688431733E+02  0.13165732925E+03 -0.13507973149E+04  0.13573268935E+04  0.00000000000E+00 0. -1.
        -11    1    5    5    0    0  0.31199917128E+02  0.35794015821E+02 -0.22260824770E+03  0.22761607663E+03  0.00000000000E+00 0.  1.
          1    1    6    6  503    0 -0.23468160745E+02 -0.64086611605E+02  0.87238952416E+02  0.11076318510E+03  0.00000000000E+00 0. -1.
         -1    1    6    6    0  503  0.10632772058E+02  0.25433210079E+02  0.14550991144E+02  0.31171066068E+02  0.00000000000E+00 0.  1.
<mgrwt>
<rscale>  0 0.12056099E+04</rscale>
<asrwt>0</asrwt>
<pdfrwt beam="1">  1        1 0.41997967E+00 0.12056099E+04</pdfrwt>
<pdfrwt beam="2">  1       -1 0.20478522E-01 0.12056099E+04</pdfrwt>
<totfact> 0.18345522E+01</totfact>
</mgrwt>
</event>
<event>
12    2  0.3623523E-008  0.1137731E+04  0.7818608E-02  0.9169177E-01
          1   -1    0    0  501    0  0.00000000000E+00  0.00000000000E+00  0.28423891885E+04  0.28423891885E+04  0.00000000000E+00 0. -1.
         -1   -1    0    0    0  501 -0.00000000000E+00 -0.00000000000E+00 -0.11385077553E+03  0.11385077553E+03  0.00000000000E+00 0.  1.
         23    2    1    2    0    0  0.17614607078E+01  0.17465787796E+03  0.77944512928E+03  0.80355391995E+03  0.87496946379E+02 0.  0.
        254    2    1    2    0    0 -0.17614607078E+01 -0.17465787796E+03  0.19490932837E+04  0.21526860441E+04  0.89698611963E+03 0.  0.
         23    2    4    4    0    0  0.23156887603E+03 -0.43016744695E+03  0.14952225194E+04  0.15757482418E+04  0.92865291739E+02 0.  0.
         23    2    4    4    0    0 -0.23333033674E+03  0.25550956900E+03  0.45387076430E+03  0.57693780225E+03  0.84441524651E+02 0.  0.
          4    1    3    3  502    0  0.14876103679E+02  0.17999710320E+03  0.70450678979E+03  0.72728953827E+03  0.00000000000E+00 0. -1.
         -4    1    3    3    0  502 -0.13114642971E+02 -0.53392252424E+01  0.74938339492E+02  0.76264381675E+02  0.00000000000E+00 0.  1.
         11    1    5    5    0    0  0.66483811761E+02 -0.76363117432E+02  0.22175386353E+03  0.24377489395E+03  0.00000000000E+00 0.  1.
        -11    1    5    5    0    0  0.16508506427E+03 -0.35380432952E+03  0.12734686558E+04  0.13319733479E+04  0.00000000000E+00 0. -1.
          4    1    6    6  503    0 -0.22377711032E+03  0.22487942799E+03  0.37143553917E+03  0.48847856861E+03  0.00000000000E+00 0. -1.
         -4    1    6    6    0  503 -0.95532264205E+01  0.30630141006E+02  0.82435225130E+02  0.88459233636E+02  0.00000000000E+00 0.  1.
<mgrwt>
<rscale>  0 0.11377315E+04</rscale>
<asrwt>0</asrwt>
<pdfrwt beam="1">  1        1 0.43729059E+00 0.11377315E+04</pdfrwt>
<pdfrwt beam="2">  1       -1 0.17515506E-01 0.11377315E+04</pdfrwt>
<totfact> 0.19962954E+01</totfact>
</mgrwt>
</event>
<event>
12    2  0.3623523E-008  0.1823709E+04  0.7818608E-02  0.8693792E-01
         -2   -1    0    0    0  501 -0.00000000000E+00  0.00000000000E+00  0.11538387802E+04  0.11538387802E+04  0.00000000000E+00 0.  1.
          2   -1    0    0  501    0  0.00000000000E+00 -0.00000000000E+00 -0.72061904817E+03  0.72061904817E+03  0.00000000000E+00 0. -1.
         23    2    1    2    0    0 -0.21265285369E+03  0.33449954403E+03  0.75405397620E+03  0.85685553197E+03  0.92156510971E+02 0.  0.
        254    2    1    2    0    0  0.21265285369E+03 -0.33449954403E+03 -0.32083424420E+03  0.10176022964E+04  0.88060697261E+03 0.  0.
         23    2    4    4    0    0  0.40663810014E+03 -0.35299614144E+03  0.90548791560E+02  0.55341367362E+03  0.90037715101E+02 0.  0.
         23    2    4    4    0    0 -0.19398524645E+03  0.18496597409E+02 -0.41138303576E+03  0.46418862276E+03  0.90899259794E+02 0.  0.
          2    1    3    3  502    0 -0.86946386124E+01 -0.41474611066E+01  0.34927573759E+02  0.36231665472E+02  0.00000000000E+00 0. -1.
         -2    1    3    3    0  502 -0.20395821508E+03  0.33864700513E+03  0.71912640244E+03  0.82062386650E+03  0.00000000000E+00 0.  1.
         11    1    5    5    0    0  0.12022413458E+03 -0.54126731884E+02  0.16197656985E+02  0.13283790774E+03  0.00000000000E+00 0. -1.
        -11    1    5    5    0    0  0.28641396555E+03 -0.29886940955E+03  0.74351134576E+02  0.42057576588E+03  0.00000000000E+00 0.  1.
          3    1    6    6  503    0 -0.16217402811E+03 -0.94285099484E+01 -0.25640554414E+03  0.30353437245E+03  0.00000000000E+00 0. -1.
         -3    1    6    6    0  503 -0.31811218341E+02  0.27925107358E+02 -0.15497749162E+03  0.16065425031E+03  0.00000000000E+00 0.  1.
<mgrwt>
<rscale>  0 0.18237085E+04</rscale>
<asrwt>0</asrwt>
<pdfrwt beam="1">  1        2 0.11086447E+00 0.18237085E+04</pdfrwt>
<pdfrwt beam="2">  1       -2 0.17751366E+00 0.18237085E+04</pdfrwt>
<totfact> 0.70151957E+00</totfact>
</mgrwt>
</event>
<event>
12    2  0.3623523E-008  0.1900131E+04  0.7818608E-02  0.8654791E-01
         -1   -1    0    0    0  501 -0.00000000000E+00  0.00000000000E+00  0.29704475331E+03  0.29704475331E+03  0.00000000000E+00 0.  1.
          1   -1    0    0  501    0  0.00000000000E+00 -0.00000000000E+00 -0.30386823111E+04  0.30386823111E+04  0.00000000000E+00 0. -1.
         23    2    1    2    0    0  0.40289124837E+03  0.56037788883E+03 -0.10679261738E+04  0.12748754472E+04  0.92175685380E+02 0.  0.
        254    2    1    2    0    0 -0.40289124837E+03 -0.56037788883E+03 -0.16737113840E+04  0.20608516172E+04  0.98460898577E+03 0.  0.
         23    2    4    4    0    0 -0.45019361896E+03 -0.51778942107E+03 -0.17814893374E+04  0.19111282793E+04  0.89032924254E+02 0.  0.
         23    2    4    4    0    0  0.47302370591E+02 -0.42588467759E+02  0.10777795334E+03  0.14972333793E+03  0.82156550840E+02 0.  0.
          1    1    3    3  502    0  0.26642906048E+03  0.31209617995E+03 -0.68555492785E+03  0.79898312179E+03  0.00000000000E+00 0. -1.
         -1    1    3    3    0  502  0.13646218788E+03  0.24828170887E+03 -0.38237124594E+03  0.47589232543E+03  0.00000000000E+00 0.  1.
         11    1    5    5    0    0 -0.42864388575E+03 -0.45388948320E+03 -0.16193182119E+04  0.17354949482E+04  0.00000000000E+00 0. -1.
        -11    1    5    5    0    0 -0.21549733208E+02 -0.63899937864E+02 -0.16217112548E+03  0.17563333112E+03  0.00000000000E+00 0.  1.
          3    1    6    6  503    0  0.57996345129E+02 -0.42236931312E+02  0.11588648865E+03  0.13629824895E+03  0.00000000000E+00 0. -1.
         -3    1    6    6    0  503 -0.10693974539E+02 -0.35153644712E+00 -0.81085353108E+01  0.13425088983E+02  0.00000000000E+00 0.  1.
<mgrwt>
<rscale>  0 0.19001312E+04</rscale>
<asrwt>0</asrwt>
<pdfrwt beam="1">  1        1 0.46748958E+00 0.19001312E+04</pdfrwt>
<pdfrwt beam="2">  1       -1 0.45699193E-01 0.19001312E+04</pdfrwt>
<totfact> 0.24995485E+00</totfact>
</mgrwt>
</event>
<event>
12    2  0.3623523E-008  0.2105131E+04  0.7818608E-02  0.8558986E-01
         -2   -1    0    0    0  501 -0.00000000000E+00  0.00000000000E+00  0.25940438858E+03  0.25940438858E+03  0.00000000000E+00 0.  1.
          2   -1    0    0  501    0  0.00000000000E+00 -0.00000000000E+00 -0.42709161782E+04  0.42709161782E+04  0.00000000000E+00 0. -1.
         23    2    1    2    0    0 -0.25819667326E+03  0.43400496566E+03 -0.29763982911E+04  0.30203262231E+04  0.91639918097E+02 0.  0.
        254    2    1    2    0    0  0.25819667326E+03 -0.43400496566E+03 -0.10351134985E+04  0.15099943437E+04  0.97652298014E+03 0.  0.
         23    2    4    4    0    0  0.34685467350E+02  0.59635481516E+01 -0.10022802579E+04  0.10071501282E+04  0.92450093534E+02 0.  0.
         23    2    4    4    0    0  0.22351120591E+03 -0.43996851381E+03 -0.32833240657E+02  0.50284421549E+03  0.90800501375E+02 0.  0.
          4    1    3    3  502    0 -0.20357209060E+03  0.36593787928E+03 -0.22430703474E+04  0.22818231113E+04  0.00000000000E+00 0. -1.
         -4    1    3    3    0  502 -0.54624582652E+02  0.68067086376E+02 -0.73332794367E+03  0.73850311188E+03  0.00000000000E+00 0.  1.
         11    1    5    5    0    0  0.17163433390E+02  0.15543202077E+02 -0.96114374176E+03  0.96142262659E+03  0.00000000000E+00 0. -1.
        -11    1    5    5    0    0  0.17522033960E+02 -0.95796539255E+01 -0.41136516104E+02  0.45727501578E+02  0.00000000000E+00 0.  1.
          4    1    6    6  503    0  0.18019313057E+03 -0.39342049289E+03 -0.53421666480E+02  0.43600816848E+03  0.00000000000E+00 0. -1.
         -4    1    6    6    0  503  0.43318075335E+02 -0.46548020925E+02  0.20588425824E+02  0.66836047015E+02  0.00000000000E+00 0.  1.
<mgrwt>
<rscale>  0 0.21051313E+04</rscale>
<asrwt>0</asrwt>
<pdfrwt beam="1">  1        2 0.65706398E+00 0.21051313E+04</pdfrwt>
<pdfrwt beam="2">  1       -2 0.39908370E-01 0.21051313E+04</pdfrwt>
<totfact> 0.11148875E+00</totfact>
</mgrwt>
</event>
<event>
12    2  0.3623523E-008  0.3428060E+04  0.7818608E-02  0.8131054E-01
         -2   -1    0    0    0  501 -0.00000000000E+00  0.00000000000E+00  0.11999031270E+04  0.11999031270E+04  0.00000000000E+00 0.  1.
          2   -1    0    0  501    0  0.00000000000E+00 -0.00000000000E+00 -0.24484462853E+04  0.24484462853E+04  0.00000000000E+00 0. -1.
         23    2    1    2    0    0 -0.36678074194E+03  0.50502343869E+03  0.98571530682E+03  0.11705958965E+04  0.95306350880E+02 0.  0.
        254    2    1    2    0    0  0.36678074194E+03 -0.50502343869E+03 -0.22342584651E+04  0.24777535158E+04  0.87050261929E+03 0.  0.
         23    2    4    4    0    0 -0.16757863729E+03 -0.32024792617E+02 -0.12136254558E+04  0.12289535280E+04  0.91278912872E+02 0.  0.
         23    2    4    4    0    0  0.53435937923E+03 -0.47299864608E+03 -0.10206330093E+04  0.12487999878E+04  0.92422966292E+02 0.  0.
          3    1    3    3  502    0 -0.12000198283E+03  0.21296547773E+03  0.31724820830E+03  0.40050118135E+03  0.00000000000E+00 0. -1.
         -3    1    3    3    0  502 -0.24677875910E+03  0.29205796096E+03  0.66846709852E+03  0.77009471515E+03  0.00000000000E+00 0.  1.
         11    1    5    5    0    0 -0.16696824119E+03 -0.88393532940E+01 -0.11243568601E+04  0.11367211076E+04  0.00000000000E+00 0. -1.
        -11    1    5    5    0    0 -0.61039610345E+00 -0.23185439323E+02 -0.89268595744E+02  0.92232420364E+02  0.00000000000E+00 0.  1.
          1    1    6    6  503    0  0.45649727671E+03 -0.38860026532E+03 -0.79581052244E+03  0.99635049931E+03  0.00000000000E+00 0. -1.
         -1    1    6    6    0  503  0.77862102519E+02 -0.84398380751E+02 -0.22482248681E+03  0.25244948853E+03  0.00000000000E+00 0.  1.
<mgrwt>
<rscale>  0 0.34280597E+04</rscale>
<asrwt>0</asrwt>
<pdfrwt beam="1">  1        2 0.37668404E+00 0.34280597E+04</pdfrwt>
<pdfrwt beam="2">  1       -2 0.18460048E+00 0.34280597E+04</pdfrwt>
<totfact> 0.51955343E-01</totfact>
</mgrwt>
</event>
<event>
12    2  0.3623523E-008  0.1504525E+04  0.7818608E-02  0.8881449E-01
          1   -1    0    0  501    0  0.00000000000E+00  0.00000000000E+00  0.29864423808E+04  0.29864423808E+04  0.00000000000E+00 0. -1.
         -1   -1    0    0    0  501 -0.00000000000E+00 -0.00000000000E+00 -0.18948936029E+03  0.18948936029E+03  0.00000000000E+00 0.  1.
         23    2    1    2    0    0  0.16325696713E+02 -0.19930085554E+02  0.19165588429E+04  0.19188184897E+04  0.89458712607E+02 0.  0.
        254    2    1    2    0    0 -0.16325696713E+02  0.19930085554E+02  0.88039417760E+03  0.12571132514E+04  0.89698165102E+03 0.  0.
         23    2    4    4    0    0 -0.43813538575E+03  0.77103743894E+02  0.53423153583E+03  0.70156975026E+03  0.94282432275E+02 0.  0.
         23    2    4    4    0    0  0.42180968904E+03 -0.57173658340E+02  0.34616264177E+03  0.55554350116E+03  0.87222509410E+02 0.  0.
          3    1    3    3  502    0 -0.32315856620E+02  0.43733286463E+01  0.41659693610E+03  0.41787132920E+03  0.00000000000E+00 0.  1.
         -3    1    3    3    0  502  0.48641553333E+02 -0.24303414200E+02  0.14999619068E+04  0.15009471605E+04  0.00000000000E+00 0. -1.
         11    1    5    5    0    0 -0.13941005534E+02 -0.11878553329E+02  0.41340138847E+02  0.45215691352E+02  0.00000000000E+00 0. -1.
        -11    1    5    5    0    0 -0.42419438022E+03  0.88982297223E+02  0.49289139698E+03  0.65635405891E+03  0.00000000000E+00 0.  1.
          2    1    6    6  503    0  0.15193115724E+02 -0.91482709799E+01  0.41677494066E+02  0.45293875292E+02  0.00000000000E+00 0. -1.
         -2    1    6    6    0  503  0.40661657332E+03 -0.48025387360E+02  0.30448514770E+03  0.51024962587E+03  0.00000000000E+00 0.  1.
<mgrwt>
<rscale>  0 0.15045252E+04</rscale>
<asrwt>0</asrwt>
<pdfrwt beam="1">  1        1 0.45945264E+00 0.15045252E+04</pdfrwt>
<pdfrwt beam="2">  1       -1 0.29152211E-01 0.15045252E+04</pdfrwt>
<totfact> 0.63836666E+00</totfact>
</mgrwt>
</event>
<event>
12    2  0.3623523E-008  0.1739558E+04  0.7818608E-02  0.8739119E-01
         -1   -1    0    0    0  501 -0.00000000000E+00  0.00000000000E+00  0.54409465216E+03  0.54409465216E+03  0.00000000000E+00 0.  1.
          1   -1    0    0  501    0  0.00000000000E+00 -0.00000000000E+00 -0.13904114046E+04  0.13904114046E+04  0.00000000000E+00 0. -1.
         23    2    1    2    0    0  0.36194455804E+03 -0.65053904234E+02 -0.88821335370E+03  0.96579804709E+03  0.92774094063E+02 0.  0.
        254    2    1    2    0    0 -0.36194455804E+03  0.65053904234E+02  0.41896601224E+02  0.96870800970E+03  0.89521171201E+03 0.  0.
         23    2    4    4    0    0 -0.28064872057E+03 -0.10810088771E+02  0.44855886396E+03  0.53693762504E+03  0.90644339964E+02 0.  0.
         23    2    4    4    0    0 -0.81295837466E+02  0.75863993005E+02 -0.40666226274E+03  0.43177038466E+03  0.93204670004E+02 0.  0.
          3    1    3    3  502    0  0.50381602716E+02 -0.28339078009E+02 -0.22220484637E+03  0.22960052915E+03  0.00000000000E+00 0. -1.
         -3    1    3    3    0  502  0.31156295532E+03 -0.36714826226E+02 -0.66600850733E+03  0.73619751795E+03  0.00000000000E+00 0.  1.
         11    1    5    5    0    0 -0.12572218604E+02  0.10988823940E+02  0.37170734150E+01  0.17106477340E+02  0.00000000000E+00 0.  1.
        -11    1    5    5    0    0 -0.26807650197E+03 -0.21798912711E+02  0.44484179055E+03  0.51983114770E+03  0.00000000000E+00 0. -1.
          2    1    6    6  503    0 -0.81924133177E+02  0.17928105042E+02 -0.19386575248E+03  0.21122715387E+03  0.00000000000E+00 0. -1.
         -2    1    6    6    0  503  0.62829571096E+00  0.57935887963E+02 -0.21279651026E+03  0.22054323079E+03  0.00000000000E+00 0.  1.
<mgrwt>
<rscale>  0 0.17395579E+04</rscale>
<asrwt>0</asrwt>
<pdfrwt beam="1">  1        1 0.21390944E+00 0.17395579E+04</pdfrwt>
<pdfrwt beam="2">  1       -1 0.83706871E-01 0.17395579E+04</pdfrwt>
<totfact> 0.10474803E+01</totfact>
</mgrwt>
</event>
<event>
12    2  0.3623523E-008  0.3140087E+04  0.7818608E-02  0.8204822E-01
         -2   -1    0    0    0  501 -0.00000000000E+00  0.00000000000E+00  0.57166900155E+03  0.57166900155E+03  0.00000000000E+00 0.  1.
          2   -1    0    0  501    0  0.00000000000E+00 -0.00000000000E+00 -0.43120004426E+04  0.43120004426E+04  0.00000000000E+00 0. -1.
         23    2    1    2    0    0 -0.10995043794E+04 -0.91228016769E+03 -0.14747971566E+04  0.20553705452E+04  0.91413565113E+02 0.  0.
        254    2    1    2    0    0  0.10995043794E+04  0.91228016769E+03 -0.22655342844E+04  0.28282988990E+04  0.90855053984E+03 0.  0.
         23    2    4    4    0    0  0.10658030101E+04  0.37108801365E+03 -0.13694593236E+04  0.17769094369E+04  0.91356104200E+02 0.  0.
         23    2    4    4    0    0  0.33701369390E+02  0.54119215404E+03 -0.89607496078E+03  0.10513894621E+04  0.91895243426E+02 0.  0.
          3    1    3    3  502    0 -0.35396941333E+03 -0.29261094002E+03 -0.41384714963E+03  0.61821110557E+03  0.00000000000E+00 0. -1.
         -3    1    3    3    0  502 -0.74553496612E+03 -0.61966922767E+03 -0.10609500070E+04  0.14371594396E+04  0.00000000000E+00 0.  1.
         11    1    5    5    0    0  0.51591792624E+02  0.22121183028E+02 -0.41006050840E+02  0.69516588022E+02  0.00000000000E+00 0. -1.
        -11    1    5    5    0    0  0.10142112174E+04  0.34896683063E+03 -0.13284532728E+04  0.17073928489E+04  0.00000000000E+00 0.  1.
          1    1    6    6  503    0  0.34876271128E+02  0.12548276763E+03 -0.16293618320E+03  0.20859165624E+03  0.00000000000E+00 0. -1.
         -1    1    6    6    0  503 -0.11749017386E+01  0.41570938641E+03 -0.73313877758E+03  0.84279780585E+03  0.00000000000E+00 0.  1.
<mgrwt>
<rscale>  0 0.31400873E+04</rscale>
<asrwt>0</asrwt>
<pdfrwt beam="1">  1        2 0.66338467E+00 0.31400873E+04</pdfrwt>
<pdfrwt beam="2">  1       -2 0.87949079E-01 0.31400873E+04</pdfrwt>
<totfact> 0.17415459E-01</totfact>
</mgrwt>
</event>
<event>
12    2  0.3623523E-008  0.2213601E+04  0.7818608E-02  0.8512788E-01
          2   -1    0    0  501    0  0.00000000000E+00  0.00000000000E+00  0.23587495830E+04  0.23587495830E+04  0.00000000000E+00 0. -1.
         -2   -1    0    0    0  501 -0.00000000000E+00 -0.00000000000E+00 -0.51934601351E+03  0.51934601351E+03  0.00000000000E+00 0.  1.
         23    2    1    2    0    0 -0.23295324021E+03 -0.86653261859E+03  0.12647980542E+04  0.15533592381E+04  0.89804305837E+02 0.  0.
        254    2    1    2    0    0  0.23295324021E+03  0.86653261859E+03  0.57460551528E+03  0.13247363584E+04  0.78715241853E+03 0.  0.
         23    2    4    4    0    0 -0.12545462227E+03  0.80255284105E+03  0.40683781576E+03  0.91369842813E+03  0.97457089636E+02 0.  0.
         23    2    4    4    0    0  0.35840786248E+03  0.63979777543E+02  0.16776769952E+03  0.41103793031E+03  0.90865677417E+02 0.  0.
          3    1    3    3  502    0 -0.12390651812E+02 -0.67513512207E+02  0.14220155866E+03  0.15790150686E+03  0.00000000000E+00 0. -1.
         -3    1    3    3    0  502 -0.22056258840E+03 -0.79901910638E+03  0.11225964956E+04  0.13954577312E+04  0.00000000000E+00 0.  1.
         11    1    5    5    0    0 -0.21514063110E+02  0.39061898720E+03  0.22751781178E+03  0.45255983334E+03  0.00000000000E+00 0. -1.
        -11    1    5    5    0    0 -0.10394055916E+03  0.41193385385E+03  0.17932000398E+03  0.46113859480E+03  0.00000000000E+00 0.  1.
          3    1    6    6  503    0  0.39056869436E+02  0.38172116210E+02  0.29659391680E+02  0.62146834360E+02  0.00000000000E+00 0. -1.
         -3    1    6    6    0  503  0.31935099304E+03  0.25807661333E+02  0.13810830784E+03  0.34889109595E+03  0.00000000000E+00 0.  1.
<mgrwt>
<rscale>  0 0.22136009E+04</rscale>
<asrwt>0</asrwt>
<pdfrwt beam="1">  1        2 0.36288455E+00 0.22136009E+04</pdfrwt>
<pdfrwt beam="2">  1       -2 0.79899388E-01 0.22136009E+04</pdfrwt>
<totfact> 0.53123005E+00</totfact>
</mgrwt>
</event>
<event>
12    2  0.3623523E-008  0.1760556E+04  0.7818608E-02  0.8727561E-01
         -2   -1    0    0    0  501 -0.00000000000E+00  0.00000000000E+00  0.67859286457E+03  0.67859286457E+03  0.00000000000E+00 0.  1.
          2   -1    0    0  501    0  0.00000000000E+00 -0.00000000000E+00 -0.11419056130E+04  0.11419056130E+04  0.00000000000E+00 0. -1.
         23    2    1    2    0    0  0.42515718670E+03  0.24285985818E+03 -0.61680815933E+03  0.79266019342E+03  0.90101790828E+02 0.  0.
        254    2    1    2    0    0 -0.42515718670E+03 -0.24285985818E+03  0.15349541086E+03  0.10278382842E+04  0.89059033970E+03 0.  0.
         23    2    4    4    0    0  0.11247369660E+03 -0.41540514197E+03  0.23734965932E+02  0.44031986830E+03  0.90035956183E+02 0.  0.
         23    2    4    4    0    0 -0.53763088330E+03  0.17254528380E+03  0.12976044493E+03  0.58751841589E+03  0.97577017294E+02 0.  0.
          2    1    3    3  502    0  0.36677603556E+02 -0.34716270371E+01 -0.33472515463E+02  0.49776581726E+02  0.00000000000E+00 0.  1.
         -2    1    3    3    0  502  0.38847958314E+03  0.24633148521E+03 -0.58333564386E+03  0.74288361170E+03  0.00000000000E+00 0. -1.
         11    1    5    5    0    0 -0.10843014744E+02 -0.31301942347E+02 -0.12216965302E+02  0.35307744258E+02  0.00000000000E+00 0. -1.
        -11    1    5    5    0    0  0.12331671135E+03 -0.38410319962E+03  0.35951931234E+02  0.40501212404E+03  0.00000000000E+00 0.  1.
          2    1    6    6  503    0 -0.18694536412E+03  0.56130963604E+02  0.92932545084E+02  0.21618444018E+03  0.00000000000E+00 0. -1.
         -2    1    6    6    0  503 -0.35068551918E+03  0.11641432019E+03  0.36827899844E+02  0.37133397571E+03  0.00000000000E+00 0.  1.
<mgrwt>
<rscale>  0 0.17605556E+04</rscale>
<asrwt>0</asrwt>
<pdfrwt beam="1">  1        2 0.17567779E+00 0.17605556E+04</pdfrwt>
<pdfrwt beam="2">  1       -2 0.10439890E+00 0.17605556E+04</pdfrwt>
<totfact> 0.14495587E+01</totfact>
</mgrwt>
</event>
<event>
12    2  0.3623523E-008  0.2320352E+04  0.7818608E-02  0.8469940E-01
          2   -1    0    0  501    0  0.00000000000E+00  0.00000000000E+00  0.22174434076E+04  0.22174434076E+04  0.00000000000E+00 0. -1.
         -2   -1    0    0    0  501 -0.00000000000E+00 -0.00000000000E+00 -0.60700908582E+03  0.60700908582E+03  0.00000000000E+00 0.  1.
         23    2    1    2    0    0 -0.59075995037E+03  0.62756203266E+03  0.12627393348E+04  0.15314183815E+04  0.88883111584E+02 0.  0.
        254    2    1    2    0    0  0.59075995037E+03 -0.62756203266E+03  0.34769498697E+03  0.12930341120E+04  0.89900722300E+03 0.  0.
         23    2    4    4    0    0  0.48607810076E+03 -0.21214420896E+03  0.58408808397E+03  0.79493142083E+03  0.97365232766E+02 0.  0.
         23    2    4    4    0    0  0.10468184961E+03 -0.41541782370E+03 -0.23639309700E+03  0.49810269116E+03  0.93243427367E+02 0.  0.
          2    1    3    3  502    0 -0.40013560860E+03  0.43060080774E+03  0.78586173045E+03  0.98137873437E+03  0.00000000000E+00 0. -1.
         -2    1    3    3    0  502 -0.19062434177E+03  0.19696122492E+03  0.47687760439E+03  0.55003964709E+03  0.00000000000E+00 0.  1.
         11    1    5    5    0    0  0.40944293063E+03 -0.13751118421E+03  0.47901050512E+03  0.64498364572E+03  0.00000000000E+00 0. -1.
        -11    1    5    5    0    0  0.76635170122E+02 -0.74633024749E+02  0.10507757885E+03  0.14994777511E+03  0.00000000000E+00 0.  1.
          1    1    6    6  503    0  0.61468697837E+02 -0.36641936696E+03 -0.21549028266E+03  0.42950857409E+03  0.00000000000E+00 0. -1.
         -1    1    6    6    0  503  0.43213151778E+02 -0.48998456742E+02 -0.20902814343E+02  0.68594117074E+02  0.00000000000E+00 0.  1.
<mgrwt>
<rscale>  0 0.23203520E+04</rscale>
<asrwt>0</asrwt>
<pdfrwt beam="1">  1        2 0.34114514E+00 0.23203520E+04</pdfrwt>
<pdfrwt beam="2">  1       -2 0.93386014E-01 0.23203520E+04</pdfrwt>
<totfact> 0.44317894E+00</totfact>
</mgrwt>
</event>
<event>
12    2  0.3623523E-008  0.1552226E+04  0.7818608E-02  0.8850447E-01
         -2   -1    0    0    0  501 -0.00000000000E+00  0.00000000000E+00  0.42905748354E+03  0.42905748354E+03  0.00000000000E+00 0.  1.
          2   -1    0    0  501    0  0.00000000000E+00 -0.00000000000E+00 -0.14038946813E+04  0.14038946813E+04  0.00000000000E+00 0. -1.
         23    2    1    2    0    0  0.39949727118E+03 -0.32124311524E+03 -0.70912313883E+03  0.87980211952E+03  0.91656613143E+02 0.  0.
        254    2    1    2    0    0 -0.39949727118E+03  0.32124311524E+03 -0.26571405895E+03  0.95315004534E+03  0.75835073617E+03 0.  0.
         23    2    4    4    0    0 -0.60554597428E+03  0.30781363552E+03 -0.23211643544E+03  0.72364411227E+03  0.91365203720E+02 0.  0.
         23    2    4    4    0    0  0.20604870310E+03  0.13429479726E+02 -0.33597623514E+02  0.22950593307E+03  0.94380898675E+02 0.  0.
          3    1    3    3  502    0  0.37393335429E+03 -0.31861279538E+03 -0.69300040858E+03  0.84946443900E+03  0.00000000000E+00 0. -1.
         -3    1    3    3    0  502  0.25563916883E+02 -0.26303198598E+01 -0.16122730245E+02  0.30337680523E+02  0.00000000000E+00 0.  1.
         11    1    5    5    0    0 -0.49134898058E+03  0.25941855064E+03 -0.22486238620E+03  0.59940378532E+03  0.00000000000E+00 0.  1.
        -11    1    5    5    0    0 -0.11419699370E+03  0.48395084881E+02 -0.72540492401E+01  0.12424032695E+03  0.00000000000E+00 0. -1.
          2    1    6    6  503    0  0.14701407771E+03  0.20928442997E+02  0.19476057268E+02  0.14976800586E+03  0.00000000000E+00 0.  1.
         -2    1    6    6    0  503  0.59034625390E+02 -0.74989632706E+01 -0.53073680782E+02  0.79737927217E+02  0.00000000000E+00 0. -1.
<mgrwt>
<rscale>  0 0.15522262E+04</rscale>
<asrwt>0</asrwt>
<pdfrwt beam="1">  1        2 0.21598380E+00 0.15522262E+04</pdfrwt>
<pdfrwt beam="2">  1       -2 0.66008844E-01 0.15522262E+04</pdfrwt>
<totfact> 0.29258701E+01</totfact>
</mgrwt>
</event>
<event>
12    2  0.3623523E-008  0.2274040E+04  0.7818608E-02  0.8488228E-01
          1   -1    0    0  501    0  0.00000000000E+00  0.00000000000E+00  0.10660059901E+04  0.10660059901E+04  0.00000000000E+00 0. -1.
         -1   -1    0    0    0  501 -0.00000000000E+00 -0.00000000000E+00 -0.12127645806E+04  0.12127645806E+04  0.00000000000E+00 0.  1.
         23    2    1    2    0    0 -0.21400284393E+03 -0.70462374857E+03 -0.67712555054E+03  0.10042746990E+04  0.88186254565E+02 0.  0.
        254    2    1    2    0    0  0.21400284393E+03  0.70462374857E+03  0.53036696008E+03  0.12744958718E+04  0.89485125612E+03 0.  0.
         23    2    4    4    0    0  0.11526808897E+02  0.84609722913E+03  0.24433226589E+03  0.88524190878E+03  0.89115612777E+02 0.  0.
         23    2    4    4    0    0  0.20247603504E+03 -0.14147348055E+03  0.28603469419E+03  0.38925396301E+03  0.93228273474E+02 0.  0.
          4    1    3    3  502    0 -0.63322456292E+02 -0.17791695131E+03 -0.22662433171E+03  0.29499620804E+03  0.00000000000E+00 0.  1.
         -4    1    3    3    0  502 -0.15068038764E+03 -0.52670679726E+03 -0.45050121883E+03  0.70927849091E+03  0.00000000000E+00 0. -1.
         11    1    5    5    0    0  0.10034780194E+02  0.84071615699E+01  0.23513354338E+01  0.13300599893E+02  0.00000000000E+00 0.  1.
        -11    1    5    5    0    0  0.14920287037E+01  0.83769006756E+03  0.24198093045E+03  0.87194130888E+03  0.00000000000E+00 0. -1.
          3    1    6    6  503    0  0.12050590000E+03 -0.34989998618E+02  0.17262918560E+03  0.21341698072E+03  0.00000000000E+00 0. -1.
         -3    1    6    6    0  503  0.81970135032E+02 -0.10648348193E+03  0.11340550859E+03  0.17583698229E+03  0.00000000000E+00 0.  1.
<mgrwt>
<rscale>  0 0.22740398E+04</rscale>
<asrwt>0</asrwt>
<pdfrwt beam="1">  1        1 0.16400092E+00 0.22740398E+04</pdfrwt>
<pdfrwt beam="2">  1       -1 0.18657917E+00 0.22740398E+04</pdfrwt>
<totfact> 0.22767374E+00</totfact>
</mgrwt>
</event>
<event>
12    2  0.3623523E-008  0.1705014E+04  0.7818608E-02  0.8758510E-01
          1   -1    0    0  501    0  0.00000000000E+00  0.00000000000E+00  0.78685019785E+03  0.78685019785E+03  0.00000000000E+00 0. -1.
         -1   -1    0    0    0  501 -0.00000000000E+00 -0.00000000000E+00 -0.92364220327E+03  0.92364220327E+03  0.00000000000E+00 0.  1.
         23    2    1    2    0    0  0.45350638078E+03 -0.94947234760E+02  0.37627714616E+03  0.60410080560E+03  0.93114326522E+02 0.  0.
        254    2    1    2    0    0 -0.45350638078E+03  0.94947234760E+02 -0.51306915158E+03  0.11063915955E+04  0.86381675924E+03 0.  0.
         23    2    4    4    0    0 -0.10175737454E+03  0.40422947765E+03 -0.45887840431E+03  0.62623346413E+03  0.88560305872E+02 0.  0.
         23    2    4    4    0    0 -0.35174900624E+03 -0.30928224289E+03 -0.54190747268E+02  0.48015813139E+03  0.90732160205E+02 0.  0.
          2    1    3    3  502    0  0.23224592431E+03 -0.26597287564E+02  0.24174150368E+03  0.33628044794E+03  0.00000000000E+00 0. -1.
         -2    1    3    3    0  502  0.22126045647E+03 -0.68349947196E+02  0.13453564249E+03  0.26782035766E+03  0.00000000000E+00 0.  1.
         11    1    5    5    0    0  0.13688449835E+01 -0.44489195639E+01 -0.51093677185E+01  0.69117479959E+01  0.00000000000E+00 0.  1.
        -11    1    5    5    0    0 -0.10312621953E+03  0.40867839722E+03 -0.45376903659E+03  0.61932171613E+03  0.00000000000E+00 0. -1.
          2    1    6    6  503    0 -0.26458894920E+03 -0.20182208883E+03 -0.34783124762E+01  0.33279357902E+03  0.00000000000E+00 0. -1.
         -2    1    6    6    0  503 -0.87160057039E+02 -0.10746015406E+03 -0.50712434792E+02  0.14736455238E+03  0.00000000000E+00 0.  1.
<mgrwt>
<rscale>  0 0.17050138E+04</rscale>
<asrwt>0</asrwt>
<pdfrwt beam="1">  1        1 0.12105388E+00 0.17050138E+04</pdfrwt>
<pdfrwt beam="2">  1       -1 0.14209880E+00 0.17050138E+04</pdfrwt>
<totfact> 0.87065958E+00</totfact>
</mgrwt>
</event>
<event>
12    2  0.3623523E-008  0.1535417E+04  0.7818608E-02  0.8861237E-01
         -1   -1    0    0    0  501 -0.00000000000E+00  0.00000000000E+00  0.52677682931E+03  0.52677682931E+03  0.00000000000E+00 0.  1.
          1   -1    0    0  501    0  0.00000000000E+00 -0.00000000000E+00 -0.11188352630E+04  0.11188352630E+04  0.00000000000E+00 0. -1.
         23    2    1    2    0    0  0.21650469617E+03  0.18610586444E+03  0.27083305262E+03  0.40368905967E+03  0.90025764452E+02 0.  0.
        254    2    1    2    0    0 -0.21650469617E+03 -0.18610586444E+03 -0.86289148628E+03  0.12419230326E+04  0.84633410989E+03 0.  0.
         23    2    4    4    0    0  0.28779781877E+03 -0.10181419767E+03 -0.12991876293E+03  0.34352408142E+03  0.89085319860E+02 0.  0.
         23    2    4    4    0    0 -0.50430251494E+03 -0.84291666767E+02 -0.73297272334E+03  0.89839895117E+03  0.91899677074E+02 0.  0.
          3    1    3    3  502    0  0.12038398755E+03  0.81802833058E+02  0.80524176188E+02  0.16633746092E+03  0.00000000000E+00 0. -1.
         -3    1    3    3    0  502  0.96120708618E+02  0.10430303138E+03  0.19030887644E+03  0.23735159875E+03  0.00000000000E+00 0.  1.
         11    1    5    5    0    0  0.87257080597E+02 -0.75745839176E+02 -0.53602214281E+02  0.12737514531E+03  0.00000000000E+00 0.  1.
        -11    1    5    5    0    0  0.20054073818E+03 -0.26068358493E+02 -0.76316548654E+02  0.21614893611E+03  0.00000000000E+00 0. -1.
          1    1    6    6  503    0 -0.50308830902E+03 -0.87799442746E+02 -0.70696319541E+03  0.87212587881E+03  0.00000000000E+00 0. -1.
         -1    1    6    6    0  503 -0.12142059167E+01  0.35077759786E+01 -0.26009527931E+02  0.26273072365E+02  0.00000000000E+00 0.  1.
<mgrwt>
<rscale>  0 0.15354172E+04</rscale>
<asrwt>0</asrwt>
<pdfrwt beam="1">  1        1 0.17212850E+00 0.15354172E+04</pdfrwt>
<pdfrwt beam="2">  1       -1 0.81042591E-01 0.15354172E+04</pdfrwt>
<totfact> 0.17963739E+01</totfact>
</mgrwt>
</event>
<event>
12    2  0.3623523E-008  0.2080167E+04  0.7818608E-02  0.8570031E-01
          1   -1    0    0  501    0  0.00000000000E+00  0.00000000000E+00  0.12781966506E+04  0.12781966506E+04  0.00000000000E+00 0. -1.
         -1   -1    0    0    0  501 -0.00000000000E+00 -0.00000000000E+00 -0.84632775169E+03  0.84632775169E+03  0.00000000000E+00 0.  1.
         23    2    1    2    0    0  0.66552284617E+03  0.41563687326E+03  0.49300027640E+03  0.93115420457E+03  0.91237113986E+02 0.  0.
        254    2    1    2    0    0 -0.66552284617E+03 -0.41563687326E+03 -0.61131377468E+02  0.11933701978E+04  0.89706226896E+03 0.  0.
         23    2    4    4    0    0 -0.56218821640E+03  0.10082578671E+03  0.18028381650E+03  0.60633191231E+03  0.94417707395E+02 0.  0.
         23    2    4    4    0    0 -0.10333462977E+03 -0.51646265996E+03 -0.24141519397E+03  0.58703828545E+03  0.94450663592E+02 0.  0.
          3    1    3    3  502    0  0.37514240313E+03  0.28684875460E+03  0.29053298764E+03  0.55445779601E+03  0.00000000000E+00 0. -1.
         -3    1    3    3    0  502  0.29038044304E+03  0.12878811865E+03  0.20246728877E+03  0.37669640856E+03  0.00000000000E+00 0.  1.
         11    1    5    5    0    0 -0.45353643693E+02 -0.17484861215E+02  0.12055270298E+02  0.50079965155E+02  0.00000000000E+00 0.  1.
        -11    1    5    5    0    0 -0.51683457270E+03  0.11831064792E+03  0.16822854620E+03  0.55625194715E+03  0.00000000000E+00 0. -1.
          3    1    6    6  503    0 -0.11098842545E+03 -0.33171219412E+03 -0.14702398754E+03  0.37943044584E+03  0.00000000000E+00 0. -1.
         -3    1    6    6    0  503  0.76537956812E+01 -0.18475046584E+03 -0.94391206428E+02  0.20760783961E+03  0.00000000000E+00 0.  1.
<mgrwt>
<rscale>  0 0.20801666E+04</rscale>
<asrwt>0</asrwt>
<pdfrwt beam="1">  1        1 0.19664564E+00 0.20801666E+04</pdfrwt>
<pdfrwt beam="2">  1       -1 0.13020427E+00 0.20801666E+04</pdfrwt>
<totfact> 0.43641319E+00</totfact>
</mgrwt>
</event>
<event>
12    2  0.3623523E-008  0.2337555E+04  0.7818608E-02  0.8463259E-01
         -1   -1    0    0    0  501 -0.00000000000E+00  0.00000000000E+00  0.11869313400E+04  0.11869313400E+04  0.00000000000E+00 0.  1.
          1   -1    0    0  501    0  0.00000000000E+00 -0.00000000000E+00 -0.11509010921E+04  0.11509010921E+04  0.00000000000E+00 0. -1.
         23    2    1    2    0    0  0.90715165399E+03  0.37710804955E+03  0.16470588036E+03  0.10003792196E+04  0.92173486802E+02 0.  0.
        254    2    1    2    0    0 -0.90715165399E+03 -0.37710804955E+03 -0.12867563245E+03  0.13374532125E+04  0.89838136274E+03 0.  0.
         23    2    4    4    0    0 -0.51766427776E+03 -0.17167712159E+03  0.37090161048E+03  0.66581811898E+03  0.91084709816E+02 0.  0.
         23    2    4    4    0    0 -0.38948737623E+03 -0.20543092795E+03 -0.49957724293E+03  0.67163509353E+03  0.87258207677E+02 0.  0.
          3    1    3    3  502    0  0.81728029340E+03  0.33485772047E+03  0.17549951055E+03  0.90048700665E+03  0.00000000000E+00 0. -1.
         -3    1    3    3    0  502  0.89871360588E+02  0.42250329080E+02 -0.10793630191E+02  0.99892212980E+02  0.00000000000E+00 0.  1.
         11    1    5    5    0    0 -0.49270118904E+03 -0.13921401311E+03  0.34324943183E+03  0.61640504182E+03  0.00000000000E+00 0. -1.
        -11    1    5    5    0    0 -0.24963088718E+02 -0.32463108481E+02  0.27652178650E+02  0.49413077163E+02  0.00000000000E+00 0.  1.
          4    1    6    6  503    0 -0.33801517016E+03 -0.15850605207E+03 -0.45657281637E+03  0.58977721256E+03  0.00000000000E+00 0. -1.
         -4    1    6    6    0  503 -0.51472206069E+02 -0.46924875883E+02 -0.43004426565E+02  0.81857880979E+02  0.00000000000E+00 0.  1.
<mgrwt>
<rscale>  0 0.23375548E+04</rscale>
<asrwt>0</asrwt>
<pdfrwt beam="1">  1        1 0.17706171E+00 0.23375548E+04</pdfrwt>
<pdfrwt beam="2">  1       -1 0.18260482E+00 0.23375548E+04</pdfrwt>
<totfact> 0.20861533E+00</totfact>
</mgrwt>
</event>
<event>
12    2  0.3623523E-008  0.2051060E+04  0.7818608E-02  0.8583114E-01
          2   -1    0    0  501    0  0.00000000000E+00  0.00000000000E+00  0.61507609218E+03  0.61507609218E+03  0.00000000000E+00 0. -1.
         -2   -1    0    0    0  501 -0.00000000000E+00 -0.00000000000E+00 -0.17098887807E+04  0.17098887807E+04  0.00000000000E+00 0.  1.
         23    2    1    2    0    0  0.96366849331E+02  0.54651357233E+03 -0.11424538806E+04  0.12734809950E+04  0.92678588372E+02 0.  0.
        254    2    1    2    0    0 -0.96366849331E+02 -0.54651357233E+03  0.47641192093E+02  0.10514838780E+04  0.89184360066E+03 0.  0.
         23    2    4    4    0    0  0.34584065637E+03 -0.40907697108E+03  0.16046528091E+03  0.56628165051E+03  0.89308865555E+02 0.  0.
         23    2    4    4    0    0 -0.44220750570E+03 -0.13743660125E+03 -0.11282408882E+03  0.48520222744E+03  0.90860492194E+02 0.  0.
          2    1    3    3  502    0  0.63574780696E+02  0.35153170877E+03 -0.83148878774E+03  0.90498060706E+03  0.00000000000E+00 0.  1.
         -2    1    3    3    0  502  0.32792068635E+02  0.19498186356E+03 -0.31096509290E+03  0.36850038791E+03  0.00000000000E+00 0. -1.
         11    1    5    5    0    0  0.28903359646E+03 -0.31660578965E+03  0.93549015048E+02  0.43878361882E+03  0.00000000000E+00 0.  1.
        -11    1    5    5    0    0  0.56807059905E+02 -0.92471181425E+02  0.66916265864E+02  0.12749803170E+03  0.00000000000E+00 0. -1.
          2    1    6    6  503    0 -0.25500459784E+02  0.19216377775E+01 -0.27591218383E+02  0.37619695278E+02  0.00000000000E+00 0. -1.
         -2    1    6    6    0  503 -0.41670704591E+03 -0.13935823902E+03 -0.85232870435E+02  0.44758253217E+03  0.00000000000E+00 0.  1.
<mgrwt>
<rscale>  0 0.20510599E+04</rscale>
<asrwt>0</asrwt>
<pdfrwt beam="1">  1        2 0.94627092E-01 0.20510599E+04</pdfrwt>
<pdfrwt beam="2">  1       -2 0.26305981E+00 0.20510599E+04</pdfrwt>
<totfact> 0.23793869E+00</totfact>
</mgrwt>
</event>
<event>
12    2  0.3623523E-008  0.2318396E+04  0.7818608E-02  0.8470703E-01
          2   -1    0    0  501    0  0.00000000000E+00  0.00000000000E+00  0.12688471294E+04  0.12688471294E+04  0.00000000000E+00 0.  1.
         -2   -1    0    0    0  501 -0.00000000000E+00 -0.00000000000E+00 -0.10590245925E+04  0.10590245925E+04  0.00000000000E+00 0. -1.
         23    2    1    2    0    0  0.67096838936E+03  0.18384238900E+03  0.78755009329E+03  0.10547522850E+04  0.90943002679E+02 0.  0.
        254    2    1    2    0    0 -0.67096838936E+03 -0.18384238900E+03 -0.57772755639E+03  0.12731194368E+04  0.89614026110E+03 0.  0.
         23    2    4    4    0    0 -0.75084501941E+03  0.11498185302E+03 -0.56385400698E+03  0.95043832042E+03  0.91720172461E+02 0.  0.
         23    2    4    4    0    0  0.79876630052E+02 -0.29882424203E+03 -0.13873549410E+02  0.32268111643E+03  0.90853859988E+02 0.  0.
          3    1    3    3  502    0  0.38724655523E+02 -0.89802144658E+01  0.57756472634E+02  0.70114572867E+02  0.00000000000E+00 0. -1.
         -3    1    3    3    0  502  0.63224373383E+03  0.19282260347E+03  0.72979362066E+03  0.98463771212E+03  0.00000000000E+00 0.  1.
         11    1    5    5    0    0 -0.44199456439E+02 -0.89035161654E+01 -0.16328199081E+02  0.47952837610E+02  0.00000000000E+00 0. -1.
        -11    1    5    5    0    0 -0.70664556297E+03  0.12388536919E+03 -0.54752580790E+03  0.90248548281E+03  0.00000000000E+00 0.  1.
          1    1    6    6  503    0  0.78216834664E+02 -0.14620371187E+03 -0.32348965173E+02  0.16893742669E+03  0.00000000000E+00 0. -1.
         -1    1    6    6    0  503  0.16597953886E+01 -0.15262053016E+03  0.18475415763E+02  0.15374368974E+03  0.00000000000E+00 0.  1.
<mgrwt>
<rscale>  0 0.23183963E+04</rscale>
<asrwt>0</asrwt>
<pdfrwt beam="1">  1        2 0.19520725E+00 0.23183963E+04</pdfrwt>
<pdfrwt beam="2">  1       -2 0.16292686E+00 0.23183963E+04</pdfrwt>
<totfact> 0.37415948E+00</totfact>
</mgrwt>
</event>
<event>
12    2  0.3623523E-008  0.2278448E+04  0.7818608E-02  0.8486467E-01
         -2   -1    0    0    0  501 -0.00000000000E+00  0.00000000000E+00  0.23033979302E+04  0.23033979302E+04  0.00000000000E+00 0.  1.
          2   -1    0    0  501    0  0.00000000000E+00 -0.00000000000E+00 -0.56344217871E+03  0.56344217871E+03  0.00000000000E+00 0. -1.
         23    2    1    2    0    0 -0.26139105960E+03  0.60545996634E+03  0.16098120188E+04  0.17419408317E+04  0.89196794826E+02 0.  0.
        254    2    1    2    0    0  0.26139105960E+03 -0.60545996634E+03  0.13014373270E+03  0.11248992773E+04  0.90197224790E+03 0.  0.
         23    2    4    4    0    0  0.62117730620E+02 -0.19369383981E+02 -0.32949719837E+03  0.34824961606E+03  0.92063053705E+02 0.  0.
         23    2    4    4    0    0  0.19927332898E+03 -0.58609058236E+03  0.45964093108E+03  0.77664966122E+03  0.93289229732E+02 0.  0.
          4    1    3    3  502    0 -0.26896033193E+02  0.12269739933E+03  0.24330043267E+03  0.27381225126E+03  0.00000000000E+00 0. -1.
         -4    1    3    3    0  502 -0.23449502641E+03  0.48276256701E+03  0.13665115861E+04  0.14681285804E+04  0.00000000000E+00 0.  1.
         11    1    5    5    0    0 -0.87521595152E+01 -0.20010139533E+02 -0.16617972434E+02  0.27443815116E+02  0.00000000000E+00 0.  1.
        -11    1    5    5    0    0  0.70869890135E+02  0.64075555208E+00 -0.31287922594E+03  0.32080580094E+03  0.00000000000E+00 0. -1.
          3    1    6    6  503    0  0.13541717603E+03 -0.32462164963E+03  0.21064653287E+03  0.40998657147E+03  0.00000000000E+00 0. -1.
         -3    1    6    6    0  503  0.63856152949E+02 -0.26146893273E+03  0.24899439820E+03  0.36666308975E+03  0.00000000000E+00 0.  1.
<mgrwt>
<rscale>  0 0.22784482E+04</rscale>
<asrwt>0</asrwt>
<pdfrwt beam="1">  1        2 0.86683414E-01 0.22784482E+04</pdfrwt>
<pdfrwt beam="2">  1       -2 0.35436891E+00 0.22784482E+04</pdfrwt>
<totfact> 0.71012999E-01</totfact>
</mgrwt>
</event>
<event>
12    2  0.3623523E-008  0.1423953E+04  0.7818608E-02  0.8936660E-01
         -2   -1    0    0    0  501 -0.00000000000E+00  0.00000000000E+00  0.39985943773E+03  0.39985943773E+03  0.00000000000E+00 0.  1.
          2   -1    0    0  501    0  0.00000000000E+00 -0.00000000000E+00 -0.12677219404E+04  0.12677219404E+04  0.00000000000E+00 0. -1.
         23    2    1    2    0    0 -0.21249704538E+03 -0.14937004081E+03 -0.66051274744E+03  0.71515343144E+03  0.87754986080E+02 0.  0.
        254    2    1    2    0    0  0.21249704538E+03  0.14937004081E+03 -0.20734975524E+03  0.95242794669E+03  0.89255737589E+03 0.  0.
         23    2    4    4    0    0  0.27228744786E+03  0.26894858883E+03 -0.48879283817E+03  0.62722418766E+03  0.89542979890E+02 0.  0.
         23    2    4    4    0    0 -0.59790402480E+02 -0.11957854802E+03  0.28144308293E+03  0.32520375903E+03  0.93130846574E+02 0.  0.
          3    1    3    3  502    0 -0.17403928832E+03 -0.13343723996E+03 -0.61753753805E+03  0.65532265472E+03  0.00000000000E+00 0. -1.
         -3    1    3    3    0  502 -0.38457757058E+02 -0.15932800849E+02 -0.42975209393E+02  0.59830776723E+02  0.00000000000E+00 0.  1.
         11    1    5    5    0    0  0.10940643585E+03  0.50388972084E+02 -0.14660000555E+03  0.18973765663E+03  0.00000000000E+00 0. -1.
        -11    1    5    5    0    0  0.16288101201E+03  0.21855961674E+03 -0.34219283261E+03  0.43748653103E+03  0.00000000000E+00 0.  1.
          3    1    6    6  503    0 -0.41316503259E+02 -0.30436160615E+02  0.18746604947E+03  0.19436289002E+03  0.00000000000E+00 0. -1.
         -3    1    6    6    0  503 -0.18473899221E+02 -0.89142387407E+02  0.93977033462E+02  0.13084086901E+03  0.00000000000E+00 0.  1.
<mgrwt>
<rscale>  0 0.14239531E+04</rscale>
<asrwt>0</asrwt>
<pdfrwt beam="1">  1        2 0.19503415E+00 0.14239531E+04</pdfrwt>
<pdfrwt beam="2">  1       -2 0.61516836E-01 0.14239531E+04</pdfrwt>
<totfact> 0.41208419E+01</totfact>
</mgrwt>
</event>
<event>
12    2  0.3623523E-008  0.1224347E+04  0.7818608E-02  0.9091808E-01
         -1   -1    0    0    0  501 -0.00000000000E+00  0.00000000000E+00  0.17478112688E+03  0.17478112688E+03  0.00000000000E+00 0.  1.
          1   -1    0    0  501    0  0.00000000000E+00 -0.00000000000E+00 -0.21441472388E+04  0.21441472388E+04  0.00000000000E+00 0. -1.
         23    2    1    2    0    0  0.30285324122E+02  0.26787142854E+03 -0.37749870666E+03  0.47284752873E+03  0.91690832793E+02 0.  0.
        254    2    1    2    0    0 -0.30285324122E+02 -0.26787142854E+03 -0.15918674052E+04  0.18460808369E+04  0.89515379544E+03 0.  0.
         23    2    4    4    0    0 -0.18234778558E+03 -0.48751198695E+03 -0.14213808973E+04  0.15164959097E+04  0.92290500748E+02 0.  0.
         23    2    4    4    0    0  0.15206246146E+03  0.21964055841E+03 -0.17048650794E+03  0.32958492724E+03  0.90529596198E+02 0.  0.
          1    1    3    3  502    0  0.72068953916E+01  0.40756452603E+02 -0.14157689185E+02  0.43743204421E+02  0.00000000000E+00 0. -1.
         -1    1    3    3    0  502  0.23078428731E+02  0.22711497594E+03 -0.36334101747E+03  0.42910432431E+03  0.00000000000E+00 0.  1.
         11    1    5    5    0    0 -0.19290687364E+03 -0.46732115377E+03 -0.13497401796E+04  0.14413190747E+04  0.00000000000E+00 0. -1.
        -11    1    5    5    0    0  0.10559088053E+02 -0.20190833188E+02 -0.71640717719E+02  0.75176835000E+02  0.00000000000E+00 0.  1.
          2    1    6    6  503    0  0.14418458939E+03  0.22441392964E+03 -0.14746637190E+03  0.30479031887E+03  0.00000000000E+00 0. -1.
         -2    1    6    6    0  503  0.78778720684E+01 -0.47733712231E+01 -0.23020136035E+02  0.24794608370E+02  0.00000000000E+00 0.  1.
<mgrwt>
<rscale>  0 0.12243471E+04</rscale>
<asrwt>0</asrwt>
<pdfrwt beam="1">  1        1 0.32986880E+00 0.12243471E+04</pdfrwt>
<pdfrwt beam="2">  1       -1 0.26889404E-01 0.12243471E+04</pdfrwt>
<totfact> 0.29101324E+01</totfact>
</mgrwt>
</event>
<event>
12    2  0.3623523E-008  0.1659213E+04  0.7818608E-02  0.8784975E-01
         -1   -1    0    0    0  501 -0.00000000000E+00  0.00000000000E+00  0.81541353421E+03  0.81541353421E+03  0.00000000000E+00 0.  1.
          1   -1    0    0  501    0  0.00000000000E+00 -0.00000000000E+00 -0.84404685203E+03  0.84404685203E+03  0.00000000000E+00 0. -1.
         23    2    1    2    0    0 -0.21369221440E+03  0.17601526644E+03  0.50580919071E+03  0.58363395572E+03  0.90221507114E+02 0.  0.
        254    2    1    2    0    0  0.21369221440E+03 -0.17601526644E+03 -0.53444250852E+03  0.10758264305E+04  0.89169948815E+03 0.  0.
         23    2    4    4    0    0 -0.23136212981E+03  0.21222521881E+03 -0.11811610493E+03  0.34748692638E+03  0.90707062314E+02 0.  0.
         23    2    4    4    0    0  0.44505434421E+03 -0.38824048525E+03 -0.41632640359E+03  0.72833950414E+03  0.91360359390E+02 0.  0.
          2    1    3    3  502    0 -0.14311174451E+03  0.59823225265E+02  0.27784317317E+03  0.31820845145E+03  0.00000000000E+00 0. -1.
         -2    1    3    3    0  502 -0.70580469890E+02  0.11619204118E+03  0.22796601754E+03  0.26542550427E+03  0.00000000000E+00 0.  1.
         11    1    5    5    0    0 -0.97641448358E+02  0.90369596450E+02 -0.98447390513E+02  0.16550651074E+03  0.00000000000E+00 0. -1.
        -11    1    5    5    0    0 -0.13372068145E+03  0.12185562236E+03 -0.19668714415E+02  0.18198041564E+03  0.00000000000E+00 0.  1.
          4    1    6    6  503    0  0.41898159298E+03 -0.38871835860E+03 -0.39717321486E+03  0.69598426719E+03  0.00000000000E+00 0. -1.
         -4    1    6    6    0  503  0.26072751229E+02  0.47787334315E+00 -0.19153188729E+02  0.32355236950E+02  0.00000000000E+00 0.  1.
<mgrwt>
<rscale>  0 0.16592133E+04</rscale>
<asrwt>0</asrwt>
<pdfrwt beam="1">  1        1 0.12985336E+00 0.16592133E+04</pdfrwt>
<pdfrwt beam="2">  1       -1 0.12544824E+00 0.16592133E+04</pdfrwt>
<totfact> 0.10733197E+01</totfact>
</mgrwt>
</event>
<event>
12    2  0.3623523E-008  0.2028741E+04  0.7818608E-02  0.8593300E-01
         -2   -1    0    0    0  501 -0.00000000000E+00  0.00000000000E+00  0.92091499633E+03  0.92091499633E+03  0.00000000000E+00 0.  1.
          2   -1    0    0  501    0  0.00000000000E+00 -0.00000000000E+00 -0.11173104627E+04  0.11173104627E+04  0.00000000000E+00 0. -1.
         23    2    1    2    0    0  0.76032340624E+03 -0.67470428977E+02 -0.37266876977E+03  0.85441086846E+03  0.92151936046E+02 0.  0.
        254    2    1    2    0    0 -0.76032340624E+03  0.67470428977E+02  0.17627330343E+03  0.11838145905E+04  0.88752507932E+03 0.  0.
         23    2    4    4    0    0 -0.55739258472E+02  0.12839859183E+03 -0.28754335930E+03  0.33248266803E+03  0.90942167044E+02 0.  0.
         23    2    4    4    0    0 -0.70458414776E+03 -0.60928162849E+02  0.46381666274E+03  0.85133192251E+03  0.97411926119E+02 0.  0.
          3    1    3    3  502    0  0.26284173141E+03 -0.14212290557E+02 -0.81618709776E+02  0.27558914848E+03  0.00000000000E+00 0. -1.
         -3    1    3    3    0  502  0.49748167483E+03 -0.53258138420E+02 -0.29105005999E+03  0.57882171998E+03  0.00000000000E+00 0.  1.
         11    1    5    5    0    0 -0.77758298950E+02  0.11935965509E+03 -0.25600712642E+03  0.29297223264E+03  0.00000000000E+00 0. -1.
        -11    1    5    5    0    0  0.22019040478E+02  0.90389367394E+01 -0.31536232878E+02  0.39510435395E+02  0.00000000000E+00 0.  1.
          3    1    6    6  503    0 -0.32397168108E+03  0.77955605519E+01  0.25083349048E+03  0.40979978142E+03  0.00000000000E+00 0. -1.
         -3    1    6    6    0  503 -0.38061246668E+03 -0.68723723401E+02  0.21298317225E+03  0.44153214109E+03  0.00000000000E+00 0.  1.
<mgrwt>
<rscale>  0 0.20287414E+04</rscale>
<asrwt>0</asrwt>
<pdfrwt beam="1">  1        2 0.17189392E+00 0.20287414E+04</pdfrwt>
<pdfrwt beam="2">  1       -2 0.14167923E+00 0.20287414E+04</pdfrwt>
<totfact> 0.68606744E+00</totfact>
</mgrwt>
</event>
<event>
12    2  0.3623523E-008  0.1360784E+04  0.7818608E-02  0.8982705E-01
          1   -1    0    0  501    0  0.00000000000E+00  0.00000000000E+00  0.17126894201E+04  0.17126894201E+04  0.00000000000E+00 0. -1.
         -1   -1    0    0    0  501 -0.00000000000E+00 -0.00000000000E+00 -0.27029610867E+03  0.27029610867E+03  0.00000000000E+00 0.  1.
         23    2    1    2    0    0  0.15279033214E+03  0.21366083070E+03  0.79328106955E+03  0.84058221477E+03  0.91037180973E+02 0.  0.
        254    2    1    2    0    0 -0.15279033214E+03 -0.21366083070E+03  0.64911224185E+03  0.11424033140E+04  0.90263103928E+03 0.  0.
         23    2    4    4    0    0 -0.51589552344E+03 -0.21148204829E+03  0.40636381964E+03  0.69586906339E+03  0.90715773841E+02 0.  0.
         23    2    4    4    0    0  0.36310519129E+03 -0.21787824095E+01  0.24274842221E+03  0.44653425057E+03  0.92821944663E+02 0.  0.
          2    1    3    3  502    0 -0.99104869113E+01  0.18946375199E+01  0.18557101016E+02  0.21122817054E+02  0.00000000000E+00 0.  1.
         -2    1    3    3    0  502  0.16270081906E+03  0.21176619318E+03  0.77472396853E+03  0.81945939772E+03  0.00000000000E+00 0. -1.
         11    1    5    5    0    0 -0.42804497497E+03 -0.14070426398E+03  0.34464906971E+03  0.56727697975E+03  0.00000000000E+00 0. -1.
        -11    1    5    5    0    0 -0.87850548463E+02 -0.70777784301E+02  0.61714749925E+02  0.12859208364E+03  0.00000000000E+00 0.  1.
          1    1    6    6  503    0  0.22012198429E+03  0.35887141095E+02  0.11438247950E+03  0.25064901053E+03  0.00000000000E+00 0. -1.
         -1    1    6    6    0  503  0.14298320700E+03 -0.38065923504E+02  0.12836594271E+03  0.19588524004E+03  0.00000000000E+00 0.  1.
<mgrwt>
<rscale>  0 0.13607840E+04</rscale>
<asrwt>0</asrwt>
<pdfrwt beam="1">  1        1 0.26349067E+00 0.13607840E+04</pdfrwt>
<pdfrwt beam="2">  1       -1 0.41584018E-01 0.13607840E+04</pdfrwt>
<totfact> 0.25916704E+01</totfact>
</mgrwt>
</event>
<event>
12    2  0.3623523E-008  0.1085775E+04  0.7818608E-02  0.9219168E-01
         -2   -1    0    0    0  501 -0.00000000000E+00  0.00000000000E+00  0.42591940183E+03  0.42591940183E+03  0.00000000000E+00 0.  1.
          2   -1    0    0  501    0  0.00000000000E+00 -0.00000000000E+00 -0.69197839413E+03  0.69197839413E+03  0.00000000000E+00 0. -1.
         23    2    1    2    0    0  0.93382319689E+02 -0.78887379253E+02 -0.13838113073E+03  0.20459204443E+03  0.88119754113E+02 0.  0.
        254    2    1    2    0    0 -0.93382319689E+02  0.78887379253E+02 -0.12767786156E+03  0.91330575153E+03  0.89603698764E+03 0.  0.
         23    2    4    4    0    0  0.38873179922E+03  0.10523698194E+03 -0.70426798314E+02  0.41855714037E+03  0.89682282217E+02 0.  0.
         23    2    4    4    0    0 -0.48211411891E+03 -0.26349602685E+02 -0.57251063248E+02  0.49474861116E+03  0.91488681232E+02 0.  0.
          1    1    3    3  502    0  0.84184310191E+02 -0.76664982934E+02 -0.66025411702E+02  0.13162018341E+03  0.00000000000E+00 0. -1.
         -1    1    3    3    0  502  0.91980094971E+01 -0.22223963198E+01 -0.72355719029E+02  0.72971861017E+02  0.00000000000E+00 0.  1.
         11    1    5    5    0    0  0.23986184838E+03  0.10740427632E+03 -0.31686752827E+02  0.26471387418E+03  0.00000000000E+00 0. -1.
        -11    1    5    5    0    0  0.14886995084E+03 -0.21672943779E+01 -0.38740045487E+02  0.15384326619E+03  0.00000000000E+00 0.  1.
          3    1    6    6  503    0 -0.29110846949E+03 -0.64021998560E+00  0.81580772956E+01  0.29122346251E+03  0.00000000000E+00 0. -1.
         -3    1    6    6    0  503 -0.19100564941E+03 -0.25709382699E+02 -0.65409140544E+02  0.20352514865E+03  0.00000000000E+00 0.  1.
<mgrwt>
<rscale>  0 0.10857753E+04</rscale>
<asrwt>0</asrwt>
<pdfrwt beam="1">  1        2 0.10645821E+00 0.10857753E+04</pdfrwt>
<pdfrwt beam="2">  1       -2 0.65526063E-01 0.10857753E+04</pdfrwt>
<totfact> 0.88690251E+01</totfact>
</mgrwt>
</event>
<event>
12    2  0.3623523E-008  0.2132833E+04  0.7818608E-02  0.8546917E-01
         -1   -1    0    0    0  501 -0.00000000000E+00  0.00000000000E+00  0.56688547286E+03  0.56688547286E+03  0.00000000000E+00 0.  1.
          1   -1    0    0  501    0  0.00000000000E+00 -0.00000000000E+00 -0.20061260776E+04  0.20061260776E+04  0.00000000000E+00 0. -1.
         23    2    1    2    0    0 -0.15979734203E+03 -0.48111747319E+02  0.44026689324E+03  0.47966798115E+03  0.91632440257E+02 0.  0.
        254    2    1    2    0    0  0.15979734203E+03  0.48111747319E+02 -0.18795074980E+04  0.20933435693E+04  0.90647059165E+03 0.  0.
         23    2    4    4    0    0 -0.17135574414E+02 -0.27121156346E+03 -0.15036840984E+03  0.32369781530E+03  0.91215551807E+02 0.  0.
         23    2    4    4    0    0  0.17693291645E+03  0.31932331078E+03 -0.17291390882E+04  0.17696457540E+04  0.91931903332E+02 0.  0.
          1    1    3    3  502    0  0.44793039450E+01  0.40500277651E+01 -0.82674209212E+00  0.60951120758E+01  0.00000000000E+00 0. -1.
         -1    1    3    3    0  502 -0.16427664598E+03 -0.52161775085E+02  0.44109363533E+03  0.47357286907E+03  0.00000000000E+00 0.  1.
         11    1    5    5    0    0 -0.33435527776E+02 -0.65785821259E+02 -0.72369516778E+02  0.10335886878E+03  0.00000000000E+00 0. -1.
        -11    1    5    5    0    0  0.16299953362E+02 -0.20542574220E+03 -0.77998893059E+02  0.22033894653E+03  0.00000000000E+00 0.  1.
          1    1    6    6  503    0  0.10783260200E+03  0.10293170580E+03 -0.65492481370E+03  0.67167649781E+03  0.00000000000E+00 0. -1.
         -1    1    6    6    0  503  0.69100314443E+02  0.21639160497E+03 -0.10742142745E+04  0.10979692562E+04  0.00000000000E+00 0.  1.
<mgrwt>
<rscale>  0 0.21328326E+04</rscale>
<asrwt>0</asrwt>
<pdfrwt beam="1">  1        1 0.30863477E+00 0.21328326E+04</pdfrwt>
<pdfrwt beam="2">  1       -1 0.87213152E-01 0.21328326E+04</pdfrwt>
<totfact> 0.35033825E+00</totfact>
</mgrwt>
</event>
<event>
12    2  0.3623523E-008  0.1371325E+04  0.7818608E-02  0.8974840E-01
         -1   -1    0    0    0  501 -0.00000000000E+00  0.00000000000E+00  0.18061752393E+04  0.18061752393E+04  0.00000000000E+00 0.  1.
          1   -1    0    0  501    0  0.00000000000E+00 -0.00000000000E+00 -0.26029213367E+03  0.26029213367E+03  0.00000000000E+00 0. -1.
         23    2    1    2    0    0  0.71846742206E+02  0.28686447699E+03  0.82009552480E+03  0.87675897312E+03  0.93254729848E+02 0.  0.
        254    2    1    2    0    0 -0.71846742206E+02 -0.28686447699E+03  0.72578758081E+03  0.11897083998E+04  0.89508953834E+03 0.  0.
         23    2    4    4    0    0  0.23928137960E+03  0.18344308301E+03  0.46538757658E+03  0.56191541871E+03  0.90864723736E+02 0.  0.
         23    2    4    4    0    0 -0.31112812181E+03 -0.47030756000E+03  0.26040000423E+03  0.62779298112E+03  0.91246675389E+02 0.  0.
          1    1    3    3  502    0 -0.76025202275E+01  0.14419973626E+02  0.12352979743E+03  0.12460074160E+03  0.00000000000E+00 0. -1.
         -1    1    3    3    0  502  0.79449262433E+02  0.27244450336E+03  0.69656572736E+03  0.75215823153E+03  0.00000000000E+00 0.  1.
         11    1    5    5    0    0  0.15978276696E+03  0.98722824785E+02  0.21243409508E+03  0.28355770754E+03  0.00000000000E+00 0. -1.
        -11    1    5    5    0    0  0.79498612640E+02  0.84720258220E+02  0.25295348150E+03  0.27835771117E+03  0.00000000000E+00 0.  1.
          3    1    6    6  503    0 -0.70701184653E+02 -0.55092362939E+02  0.59780206448E+02  0.10773810398E+03  0.00000000000E+00 0. -1.
         -3    1    6    6    0  503 -0.24042693716E+03 -0.41521519706E+03  0.20061979778E+03  0.52005487714E+03  0.00000000000E+00 0.  1.
<mgrwt>
<rscale>  0 0.13713252E+04</rscale>
<asrwt>0</asrwt>
<pdfrwt beam="1">  1        1 0.40044945E-01 0.13713252E+04</pdfrwt>
<pdfrwt beam="2">  1       -1 0.27787311E+00 0.13713252E+04</pdfrwt>
<totfact> 0.47488104E+00</totfact>
</mgrwt>
</event>
<event>
12    2  0.3623523E-008  0.2097101E+04  0.7818608E-02  0.8562522E-01
          2   -1    0    0  501    0  0.00000000000E+00  0.00000000000E+00  0.13780756929E+04  0.13780756929E+04  0.00000000000E+00 0. -1.
         -2   -1    0    0    0  501 -0.00000000000E+00 -0.00000000000E+00 -0.79782107812E+03  0.79782107812E+03  0.00000000000E+00 0.  1.
         23    2    1    2    0    0 -0.61500303629E+02  0.24187325783E+03 -0.61332012612E+03  0.66801392308E+03  0.88295323307E+02 0.  0.
        254    2    1    2    0    0  0.61500303629E+02 -0.24187325783E+03  0.11935747409E+04  0.15078828480E+04  0.88702032717E+03 0.  0.
         23    2    4    4    0    0  0.19921609351E+03 -0.40272650920E+03  0.11922209393E+04  0.12772028755E+04  0.89334897612E+02 0.  0.
         23    2    4    4    0    0 -0.13771578988E+03  0.16085325137E+03  0.13538016317E+01  0.23067997248E+03  0.91498686689E+02 0.  0.
          1    1    3    3  502    0  0.18723064284E+02  0.99994596162E+02 -0.23332818785E+03  0.25454177583E+03  0.00000000000E+00 0. -1.
         -1    1    3    3    0  502 -0.80223367914E+02  0.14187866167E+03 -0.37999193827E+03  0.41347214725E+03  0.00000000000E+00 0.  1.
         11    1    5    5    0    0  0.20118031271E+03 -0.35537991247E+03  0.10237537275E+04  0.11021978475E+04  0.00000000000E+00 0.  1.
        -11    1    5    5    0    0 -0.19642191999E+01 -0.47346596730E+02  0.16846721180E+03  0.17500502802E+03  0.00000000000E+00 0. -1.
          1    1    6    6  503    0 -0.33503887118E+02 -0.30152000738E+01 -0.12739860561E+02  0.35970903945E+02  0.00000000000E+00 0. -1.
         -1    1    6    6    0  503 -0.10421190277E+03  0.16386845144E+03  0.14093662193E+02  0.19470906854E+03  0.00000000000E+00 0.  1.
<mgrwt>
<rscale>  0 0.20971007E+04</rscale>
<asrwt>0</asrwt>
<pdfrwt beam="1">  1        2 0.21201164E+00 0.20971007E+04</pdfrwt>
<pdfrwt beam="2">  1       -2 0.12274170E+00 0.20971007E+04</pdfrwt>
<totfact> 0.68927750E+00</totfact>
</mgrwt>
</event>
<event>
12    2  0.3623523E-008  0.2247949E+04  0.7818608E-02  0.8498731E-01
         -2   -1    0    0    0  501 -0.00000000000E+00  0.00000000000E+00  0.61993526263E+03  0.61993526263E+03  0.00000000000E+00 0. -1.
          2   -1    0    0  501    0  0.00000000000E+00 -0.00000000000E+00 -0.20378243360E+04  0.20378243360E+04  0.00000000000E+00 0.  1.
         23    2    1    2    0    0 -0.23661135925E+03 -0.79709842327E+03 -0.11215319494E+04  0.13991181680E+04  0.91361385909E+02 0.  0.
        254    2    1    2    0    0  0.23661135925E+03  0.79709842327E+03 -0.29635712396E+03  0.12586414306E+04  0.89721785215E+03 0.  0.
         23    2    4    4    0    0 -0.23838375422E+03 -0.35721240879E+02 -0.10702277057E+03  0.27701969960E+03  0.84753874391E+02 0.  0.
         23    2    4    4    0    0  0.47499511347E+03  0.83281966415E+03 -0.18933435339E+03  0.98162173100E+03  0.92329705895E+02 0.  0.
          2    1    3    3  502    0 -0.11017911804E+03 -0.23003747962E+03 -0.36310101199E+03  0.44373305600E+03  0.00000000000E+00 0. -1.
         -2    1    3    3    0  502 -0.12643224121E+03 -0.56706094364E+03 -0.75843093741E+03  0.95538511201E+03  0.00000000000E+00 0.  1.
         11    1    5    5    0    0 -0.19783930532E+03 -0.61269577182E+02 -0.93420057876E+02  0.22720400312E+03  0.00000000000E+00 0.  1.
        -11    1    5    5    0    0 -0.40544448894E+02  0.25548336303E+02 -0.13602712691E+02  0.49815696487E+02  0.00000000000E+00 0. -1.
          3    1    6    6  503    0  0.22469567599E+03  0.31498971544E+03 -0.99392030911E+02  0.39948146822E+03  0.00000000000E+00 0. -1.
         -3    1    6    6    0  503  0.25029943749E+03  0.51782994871E+03 -0.89942322479E+02  0.58214026279E+03  0.00000000000E+00 0.  1.
<mgrwt>
<rscale>  0 0.22479494E+04</rscale>
<asrwt>0</asrwt>
<pdfrwt beam="1">  1        2 0.31351144E+00 0.22479494E+04</pdfrwt>
<pdfrwt beam="2">  1       -2 0.95374655E-01 0.22479494E+04</pdfrwt>
<totfact> 0.53509286E+00</totfact>
</mgrwt>
</event>
<event>
12    2  0.3623523E-008  0.1368445E+04  0.7818608E-02  0.8976982E-01
         -2   -1    0    0    0  501 -0.00000000000E+00  0.00000000000E+00  0.12023200364E+03  0.12023200364E+03  0.00000000000E+00 0.  1.
          2   -1    0    0  501    0  0.00000000000E+00 -0.00000000000E+00 -0.38938062482E+04  0.38938062482E+04  0.00000000000E+00 0. -1.
         23    2    1    2    0    0  0.26626226113E+03 -0.23396693418E+03 -0.63406656864E+03  0.73215778867E+03  0.91534125067E+02 0.  0.
        254    2    1    2    0    0 -0.26626226113E+03  0.23396693418E+03 -0.31395076759E+04  0.32818804631E+04  0.88802860840E+03 0.  0.
         23    2    4    4    0    0 -0.43125948409E+03  0.30109787754E+03 -0.10040579049E+04  0.11371593570E+04  0.91402693295E+02 0.  0.
         23    2    4    4    0    0  0.16499722295E+03 -0.67130943356E+02 -0.21354497710E+04  0.21447211061E+04  0.89175397666E+02 0.  0.
          1    1    3    3  502    0 -0.13817481558E+01 -0.27571394750E+02 -0.58652959839E+02  0.64824846582E+02  0.00000000000E+00 0. -1.
         -1    1    3    3    0  502  0.26764400929E+03 -0.20639553943E+03 -0.57541360880E+03  0.66733294209E+03  0.00000000000E+00 0.  1.
         11    1    5    5    0    0 -0.16045777890E+03  0.10995961261E+03 -0.28112665472E+03  0.34186256187E+03  0.00000000000E+00 0.  1.
        -11    1    5    5    0    0 -0.27080170519E+03  0.19113826492E+03 -0.72293125018E+03  0.79529679513E+03  0.00000000000E+00 0. -1.
          3    1    6    6  503    0  0.80830406241E+02 -0.11294048405E+02 -0.13988166803E+04  0.14011956377E+04  0.00000000000E+00 0. -1.
         -3    1    6    6    0  503  0.84166816713E+02 -0.55836894951E+02 -0.73663309073E+03  0.74352546844E+03  0.00000000000E+00 0.  1.
<mgrwt>
<rscale>  0 0.13684446E+04</rscale>
<asrwt>0</asrwt>
<pdfrwt beam="1">  1        2 0.59904724E+00 0.13684446E+04</pdfrwt>
<pdfrwt beam="2">  1       -2 0.18497227E-01 0.13684446E+04</pdfrwt>
<totfact> 0.10210095E+01</totfact>
</mgrwt>
</event>
<event>
12    2  0.3623523E-008  0.1510731E+04  0.7818608E-02  0.8877348E-01
          1   -1    0    0  501    0  0.00000000000E+00  0.00000000000E+00  0.63580495451E+03  0.63580495451E+03  0.00000000000E+00 0. -1.
         -1   -1    0    0    0  501 -0.00000000000E+00 -0.00000000000E+00 -0.89740922908E+03  0.89740922908E+03  0.00000000000E+00 0.  1.
         23    2    1    2    0    0  0.16044714441E+03  0.21773112107E+03  0.31349352795E+03  0.42386802293E+03  0.90751207003E+02 0.  0.
        254    2    1    2    0    0 -0.16044714441E+03 -0.21773112107E+03 -0.57509780252E+03  0.11093461607E+04  0.90926414999E+03 0.  0.
         23    2    4    4    0    0 -0.24598269320E+03  0.28316316259E+03 -0.41967055273E+03  0.57019675702E+03  0.91170756767E+02 0.  0.
         23    2    4    4    0    0  0.85535548794E+02 -0.50089428366E+03 -0.15542724979E+03  0.53914940363E+03  0.91175851771E+02 0.  0.
          1    1    3    3  502    0  0.98856857513E+02  0.19463612150E+03  0.22377464903E+03  0.31261956371E+03  0.00000000000E+00 0. -1.
         -1    1    3    3    0  502  0.61590286892E+02  0.23094999572E+02  0.89718878918E+02  0.11124845922E+03  0.00000000000E+00 0.  1.
         11    1    5    5    0    0 -0.96131687812E+02  0.56871557440E+02 -0.91898532461E+02  0.14464098906E+03  0.00000000000E+00 0.  1.
        -11    1    5    5    0    0 -0.14985100539E+03  0.22629160515E+03 -0.32777202027E+03  0.42555576797E+03  0.00000000000E+00 0. -1.
          1    1    6    6  503    0  0.22208127941E+02 -0.30785322476E+03 -0.58907193035E+02  0.31422422938E+03  0.00000000000E+00 0. -1.
         -1    1    6    6    0  503  0.63327420853E+02 -0.19304105890E+03 -0.96520056751E+02  0.22492517425E+03  0.00000000000E+00 0.  1.
<mgrwt>
<rscale>  0 0.15107313E+04</rscale>
<asrwt>0</asrwt>
<pdfrwt beam="1">  1        1 0.97816147E-01 0.15107313E+04</pdfrwt>
<pdfrwt beam="2">  1       -1 0.13806296E+00 0.15107313E+04</pdfrwt>
<totfact> 0.13223012E+01</totfact>
</mgrwt>
</event>
<event>
12    2  0.3623523E-008  0.1795134E+04  0.7818608E-02  0.8708891E-01
          1   -1    0    0  501    0  0.00000000000E+00  0.00000000000E+00  0.73976013229E+03  0.73976013229E+03  0.00000000000E+00 0. -1.
         -1   -1    0    0    0  501 -0.00000000000E+00 -0.00000000000E+00 -0.10890379473E+04  0.10890379473E+04  0.00000000000E+00 0.  1.
         23    2    1    2    0    0  0.27928831446E+03 -0.60776651244E+03 -0.83067152936E+02  0.68189759946E+03  0.10345089667E+03 0.  0.
        254    2    1    2    0    0 -0.27928831446E+03  0.60776651244E+03 -0.26621066210E+03  0.11469004802E+04  0.89282164991E+03 0.  0.
         23    2    4    4    0    0 -0.36381434563E+03  0.38892040944E+03 -0.54734811385E+03  0.76895463489E+03  0.89896105653E+02 0.  0.
         23    2    4    4    0    0  0.84526031170E+02  0.21884610300E+03  0.28113745175E+03  0.37794584527E+03  0.93629741192E+02 0.  0.
          2    1    3    3  502    0  0.28265398068E+03 -0.56778742655E+03 -0.91733751434E+02  0.64085171116E+03  0.00000000000E+00 0. -1.
         -2    1    3    3    0  502 -0.33656662112E+01 -0.39979085883E+02  0.86665984985E+01  0.41045888304E+02  0.00000000000E+00 0.  1.
         11    1    5    5    0    0 -0.20625553001E+03  0.27675457423E+03 -0.32260636116E+03  0.47245031726E+03  0.00000000000E+00 0.  1.
        -11    1    5    5    0    0 -0.15755881563E+03  0.11216583520E+03 -0.22474175269E+03  0.29650431763E+03  0.00000000000E+00 0. -1.
          3    1    6    6  503    0  0.82934941823E+02  0.21526574572E+03  0.22692875024E+03  0.32359574092E+03  0.00000000000E+00 0. -1.
         -3    1    6    6    0  503  0.15910893473E+01  0.35803572836E+01  0.54208701513E+02  0.54350104354E+02  0.00000000000E+00 0.  1.
<mgrwt>
<rscale>  0 0.17951344E+04</rscale>
<asrwt>0</asrwt>
<pdfrwt beam="1">  1        1 0.11380925E+00 0.17951344E+04</pdfrwt>
<pdfrwt beam="2">  1       -1 0.16754430E+00 0.17951344E+04</pdfrwt>
<totfact> 0.60602374E+00</totfact>
</mgrwt>
</event>
<event>
12    2  0.3623523E-008  0.1396332E+04  0.7818608E-02  0.8956478E-01
          1   -1    0    0  501    0  0.00000000000E+00  0.00000000000E+00  0.62610709749E+03  0.62610709749E+03  0.00000000000E+00 0. -1.
         -1   -1    0    0    0  501 -0.00000000000E+00 -0.00000000000E+00 -0.77851784993E+03  0.77851784993E+03  0.00000000000E+00 0.  1.
         23    2    1    2    0    0  0.13467665677E+03 -0.34404645220E+03 -0.20170221925E+03  0.43135181296E+03  0.94206359376E+02 0.  0.
        254    2    1    2    0    0 -0.13467665677E+03  0.34404645220E+03  0.49291466808E+02  0.97327313446E+03  0.89906906432E+03 0.  0.
         23    2    4    4    0    0  0.32582299931E+03 -0.69586854717E+02  0.61182054137E+01  0.34602114236E+03  0.93221463696E+02 0.  0.
         23    2    4    4    0    0 -0.46049965608E+03  0.41363330691E+03  0.43173261394E+02  0.62725199210E+03  0.91807871468E+02 0.  0.
          4    1    3    3  502    0  0.13122106727E+03 -0.31030548517E+03 -0.20925211652E+03  0.39660422450E+03  0.00000000000E+00 0. -1.
         -4    1    3    3    0  502  0.34555894935E+01 -0.33740967030E+02  0.75498972772E+01  0.34747588460E+02  0.00000000000E+00 0.  1.
         11    1    5    5    0    0  0.31831859270E+03 -0.83009552372E+02 -0.12560358081E+01  0.32896639626E+03  0.00000000000E+00 0. -1.
        -11    1    5    5    0    0  0.75044066117E+01  0.13422697655E+02  0.73742412218E+01  0.17054746100E+02  0.00000000000E+00 0.  1.
          1    1    6    6  503    0 -0.44720883056E+03  0.41646545193E+03  0.36694651645E+02  0.61219744221E+03  0.00000000000E+00 0. -1.
         -1    1    6    6    0  503 -0.13290825512E+02 -0.28321450200E+01  0.64786097496E+01  0.15054549894E+02  0.00000000000E+00 0.  1.
<mgrwt>
<rscale>  0 0.13963317E+04</rscale>
<asrwt>0</asrwt>
<pdfrwt beam="1">  1        1 0.96324168E-01 0.13963317E+04</pdfrwt>
<pdfrwt beam="2">  1       -1 0.11977198E+00 0.13963317E+04</pdfrwt>
<totfact> 0.19532882E+01</totfact>
</mgrwt>
</event>
<event>
12    2  0.3623523E-008  0.1652244E+04  0.7818608E-02  0.8789080E-01
         -1   -1    0    0    0  501 -0.00000000000E+00  0.00000000000E+00  0.11988634575E+04  0.11988634575E+04  0.00000000000E+00 0.  1.
          1   -1    0    0  501    0  0.00000000000E+00 -0.00000000000E+00 -0.56927034878E+03  0.56927034878E+03  0.00000000000E+00 0. -1.
         23    2    1    2    0    0 -0.29634007306E+03 -0.46587899203E+03  0.46944103177E+03  0.73071475146E+03  0.93319299032E+02 0.  0.
        254    2    1    2    0    0  0.29634007306E+03  0.46587899203E+03  0.16015207692E+03  0.10374190548E+04  0.86355598163E+03 0.  0.
         23    2    4    4    0    0  0.20881220935E+03  0.69559788548E+03  0.22787952117E+03  0.76685281174E+03  0.93140762522E+02 0.  0.
         23    2    4    4    0    0  0.87527863704E+02 -0.22971889346E+03 -0.67727444248E+02  0.27056624306E+03  0.90483082650E+02 0.  0.
          1    1    3    3  502    0 -0.26522487423E+03 -0.37639393136E+03  0.42277757156E+03  0.62510599140E+03  0.00000000000E+00 0. -1.
         -1    1    3    3    0  502 -0.31115198829E+02 -0.89485060670E+02  0.46663460214E+02  0.10560876006E+03  0.00000000000E+00 0.  1.
         11    1    5    5    0    0  0.11475396478E+03  0.32249106501E+03  0.15261753532E+03  0.37478136498E+03  0.00000000000E+00 0. -1.
        -11    1    5    5    0    0  0.94058244566E+02  0.37310682047E+03  0.75261985844E+02  0.39207144676E+03  0.00000000000E+00 0.  1.
          3    1    6    6  503    0  0.72023146906E+02 -0.14300742454E+03 -0.84266841288E+02  0.18094020477E+03  0.00000000000E+00 0. -1.
         -3    1    6    6    0  503  0.15504716798E+02 -0.86711468921E+02  0.16539397039E+02  0.89626038291E+02  0.00000000000E+00 0.  1.
<mgrwt>
<rscale>  0 0.16522438E+04</rscale>
<asrwt>0</asrwt>
<pdfrwt beam="1">  1        1 0.87580054E-01 0.16522438E+04</pdfrwt>
<pdfrwt beam="2">  1       -1 0.18444053E+00 0.16522438E+04</pdfrwt>
<totfact> 0.68254271E+00</totfact>
</mgrwt>
</event>
<event>
12    2  0.3623523E-008  0.2184723E+04  0.7818608E-02  0.8524814E-01
         -2   -1    0    0    0  501 -0.00000000000E+00  0.00000000000E+00  0.84177353030E+03  0.84177353030E+03  0.00000000000E+00 0.  1.
          2   -1    0    0  501    0  0.00000000000E+00 -0.00000000000E+00 -0.14175474617E+04  0.14175474617E+04  0.00000000000E+00 0. -1.
         23    2    1    2    0    0 -0.29697304444E+03  0.40625290574E+03  0.54866444006E+03  0.74953977554E+03  0.86849264737E+02 0.  0.
        254    2    1    2    0    0  0.29697304444E+03 -0.40625290574E+03 -0.11244383714E+04  0.15097812165E+04  0.87283632935E+03 0.  0.
         23    2    4    4    0    0  0.21925299734E+03 -0.48973995413E+03 -0.12191301130E+04  0.13354158780E+04  0.95604577806E+02 0.  0.
         23    2    4    4    0    0  0.77720047098E+02  0.83487048389E+02  0.94691741580E+02  0.17436533842E+03  0.91794620482E+02 0.  0.
          4    1    3    3  502    0 -0.95893191454E+02  0.17720664664E+03  0.26732420451E+03  0.33475353635E+03  0.00000000000E+00 0. -1.
         -4    1    3    3    0  502 -0.20107985298E+03  0.22904625910E+03  0.28134023555E+03  0.41478623919E+03  0.00000000000E+00 0.  1.
         11    1    5    5    0    0  0.11302626735E+03 -0.35171094895E+03 -0.78221980351E+03  0.86506840754E+03  0.00000000000E+00 0. -1.
        -11    1    5    5    0    0  0.10622672999E+03 -0.13802900518E+03 -0.43691030952E+03  0.47034747050E+03  0.00000000000E+00 0.  1.
          2    1    6    6  503    0  0.51002739071E+02  0.10077812499E+03  0.84115746549E+02  0.14082957320E+03  0.00000000000E+00 0. -1.
         -2    1    6    6    0  503  0.26717308027E+02 -0.17291076601E+02  0.10575995032E+02  0.33535765224E+02  0.00000000000E+00 0.  1.
<mgrwt>
<rscale>  0 0.21847233E+04</rscale>
<asrwt>0</asrwt>
<pdfrwt beam="1">  1        2 0.21808422E+00 0.21847233E+04</pdfrwt>
<pdfrwt beam="2">  1       -2 0.12950362E+00 0.21847233E+04</pdfrwt>
<totfact> 0.56759065E+00</totfact>
</mgrwt>
</event>
<event>
12    2  0.3623523E-008  0.1952613E+04  0.7818608E-02  0.8629102E-01
          1   -1    0    0  501    0  0.00000000000E+00  0.00000000000E+00  0.56037435094E+03  0.56037435094E+03  0.00000000000E+00 0. -1.
         -1   -1    0    0    0  501 -0.00000000000E+00 -0.00000000000E+00 -0.17009604271E+04  0.17009604271E+04  0.00000000000E+00 0.  1.
         23    2    1    2    0    0 -0.24473963838E+03 -0.23736818272E+02 -0.12912790579E+04  0.13176074360E+04  0.90701835753E+02 0.  0.
        254    2    1    2    0    0  0.24473963838E+03  0.23736818272E+02  0.15069298168E+03  0.94372734205E+03  0.89858332628E+03 0.  0.
         23    2    4    4    0    0  0.37799320015E+02  0.56524097149E+02 -0.36376031874E+03  0.38150760721E+03  0.92750863668E+02 0.  0.
         23    2    4    4    0    0  0.20694031837E+03 -0.32787278877E+02  0.51445330042E+03  0.56221973485E+03  0.86772869677E+02 0.  0.
          1    1    3    3  502    0 -0.17074431626E+02 -0.24396913297E+02 -0.24768610120E+03  0.24946973829E+03  0.00000000000E+00 0. -1.
         -1    1    3    3    0  502 -0.22766520676E+03  0.66009502498E+00 -0.10435929567E+04  0.10681376977E+04  0.00000000000E+00 0.  1.
         11    1    5    5    0    0  0.39940057779E+01  0.66252060009E+02 -0.13926038761E+03  0.15426841250E+03  0.00000000000E+00 0.  1.
        -11    1    5    5    0    0  0.33805314237E+02 -0.97279628600E+01 -0.22449993113E+03  0.22723919471E+03  0.00000000000E+00 0. -1.
          2    1    6    6  503    0  0.20255900724E+03 -0.45105882389E+02  0.50531752734E+03  0.54626961793E+03  0.00000000000E+00 0. -1.
         -2    1    6    6    0  503  0.43813111301E+01  0.12318603512E+02  0.91357730808E+01  0.15950116911E+02  0.00000000000E+00 0.  1.
<mgrwt>
<rscale>  0 0.19526132E+04</rscale>
<asrwt>0</asrwt>
<pdfrwt beam="1">  1        1 0.86211440E-01 0.19526132E+04</pdfrwt>
<pdfrwt beam="2">  1       -1 0.26168621E+00 0.19526132E+04</pdfrwt>
<totfact> 0.20588846E+00</totfact>
</mgrwt>
</event>
<event>
12    2  0.3623523E-008  0.1502039E+04  0.7818608E-02  0.8883098E-01
          2   -1    0    0  501    0  0.00000000000E+00  0.00000000000E+00  0.21464394925E+04  0.21464394925E+04  0.00000000000E+00 0. -1.
         -2   -1    0    0    0  501 -0.00000000000E+00 -0.00000000000E+00 -0.26277483336E+03  0.26277483336E+03  0.00000000000E+00 0.  1.
         23    2    1    2    0    0  0.27552534165E+03  0.30341776051E+03  0.21788553912E+03  0.47325812832E+03  0.92317910405E+02 0.  0.
        254    2    1    2    0    0 -0.27552534165E+03 -0.30341776051E+03  0.16657791200E+04  0.19359561976E+04  0.89729023780E+03 0.  0.
         23    2    4    4    0    0 -0.57751719104E+03 -0.31007311774E+03  0.10091320819E+04  0.12068919492E+04  0.92569833744E+02 0.  0.
         23    2    4    4    0    0  0.30199184939E+03  0.66553572374E+01  0.65664703817E+03  0.72906424836E+03  0.95425230489E+02 0.  0.
          4    1    3    3  502    0  0.26418580216E+02  0.21744511949E+02  0.52049670867E+02  0.62289111551E+02  0.00000000000E+00 0. -1.
         -4    1    3    3    0  502  0.24910676143E+03  0.28167324856E+03  0.16583586825E+03  0.41096901677E+03  0.00000000000E+00 0.  1.
         11    1    5    5    0    0 -0.16144575046E+01 -0.69260853410E+00 -0.21042259669E+01  0.27411578823E+01  0.00000000000E+00 0. -1.
        -11    1    5    5    0    0 -0.57590273353E+03 -0.30938050921E+03  0.10112363078E+04  0.12041507913E+04  0.00000000000E+00 0.  1.
          1    1    6    6  503    0 -0.67722051606E+01 -0.26660946367E+00  0.70073319074E+01  0.97486688221E+01  0.00000000000E+00 0. -1.
         -1    1    6    6    0  503  0.30876405455E+03  0.69219667011E+01  0.64963970626E+03  0.71931557953E+03  0.00000000000E+00 0.  1.
<mgrwt>
<rscale>  0 0.15020390E+04</rscale>
<asrwt>0</asrwt>
<pdfrwt beam="1">  1        2 0.33022145E+00 0.15020390E+04</pdfrwt>
<pdfrwt beam="2">  1       -2 0.40426899E-01 0.15020390E+04</pdfrwt>
<totfact> 0.30994822E+01</totfact>
</mgrwt>
</event>
<event>
12    2  0.3623523E-008  0.3880509E+04  0.7818608E-02  0.8029095E-01
         -2   -1    0    0    0  501 -0.00000000000E+00  0.00000000000E+00  0.29142571838E+04  0.29142571838E+04  0.00000000000E+00 0.  1.
          2   -1    0    0  501    0  0.00000000000E+00 -0.00000000000E+00 -0.12917827529E+04  0.12917827529E+04  0.00000000000E+00 0. -1.
         23    2    1    2    0    0  0.13360122479E+04  0.12604418072E+04  0.92461996459E+03  0.20584296490E+04  0.92564924954E+02 0.  0.
        254    2    1    2    0    0 -0.13360122479E+04 -0.12604418072E+04  0.69785446628E+03  0.21476102877E+04  0.86694106831E+03 0.  0.
         23    2    4    4    0    0 -0.11498121705E+04 -0.10781698666E+04  0.88872271031E+03  0.18118862970E+04  0.92658559502E+02 0.  0.
         23    2    4    4    0    0 -0.18620007732E+03 -0.18227194057E+03 -0.19086824403E+03  0.33572399069E+03  0.91577192717E+02 0.  0.
          1    1    3    3  502    0  0.12216368048E+04  0.11257329607E+04  0.85662456406E+03  0.18690844885E+04  0.00000000000E+00 0. -1.
         -1    1    3    3    0  502  0.11437544310E+03  0.13470884647E+03  0.67995400523E+02  0.18934516047E+03  0.00000000000E+00 0.  1.
         11    1    5    5    0    0 -0.49454645042E+03 -0.51004019718E+03  0.36426278320E+03  0.79837620805E+03  0.00000000000E+00 0. -1.
        -11    1    5    5    0    0 -0.65526572011E+03 -0.56812966943E+03  0.52445992711E+03  0.10135100889E+04  0.00000000000E+00 0.  1.
          3    1    6    6  503    0 -0.16376185791E+01 -0.30910827563E+02 -0.49288133856E+02  0.58202072078E+02  0.00000000000E+00 0. -1.
         -3    1    6    6    0  503 -0.18456245875E+03 -0.15136111301E+03 -0.14158011018E+03  0.27752191861E+03  0.00000000000E+00 0.  1.
<mgrwt>
<rscale>  0 0.38805088E+04</rscale>
<asrwt>0</asrwt>
<pdfrwt beam="1">  1        2 0.19873581E+00 0.38805088E+04</pdfrwt>
<pdfrwt beam="2">  1       -2 0.44834726E+00 0.38805088E+04</pdfrwt>
<totfact> 0.47374790E-02</totfact>
</mgrwt>
</event>
<event>
12    2  0.3623523E-008  0.1797195E+04  0.7818608E-02  0.8707793E-01
          1   -1    0    0  501    0  0.00000000000E+00  0.00000000000E+00  0.78285510941E+03  0.78285510941E+03  0.00000000000E+00 0. -1.
         -1   -1    0    0    0  501 -0.00000000000E+00 -0.00000000000E+00 -0.10314515861E+04  0.10314515861E+04  0.00000000000E+00 0.  1.
         23    2    1    2    0    0  0.24151972234E+02 -0.18457314362E+03  0.55254533714E+03  0.59072604658E+03  0.94870171276E+02 0.  0.
        254    2    1    2    0    0 -0.24151972234E+02  0.18457314362E+03 -0.80114181379E+03  0.12235806489E+04  0.90590884499E+03 0.  0.
         23    2    4    4    0    0 -0.43681948217E+03 -0.34982316432E+02 -0.41366539760E+03  0.60962220903E+03  0.92114896233E+02 0.  0.
         23    2    4    4    0    0  0.41266750993E+03  0.21955546005E+03 -0.38747641618E+03  0.61395843986E+03  0.91147786483E+02 0.  0.
          3    1    3    3  502    0  0.34588017625E+02 -0.15783706927E+03  0.53042449887E+03  0.55448987402E+03  0.00000000000E+00 0. -1.
         -3    1    3    3    0  502 -0.10436045391E+02 -0.26736074354E+02  0.22120838277E+02  0.36236172553E+02  0.00000000000E+00 0.  1.
         11    1    5    5    0    0 -0.39713379436E+03 -0.54216390524E+02 -0.34968835694E+03  0.53191786453E+03  0.00000000000E+00 0.  1.
        -11    1    5    5    0    0 -0.39685687806E+02  0.19234074092E+02 -0.63977040664E+02  0.77704344504E+02  0.00000000000E+00 0. -1.
          1    1    6    6  503    0  0.15428755529E+03  0.46591783132E+02 -0.94982496871E+02  0.18707516854E+03  0.00000000000E+00 0. -1.
         -1    1    6    6    0  503  0.25837995464E+03  0.17296367692E+03 -0.29249391931E+03  0.42688327132E+03  0.00000000000E+00 0.  1.
<mgrwt>
<rscale>  0 0.17971946E+04</rscale>
<asrwt>0</asrwt>
<pdfrwt beam="1">  1        1 0.12043925E+00 0.17971946E+04</pdfrwt>
<pdfrwt beam="2">  1       -1 0.15868486E+00 0.17971946E+04</pdfrwt>
<totfact> 0.64608311E+00</totfact>
</mgrwt>
</event>
<event>
12    2  0.3623523E-008  0.1438188E+04  0.7818608E-02  0.8926631E-01
         -2   -1    0    0    0  501 -0.00000000000E+00  0.00000000000E+00  0.13817318140E+04  0.13817318140E+04  0.00000000000E+00 0.  1.
          2   -1    0    0  501    0  0.00000000000E+00 -0.00000000000E+00 -0.37423752690E+03  0.37423752690E+03  0.00000000000E+00 0. -1.
         23    2    1    2    0    0 -0.21292685024E+02 -0.24307817663E+03 -0.12305362829E+03  0.28766311053E+03  0.89819214750E+02 0.  0.
        254    2    1    2    0    0  0.21292685024E+02  0.24307817663E+03  0.11305479153E+04  0.14683062303E+04  0.90456852626E+03 0.  0.
         23    2    4    4    0    0 -0.27764188429E+03 -0.54642627446E+02  0.46040796521E+02  0.30105865304E+03  0.91900625589E+02 0.  0.
         23    2    4    4    0    0  0.29893456931E+03  0.29772080407E+03  0.10845071188E+04  0.11672475773E+04  0.91168316677E+02 0.  0.
          4    1    3    3  502    0 -0.34625617083E+02 -0.28021633904E+02 -0.20662863725E+02  0.49102945556E+02  0.00000000000E+00 0. -1.
         -4    1    3    3    0  502  0.13332932059E+02 -0.21505654272E+03 -0.10239076456E+03  0.23856016498E+03  0.00000000000E+00 0.  1.
         11    1    5    5    0    0 -0.17549150574E+03 -0.48094831455E+01  0.62216102971E+02  0.18625585410E+03  0.00000000000E+00 0. -1.
        -11    1    5    5    0    0 -0.10215037854E+03 -0.49833144300E+02 -0.16175306450E+02  0.11480279895E+03  0.00000000000E+00 0.  1.
          2    1    6    6  503    0  0.29408437957E+03  0.27596459431E+03  0.10599669918E+04  0.11340952796E+04  0.00000000000E+00 0. -1.
         -2    1    6    6    0  503  0.48501897447E+01  0.21756209763E+02  0.24540127052E+02  0.33152297651E+02  0.00000000000E+00 0.  1.
<mgrwt>
<rscale>  0 0.14381876E+04</rscale>
<asrwt>0</asrwt>
<pdfrwt beam="1">  1        2 0.57575005E-01 0.14381876E+04</pdfrwt>
<pdfrwt beam="2">  1       -2 0.21257412E+00 0.14381876E+04</pdfrwt>
<totfact> 0.91638501E+00</totfact>
</mgrwt>
</event>
<event>
12    2  0.3623523E-008  0.1214888E+04  0.7818608E-02  0.9099924E-01
         -2   -1    0    0    0  501 -0.00000000000E+00  0.00000000000E+00  0.22826197673E+03  0.22826197673E+03  0.00000000000E+00 0. -1.
          2   -1    0    0  501    0  0.00000000000E+00 -0.00000000000E+00 -0.16165116271E+04  0.16165116271E+04  0.00000000000E+00 0.  1.
         23    2    1    2    0    0 -0.24336646117E+03  0.38729094595E+02 -0.39235301309E+03  0.47294450005E+03  0.94912781331E+02 0.  0.
        254    2    1    2    0    0  0.24336646117E+03 -0.38729094595E+02 -0.99589663729E+03  0.13718291038E+04  0.91070181763E+03 0.  0.
         23    2    4    4    0    0  0.51829982966E+03 -0.24066811031E+03 -0.51089108853E+03  0.77193377780E+03  0.91193202727E+02 0.  0.
         23    2    4    4    0    0 -0.27493336849E+03  0.20193901571E+03 -0.48500554876E+03  0.59989532598E+03  0.90974153638E+02 0.  0.
          1    1    3    3  502    0  0.42280803264E+01 -0.93851471899E+01 -0.72356188326E+01  0.12582202944E+02  0.00000000000E+00 0. -1.
         -1    1    3    3    0  502 -0.24759454150E+03  0.48114241785E+02 -0.38511739425E+03  0.46036229711E+03  0.00000000000E+00 0.  1.
         11    1    5    5    0    0  0.45913628534E+03 -0.24141311442E+03 -0.47019421476E+03  0.70012071811E+03  0.00000000000E+00 0.  1.
        -11    1    5    5    0    0  0.59163544320E+02  0.74500411252E+00 -0.40696873768E+02  0.71813059691E+02  0.00000000000E+00 0. -1.
          1    1    6    6  503    0 -0.32444572691E+02  0.16817035078E+01 -0.85457497112E+02  0.91424625984E+02  0.00000000000E+00 0. -1.
         -1    1    6    6    0  503 -0.24248879580E+03  0.20025731220E+03 -0.39954805165E+03  0.50847070000E+03  0.00000000000E+00 0.  1.
<mgrwt>
<rscale>  0 0.12148879E+04</rscale>
<asrwt>0</asrwt>
<pdfrwt beam="1">  1        2 0.24869410E+00 0.12148879E+04</pdfrwt>
<pdfrwt beam="2">  1       -2 0.35117226E-01 0.12148879E+04</pdfrwt>
<totfact> 0.81888666E+01</totfact>
</mgrwt>
</event>
<event>
12    2  0.3623523E-008  0.1956735E+04  0.7818608E-02  0.8627120E-01
          2   -1    0    0  501    0  0.00000000000E+00  0.00000000000E+00  0.16861265042E+04  0.16861265042E+04  0.00000000000E+00 0. -1.
         -2   -1    0    0    0  501 -0.00000000000E+00 -0.00000000000E+00 -0.56769343686E+03  0.56769343686E+03  0.00000000000E+00 0.  1.
         23    2    1    2    0    0  0.29349273602E+03 -0.70555749068E+03  0.38430307097E+03  0.86018814582E+03  0.91024376483E+02 0.  0.
        254    2    1    2    0    0 -0.29349273602E+03  0.70555749068E+03  0.73412999637E+03  0.13936317952E+04  0.90515930661E+03 0.  0.
         23    2    4    4    0    0 -0.52672775027E+03  0.43389468101E+03  0.76021940133E+03  0.10255977033E+04  0.90611223600E+02 0.  0.
         23    2    4    4    0    0  0.23323501425E+03  0.27166280967E+03 -0.26089404958E+02  0.36803409188E+03  0.81050488641E+02 0.  0.
          3    1    3    3  502    0 -0.66988810727E+01 -0.19410975704E+02  0.81429595811E+01  0.22090015304E+02  0.00000000000E+00 0. -1.
         -3    1    3    3    0  502  0.30019161709E+03 -0.68614651497E+03  0.37616011139E+03  0.83809813052E+03  0.00000000000E+00 0.  1.
         11    1    5    5    0    0 -0.25780448511E+03  0.24737172108E+03  0.45068894758E+03  0.57513167919E+03  0.00000000000E+00 0.  1.
        -11    1    5    5    0    0 -0.26892326516E+03  0.18652295993E+03  0.30953045375E+03  0.45046602416E+03  0.00000000000E+00 0. -1.
          3    1    6    6  503    0  0.15386345718E+03  0.12542087746E+03  0.59057124686E+01  0.19859314539E+03  0.00000000000E+00 0. -1.
         -3    1    6    6    0  503  0.79371557069E+02  0.14624193221E+03 -0.31995117427E+02  0.16944094649E+03  0.00000000000E+00 0.  1.
<mgrwt>
<rscale>  0 0.19567350E+04</rscale>
<asrwt>0</asrwt>
<pdfrwt beam="1">  1        2 0.25940407E+00 0.19567350E+04</pdfrwt>
<pdfrwt beam="2">  1       -2 0.87337453E-01 0.19567350E+04</pdfrwt>
<totfact> 0.10539603E+01</totfact>
</mgrwt>
</event>
<event>
12    2  0.3623523E-008  0.1239535E+04  0.7818608E-02  0.9078939E-01
          2   -1    0    0  501    0  0.00000000000E+00  0.00000000000E+00  0.15195263416E+04  0.15195263416E+04  0.00000000000E+00 0. -1.
         -2   -1    0    0    0  501 -0.00000000000E+00 -0.00000000000E+00 -0.25278375275E+03  0.25278375275E+03  0.00000000000E+00 0.  1.
         23    2    1    2    0    0 -0.21074830161E+03  0.18147035577E+03  0.34767476329E+03  0.45453981319E+03  0.91555251582E+02 0.  0.
        254    2    1    2    0    0  0.21074830161E+03 -0.18147035577E+03  0.91906782552E+03  0.13177702811E+04  0.90248906323E+03 0.  0.
         23    2    4    4    0    0  0.47307771547E+03 -0.33791412756E+03  0.75948613359E+03  0.96120447803E+03  0.95427349320E+02 0.  0.
         23    2    4    4    0    0 -0.26232941386E+03  0.15644377179E+03  0.15958169194E+03  0.35656580310E+03  0.91550425595E+02 0.  0.
          3    1    3    3  502    0 -0.18264778567E+03  0.10591213873E+03  0.23387007755E+03  0.31507587644E+03  0.00000000000E+00 0. -1.
         -3    1    3    3    0  502 -0.28100515941E+02  0.75558217036E+02  0.11380468574E+03  0.13946393675E+03  0.00000000000E+00 0.  1.
         11    1    5    5    0    0  0.15106047040E+03 -0.62599527778E+02  0.24779682250E+03  0.29688589026E+03  0.00000000000E+00 0. -1.
        -11    1    5    5    0    0  0.32201724507E+03 -0.27531459978E+03  0.51168931109E+03  0.66431858777E+03  0.00000000000E+00 0.  1.
          4    1    6    6  503    0 -0.11091916774E+03  0.11941067494E+03  0.80157991308E+02  0.18162399245E+03  0.00000000000E+00 0.  1.
         -4    1    6    6    0  503 -0.15141024611E+03  0.37033096859E+02  0.79423700628E+02  0.17494181065E+03  0.00000000000E+00 0. -1.
<mgrwt>
<rscale>  0 0.12395347E+04</rscale>
<asrwt>0</asrwt>
<pdfrwt beam="1">  1        2 0.23377328E+00 0.12395347E+04</pdfrwt>
<pdfrwt beam="2">  1       -2 0.38889809E-01 0.12395347E+04</pdfrwt>
<totfact> 0.76075324E+01</totfact>
</mgrwt>
</event>
<event>
12    2  0.3623523E-008  0.2466898E+04  0.7818608E-02  0.8414874E-01
          2   -1    0    0  501    0  0.00000000000E+00  0.00000000000E+00  0.97766218406E+03  0.97766218406E+03  0.00000000000E+00 0. -1.
         -2   -1    0    0    0  501 -0.00000000000E+00 -0.00000000000E+00 -0.15561581068E+04  0.15561581068E+04  0.00000000000E+00 0.  1.
         23    2    1    2    0    0 -0.81475279246E+03 -0.45989013155E+03  0.28838240643E+03  0.98353771963E+03  0.94132819421E+02 0.  0.
        254    2    1    2    0    0  0.81475279246E+03  0.45989013155E+03 -0.86687832921E+03  0.15502825713E+04  0.88123604511E+03 0.  0.
         23    2    4    4    0    0  0.17926375311E+03  0.16231780103E+03 -0.79858226161E+03  0.83951587035E+03  0.92578109204E+02 0.  0.
         23    2    4    4    0    0  0.63548903935E+03  0.29757233052E+03 -0.68296067598E+02  0.71076670091E+03  0.90162848497E+02 0.  0.
          2    1    3    3  502    0 -0.69423591878E+03 -0.41506689646E+03  0.27471003247E+03  0.85423043811E+03  0.00000000000E+00 0. -1.
         -2    1    3    3    0  502 -0.12051687368E+03 -0.44823235091E+02  0.13672373965E+02  0.12930728152E+03  0.00000000000E+00 0.  1.
         11    1    5    5    0    0  0.18539470052E+03  0.16712040209E+03 -0.75347280149E+03  0.79373905432E+03  0.00000000000E+00 0. -1.
        -11    1    5    5    0    0 -0.61309474106E+01 -0.48026010637E+01 -0.45109460121E+02  0.45776816027E+02  0.00000000000E+00 0.  1.
          3    1    6    6  503    0  0.21983168914E+03  0.85135844848E+02  0.16545043793E+02  0.23632143809E+03  0.00000000000E+00 0. -1.
         -3    1    6    6    0  503  0.41565735021E+03  0.21243648567E+03 -0.84841111391E+02  0.47444526282E+03  0.00000000000E+00 0.  1.
<mgrwt>
<rscale>  0 0.24668984E+04</rscale>
<asrwt>0</asrwt>
<pdfrwt beam="1">  1        2 0.15040957E+00 0.24668984E+04</pdfrwt>
<pdfrwt beam="2">  1       -2 0.23940894E+00 0.24668984E+04</pdfrwt>
<totfact> 0.17394452E+00</totfact>
</mgrwt>
</event>
<event>
12    2  0.3623523E-008  0.1860773E+04  0.7818608E-02  0.8674632E-01
         -2   -1    0    0    0  501 -0.00000000000E+00  0.00000000000E+00  0.50119529381E+03  0.50119529381E+03  0.00000000000E+00 0.  1.
          2   -1    0    0  501    0  0.00000000000E+00 -0.00000000000E+00 -0.17271089318E+04  0.17271089318E+04  0.00000000000E+00 0. -1.
         23    2    1    2    0    0 -0.68193090308E+03 -0.13117996488E+03 -0.65832401984E+03  0.96122234223E+03  0.91213685059E+02 0.  0.
        254    2    1    2    0    0  0.68193090308E+03  0.13117996488E+03 -0.56758961811E+03  0.12670818833E+04  0.89504222511E+03 0.  0.
         23    2    4    4    0    0  0.53770623283E+03 -0.33188454767E+03 -0.34910978841E+03  0.72771207037E+03  0.91716231944E+02 0.  0.
         23    2    4    4    0    0  0.14422467025E+03  0.46306451255E+03 -0.21847982970E+03  0.53936981296E+03  0.89201237986E+02 0.  0.
          4    1    3    3  502    0 -0.36615639264E+03 -0.29314115213E+02 -0.37474427380E+03  0.52475050449E+03  0.00000000000E+00 0. -1.
         -4    1    3    3    0  502 -0.31577451044E+03 -0.10186584966E+03 -0.28357974605E+03  0.43647183774E+03  0.00000000000E+00 0.  1.
         11    1    5    5    0    0  0.52423173246E+03 -0.32398039453E+03 -0.31933305050E+03  0.69408630767E+03  0.00000000000E+00 0.  1.
        -11    1    5    5    0    0  0.13474500367E+02 -0.79041531448E+01 -0.29776737901E+02  0.33625762700E+02  0.00000000000E+00 0. -1.
          3    1    6    6  503    0  0.10011798460E+03  0.18190364771E+03 -0.10834639725E+03  0.23420394892E+03  0.00000000000E+00 0. -1.
         -3    1    6    6    0  503  0.44106685648E+02  0.28116086484E+03 -0.11013343245E+03  0.30516586404E+03  0.00000000000E+00 0.  1.
<mgrwt>
<rscale>  0 0.18607728E+04</rscale>
<asrwt>0</asrwt>
<pdfrwt beam="1">  1        2 0.26570906E+00 0.18607728E+04</pdfrwt>
<pdfrwt beam="2">  1       -2 0.77106969E-01 0.18607728E+04</pdfrwt>
<totfact> 0.13358983E+01</totfact>
</mgrwt>
</event>
<event>
12    2  0.3623523E-008  0.1770921E+04  0.7818608E-02  0.8721918E-01
          1   -1    0    0  501    0  0.00000000000E+00  0.00000000000E+00  0.10926928744E+04  0.10926928744E+04  0.00000000000E+00 0. -1.
         -1   -1    0    0    0  501 -0.00000000000E+00 -0.00000000000E+00 -0.71752994639E+03  0.71752994639E+03  0.00000000000E+00 0.  1.
         23    2    1    2    0    0  0.11014229644E+03  0.61745416247E+03  0.32209221319E+03  0.71093193403E+03  0.91103527976E+02 0.  0.
        254    2    1    2    0    0 -0.11014229644E+03 -0.61745416247E+03  0.53070714808E+02  0.10992908867E+04  0.90124524115E+03 0.  0.
         23    2    4    4    0    0 -0.27627433966E+03  0.16190209889E+02  0.27616579159E+03  0.40140881969E+03  0.90949779732E+02 0.  0.
         23    2    4    4    0    0  0.16613204322E+03 -0.63364437236E+03 -0.22309507678E+03  0.69788206705E+03  0.90348878364E+02 0.  0.
          3    1    3    3  502    0  0.76224150654E+02  0.31148008876E+03  0.11856973105E+03  0.34188996469E+03  0.00000000000E+00 0. -1.
         -3    1    3    3    0  502  0.33918145787E+02  0.30597407372E+03  0.20352248214E+03  0.36904196934E+03  0.00000000000E+00 0.  1.
         11    1    5    5    0    0 -0.22781246503E+03  0.17402633980E+02  0.26812827635E+03  0.35226998662E+03  0.00000000000E+00 0.  1.
        -11    1    5    5    0    0 -0.48461874629E+02 -0.12124240916E+01  0.80375152355E+01  0.49138833074E+02  0.00000000000E+00 0. -1.
          3    1    6    6  503    0  0.65150730216E+01 -0.10503949847E+03 -0.64277878910E+02  0.12331823925E+03  0.00000000000E+00 0. -1.
         -3    1    6    6    0  503  0.15961697020E+03 -0.52860487390E+03 -0.15881719787E+03  0.57456382780E+03  0.00000000000E+00 0.  1.
<mgrwt>
<rscale>  0 0.17709205E+04</rscale>
<asrwt>0</asrwt>
<pdfrwt beam="1">  1        1 0.16810659E+00 0.17709205E+04</pdfrwt>
<pdfrwt beam="2">  1       -1 0.11038922E+00 0.17709205E+04</pdfrwt>
<totfact> 0.91943212E+00</totfact>
</mgrwt>
</event>
<event>
12    2  0.3623523E-008  0.2025183E+04  0.7818608E-02  0.8594936E-01
         -2   -1    0    0    0  501 -0.00000000000E+00  0.00000000000E+00  0.10453234775E+04  0.10453234775E+04  0.00000000000E+00 0.  1.
          2   -1    0    0  501    0  0.00000000000E+00 -0.00000000000E+00 -0.98088460041E+03  0.98088460041E+03  0.00000000000E+00 0. -1.
         23    2    1    2    0    0 -0.66021242142E+03 -0.38288821715E+03  0.27948168901E+03  0.81774089363E+03  0.90035139755E+02 0.  0.
        254    2    1    2    0    0  0.66021242142E+03  0.38288821715E+03 -0.21504281195E+03  0.12084671843E+04  0.91195706929E+03 0.  0.
         23    2    4    4    0    0  0.57595249496E+03  0.64663785155E+03 -0.26950199004E+03  0.91150897585E+03  0.91408439978E+02 0.  0.
         23    2    4    4    0    0  0.84259926457E+02 -0.26374963440E+03  0.54459178097E+02  0.29695820841E+03  0.92492002941E+02 0.  0.
          1    1    3    3  502    0 -0.22741120956E+03 -0.15829961033E+03  0.62527065498E+02  0.28404974702E+03  0.00000000000E+00 0. -1.
         -1    1    3    3    0  502 -0.43280121186E+03 -0.22458860682E+03  0.21695462352E+03  0.53369114660E+03  0.00000000000E+00 0.  1.
         11    1    5    5    0    0  0.21936455101E+03  0.30630601651E+03 -0.94397379237E+02  0.38840062718E+03  0.00000000000E+00 0. -1.
        -11    1    5    5    0    0  0.35658794395E+03  0.34033183504E+03 -0.17510461081E+03  0.52310834866E+03  0.00000000000E+00 0.  1.
          4    1    6    6  503    0  0.56708940471E+02 -0.25419149088E+03  0.37232729016E+02  0.26308837693E+03  0.00000000000E+00 0.  1.
         -4    1    6    6    0  503  0.27550985986E+02 -0.95581435198E+01  0.17226449080E+02  0.33869831477E+02  0.00000000000E+00 0. -1.
<mgrwt>
<rscale>  0 0.20251832E+04</rscale>
<asrwt>0</asrwt>
<pdfrwt beam="1">  1        2 0.15090532E+00 0.20251832E+04</pdfrwt>
<pdfrwt beam="2">  1       -2 0.16081900E+00 0.20251832E+04</pdfrwt>
<totfact> 0.59676732E+00</totfact>
</mgrwt>
</event>
<event>
12    2  0.3623523E-008  0.1584554E+04  0.7818608E-02  0.8830094E-01
         -1   -1    0    0    0  501 -0.00000000000E+00  0.00000000000E+00  0.15106899567E+04  0.15106899567E+04  0.00000000000E+00 0.  1.
          1   -1    0    0  501    0  0.00000000000E+00 -0.00000000000E+00 -0.41550741420E+03  0.41550741420E+03  0.00000000000E+00 0. -1.
         23    2    1    2    0    0 -0.10904443505E+03 -0.15929448077E+03 -0.23156052741E+03  0.31455084516E+03  0.89758208087E+02 0.  0.
        254    2    1    2    0    0  0.10904443505E+03  0.15929448077E+03  0.13267430699E+04  0.16116465258E+04  0.89436677599E+03 0.  0.
         23    2    4    4    0    0 -0.13319406296E+02  0.48555596949E+03  0.46525634626E+03  0.67794834315E+03  0.84902780603E+02 0.  0.
         23    2    4    4    0    0  0.12236384135E+03 -0.32626148872E+03  0.86148672366E+03  0.93369818261E+03  0.90628099822E+02 0.  0.
          4    1    3    3  502    0 -0.48779679402E+02 -0.13954046214E+03 -0.17926265203E+03  0.23234908244E+03  0.00000000000E+00 0. -1.
         -4    1    3    3    0  502 -0.60264755650E+02 -0.19754018625E+02 -0.52297875373E+02  0.82201762718E+02  0.00000000000E+00 0.  1.
         11    1    5    5    0    0 -0.12820868397E+02  0.38040495287E+03  0.40894811646E+03  0.55866883284E+03  0.00000000000E+00 0. -1.
        -11    1    5    5    0    0 -0.49853789964E+00  0.10515101662E+03  0.56308229807E+02  0.11927951031E+03  0.00000000000E+00 0.  1.
          4    1    6    6  503    0  0.12606775617E+03 -0.28119695466E+03  0.67841748988E+03  0.74512757098E+03  0.00000000000E+00 0. -1.
         -4    1    6    6    0  503 -0.37039148194E+01 -0.45064534058E+02  0.18306923378E+03  0.18857061163E+03  0.00000000000E+00 0.  1.
<mgrwt>
<rscale>  0 0.15845540E+04</rscale>
<asrwt>0</asrwt>
<pdfrwt beam="1">  1        1 0.63924218E-01 0.15845540E+04</pdfrwt>
<pdfrwt beam="2">  1       -1 0.23241384E+00 0.15845540E+04</pdfrwt>
<totfact> 0.49842785E+00</totfact>
</mgrwt>
</event>
<event>
12    2  0.3623523E-008  0.2187781E+04  0.7818608E-02  0.8523531E-01
          1   -1    0    0  501    0  0.00000000000E+00  0.00000000000E+00  0.96206634023E+03  0.96206634023E+03  0.00000000000E+00 0. -1.
         -1   -1    0    0    0  501 -0.00000000000E+00 -0.00000000000E+00 -0.12437772086E+04  0.12437772086E+04  0.00000000000E+00 0.  1.
         23    2    1    2    0    0 -0.53941735021E+03 -0.53409737407E+03  0.37964587378E+03  0.85382831293E+03  0.93062966786E+02 0.  0.
        254    2    1    2    0    0  0.53941735021E+03  0.53409737407E+03 -0.66135674212E+03  0.13520152359E+04  0.90239757034E+03 0.  0.
         23    2    4    4    0    0  0.16201531930E+03  0.46986352962E+03 -0.78997268905E+03  0.93787814853E+03  0.92400605476E+02 0.  0.
         23    2    4    4    0    0  0.37740203091E+03  0.64233844450E+02  0.12861594692E+03  0.41413708733E+03  0.91701611739E+02 0.  0.
          1    1    3    3  502    0 -0.53485088508E+03 -0.53541057389E+03  0.38282961489E+03  0.84810875832E+03  0.00000000000E+00 0. -1.
         -1    1    3    3    0  502 -0.45664651294E+01  0.13131998162E+01 -0.31837411064E+01  0.57195546128E+01  0.00000000000E+00 0.  1.
         11    1    5    5    0    0  0.11349582148E+03  0.25487775801E+03 -0.36791291870E+03  0.46174006623E+03  0.00000000000E+00 0. -1.
        -11    1    5    5    0    0  0.48519497820E+02  0.21498577161E+03 -0.42205977035E+03  0.47613808230E+03  0.00000000000E+00 0.  1.
          1    1    6    6  503    0  0.19541328271E+03 -0.82903942064E+01  0.42580692072E+02  0.20017041997E+03  0.00000000000E+00 0. -1.
         -1    1    6    6    0  503  0.18198874820E+03  0.72524238656E+02  0.86035254851E+02  0.21396666736E+03  0.00000000000E+00 0.  1.
<mgrwt>
<rscale>  0 0.21877808E+04</rscale>
<asrwt>0</asrwt>
<pdfrwt beam="1">  1        1 0.14801021E+00 0.21877808E+04</pdfrwt>
<pdfrwt beam="2">  1       -1 0.19135034E+00 0.21877808E+04</pdfrwt>
<totfact> 0.25579209E+00</totfact>
</mgrwt>
</event>
<event>
12    2  0.3623523E-008  0.2961027E+04  0.7818608E-02  0.8254948E-01
          2   -1    0    0  501    0  0.00000000000E+00  0.00000000000E+00  0.13357613061E+04  0.13357613061E+04  0.00000000000E+00 0.  1.
         -2   -1    0    0    0  501 -0.00000000000E+00 -0.00000000000E+00 -0.16409517048E+04  0.16409517048E+04  0.00000000000E+00 0. -1.
         23    2    1    2    0    0  0.11492656482E+04 -0.49586960147E+03 -0.62946984421E+03  0.14040610031E+04  0.91960990586E+02 0.  0.
        254    2    1    2    0    0 -0.11492656482E+04  0.49586960147E+03  0.32427944555E+03  0.15726520078E+04  0.89519773634E+03 0.  0.
         23    2    4    4    0    0 -0.68191418868E+03  0.89473235154E+02 -0.23580690700E+03  0.73266219248E+03  0.90424390371E+02 0.  0.
         23    2    4    4    0    0 -0.46735145952E+03  0.40639636632E+03  0.56008635255E+03  0.83998981535E+03  0.91163448356E+02 0.  0.
          2    1    3    3  502    0  0.51134081606E+03 -0.24531020573E+03 -0.24065320046E+03  0.61608480755E+03  0.00000000000E+00 0. -1.
         -2    1    3    3    0  502  0.63792483214E+03 -0.25055939574E+03 -0.38881664375E+03  0.78797619552E+03  0.00000000000E+00 0.  1.
         11    1    5    5    0    0 -0.75961581235E+02  0.20246187452E+02  0.42882111848E+00  0.78614590361E+02  0.00000000000E+00 0.  1.
        -11    1    5    5    0    0 -0.60595260745E+03  0.69227047701E+02 -0.23623572811E+03  0.65404760212E+03  0.00000000000E+00 0. -1.
          1    1    6    6  503    0 -0.13486163877E+03  0.68238624933E+02  0.11953296424E+03  0.19269743404E+03  0.00000000000E+00 0. -1.
         -1    1    6    6    0  503 -0.33248982074E+03  0.33815774138E+03  0.44055338831E+03  0.64729238131E+03  0.00000000000E+00 0.  1.
<mgrwt>
<rscale>  0 0.29610267E+04</rscale>
<asrwt>0</asrwt>
<pdfrwt beam="1">  1        2 0.20550174E+00 0.29610267E+04</pdfrwt>
<pdfrwt beam="2">  1       -2 0.25245411E+00 0.29610267E+04</pdfrwt>
<totfact> 0.83991644E-01</totfact>
</mgrwt>
</event>
<event>
12    2  0.3623523E-008  0.1290592E+04  0.7818608E-02  0.9037059E-01
          2   -1    0    0  501    0  0.00000000000E+00  0.00000000000E+00  0.42978345757E+04  0.42978345757E+04  0.00000000000E+00 0.  1.
         -2   -1    0    0    0  501 -0.00000000000E+00 -0.00000000000E+00 -0.96887670051E+02  0.96887670051E+02  0.00000000000E+00 0. -1.
         23    2    1    2    0    0 -0.49842038692E+02  0.30472386670E+03  0.11587222835E+04  0.12034277793E+04  0.10129277371E+03 0.  0.
        254    2    1    2    0    0  0.49842038692E+02 -0.30472386670E+03  0.30422246221E+04  0.31912944664E+04  0.91317515083E+03 0.  0.
         23    2    4    4    0    0 -0.41946264925E+02 -0.52743719814E+03  0.27445940768E+04  0.27966922286E+04  0.93494855602E+02 0.  0.
         23    2    4    4    0    0  0.91788303617E+02  0.22271333144E+03  0.29763054531E+03  0.39460223778E+03  0.95397399750E+02 0.  0.
          3    1    3    3  502    0 -0.36658492670E+02  0.55985317071E+02  0.14735663836E+03  0.16183998172E+03  0.00000000000E+00 0. -1.
         -3    1    3    3    0  502 -0.13183546022E+02  0.24873854962E+03  0.10113656451E+04  0.10415877976E+04  0.00000000000E+00 0.  1.
         11    1    5    5    0    0 -0.14010944921E+02 -0.48754143855E+03  0.25372561644E+04  0.25837108594E+04  0.00000000000E+00 0. -1.
        -11    1    5    5    0    0 -0.27935320004E+02 -0.39895759592E+02  0.20733791241E+03  0.21298136928E+03  0.00000000000E+00 0.  1.
          3    1    6    6  503    0  0.85766574032E+02  0.16244637768E+03  0.15761395275E+03  0.24204728659E+03  0.00000000000E+00 0. -1.
         -3    1    6    6    0  503  0.60217295852E+01  0.60266953764E+02  0.14001659255E+03  0.15255495119E+03  0.00000000000E+00 0.  1.
<mgrwt>
<rscale>  0 0.12905924E+04</rscale>
<asrwt>0</asrwt>
<pdfrwt beam="1">  1        2 0.66120517E+00 0.12905924E+04</pdfrwt>
<pdfrwt beam="2">  1       -2 0.14905799E-01 0.12905924E+04</pdfrwt>
<totfact> 0.69240506E+00</totfact>
</mgrwt>
</event>
<event>
12    2  0.3623523E-008  0.1809425E+04  0.7818608E-02  0.8701303E-01
          1   -1    0    0  501    0  0.00000000000E+00  0.00000000000E+00  0.11732431000E+04  0.11732431000E+04  0.00000000000E+00 0. -1.
         -1   -1    0    0    0  501 -0.00000000000E+00 -0.00000000000E+00 -0.69764323858E+03  0.69764323858E+03  0.00000000000E+00 0.  1.
         23    2    1    2    0    0 -0.23910859674E+03 -0.12306314619E+03 -0.46022455182E+03  0.53957511796E+03  0.83768793944E+02 0.  0.
        254    2    1    2    0    0  0.23910859674E+03  0.12306314619E+03  0.93582441326E+03  0.13313112206E+04  0.90791231665E+03 0.  0.
         23    2    4    4    0    0  0.17266922133E+03  0.51621771729E+02 -0.14090826593E+03  0.24629620187E+03  0.91253560676E+02 0.  0.
         23    2    4    4    0    0  0.66439375411E+02  0.71441374461E+02  0.10767326792E+04  0.10850150188E+04  0.91576568442E+02 0.  0.
          1    1    3    3  502    0 -0.45279072688E+02  0.29395060766E+00 -0.38975128358E+02  0.59743965896E+02  0.00000000000E+00 0. -1.
         -1    1    3    3    0  502 -0.19382952406E+03 -0.12335709680E+03 -0.42124942346E+03  0.47983115207E+03  0.00000000000E+00 0.  1.
         11    1    5    5    0    0  0.13974315463E+02  0.40360429040E+02 -0.25409229984E+02  0.49697833890E+02  0.00000000000E+00 0. -1.
        -11    1    5    5    0    0  0.15869490587E+03  0.11261342689E+02 -0.11549903595E+03  0.19659836798E+03  0.00000000000E+00 0.  1.
          3    1    6    6  503    0  0.27232015649E+02 -0.19629786546E+02  0.33674263996E+03  0.33841175624E+03  0.00000000000E+00 0. -1.
         -3    1    6    6    0  503  0.39207359762E+02  0.91071161007E+02  0.73999003923E+03  0.74660326251E+03  0.00000000000E+00 0.  1.
<mgrwt>
<rscale>  0 0.18094255E+04</rscale>
<asrwt>0</asrwt>
<pdfrwt beam="1">  1        1 0.18049894E+00 0.18094255E+04</pdfrwt>
<pdfrwt beam="2">  1       -1 0.10732973E+00 0.18094255E+04</pdfrwt>
<totfact> 0.85263271E+00</totfact>
</mgrwt>
</event>
<event>
12    2  0.3623523E-008  0.1921832E+04  0.7818608E-02  0.8644065E-01
         -1   -1    0    0    0  501 -0.00000000000E+00  0.00000000000E+00  0.74716564392E+03  0.74716564392E+03  0.00000000000E+00 0.  1.
          1   -1    0    0  501    0  0.00000000000E+00 -0.00000000000E+00 -0.12358164779E+04  0.12358164779E+04  0.00000000000E+00 0. -1.
         23    2    1    2    0    0 -0.42169080616E+03  0.20392735620E+03 -0.78633397135E+03  0.91938436970E+03  0.86815909480E+02 0.  0.
        254    2    1    2    0    0  0.42169080616E+03 -0.20392735620E+03  0.29768313735E+03  0.10635977521E+04  0.90731219846E+03 0.  0.
         23    2    4    4    0    0  0.62624098464E+03  0.29293698921E+02  0.36882864692E+03  0.73295598342E+03  0.90299563727E+02 0.  0.
         23    2    4    4    0    0 -0.20455017848E+03 -0.23322105512E+03 -0.71145509567E+02  0.33064176871E+03  0.89607252051E+02 0.  0.
          3    1    3    3  502    0 -0.42457456578E+03  0.20090193084E+03 -0.78534201592E+03  0.91508864581E+03  0.00000000000E+00 0. -1.
         -3    1    3    3    0  502  0.28837596204E+01  0.30254253597E+01 -0.99195543363E+00  0.42957238898E+01  0.00000000000E+00 0.  1.
         11    1    5    5    0    0  0.33138376630E+03  0.27318458257E+02  0.14493668163E+03  0.36272322838E+03  0.00000000000E+00 0.  1.
        -11    1    5    5    0    0  0.29485721834E+03  0.19752406641E+01  0.22389196529E+03  0.37023275504E+03  0.00000000000E+00 0. -1.
          2    1    6    6  503    0 -0.46039278504E+02 -0.11059849279E+02 -0.26007561760E+02  0.54021557733E+02  0.00000000000E+00 0. -1.
         -2    1    6    6    0  503 -0.15851089998E+03 -0.22216120584E+03 -0.45137947807E+02  0.27662021098E+03  0.00000000000E+00 0.  1.
<mgrwt>
<rscale>  0 0.19218321E+04</rscale>
<asrwt>0</asrwt>
<pdfrwt beam="1">  1        1 0.19012561E+00 0.19218321E+04</pdfrwt>
<pdfrwt beam="2">  1       -1 0.11494856E+00 0.19218321E+04</pdfrwt>
<totfact> 0.64575060E+00</totfact>
</mgrwt>
</event>
<event>
12    2  0.3623523E-008  0.2469975E+04  0.7818608E-02  0.8413761E-01
          1   -1    0    0  501    0  0.00000000000E+00  0.00000000000E+00  0.21541609806E+04  0.21541609806E+04  0.00000000000E+00 0. -1.
         -1   -1    0    0    0  501 -0.00000000000E+00 -0.00000000000E+00 -0.70802255037E+03  0.70802255037E+03  0.00000000000E+00 0.  1.
         23    2    1    2    0    0  0.99849560497E+03 -0.38094450232E+03  0.57847080136E+03  0.12186211752E+04  0.91087395010E+02 0.  0.
        254    2    1    2    0    0 -0.99849560497E+03  0.38094450232E+03  0.86766762893E+03  0.16435623559E+04  0.89796320432E+03 0.  0.
         23    2    4    4    0    0  0.39649369716E+02  0.10186412172E+03  0.47126196101E+03  0.49401723328E+03  0.10008406003E+03 0.  0.
         23    2    4    4    0    0 -0.10381449747E+04  0.27908038060E+03  0.39640566792E+03  0.11495451226E+04  0.93197038442E+02 0.  0.
          3    1    3    3  502    0  0.89989742991E+03 -0.34752209168E+03  0.48991965301E+03  0.10819465121E+04  0.00000000000E+00 0. -1.
         -3    1    3    3    0  502  0.98598175060E+02 -0.33422410645E+02  0.88551148349E+02  0.13667466310E+03  0.00000000000E+00 0.  1.
         11    1    5    5    0    0  0.16074948363E+02  0.32815420535E+02  0.35419326169E+03  0.35607319811E+03  0.00000000000E+00 0. -1.
        -11    1    5    5    0    0  0.23574421354E+02  0.69048701189E+02  0.11706869932E+03  0.13794403517E+03  0.00000000000E+00 0.  1.
          1    1    6    6  503    0 -0.38968093026E+03  0.15158598111E+03  0.15780718162E+03  0.44691458205E+03  0.00000000000E+00 0. -1.
         -1    1    6    6    0  503 -0.64846404443E+03  0.12749439949E+03  0.23859848629E+03  0.70263054052E+03  0.00000000000E+00 0.  1.
<mgrwt>
<rscale>  0 0.24699753E+04</rscale>
<asrwt>0</asrwt>
<pdfrwt beam="1">  1        1 0.33140938E+00 0.24699753E+04</pdfrwt>
<pdfrwt beam="2">  1       -1 0.10892655E+00 0.24699753E+04</pdfrwt>
<totfact> 0.16283254E+00</totfact>
</mgrwt>
</event>
<event>
12    2  0.3623523E-008  0.2077922E+04  0.7818608E-02  0.8571032E-01
         -1   -1    0    0    0  501 -0.00000000000E+00  0.00000000000E+00  0.12423058684E+04  0.12423058684E+04  0.00000000000E+00 0.  1.
          1   -1    0    0  501    0  0.00000000000E+00 -0.00000000000E+00 -0.86890056050E+03  0.86890056050E+03  0.00000000000E+00 0. -1.
         23    2    1    2    0    0  0.13817567521E+03  0.80612302325E+03  0.23763448669E+03  0.85642140052E+03  0.89780956595E+02 0.  0.
        254    2    1    2    0    0 -0.13817567521E+03 -0.80612302325E+03  0.13577082119E+03  0.12547850284E+04  0.94187308362E+03 0.  0.
         23    2    4    4    0    0 -0.43960989237E+03 -0.18935745912E+03  0.25785124897E+03  0.55163467747E+03  0.93276181309E+02 0.  0.
         23    2    4    4    0    0  0.30143421716E+03 -0.61676556413E+03 -0.12208042778E+03  0.70315035088E+03  0.90853930721E+02 0.  0.
          1    1    3    3  502    0 -0.69494965444E+01  0.17358528338E+03  0.55525486664E+02  0.18238208732E+03  0.00000000000E+00 0. -1.
         -1    1    3    3    0  502  0.14512517176E+03  0.63253773987E+03  0.18210900002E+03  0.67403931319E+03  0.00000000000E+00 0.  1.
         11    1    5    5    0    0 -0.41476820791E+02 -0.51504842241E+02  0.40591320924E+02  0.77593368090E+02  0.00000000000E+00 0.  1.
        -11    1    5    5    0    0 -0.39813307158E+03 -0.13785261688E+03  0.21725992805E+03  0.47404130938E+03  0.00000000000E+00 0. -1.
          4    1    6    6  503    0  0.26798369892E+03 -0.59134474636E+03 -0.12451672328E+03  0.66106602266E+03  0.00000000000E+00 0. -1.
         -4    1    6    6    0  503  0.33450518233E+02 -0.25420817772E+02  0.24362955044E+01  0.42084328224E+02  0.00000000000E+00 0.  1.
<mgrwt>
<rscale>  0 0.20779223E+04</rscale>
<asrwt>0</asrwt>
<pdfrwt beam="1">  1        1 0.13367701E+00 0.20779223E+04</pdfrwt>
<pdfrwt beam="2">  1       -1 0.19112398E+00 0.20779223E+04</pdfrwt>
<totfact> 0.30870003E+00</totfact>
</mgrwt>
</event>
<event>
12    2  0.3623523E-008  0.1915612E+04  0.7818608E-02  0.8647124E-01
         -1   -1    0    0    0  501 -0.00000000000E+00  0.00000000000E+00  0.10945664493E+04  0.10945664493E+04  0.00000000000E+00 0.  1.
          1   -1    0    0  501    0  0.00000000000E+00 -0.00000000000E+00 -0.83813345385E+03  0.83813345385E+03  0.00000000000E+00 0. -1.
         23    2    1    2    0    0  0.55391452054E+03  0.46697706021E+03 -0.66186515547E+02  0.73325571848E+03  0.91621083924E+02 0.  0.
        254    2    1    2    0    0 -0.55391452054E+03 -0.46697706021E+03  0.32261951096E+03  0.11994441846E+04  0.89983005750E+03 0.  0.
         23    2    4    4    0    0 -0.20232409495E+03 -0.24316564927E+02  0.54194868173E+03  0.58592589458E+03  0.89857918870E+02 0.  0.
         23    2    4    4    0    0 -0.35159042558E+03 -0.44266049529E+03 -0.21932917077E+03  0.61351829005E+03  0.93462642975E+02 0.  0.
          2    1    3    3  502    0  0.44016895917E+03  0.36743755655E+03 -0.89501835723E+02  0.58031857560E+03  0.00000000000E+00 0. -1.
         -2    1    3    3    0  502  0.11374556136E+03  0.99539503664E+02  0.23315320176E+02  0.15293714289E+03  0.00000000000E+00 0.  1.
         11    1    5    5    0    0 -0.11547781083E+03 -0.45041490449E+02  0.39487605792E+03  0.41387312280E+03  0.00000000000E+00 0. -1.
        -11    1    5    5    0    0 -0.86846284126E+02  0.20724925522E+02  0.14707262381E+03  0.17205277179E+03  0.00000000000E+00 0.  1.
          1    1    6    6  503    0 -0.92533087447E+02 -0.58087601765E+02 -0.44346761959E+02  0.11791173414E+03  0.00000000000E+00 0. -1.
         -1    1    6    6    0  503 -0.25905733814E+03 -0.38457289352E+03 -0.17498240881E+03  0.49560655592E+03  0.00000000000E+00 0.  1.
<mgrwt>
<rscale>  0 0.19156124E+04</rscale>
<asrwt>0</asrwt>
<pdfrwt beam="1">  1        1 0.12894361E+00 0.19156124E+04</pdfrwt>
<pdfrwt beam="2">  1       -1 0.16839484E+00 0.19156124E+04</pdfrwt>
<totfact> 0.48429018E+00</totfact>
</mgrwt>
</event>
<event>
12    2  0.3623523E-008  0.1478402E+04  0.7818608E-02  0.8898944E-01
         -1   -1    0    0    0  501 -0.00000000000E+00  0.00000000000E+00  0.25692323901E+03  0.25692323901E+03  0.00000000000E+00 0.  1.
          1   -1    0    0  501    0  0.00000000000E+00 -0.00000000000E+00 -0.21267761626E+04  0.21267761626E+04  0.00000000000E+00 0. -1.
         23    2    1    2    0    0  0.32517065283E+03 -0.25876485636E+03 -0.86872204393E+03  0.96736787547E+03  0.91800939664E+02 0.  0.
        254    2    1    2    0    0 -0.32517065283E+03  0.25876485636E+03 -0.10011308796E+04  0.14163315261E+04  0.91161217047E+03 0.  0.
         23    2    4    4    0    0 -0.20610416283E+03  0.26173378237E+03 -0.11524854224E+04  0.12034163148E+04  0.94892988638E+02 0.  0.
         23    2    4    4    0    0 -0.11906649000E+03 -0.29689260121E+01  0.15135454275E+03  0.21291521125E+03  0.90769190847E+02 0.  0.
          1    1    3    3  502    0  0.33047221530E+03 -0.25912494540E+03 -0.85298938700E+03  0.95076207157E+03  0.00000000000E+00 0. -1.
         -1    1    3    3    0  502 -0.53015624662E+01  0.36008904430E+00 -0.15732656937E+02  0.16605803895E+02  0.00000000000E+00 0.  1.
         11    1    5    5    0    0 -0.56423579901E+02  0.70250080587E+02 -0.47941534174E+03  0.48780914719E+03  0.00000000000E+00 0. -1.
        -11    1    5    5    0    0 -0.14968058293E+03  0.19148370178E+03 -0.67307008063E+03  0.71560716765E+03  0.00000000000E+00 0.  1.
          1    1    6    6  503    0 -0.81263561834E+02  0.41293842599E+02  0.99740814242E+02  0.13511912501E+03  0.00000000000E+00 0. -1.
         -1    1    6    6    0  503 -0.37802928166E+02 -0.44262768611E+02  0.51613728511E+02  0.77796086237E+02  0.00000000000E+00 0.  1.
<mgrwt>
<rscale>  0 0.14784021E+04</rscale>
<asrwt>0</asrwt>
<pdfrwt beam="1">  1        1 0.32719632E+00 0.14784021E+04</pdfrwt>
<pdfrwt beam="2">  1       -1 0.39526654E-01 0.14784021E+04</pdfrwt>
<totfact> 0.14757953E+01</totfact>
</mgrwt>
</event>
<event>
12    2  0.3623523E-008  0.1280888E+04  0.7818608E-02  0.9044860E-01
          2   -1    0    0  501    0  0.00000000000E+00  0.00000000000E+00  0.15067416414E+04  0.15067416414E+04  0.00000000000E+00 0. -1.
         -2   -1    0    0    0  501 -0.00000000000E+00 -0.00000000000E+00 -0.27222225602E+03  0.27222225602E+03  0.00000000000E+00 0.  1.
         23    2    1    2    0    0 -0.98278775316E+02 -0.29918120661E+03  0.37330876192E+03  0.49676525727E+03  0.90819475013E+02 0.  0.
        254    2    1    2    0    0  0.98278775316E+02  0.29918120661E+03  0.86121062346E+03  0.12821986401E+04  0.89620394037E+03 0.  0.
         23    2    4    4    0    0  0.61505032988E+02  0.54645682467E+03  0.24168190061E+03  0.60804076908E+03  0.94368985753E+02 0.  0.
         23    2    4    4    0    0  0.36773742328E+02 -0.24727561806E+03  0.61952872285E+03  0.67415787106E+03  0.90418235238E+02 0.  0.
          3    1    3    3  502    0 -0.71046048219E+02 -0.17512343277E+03  0.28539731681E+03  0.34229721897E+03  0.00000000000E+00 0. -1.
         -3    1    3    3    0  502 -0.27232727097E+02 -0.12405777384E+03  0.87911445104E+02  0.15446803830E+03  0.00000000000E+00 0.  1.
         11    1    5    5    0    0  0.24806758943E+02  0.28001721934E+03  0.17432974906E+03  0.33078071259E+03  0.00000000000E+00 0. -1.
        -11    1    5    5    0    0  0.36698274045E+02  0.26643960533E+03  0.67352151554E+02  0.27726005649E+03  0.00000000000E+00 0.  1.
          4    1    6    6  503    0  0.39555249700E+02 -0.25454923907E+03  0.60708034536E+03  0.65947439572E+03  0.00000000000E+00 0. -1.
         -4    1    6    6    0  503 -0.27815073725E+01  0.72736210099E+01  0.12448377485E+02  0.14683475334E+02  0.00000000000E+00 0.  1.
<mgrwt>
<rscale>  0 0.12808881E+04</rscale>
<asrwt>0</asrwt>
<pdfrwt beam="1">  1        2 0.23180640E+00 0.12808881E+04</pdfrwt>
<pdfrwt beam="2">  1       -2 0.41880348E-01 0.12808881E+04</pdfrwt>
<totfact> 0.66696167E+01</totfact>
</mgrwt>
</event>
<event>
12    2  0.3623523E-008  0.1544661E+04  0.7818608E-02  0.8855285E-01
          2   -1    0    0  501    0  0.00000000000E+00  0.00000000000E+00  0.11285217199E+04  0.11285217199E+04  0.00000000000E+00 0. -1.
         -2   -1    0    0    0  501 -0.00000000000E+00 -0.00000000000E+00 -0.52856294333E+03  0.52856294333E+03  0.00000000000E+00 0.  1.
         23    2    1    2    0    0 -0.35565237282E+03 -0.23654580621E+03  0.49399905658E+03  0.66104610318E+03  0.10249075028E+03 0.  0.
        254    2    1    2    0    0  0.35565237282E+03  0.23654580621E+03  0.10595971994E+03  0.99603856000E+03  0.89354508674E+03 0.  0.
         23    2    4    4    0    0  0.42916099304E+03 -0.20887296381E+03 -0.92032450494E+02  0.49463319424E+03  0.91569383209E+02 0.  0.
         23    2    4    4    0    0 -0.73508620215E+02  0.44541877002E+03  0.19799217044E+03  0.50140536576E+03  0.91679023380E+02 0.  0.
          1    1    3    3  502    0 -0.32655378144E+03 -0.24058416748E+03  0.48023337368E+03  0.62860337814E+03  0.00000000000E+00 0. -1.
         -1    1    3    3    0  502 -0.29098591380E+02  0.40383612639E+01  0.13765682896E+02  0.32442725033E+02  0.00000000000E+00 0.  1.
         11    1    5    5    0    0  0.41572821419E+03 -0.21828883647E+03 -0.87790161566E+02  0.47768930977E+03  0.00000000000E+00 0. -1.
        -11    1    5    5    0    0  0.13432778845E+02  0.94158726583E+01 -0.42422889275E+01  0.16943884465E+02  0.00000000000E+00 0.  1.
          3    1    6    6  503    0 -0.87128710124E+02  0.34650697357E+03  0.17955172638E+03  0.39987162603E+03  0.00000000000E+00 0. -1.
         -3    1    6    6    0  503  0.13620089909E+02  0.98911796453E+02  0.18440444057E+02  0.10153373973E+03  0.00000000000E+00 0.  1.
<mgrwt>
<rscale>  0 0.15446615E+04</rscale>
<asrwt>0</asrwt>
<pdfrwt beam="1">  1        2 0.17361873E+00 0.15446615E+04</pdfrwt>
<pdfrwt beam="2">  1       -2 0.81317376E-01 0.15446615E+04</pdfrwt>
<totfact> 0.26849269E+01</totfact>
</mgrwt>
</event>
<event>
12    2  0.3623523E-008  0.1400733E+04  0.7818608E-02  0.8953288E-01
         -2   -1    0    0    0  501 -0.00000000000E+00  0.00000000000E+00  0.38230030724E+03  0.38230030724E+03  0.00000000000E+00 0.  1.
          2   -1    0    0  501    0  0.00000000000E+00 -0.00000000000E+00 -0.12830564830E+04  0.12830564830E+04  0.00000000000E+00 0. -1.
         23    2    1    2    0    0  0.14414320191E+03 -0.10575762716E+03  0.15683917795E+03  0.25494277269E+03  0.91844168305E+02 0.  0.
        254    2    1    2    0    0 -0.14414320191E+03  0.10575762716E+03 -0.10575953537E+04  0.14104140175E+04  0.91585906684E+03 0.  0.
         23    2    4    4    0    0  0.34560100297E+03  0.43790022405E+02 -0.18499477285E+03  0.40382317561E+03  0.86559065725E+02 0.  0.
         23    2    4    4    0    0 -0.48974420488E+03  0.61967604750E+02 -0.87260058081E+03  0.10065908419E+04  0.90022103412E+02 0.  0.
          2    1    3    3  502    0  0.11680582777E+03 -0.47406391555E+02  0.62514439951E+02  0.14070899958E+03  0.00000000000E+00 0. -1.
         -2    1    3    3    0  502  0.27337374138E+02 -0.58351235600E+02  0.94324737998E+02  0.11423377311E+03  0.00000000000E+00 0.  1.
         11    1    5    5    0    0  0.78764368227E+02  0.21084303939E+02 -0.60983205099E+01  0.81765292685E+02  0.00000000000E+00 0.  1.
        -11    1    5    5    0    0  0.26683663474E+03  0.22705718466E+02 -0.17889645234E+03  0.32205788292E+03  0.00000000000E+00 0. -1.
          4    1    6    6  503    0 -0.33215685791E+03  0.66446773966E+02 -0.52337452500E+03  0.62342942299E+03  0.00000000000E+00 0. -1.
         -4    1    6    6    0  503 -0.15758734697E+03 -0.44791692165E+01 -0.34922605581E+03  0.38316141891E+03  0.00000000000E+00 0.  1.
<mgrwt>
<rscale>  0 0.14007325E+04</rscale>
<asrwt>0</asrwt>
<pdfrwt beam="1">  1        2 0.19739330E+00 0.14007325E+04</pdfrwt>
<pdfrwt beam="2">  1       -2 0.58815432E-01 0.14007325E+04</pdfrwt>
<totfact> 0.44463642E+01</totfact>
</mgrwt>
</event>
<event>
12    2  0.3623523E-008  0.1156501E+04  0.7818608E-02  0.9151807E-01
         -2   -1    0    0    0  501 -0.00000000000E+00  0.00000000000E+00  0.35722451993E+03  0.35722451993E+03  0.00000000000E+00 0.  1.
          2   -1    0    0  501    0  0.00000000000E+00 -0.00000000000E+00 -0.93603268773E+03  0.93603268773E+03  0.00000000000E+00 0. -1.
         23    2    1    2    0    0  0.10997367769E+03  0.12930922059E+03  0.38467530055E+02  0.19602250282E+03  0.90166437377E+02 0.  0.
        254    2    1    2    0    0 -0.10997367769E+03 -0.12930922059E+03 -0.61727569786E+03  0.10972347048E+04  0.89111145545E+03 0.  0.
         23    2    4    4    0    0 -0.61441495589E+02  0.14234432049E+03 -0.75479334248E+03  0.77595928410E+03  0.91448661968E+02 0.  0.
         23    2    4    4    0    0 -0.48532182098E+02 -0.27165354108E+03  0.13751764462E+03  0.32127542074E+03  0.90309325719E+02 0.  0.
          1    1    3    3  502    0  0.67897415377E+01  0.45284921290E+02 -0.20871924354E+02  0.50323572137E+02  0.00000000000E+00 0. -1.
         -1    1    3    3    0  502  0.10318393615E+03  0.84024299300E+02  0.59339454410E+02  0.14569893068E+03  0.00000000000E+00 0.  1.
         11    1    5    5    0    0  0.20619117247E+01  0.83992771626E+02 -0.49887354939E+03  0.50589905657E+03  0.00000000000E+00 0.  1.
        -11    1    5    5    0    0 -0.63503407314E+02  0.58351548861E+02 -0.25591979310E+03  0.27006022753E+03  0.00000000000E+00 0. -1.
          1    1    6    6  503    0 -0.57851429109E+02 -0.27456289258E+03  0.13267602934E+03  0.31037799309E+03  0.00000000000E+00 0. -1.
         -1    1    6    6    0  503  0.93192470110E+01  0.29093514999E+01  0.48416152777E+01  0.10897427655E+02  0.00000000000E+00 0.  1.
<mgrwt>
<rscale>  0 0.11565013E+04</rscale>
<asrwt>0</asrwt>
<pdfrwt beam="1">  1        2 0.14400503E+00 0.11565013E+04</pdfrwt>
<pdfrwt beam="2">  1       -2 0.54957619E-01 0.11565013E+04</pdfrwt>
<totfact> 0.85457653E+01</totfact>
</mgrwt>
</event>
<event>
12    2  0.3623523E-008  0.1220093E+04  0.7818608E-02  0.9095449E-01
          2   -1    0    0  501    0  0.00000000000E+00  0.00000000000E+00  0.12018981331E+04  0.12018981331E+04  0.00000000000E+00 0. -1.
         -2   -1    0    0    0  501 -0.00000000000E+00 -0.00000000000E+00 -0.30964061391E+03  0.30964061391E+03  0.00000000000E+00 0.  1.
         23    2    1    2    0    0 -0.20493028038E+03 -0.10745537366E+03  0.35918944718E+03  0.43648447574E+03  0.89210769823E+02 0.  0.
        254    2    1    2    0    0  0.20493028038E+03  0.10745537366E+03  0.53306807206E+03  0.10750542713E+04  0.90445400088E+03 0.  0.
         23    2    4    4    0    0 -0.25898283866E+03 -0.20441600107E+03  0.32719654563E+03  0.47262580934E+03  0.86368767318E+02 0.  0.
         23    2    4    4    0    0  0.46391311904E+03  0.31187137473E+03  0.20587152642E+03  0.60242846198E+03  0.89765416632E+02 0.  0.
          1    1    3    3  502    0 -0.13151392707E+03 -0.54183122068E+02  0.28788218247E+03  0.32110414933E+03  0.00000000000E+00 0. -1.
         -1    1    3    3    0  502 -0.73416353311E+02 -0.53272251593E+02  0.71307264706E+02  0.11538032641E+03  0.00000000000E+00 0.  1.
         11    1    5    5    0    0 -0.17845306717E+03 -0.17136120856E+03  0.27985402879E+03  0.37353505646E+03  0.00000000000E+00 0.  1.
        -11    1    5    5    0    0 -0.80529771491E+02 -0.33054792514E+02  0.47342516848E+02  0.99090752878E+02  0.00000000000E+00 0. -1.
          3    1    6    6  503    0  0.81819817223E+02  0.61614878999E+02  0.76088923595E+02  0.12759467112E+03  0.00000000000E+00 0. -1.
         -3    1    6    6    0  503  0.38209330181E+03  0.25025649573E+03  0.12978260283E+03  0.47483379086E+03  0.00000000000E+00 0.  1.
<mgrwt>
<rscale>  0 0.12200926E+04</rscale>
<asrwt>0</asrwt>
<pdfrwt beam="1">  1        2 0.18490740E+00 0.12200926E+04</pdfrwt>
<pdfrwt beam="2">  1       -2 0.47637018E-01 0.12200926E+04</pdfrwt>
<totfact> 0.77711587E+01</totfact>
</mgrwt>
</event>
<event>
12    2  0.3623523E-008  0.2355641E+04  0.7818608E-02  0.8456300E-01
         -2   -1    0    0    0  501 -0.00000000000E+00  0.00000000000E+00  0.43621132731E+03  0.43621132731E+03  0.00000000000E+00 0. -1.
          2   -1    0    0  501    0  0.00000000000E+00 -0.00000000000E+00 -0.31802495186E+04  0.31802495186E+04  0.00000000000E+00 0.  1.
         23    2    1    2    0    0  0.71759485432E+03 -0.24141174146E+00 -0.22509103289E+04  0.23642497314E+04  0.90205599774E+02 0.  0.
        254    2    1    2    0    0 -0.71759485432E+03  0.24141174146E+00 -0.49312786235E+03  0.12522111145E+04  0.89995286180E+03 0.  0.
         23    2    4    4    0    0 -0.39834085340E+03 -0.12743282638E+03  0.20079550341E+03  0.47240837234E+03  0.89085775186E+02 0.  0.
         23    2    4    4    0    0 -0.31925400091E+03  0.12767423812E+03 -0.69392336576E+03  0.77980274217E+03  0.91317309199E+02 0.  0.
          3    1    3    3  502    0  0.65936741478E+01  0.25409353399E+01 -0.54889270619E+01  0.89476930803E+01  0.00000000000E+00 0. -1.
         -3    1    3    3    0  502  0.71100118017E+03 -0.27823470814E+01 -0.22454214018E+04  0.23553020383E+04  0.00000000000E+00 0.  1.
         11    1    5    5    0    0 -0.59246444735E+01 -0.19588421451E+02  0.67557399756E+01  0.21551048459E+02  0.00000000000E+00 0.  1.
        -11    1    5    5    0    0 -0.39241620893E+03 -0.10784440493E+03  0.19403976344E+03  0.45085732388E+03  0.00000000000E+00 0. -1.
          1    1    6    6  503    0 -0.29666398042E+03  0.13385479982E+03 -0.67614502040E+03  0.75039903606E+03  0.00000000000E+00 0. -1.
         -1    1    6    6    0  503 -0.22590020494E+02 -0.61805616974E+01 -0.17778345366E+02  0.29403706106E+02  0.00000000000E+00 0.  1.
<mgrwt>
<rscale>  0 0.23556408E+04</rscale>
<asrwt>0</asrwt>
<pdfrwt beam="1">  1        2 0.48926914E+00 0.23556408E+04</pdfrwt>
<pdfrwt beam="2">  1       -2 0.67109438E-01 0.23556408E+04</pdfrwt>
<totfact> 0.24591319E+00</totfact>
</mgrwt>
</event>
<event>
12    2  0.3623523E-008  0.1615154E+04  0.7818608E-02  0.8811292E-01
          2   -1    0    0  501    0  0.00000000000E+00  0.00000000000E+00  0.17848501568E+04  0.17848501568E+04  0.00000000000E+00 0. -1.
         -2   -1    0    0    0  501 -0.00000000000E+00 -0.00000000000E+00 -0.36539781184E+03  0.36539781184E+03  0.00000000000E+00 0.  1.
         23    2    1    2    0    0  0.83280299117E+02  0.52259130610E+03  0.72362993607E+03  0.90107382211E+03  0.90865103833E+02 0.  0.
        254    2    1    2    0    0 -0.83280299117E+02 -0.52259130610E+03  0.69582240889E+03  0.12491741465E+04  0.89231717578E+03 0.  0.
         23    2    4    4    0    0 -0.30576153906E+03 -0.60322996248E+03  0.72334527889E+03  0.99450664021E+03  0.91861627129E+02 0.  0.
         23    2    4    4    0    0  0.22248123994E+03  0.80638656378E+02 -0.27522869998E+02  0.25466750631E+03  0.89986306555E+02 0.  0.
          2    1    3    3  502    0  0.62657374007E+02  0.46955886481E+03  0.59598802311E+03  0.76132332010E+03  0.00000000000E+00 0. -1.
         -2    1    3    3    0  502  0.20622925109E+02  0.53032441287E+02  0.12764191296E+03  0.13975050201E+03  0.00000000000E+00 0.  1.
         11    1    5    5    0    0 -0.12925569143E+03 -0.21047466868E+03  0.32246851349E+03  0.40619276473E+03  0.00000000000E+00 0. -1.
        -11    1    5    5    0    0 -0.17650584763E+03 -0.39275529380E+03  0.40087676539E+03  0.58831387549E+03  0.00000000000E+00 0.  1.
          3    1    6    6  503    0  0.71676693581E+02  0.10760887811E+02  0.30482501926E+02  0.78629053364E+02  0.00000000000E+00 0. -1.
         -3    1    6    6    0  503  0.15080454636E+03  0.69877768567E+02 -0.58005371924E+02  0.17603845294E+03  0.00000000000E+00 0.  1.
<mgrwt>
<rscale>  0 0.16151537E+04</rscale>
<asrwt>0</asrwt>
<pdfrwt beam="1">  1        2 0.27459233E+00 0.16151537E+04</pdfrwt>
<pdfrwt beam="2">  1       -2 0.56215049E-01 0.16151537E+04</pdfrwt>
<totfact> 0.25028461E+01</totfact>
</mgrwt>
</event>
<event>
12    2  0.3623523E-008  0.1277165E+04  0.7818608E-02  0.9047872E-01
         -2   -1    0    0    0  501 -0.00000000000E+00  0.00000000000E+00  0.79914581530E+03  0.79914581530E+03  0.00000000000E+00 0. -1.
          2   -1    0    0  501    0  0.00000000000E+00 -0.00000000000E+00 -0.51027973843E+03  0.51027973843E+03  0.00000000000E+00 0.  1.
         23    2    1    2    0    0 -0.19800942600E+03  0.20645621646E+02 -0.17419009903E+03  0.28067136054E+03  0.93809634623E+02 0.  0.
        254    2    1    2    0    0  0.19800942600E+03 -0.20645621646E+02  0.46305617590E+03  0.10287541932E+04  0.89681670004E+03 0.  0.
         23    2    4    4    0    0 -0.40899311637E+02 -0.42386471444E+03  0.27123544690E+03  0.51421618489E+03  0.97547769366E+02 0.  0.
         23    2    4    4    0    0  0.23890873764E+03  0.40321909280E+03  0.19182072900E+03  0.51453800829E+03  0.91055742186E+02 0.  0.
          4    1    3    3  502    0  0.29320464913E+01  0.18620946684E+02 -0.11175839125E+02  0.21914286029E+02  0.00000000000E+00 0. -1.
         -4    1    3    3    0  502 -0.20094147249E+03  0.20246749618E+01 -0.16301425990E+03  0.25875707451E+03  0.00000000000E+00 0.  1.
         11    1    5    5    0    0 -0.25878503745E+02 -0.40148918841E+03  0.22570862434E+03  0.46131079379E+03  0.00000000000E+00 0.  1.
        -11    1    5    5    0    0 -0.15020807892E+02 -0.22375526031E+02  0.45526822565E+02  0.52905391103E+02  0.00000000000E+00 0. -1.
          4    1    6    6  503    0  0.94033823888E+02  0.12351376413E+03  0.22322230453E+02  0.15683205009E+03  0.00000000000E+00 0. -1.
         -4    1    6    6    0  503  0.14487491375E+03  0.27970532867E+03  0.16949849854E+03  0.35770595820E+03  0.00000000000E+00 0.  1.
<mgrwt>
<rscale>  0 0.12771655E+04</rscale>
<asrwt>0</asrwt>
<pdfrwt beam="1">  1        2 0.78504576E-01 0.12771655E+04</pdfrwt>
<pdfrwt beam="2">  1       -2 0.12294551E+00 0.12771655E+04</pdfrwt>
<totfact> 0.29496113E+01</totfact>
</mgrwt>
</event>
<event>
12    2  0.3623523E-008  0.1433776E+04  0.7818608E-02  0.8929726E-01
         -1   -1    0    0    0  501 -0.00000000000E+00  0.00000000000E+00  0.26919704017E+03  0.26919704017E+03  0.00000000000E+00 0.  1.
          1   -1    0    0  501    0  0.00000000000E+00 -0.00000000000E+00 -0.19091149962E+04  0.19091149962E+04  0.00000000000E+00 0. -1.
         23    2    1    2    0    0 -0.50253167519E+02  0.33700253619E+03 -0.85237830991E+03  0.92243761494E+03  0.90809030345E+02 0.  0.
        254    2    1    2    0    0  0.50253167519E+02 -0.33700253619E+03 -0.78753964607E+03  0.12558744214E+04  0.91700914822E+03 0.  0.
         23    2    4    4    0    0  0.38755076861E+03  0.86979308961E+02 -0.21724922703E+03  0.46297193572E+03  0.96875116427E+02 0.  0.
         23    2    4    4    0    0 -0.33729760109E+03 -0.42398184515E+03 -0.57029041904E+03  0.79290248567E+03  0.99664000582E+02 0.  0.
          1    1    3    3  502    0 -0.68626933246E+02  0.26602867175E+03 -0.60572604678E+03  0.66512025522E+03  0.00000000000E+00 0. -1.
         -1    1    3    3    0  502  0.18373765727E+02  0.70973864440E+02 -0.24665226314E+03  0.25731735972E+03  0.00000000000E+00 0.  1.
         11    1    5    5    0    0  0.14408260853E+03  0.75199645438E+02 -0.61851657522E+02  0.17389770641E+03  0.00000000000E+00 0. -1.
        -11    1    5    5    0    0  0.24346816008E+03  0.11779663523E+02 -0.15539756951E+03  0.28907422931E+03  0.00000000000E+00 0.  1.
          3    1    6    6  503    0 -0.95657232518E+02 -0.18475114791E+03 -0.25591217250E+03  0.32980954022E+03  0.00000000000E+00 0. -1.
         -3    1    6    6    0  503 -0.24164036857E+03 -0.23923069724E+03 -0.31437824654E+03  0.46309294545E+03  0.00000000000E+00 0.  1.
<mgrwt>
<rscale>  0 0.14337756E+04</rscale>
<asrwt>0</asrwt>
<pdfrwt beam="1">  1        1 0.29370998E+00 0.14337756E+04</pdfrwt>
<pdfrwt beam="2">  1       -1 0.41414932E-01 0.14337756E+04</pdfrwt>
<totfact> 0.19096164E+01</totfact>
</mgrwt>
</event>
<event>
12    2  0.3623523E-008  0.1555395E+04  0.7818608E-02  0.8848429E-01
          2   -1    0    0  501    0  0.00000000000E+00  0.00000000000E+00  0.12085008830E+04  0.12085008830E+04  0.00000000000E+00 0. -1.
         -2   -1    0    0    0  501 -0.00000000000E+00 -0.00000000000E+00 -0.50046578335E+03  0.50046578335E+03  0.00000000000E+00 0.  1.
         23    2    1    2    0    0 -0.72462086160E+02  0.77364753849E+02 -0.31374328120E+03  0.34315012242E+03  0.89894943953E+02 0.  0.
        254    2    1    2    0    0  0.72462086160E+02 -0.77364753849E+02  0.10217783808E+04  0.13658165439E+04  0.90010427898E+03 0.  0.
         23    2    4    4    0    0 -0.30747356586E+03 -0.93357582962E+02  0.76317169047E+02  0.34244371392E+03  0.90486213914E+02 0.  0.
         23    2    4    4    0    0  0.37993565202E+03  0.15992829113E+02  0.94546121180E+03  0.10233728300E+04  0.93745271557E+02 0.  0.
          1    1    3    3  502    0 -0.28815773437E+02  0.37593698879E+02 -0.36801436587E+02  0.59983170382E+02  0.00000000000E+00 0. -1.
         -1    1    3    3    0  502 -0.43646312723E+02  0.39771054970E+02 -0.27694184461E+03  0.28316695203E+03  0.00000000000E+00 0.  1.
         11    1    5    5    0    0 -0.30072701219E+03 -0.85434858791E+02  0.89933961145E+02  0.32530596109E+03  0.00000000000E+00 0. -1.
        -11    1    5    5    0    0 -0.67465536759E+01 -0.79227241708E+01 -0.13616792098E+02  0.17137752823E+02  0.00000000000E+00 0.  1.
          1    1    6    6  503    0  0.33202558501E+03  0.38678638120E+02  0.86150299862E+03  0.92408032269E+03  0.00000000000E+00 0. -1.
         -1    1    6    6    0  503  0.47910067007E+02 -0.22685809007E+02  0.83958213175E+02  0.99292507323E+02  0.00000000000E+00 0.  1.
<mgrwt>
<rscale>  0 0.15553949E+04</rscale>
<asrwt>0</asrwt>
<pdfrwt beam="1">  1        2 0.18592321E+00 0.15553949E+04</pdfrwt>
<pdfrwt beam="2">  1       -2 0.76994736E-01 0.15553949E+04</pdfrwt>
<totfact> 0.27133349E+01</totfact>
</mgrwt>
</event>
<event>
12    2  0.3623523E-008  0.2950957E+04  0.7818608E-02  0.8257876E-01
          2   -1    0    0  501    0  0.00000000000E+00  0.00000000000E+00  0.33175810450E+04  0.33175810450E+04  0.00000000000E+00 0.  1.
         -2   -1    0    0    0  501 -0.00000000000E+00 -0.00000000000E+00 -0.65621217487E+03  0.65621217487E+03  0.00000000000E+00 0. -1.
         23    2    1    2    0    0 -0.35428286380E+03 -0.80269869011E+02 -0.52696272104E+03  0.64664862659E+03  0.92223302129E+02 0.  0.
        254    2    1    2    0    0  0.35428286380E+03  0.80269869011E+02  0.31883315911E+04  0.33271445932E+04  0.87890455110E+03 0.  0.
         23    2    4    4    0    0  0.48813781335E+03 -0.15252813230E+03  0.27962492222E+04  0.28442591522E+04  0.96213594404E+02 0.  0.
         23    2    4    4    0    0 -0.13385494955E+03  0.23279800131E+03  0.39208236887E+03  0.48288544108E+03  0.85660424344E+02 0.  0.
          4    1    3    3  502    0 -0.19362762708E+03 -0.22360283048E+02 -0.35070260505E+03  0.40122806160E+03  0.00000000000E+00 0. -1.
         -4    1    3    3    0  502 -0.16065523672E+03 -0.57909585962E+02 -0.17626011598E+03  0.24542056499E+03  0.00000000000E+00 0.  1.
         11    1    5    5    0    0  0.25061918813E+03 -0.11884900120E+03  0.13431537236E+04  0.13714944359E+04  0.00000000000E+00 0. -1.
        -11    1    5    5    0    0  0.23751862521E+03 -0.33679131096E+02  0.14530954986E+04  0.14727647162E+04  0.00000000000E+00 0.  1.
          4    1    6    6  503    0 -0.72928068980E+02  0.10561778739E+03  0.25864479137E+03  0.28873993205E+03  0.00000000000E+00 0. -1.
         -4    1    6    6    0  503 -0.60926880570E+02  0.12718021391E+03  0.13343757750E+03  0.19414550903E+03  0.00000000000E+00 0.  1.
<mgrwt>
<rscale>  0 0.29509572E+04</rscale>
<asrwt>0</asrwt>
<pdfrwt beam="1">  1        2 0.51039707E+00 0.29509572E+04</pdfrwt>
<pdfrwt beam="2">  1       -2 0.10095572E+00 0.29509572E+04</pdfrwt>
<totfact> 0.75190452E-01</totfact>
</mgrwt>
</event>
<event>
12    2  0.3623523E-008  0.1890882E+04  0.7818608E-02  0.8659408E-01
         -2   -1    0    0    0  501 -0.00000000000E+00  0.00000000000E+00  0.64081309653E+03  0.64081309653E+03  0.00000000000E+00 0.  1.
          2   -1    0    0  501    0  0.00000000000E+00 -0.00000000000E+00 -0.13948826164E+04  0.13948826164E+04  0.00000000000E+00 0. -1.
         23    2    1    2    0    0 -0.83867000510E+02  0.38135576885E+03  0.36818251890E+03  0.54443824592E+03  0.91590065933E+02 0.  0.
        254    2    1    2    0    0  0.83867000510E+02 -0.38135576885E+03 -0.11222520388E+04  0.14912574670E+04  0.90107341443E+03 0.  0.
         23    2    4    4    0    0 -0.50449473449E+02 -0.32745517813E+03  0.11771415234E+02  0.34415908158E+03  0.92384328525E+02 0.  0.
         23    2    4    4    0    0  0.13431647396E+03 -0.53900590721E+02 -0.11340234540E+04  0.11470983854E+04  0.94230158599E+02 0.  0.
          4    1    3    3  502    0 -0.27781829556E+02  0.28602407600E+03  0.23432389467E+03  0.37079548233E+03  0.00000000000E+00 0.  1.
         -4    1    3    3    0  502 -0.56085170955E+02  0.95331692856E+02  0.13385862423E+03  0.17364276358E+03  0.00000000000E+00 0. -1.
         11    1    5    5    0    0 -0.45510675382E+02 -0.14580390623E+03  0.45419709976E+02  0.15935165735E+03  0.00000000000E+00 0.  1.
        -11    1    5    5    0    0 -0.49387980675E+01 -0.18165127190E+03 -0.33648294742E+02  0.18480742422E+03  0.00000000000E+00 0. -1.
          2    1    6    6  503    0  0.96468154445E+02 -0.30927634895E+02 -0.10160964127E+04  0.10211339497E+04  0.00000000000E+00 0.  1.
         -2    1    6    6    0  503  0.37848319515E+02 -0.22972955826E+02 -0.11792704135E+03  0.12596443573E+03  0.00000000000E+00 0. -1.
<mgrwt>
<rscale>  0 0.18908824E+04</rscale>
<asrwt>0</asrwt>
<pdfrwt beam="1">  1        2 0.21459732E+00 0.18908824E+04</pdfrwt>
<pdfrwt beam="2">  1       -2 0.98586631E-01 0.18908824E+04</pdfrwt>
<totfact> 0.11666399E+01</totfact>
</mgrwt>
</event>
<event>
12    2  0.3623523E-008  0.2152452E+04  0.7818608E-02  0.8538484E-01
          1   -1    0    0  501    0  0.00000000000E+00  0.00000000000E+00  0.11217579287E+04  0.11217579287E+04  0.00000000000E+00 0. -1.
         -1   -1    0    0    0  501 -0.00000000000E+00 -0.00000000000E+00 -0.10325418167E+04  0.10325418167E+04  0.00000000000E+00 0.  1.
         23    2    1    2    0    0  0.31453378659E+03  0.24880078191E+03  0.83047728458E+03  0.92673399722E+03  0.91159472462E+02 0.  0.
        254    2    1    2    0    0 -0.31453378659E+03 -0.24880078191E+03 -0.74126117258E+03  0.12275657482E+04  0.89253358933E+03 0.  0.
         23    2    4    4    0    0 -0.69400677404E+02 -0.21193520503E+02  0.19569679556E+03  0.22850531021E+03  0.93015169016E+02 0.  0.
         23    2    4    4    0    0 -0.24513310918E+03 -0.22760726141E+03 -0.93695796814E+03  0.99906043794E+03  0.91302891180E+02 0.  0.
          1    1    3    3  502    0  0.22392048297E+03  0.19992505892E+03  0.52997539170E+03  0.60908482799E+03  0.00000000000E+00 0. -1.
         -1    1    3    3    0  502  0.90613303613E+02  0.48875722992E+02  0.30050189288E+03  0.31764916923E+03  0.00000000000E+00 0.  1.
         11    1    5    5    0    0 -0.57279135035E+02 -0.38571827301E+02  0.60960922990E+02  0.92113621705E+02  0.00000000000E+00 0.  1.
        -11    1    5    5    0    0 -0.12121542369E+02  0.17378306798E+02  0.13473587257E+03  0.13639168851E+03  0.00000000000E+00 0. -1.
          1    1    6    6  503    0 -0.12640643951E+03 -0.56544115195E+02 -0.36681520519E+03  0.39208317953E+03  0.00000000000E+00 0. -1.
         -1    1    6    6    0  503 -0.11872666967E+03 -0.17106314622E+03 -0.57014276295E+03  0.60697725841E+03  0.00000000000E+00 0.  1.
<mgrwt>
<rscale>  0 0.21524516E+04</rscale>
<asrwt>0</asrwt>
<pdfrwt beam="1">  1        1 0.17257814E+00 0.21524516E+04</pdfrwt>
<pdfrwt beam="2">  1       -1 0.15885259E+00 0.21524516E+04</pdfrwt>
<totfact> 0.33332997E+00</totfact>
</mgrwt>
</event>
<event>
12    2  0.3623523E-008  0.1989859E+04  0.7818608E-02  0.8611377E-01
         -1   -1    0    0    0  501 -0.00000000000E+00  0.00000000000E+00  0.58101399252E+03  0.58101399252E+03  0.00000000000E+00 0.  1.
          1   -1    0    0  501    0  0.00000000000E+00 -0.00000000000E+00 -0.17037192877E+04  0.17037192877E+04  0.00000000000E+00 0. -1.
         23    2    1    2    0    0 -0.14062284673E+03 -0.25966571701E+03 -0.13151590071E+04  0.13502655310E+04  0.79829322848E+02 0.  0.
        254    2    1    2    0    0  0.14062284673E+03  0.25966571701E+03  0.19245371186E+03  0.93446774922E+03  0.86544235713E+03 0.  0.
         23    2    4    4    0    0  0.11573032738E+02  0.19087544757E+03  0.52137712292E+03  0.56341122689E+03  0.95030177875E+02 0.  0.
         23    2    4    4    0    0  0.12904981399E+03  0.68790269435E+02 -0.32892341106E+03  0.37105652233E+03  0.90035419489E+02 0.  0.
          1    1    3    3  502    0 -0.14469645785E+03 -0.25225715492E+03 -0.13051836874E+04  0.13371892891E+04  0.00000000000E+00 0. -1.
         -1    1    3    3    0  502  0.40736111247E+01 -0.74085620893E+01 -0.99753197380E+01  0.13076241956E+02  0.00000000000E+00 0.  1.
         11    1    5    5    0    0  0.44424460571E+02  0.16719295820E+03  0.42694278561E+03  0.46065948395E+03  0.00000000000E+00 0.  1.
        -11    1    5    5    0    0 -0.32851427834E+02  0.23682489367E+02  0.94434337311E+02  0.10275174294E+03  0.00000000000E+00 0. -1.
          3    1    6    6  503    0 -0.40657730512E+01  0.27788004079E+02 -0.92334747061E+02  0.96511186896E+02  0.00000000000E+00 0. -1.
         -3    1    6    6    0  503  0.13311558704E+03  0.41002265356E+02 -0.23658866400E+03  0.27454533544E+03  0.00000000000E+00 0.  1.
<mgrwt>
<rscale>  0 0.19898590E+04</rscale>
<asrwt>0</asrwt>
<pdfrwt beam="1">  1        1 0.26211066E+00 0.19898590E+04</pdfrwt>
<pdfrwt beam="2">  1       -1 0.89386769E-01 0.19898590E+04</pdfrwt>
<totfact> 0.53942990E+00</totfact>
</mgrwt>
</event>
<event>
12    2  0.3623523E-008  0.1802102E+04  0.7818608E-02  0.8705182E-01
          2   -1    0    0  501    0  0.00000000000E+00  0.00000000000E+00  0.28243269507E+04  0.28243269507E+04  0.00000000000E+00 0. -1.
         -2   -1    0    0    0  501 -0.00000000000E+00 -0.00000000000E+00 -0.28746430695E+03  0.28746430695E+03  0.00000000000E+00 0.  1.
         23    2    1    2    0    0 -0.80699696319E+02 -0.53810043257E+02  0.20999268809E+04  0.21041171254E+04  0.90598070838E+02 0.  0.
        254    2    1    2    0    0  0.80699696319E+02  0.53810043257E+02  0.43693576283E+03  0.10076741323E+04  0.90282131911E+03 0.  0.
         23    2    4    4    0    0 -0.43243815661E+01 -0.26082409708E+03  0.57857927832E+03  0.64115984077E+03  0.91016757921E+02 0.  0.
         23    2    4    4    0    0  0.85024077885E+02  0.31463414034E+03 -0.14164351549E+03  0.36651429149E+03  0.89700079682E+02 0.  0.
          3    1    3    3  502    0 -0.86287009776E+02 -0.24255730225E+02  0.18809321015E+04  0.18830664776E+04  0.00000000000E+00 0. -1.
         -3    1    3    3    0  502  0.55873134568E+01 -0.29554313033E+02  0.21899477939E+03  0.22105064780E+03  0.00000000000E+00 0.  1.
         11    1    5    5    0    0  0.96384468560E+01 -0.82288532719E+02  0.28935313238E+03  0.30098095869E+03  0.00000000000E+00 0. -1.
        -11    1    5    5    0    0 -0.13962828422E+02 -0.17853556436E+03  0.28922614594E+03  0.34017888208E+03  0.00000000000E+00 0.  1.
          4    1    6    6  503    0  0.73458436692E+02  0.25113543036E+03 -0.14972388222E+03  0.30146705825E+03  0.00000000000E+00 0. -1.
         -4    1    6    6    0  503  0.11565641194E+02  0.63498709979E+02  0.80803667255E+01  0.65047233236E+02  0.00000000000E+00 0.  1.
<mgrwt>
<rscale>  0 0.18021023E+04</rscale>
<asrwt>0</asrwt>
<pdfrwt beam="1">  1        2 0.43451182E+00 0.18021023E+04</pdfrwt>
<pdfrwt beam="2">  1       -2 0.44225280E-01 0.18021023E+04</pdfrwt>
<totfact> 0.10257464E+01</totfact>
</mgrwt>
</event>
<event>
12    2  0.3623523E-008  0.1523129E+04  0.7818608E-02  0.8869216E-01
          2   -1    0    0  501    0  0.00000000000E+00  0.00000000000E+00  0.11608566136E+04  0.11608566136E+04  0.00000000000E+00 0. -1.
         -2   -1    0    0    0  501 -0.00000000000E+00 -0.00000000000E+00 -0.49961444529E+03  0.49961444529E+03  0.00000000000E+00 0.  1.
         23    2    1    2    0    0  0.23061334507E+03 -0.37761044289E+03 -0.11105524271E+02  0.45195161528E+03  0.91459107671E+02 0.  0.
        254    2    1    2    0    0 -0.23061334507E+03  0.37761044289E+03  0.67234769263E+03  0.12085194437E+04  0.90149634742E+03 0.  0.
         23    2    4    4    0    0  0.27268921554E+03 -0.88831243199E+02  0.28991696218E+03  0.41781210801E+03  0.90910475748E+02 0.  0.
         23    2    4    4    0    0 -0.50330256061E+03  0.46644168609E+03  0.38243073045E+03  0.79070733565E+03  0.89908359019E+02 0.  0.
          1    1    3    3  502    0  0.78204729180E+02 -0.85773517724E+02  0.30715596887E+02  0.12006882985E+03  0.00000000000E+00 0. -1.
         -1    1    3    3    0  502  0.15240861589E+03 -0.29183692517E+03 -0.41821121159E+02  0.33188278543E+03  0.00000000000E+00 0.  1.
         11    1    5    5    0    0  0.17256716681E+03 -0.89037473520E+02  0.23047834453E+03  0.30137578876E+03  0.00000000000E+00 0. -1.
        -11    1    5    5    0    0  0.10012204873E+03  0.20623032113E+00  0.59438617645E+02  0.11643631925E+03  0.00000000000E+00 0.  1.
          3    1    6    6  503    0 -0.50070879991E+03  0.46617436710E+03  0.38658967024E+03  0.78579858487E+03  0.00000000000E+00 0. -1.
         -3    1    6    6    0  503 -0.25937607031E+01  0.26731898530E+00 -0.41589397914E+01  0.49087507793E+01  0.00000000000E+00 0.  1.
<mgrwt>
<rscale>  0 0.15231293E+04</rscale>
<asrwt>0</asrwt>
<pdfrwt beam="1">  1        2 0.17859332E+00 0.15231293E+04</pdfrwt>
<pdfrwt beam="2">  1       -2 0.76863761E-01 0.15231293E+04</pdfrwt>
<totfact> 0.29165173E+01</totfact>
</mgrwt>
</event>
<event>
12    2  0.3623523E-008  0.1267723E+04  0.7818608E-02  0.9055560E-01
         -2   -1    0    0    0  501 -0.00000000000E+00  0.00000000000E+00  0.12530754587E+03  0.12530754587E+03  0.00000000000E+00 0.  1.
          2   -1    0    0  501    0  0.00000000000E+00 -0.00000000000E+00 -0.32063532638E+04  0.32063532638E+04  0.00000000000E+00 0. -1.
         23    2    1    2    0    0 -0.21620436425E+03 -0.18327934849E+03 -0.10718580346E+04  0.11124494812E+04  0.91260917441E+02 0.  0.
        254    2    1    2    0    0  0.21620436425E+03  0.18327934849E+03 -0.20091876833E+04  0.22192113285E+04  0.89873696212E+03 0.  0.
         23    2    4    4    0    0  0.43346597313E+03 -0.18589419224E+03 -0.13006951792E+04  0.13863545619E+04  0.87872757942E+02 0.  0.
         23    2    4    4    0    0 -0.21726160888E+03  0.36917354073E+03 -0.70849250410E+03  0.83285676657E+03  0.90537591024E+02 0.  0.
          4    1    3    3  502    0 -0.19790219871E+03 -0.14847123043E+03 -0.10038671576E+04  0.10339043749E+04  0.00000000000E+00 0. -1.
         -4    1    3    3    0  502 -0.18302165546E+02 -0.34808118061E+02 -0.67990877099E+02  0.78545106246E+02  0.00000000000E+00 0.  1.
         11    1    5    5    0    0 -0.95116751161E+00  0.32064979747E+01 -0.19146452068E+01  0.38538571801E+01  0.00000000000E+00 0. -1.
        -11    1    5    5    0    0  0.43441714064E+03 -0.18910069022E+03 -0.12987805340E+04  0.13825007047E+04  0.00000000000E+00 0.  1.
          1    1    6    6  503    0 -0.66757697069E+02  0.20043915017E+03 -0.32327253015E+03  0.38618333960E+03  0.00000000000E+00 0. -1.
         -1    1    6    6    0  503 -0.15050391181E+03  0.16873439057E+03 -0.38521997395E+03  0.44667342697E+03  0.00000000000E+00 0.  1.
<mgrwt>
<rscale>  0 0.12677228E+04</rscale>
<asrwt>0</asrwt>
<pdfrwt beam="1">  1        2 0.49328512E+00 0.12677228E+04</pdfrwt>
<pdfrwt beam="2">  1       -2 0.19278084E-01 0.12677228E+04</pdfrwt>
<totfact> 0.29231907E+01</totfact>
</mgrwt>
</event>
<event>
12    2  0.3623523E-008  0.2086378E+04  0.7818608E-02  0.8567268E-01
         -1   -1    0    0    0  501 -0.00000000000E+00  0.00000000000E+00  0.26040769085E+04  0.26040769085E+04  0.00000000000E+00 0.  1.
          1   -1    0    0  501    0  0.00000000000E+00 -0.00000000000E+00 -0.41789990517E+03  0.41789990517E+03  0.00000000000E+00 0. -1.
         23    2    1    2    0    0 -0.69621175891E+03 -0.30552781082E+03  0.15220456482E+04  0.17037474462E+04  0.89857381524E+02 0.  0.
        254    2    1    2    0    0  0.69621175891E+03  0.30552781082E+03  0.66413135513E+03  0.13182293674E+04  0.84770286761E+03 0.  0.
         23    2    4    4    0    0  0.11215668474E+03  0.12837104287E+03 -0.18559127505E+03  0.26808884406E+03  0.91483661685E+02 0.  0.
         23    2    4    4    0    0  0.58405507418E+03  0.17715676795E+03  0.84972263018E+03  0.10501405233E+04  0.90894006412E+02 0.  0.
          1    1    3    3  502    0 -0.11587802242E+03 -0.24479086389E+02  0.28783889287E+03  0.31125258232E+03  0.00000000000E+00 0. -1.
         -1    1    3    3    0  502 -0.58033373650E+03 -0.28104872443E+03  0.12342067553E+04  0.13924948639E+04  0.00000000000E+00 0.  1.
         11    1    5    5    0    0 -0.59327231477E+01  0.42578438519E+02 -0.68909031875E+02  0.81219303768E+02  0.00000000000E+00 0. -1.
        -11    1    5    5    0    0  0.11808940789E+03  0.85792604355E+02 -0.11668224318E+03  0.18686954029E+03  0.00000000000E+00 0.  1.
          4    1    6    6  503    0  0.49140374152E+02  0.24649374026E+02  0.12510171889E+03  0.13664848363E+03  0.00000000000E+00 0. -1.
         -4    1    6    6    0  503  0.53491470002E+03  0.15250739392E+03  0.72462091130E+03  0.91349203970E+03  0.00000000000E+00 0.  1.
<mgrwt>
<rscale>  0 0.20863782E+04</rscale>
<asrwt>0</asrwt>
<pdfrwt beam="1">  1        1 0.64292295E-01 0.20863782E+04</pdfrwt>
<pdfrwt beam="2">  1       -1 0.40062721E+00 0.20863782E+04</pdfrwt>
<totfact> 0.36954971E-01</totfact>
</mgrwt>
</event>
<event>
12    2  0.3623523E-008  0.1582159E+04  0.7818608E-02  0.8831584E-01
         -1   -1    0    0    0  501 -0.00000000000E+00  0.00000000000E+00  0.40988812712E+03  0.40988812712E+03  0.00000000000E+00 0.  1.
          1   -1    0    0  501    0  0.00000000000E+00 -0.00000000000E+00 -0.15267740313E+04  0.15267740313E+04  0.00000000000E+00 0. -1.
         23    2    1    2    0    0 -0.77498025386E+01 -0.45496021390E+02 -0.10188554293E+04  0.10236323459E+04  0.87331817326E+02 0.  0.
        254    2    1    2    0    0  0.77498025386E+01  0.45496021390E+02 -0.98030474879E+02  0.91302981253E+03  0.90657791566E+03 0.  0.
         23    2    4    4    0    0 -0.11920637690E+03 -0.38672568607E+03  0.76314905879E+02  0.42163594887E+03  0.90476471888E+02 0.  0.
         23    2    4    4    0    0  0.12695617944E+03  0.43222170746E+03 -0.17434538076E+03  0.49139386366E+03  0.90211648664E+02 0.  0.
          4    1    3    3  502    0  0.29089783275E+02  0.98617914696E+00 -0.15274272794E+03  0.15549125049E+03  0.00000000000E+00 0.  1.
         -4    1    3    3    0  502 -0.36839585813E+02 -0.46482200537E+02 -0.86611270138E+03  0.86814109541E+03  0.00000000000E+00 0. -1.
         11    1    5    5    0    0 -0.95971689151E+02 -0.18490985296E+03  0.64732634854E+02  0.21815712882E+03  0.00000000000E+00 0. -1.
        -11    1    5    5    0    0 -0.23234687747E+02 -0.20181583311E+03  0.11582271025E+02  0.20347882005E+03  0.00000000000E+00 0.  1.
          4    1    6    6  503    0  0.10006732107E+03  0.18613896977E+03 -0.68371918901E+02  0.22211687038E+03  0.00000000000E+00 0. -1.
         -4    1    6    6    0  503  0.26888858372E+02  0.24608273769E+03 -0.10597346186E+03  0.26927699328E+03  0.00000000000E+00 0.  1.
<mgrwt>
<rscale>  0 0.15821587E+04</rscale>
<asrwt>0</asrwt>
<pdfrwt beam="1">  1        1 0.23488831E+00 0.15821587E+04</pdfrwt>
<pdfrwt beam="2">  1       -1 0.63059712E-01 0.15821587E+04</pdfrwt>
<totfact> 0.15362133E+01</totfact>
</mgrwt>
</event>
<event>
12    2  0.3623523E-008  0.1176046E+04  0.7818608E-02  0.9134086E-01
         -2   -1    0    0    0  501 -0.00000000000E+00  0.00000000000E+00  0.21342748177E+03  0.21342748177E+03  0.00000000000E+00 0. -1.
          2   -1    0    0  501    0  0.00000000000E+00 -0.00000000000E+00 -0.16200869222E+04  0.16200869222E+04  0.00000000000E+00 0.  1.
         23    2    1    2    0    0 -0.31735181745E+02  0.88392543517E+02 -0.62955201695E+03  0.64429937511E+03  0.99827747676E+02 0.  0.
        254    2    1    2    0    0  0.31735181745E+02 -0.88392543517E+02 -0.77710742345E+03  0.11892150288E+04  0.89527430082E+03 0.  0.
         23    2    4    4    0    0  0.21519420685E+02 -0.48468265369E+03 -0.42411825640E+03  0.65071359845E+03  0.90396523939E+02 0.  0.
         23    2    4    4    0    0  0.10215761060E+02  0.39629011017E+03 -0.35298916705E+03  0.53850143038E+03  0.90731611236E+02 0.  0.
          1    1    3    3  502    0 -0.17490312868E+02  0.54713199034E+02 -0.11595805710E+03  0.12940524023E+03  0.00000000000E+00 0. -1.
         -1    1    3    3    0  502 -0.14244868878E+02  0.33679344483E+02 -0.51359395985E+03  0.51489413488E+03  0.00000000000E+00 0.  1.
         11    1    5    5    0    0  0.36434361926E+01 -0.26281017836E+02 -0.87780904457E+00  0.26546884459E+02  0.00000000000E+00 0.  1.
        -11    1    5    5    0    0  0.17875984492E+02 -0.45840163585E+03 -0.42324044735E+03  0.62416671399E+03  0.00000000000E+00 0. -1.
          4    1    6    6  503    0 -0.13728880972E+02  0.22112581152E+03 -0.14164203769E+03  0.26295926212E+03  0.00000000000E+00 0. -1.
         -4    1    6    6    0  503  0.23944642032E+02  0.17516429865E+03 -0.21134712936E+03  0.27554216826E+03  0.00000000000E+00 0.  1.
<mgrwt>
<rscale>  0 0.11760460E+04</rscale>
<asrwt>0</asrwt>
<pdfrwt beam="1">  1        2 0.24924414E+00 0.11760460E+04</pdfrwt>
<pdfrwt beam="2">  1       -2 0.32834997E-01 0.11760460E+04</pdfrwt>
<totfact> 0.92881671E+01</totfact>
</mgrwt>
</event>
<event>
12    2  0.3623523E-008  0.1422754E+04  0.7818608E-02  0.8937511E-01
          1   -1    0    0  501    0  0.00000000000E+00  0.00000000000E+00  0.19752373075E+04  0.19752373075E+04  0.00000000000E+00 0. -1.
         -1   -1    0    0    0  501 -0.00000000000E+00 -0.00000000000E+00 -0.25620060027E+03  0.25620060027E+03  0.00000000000E+00 0.  1.
         23    2    1    2    0    0 -0.12434650521E+03 -0.25732070210E+03  0.41780929257E+02  0.30414462100E+03  0.95301140321E+02 0.  0.
        254    2    1    2    0    0  0.12434650521E+03  0.25732070210E+03  0.16772557780E+04  0.19272932868E+04  0.90531567501E+03 0.  0.
         23    2    4    4    0    0  0.16490512796E+03  0.34894499745E+03  0.17353367857E+04  0.17802772784E+04  0.95063744284E+02 0.  0.
         23    2    4    4    0    0 -0.40558622750E+02 -0.91624295348E+02 -0.58081007739E+02  0.14701600843E+03  0.90555452056E+02 0.  0.
          2    1    3    3  502    0 -0.31209421762E+02 -0.44238728435E+02 -0.28534223279E+02  0.61198815335E+02  0.00000000000E+00 0. -1.
         -2    1    3    3    0  502 -0.93137083448E+02 -0.21308197366E+03  0.70315152536E+02  0.24294580566E+03  0.00000000000E+00 0.  1.
         11    1    5    5    0    0  0.13265251658E+03  0.19561258887E+03  0.11696985340E+04  0.11933380223E+04  0.00000000000E+00 0.  1.
        -11    1    5    5    0    0  0.32252611378E+02  0.15333240858E+03  0.56563825172E+03  0.58693925603E+03  0.00000000000E+00 0. -1.
          3    1    6    6  503    0  0.27423123290E+02 -0.43574076389E+02 -0.17290319999E+02  0.54310984062E+02  0.00000000000E+00 0. -1.
         -3    1    6    6    0  503 -0.67981746039E+02 -0.48050218959E+02 -0.40790687740E+02  0.92705024367E+02  0.00000000000E+00 0.  1.
<mgrwt>
<rscale>  0 0.14227536E+04</rscale>
<asrwt>0</asrwt>
<pdfrwt beam="1">  1        1 0.30388265E+00 0.14227536E+04</pdfrwt>
<pdfrwt beam="2">  1       -1 0.39415478E-01 0.14227536E+04</pdfrwt>
<totfact> 0.18880264E+01</totfact>
</mgrwt>
</event>
<event>
12    2  0.3623523E-008  0.1359815E+04  0.7818608E-02  0.8983432E-01
         -2   -1    0    0    0  501 -0.00000000000E+00  0.00000000000E+00  0.39210897771E+03  0.39210897771E+03  0.00000000000E+00 0.  1.
          2   -1    0    0  501    0  0.00000000000E+00 -0.00000000000E+00 -0.11789423361E+04  0.11789423361E+04  0.00000000000E+00 0. -1.
         23    2    1    2    0    0 -0.26621004678E+03 -0.85175193614E+02  0.65234845813E+02  0.30118624103E+03  0.91296024339E+02 0.  0.
        254    2    1    2    0    0  0.26621004678E+03  0.85175193614E+02 -0.85206820419E+03  0.12698650728E+04  0.89911872176E+03 0.  0.
         23    2    4    4    0    0  0.44840970591E+03 -0.26113613507E+03 -0.57492938896E+03  0.77973894483E+03  0.90474716889E+02 0.  0.
         23    2    4    4    0    0 -0.18219965913E+03  0.34631132869E+03 -0.27713881523E+03  0.49012612793E+03  0.10143690754E+03 0.  0.
          3    1    3    3  502    0 -0.17029526288E+03 -0.43215553215E+02 -0.38846107892E+01  0.17573602590E+03  0.00000000000E+00 0. -1.
         -3    1    3    3    0  502 -0.95914783901E+02 -0.41959640399E+02  0.69119456602E+02  0.12545021512E+03  0.00000000000E+00 0.  1.
         11    1    5    5    0    0  0.40298720915E+03 -0.21972802159E+03 -0.46248047278E+03  0.65158827638E+03  0.00000000000E+00 0. -1.
        -11    1    5    5    0    0  0.45422496762E+02 -0.41408113481E+02 -0.11244891618E+03  0.12815066845E+03  0.00000000000E+00 0.  1.
          4    1    6    6  503    0 -0.84007662854E+02  0.11145954108E+03 -0.15239463247E+03  0.20665101191E+03  0.00000000000E+00 0. -1.
         -4    1    6    6    0  503 -0.98191996275E+02  0.23485178760E+03 -0.12474418275E+03  0.28347511602E+03  0.00000000000E+00 0.  1.
<mgrwt>
<rscale>  0 0.13598145E+04</rscale>
<asrwt>0</asrwt>
<pdfrwt beam="1">  1        2 0.18137574E+00 0.13598145E+04</pdfrwt>
<pdfrwt beam="2">  1       -2 0.60324459E-01 0.13598145E+04</pdfrwt>
<totfact> 0.48737795E+01</totfact>
</mgrwt>
</event>
<event>
12    2  0.3623523E-008  0.1261605E+04  0.7818608E-02  0.9060579E-01
         -1   -1    0    0    0  501 -0.00000000000E+00  0.00000000000E+00  0.19853641221E+04  0.19853641221E+04  0.00000000000E+00 0.  1.
          1   -1    0    0  501    0  0.00000000000E+00 -0.00000000000E+00 -0.20042259587E+03  0.20042259587E+03  0.00000000000E+00 0. -1.
         23    2    1    2    0    0 -0.18423591290E+03 -0.15066546282E+03  0.13635307744E+03  0.28981611635E+03  0.93585609353E+02 0.  0.
        254    2    1    2    0    0  0.18423591290E+03  0.15066546282E+03  0.16485884488E+04  0.18959706016E+04  0.90565870802E+03 0.  0.
         23    2    4    4    0    0  0.22965191364E+03 -0.29253582254E+03  0.34595156705E+03  0.51625241917E+03  0.92286860664E+02 0.  0.
         23    2    4    4    0    0 -0.45416000741E+02  0.44320128536E+03  0.13026368817E+04  0.13797181824E+04  0.90936377809E+02 0.  0.
          3    1    3    3  502    0 -0.11126255106E+03 -0.31926850356E+02  0.51902598329E+02  0.12685644940E+03  0.00000000000E+00 0. -1.
         -3    1    3    3    0  502 -0.72973361841E+02 -0.11873861246E+03  0.84450479111E+02  0.16295966694E+03  0.00000000000E+00 0.  1.
         11    1    5    5    0    0  0.22813875161E+02 -0.10899180321E+02  0.10953150173E+01  0.25307404974E+02  0.00000000000E+00 0.  1.
        -11    1    5    5    0    0  0.20683803848E+03 -0.28163664222E+03  0.34485625203E+03  0.49094501420E+03  0.00000000000E+00 0. -1.
          2    1    6    6  503    0 -0.14658132340E+02  0.52715295177E+01  0.50793969668E+02  0.53128873711E+02  0.00000000000E+00 0.  1.
         -2    1    6    6    0  503 -0.30757868401E+02  0.43792975584E+03  0.12518429121E+04  0.13265893087E+04  0.00000000000E+00 0. -1.
<mgrwt>
<rscale>  0 0.12616051E+04</rscale>
<asrwt>0</asrwt>
<pdfrwt beam="1">  1        1 0.30834247E-01 0.12616051E+04</pdfrwt>
<pdfrwt beam="2">  1       -1 0.30544062E+00 0.12616051E+04</pdfrwt>
<totfact> 0.44765786E+00</totfact>
</mgrwt>
</event>
<event>
12    2  0.3623523E-008  0.1466106E+04  0.7818608E-02  0.8907310E-01
         -1   -1    0    0    0  501 -0.00000000000E+00  0.00000000000E+00  0.58453731111E+03  0.58453731111E+03  0.00000000000E+00 0.  1.
          1   -1    0    0  501    0  0.00000000000E+00 -0.00000000000E+00 -0.91930225812E+03  0.91930225812E+03  0.00000000000E+00 0. -1.
         23    2    1    2    0    0  0.28503304365E+03 -0.31723679456E+03  0.17811671121E+02  0.43619454175E+03  0.89807587830E+02 0.  0.
        254    2    1    2    0    0 -0.28503304365E+03  0.31723679456E+03 -0.35257661813E+03  0.10676450275E+04  0.91305674152E+03 0.  0.
         23    2    4    4    0    0  0.28727040280E+03  0.11629490177E+03 -0.31741934229E+03  0.45328501862E+03  0.93077820918E+02 0.  0.
         23    2    4    4    0    0 -0.57230344646E+03  0.20094189279E+03 -0.35157275845E+02  0.61436000885E+03  0.91067597559E+02 0.  0.
          4    1    3    3  502    0  0.51884963564E+02 -0.39377439232E+02  0.33285131824E+02  0.73147331907E+02  0.00000000000E+00 0. -1.
         -4    1    3    3    0  502  0.23314808009E+03 -0.27785935533E+03 -0.15473460703E+02  0.36304720985E+03  0.00000000000E+00 0.  1.
         11    1    5    5    0    0  0.12675118794E+03  0.66767209067E+02 -0.85221750136E+02  0.16669274293E+03  0.00000000000E+00 0.  1.
        -11    1    5    5    0    0  0.16051921487E+03  0.49527692700E+02 -0.23219759215E+03  0.28659227569E+03  0.00000000000E+00 0. -1.
          1    1    6    6  503    0 -0.23046835214E+02  0.10088876439E+02 -0.20912838542E+02  0.32715269479E+02  0.00000000000E+00 0. -1.
         -1    1    6    6    0  503 -0.54925661124E+03  0.19085301635E+03 -0.14244437303E+02  0.58164473937E+03  0.00000000000E+00 0.  1.
<mgrwt>
<rscale>  0 0.14661057E+04</rscale>
<asrwt>0</asrwt>
<pdfrwt beam="1">  1        1 0.14143112E+00 0.14661057E+04</pdfrwt>
<pdfrwt beam="2">  1       -1 0.89928817E-01 0.14661057E+04</pdfrwt>
<totfact> 0.20602691E+01</totfact>
</mgrwt>
</event>
<event>
12    2  0.3623523E-008  0.1503918E+04  0.7818608E-02  0.8881852E-01
          2   -1    0    0  501    0  0.00000000000E+00  0.00000000000E+00  0.95970722385E+03  0.95970722385E+03  0.00000000000E+00 0. -1.
         -2   -1    0    0    0  501 -0.00000000000E+00 -0.00000000000E+00 -0.58918201865E+03  0.58918201865E+03  0.00000000000E+00 0.  1.
         23    2    1    2    0    0 -0.11595576560E+03 -0.40312767856E+03  0.31558664691E+03  0.53294831488E+03  0.92094027113E+02 0.  0.
        254    2    1    2    0    0  0.11595576560E+03  0.40312767856E+03  0.54938558292E+02  0.10159409276E+04  0.92366663815E+03 0.  0.
         23    2    4    4    0    0 -0.28858982391E+03  0.50256905061E+03  0.34250089816E+02  0.58843856812E+03  0.96058017342E+02 0.  0.
         23    2    4    4    0    0  0.40454558950E+03 -0.99441372053E+02  0.20688468475E+02  0.42750235951E+03  0.93725845913E+02 0.  0.
          4    1    3    3  502    0  0.74988301142E+00 -0.84117146337E+02  0.99768418211E+02  0.13049901879E+03  0.00000000000E+00 0.  1.
         -4    1    3    3    0  502 -0.11670564861E+03 -0.31901053222E+03  0.21581822870E+03  0.40244929609E+03  0.00000000000E+00 0. -1.
         11    1    5    5    0    0 -0.20230113800E+03  0.25809813329E+03  0.27736952200E+02  0.32910444445E+03  0.00000000000E+00 0. -1.
        -11    1    5    5    0    0 -0.86288685910E+02  0.24447091732E+03  0.65131376168E+01  0.25933412366E+03  0.00000000000E+00 0.  1.
          4    1    6    6  503    0  0.17425331408E+03  0.30890896678E+01 -0.29993977703E+01  0.17430650111E+03  0.00000000000E+00 0. -1.
         -4    1    6    6    0  503  0.23029227543E+03 -0.10253046172E+03  0.23687866246E+02  0.25319585840E+03  0.00000000000E+00 0.  1.
<mgrwt>
<rscale>  0 0.15039179E+04</rscale>
<asrwt>0</asrwt>
<pdfrwt beam="1">  1        2 0.14764726E+00 0.15039179E+04</pdfrwt>
<pdfrwt beam="2">  1       -2 0.90643388E-01 0.15039179E+04</pdfrwt>
<totfact> 0.26870466E+01</totfact>
</mgrwt>
</event>
<event>
12    2  0.3623523E-008  0.1525682E+04  0.7818608E-02  0.8867552E-01
          2   -1    0    0  501    0  0.00000000000E+00  0.00000000000E+00  0.29881382319E+04  0.29881382319E+04  0.00000000000E+00 0.  1.
         -2   -1    0    0    0  501 -0.00000000000E+00 -0.00000000000E+00 -0.19474547764E+03  0.19474547764E+03  0.00000000000E+00 0. -1.
         23    2    1    2    0    0 -0.42054998337E+03 -0.21968689088E+03  0.11935687826E+04  0.12875836047E+04  0.90224617411E+02 0.  0.
        254    2    1    2    0    0  0.42054998337E+03  0.21968689088E+03  0.15998239716E+04  0.18953001048E+04  0.89866630559E+03 0.  0.
         23    2    4    4    0    0  0.68792182835E+03  0.21815073690E+03  0.12510334737E+04  0.14472843597E+04  0.93386720700E+02 0.  0.
         23    2    4    4    0    0 -0.26737184498E+03  0.15361539876E+01  0.34879049789E+03  0.44801574514E+03  0.87024325410E+02 0.  0.
          1    1    3    3  502    0 -0.33211341032E+03 -0.20072060377E+03  0.89228644260E+03  0.97301756086E+03  0.00000000000E+00 0. -1.
         -1    1    3    3    0  502 -0.88436573048E+02 -0.18966287112E+02  0.30128234003E+03  0.31456604380E+03  0.00000000000E+00 0.  1.
         11    1    5    5    0    0  0.53793909411E+03  0.20585129329E+03  0.10248101993E+04  0.11755803539E+04  0.00000000000E+00 0. -1.
        -11    1    5    5    0    0  0.14998273424E+03  0.12299443603E+02  0.22622327442E+03  0.27170400581E+03  0.00000000000E+00 0.  1.
          4    1    6    6  503    0 -0.22618640696E+03 -0.97543733711E+01  0.23425231579E+03  0.32577536117E+03  0.00000000000E+00 0. -1.
         -4    1    6    6    0  503 -0.41185438023E+02  0.11290527359E+02  0.11453818210E+03  0.12224038397E+03  0.00000000000E+00 0.  1.
<mgrwt>
<rscale>  0 0.15256820E+04</rscale>
<asrwt>0</asrwt>
<pdfrwt beam="1">  1        2 0.45971354E+00 0.15256820E+04</pdfrwt>
<pdfrwt beam="2">  1       -2 0.29960845E-01 0.15256820E+04</pdfrwt>
<totfact> 0.17677655E+01</totfact>
</mgrwt>
</event>
<event>
12    2  0.3623523E-008  0.1474286E+04  0.7818608E-02  0.8901735E-01
         -2   -1    0    0    0  501 -0.00000000000E+00  0.00000000000E+00  0.26370658198E+03  0.26370658198E+03  0.00000000000E+00 0.  1.
          2   -1    0    0  501    0  0.00000000000E+00 -0.00000000000E+00 -0.20605481335E+04  0.20605481335E+04  0.00000000000E+00 0. -1.
         23    2    1    2    0    0  0.24667475167E+03  0.38494940394E+03 -0.60758630012E+03  0.76583963968E+03  0.91185332716E+02 0.  0.
        254    2    1    2    0    0 -0.24667475167E+03 -0.38494940394E+03 -0.11892552514E+04  0.15584150758E+04  0.89738231474E+03 0.  0.
         23    2    4    4    0    0  0.27340177598E+03  0.32899491487E+02 -0.16738400012E+03  0.33501776345E+03  0.91589249809E+02 0.  0.
         23    2    4    4    0    0 -0.52007652765E+03 -0.41784889543E+03 -0.10218712513E+04  0.12233973124E+04  0.86039733156E+02 0.  0.
          3    1    3    3  502    0  0.44579408040E+02  0.12910384793E+03 -0.13796972452E+03  0.19414111377E+03  0.00000000000E+00 0. -1.
         -3    1    3    3    0  502  0.20209534363E+03  0.25584555601E+03 -0.46961657560E+03  0.57169852591E+03  0.00000000000E+00 0.  1.
         11    1    5    5    0    0  0.24564928695E+03  0.21816919675E+02 -0.17707347024E+03  0.30360264166E+03  0.00000000000E+00 0.  1.
        -11    1    5    5    0    0  0.27752489033E+02  0.11082571811E+02  0.96894701218E+01  0.31415121784E+02  0.00000000000E+00 0. -1.
          2    1    6    6  503    0 -0.10995873958E+03 -0.51796629506E+02 -0.21680893491E+03  0.24855568691E+03  0.00000000000E+00 0. -1.
         -2    1    6    6    0  503 -0.41011778806E+03 -0.36605226592E+03 -0.80506231637E+03  0.97484162545E+03  0.00000000000E+00 0.  1.
<mgrwt>
<rscale>  0 0.14742864E+04</rscale>
<asrwt>0</asrwt>
<pdfrwt beam="1">  1        2 0.31700741E+00 0.14742864E+04</pdfrwt>
<pdfrwt beam="2">  1       -2 0.40570243E-01 0.14742864E+04</pdfrwt>
<totfact> 0.34443883E+01</totfact>
</mgrwt>
</event>
<event>
12    2  0.3623523E-008  0.1786526E+04  0.7818608E-02  0.8713498E-01
         -2   -1    0    0    0  501 -0.00000000000E+00  0.00000000000E+00  0.64686143379E+03  0.64686143379E+03  0.00000000000E+00 0.  1.
          2   -1    0    0  501    0  0.00000000000E+00 -0.00000000000E+00 -0.12335241467E+04  0.12335241467E+04  0.00000000000E+00 0. -1.
         23    2    1    2    0    0 -0.36533510296E+03  0.73095239381E+02 -0.79792960114E+03  0.88513866839E+03  0.89253360834E+02 0.  0.
        254    2    1    2    0    0  0.36533510296E+03 -0.73095239381E+02  0.21126688821E+03  0.99524691212E+03  0.89837078457E+03 0.  0.
         23    2    4    4    0    0  0.14252437860E+03 -0.37472618738E+03  0.39234245214E+03  0.56827093289E+03  0.90919411641E+02 0.  0.
         23    2    4    4    0    0  0.22281072437E+03  0.30163094800E+03 -0.18107556393E+03  0.42697597923E+03  0.94309486847E+02 0.  0.
          1    1    3    3  502    0 -0.35438033088E+03  0.78730345114E+02 -0.79247615769E+03  0.87166641937E+03  0.00000000000E+00 0. -1.
         -1    1    3    3    0  502 -0.10954772089E+02 -0.56351057331E+01 -0.54534434556E+01  0.13472249020E+02  0.00000000000E+00 0.  1.
         11    1    5    5    0    0  0.16168239299E+02 -0.37971884607E+02  0.87659339918E+02  0.96888780865E+02  0.00000000000E+00 0. -1.
        -11    1    5    5    0    0  0.12635613930E+03 -0.33675430277E+03  0.30468311223E+03  0.47138215203E+03  0.00000000000E+00 0.  1.
          3    1    6    6  503    0  0.93535178619E+01  0.42410826637E+02  0.38965100936E+01  0.43604464259E+02  0.00000000000E+00 0. -1.
         -3    1    6    6    0  503  0.21345720650E+03  0.25922012136E+03 -0.18497207402E+03  0.38337151498E+03  0.00000000000E+00 0.  1.
<mgrwt>
<rscale>  0 0.17865265E+04</rscale>
<asrwt>0</asrwt>
<pdfrwt beam="1">  1        2 0.18977294E+00 0.17865265E+04</pdfrwt>
<pdfrwt beam="2">  1       -2 0.99517145E-01 0.17865265E+04</pdfrwt>
<totfact> 0.14286690E+01</totfact>
</mgrwt>
</event>
<event>
12    2  0.3623523E-008  0.1450174E+04  0.7818608E-02  0.8918280E-01
          1   -1    0    0  501    0  0.00000000000E+00  0.00000000000E+00  0.47232822449E+03  0.47232822449E+03  0.00000000000E+00 0. -1.
         -1   -1    0    0    0  501 -0.00000000000E+00 -0.00000000000E+00 -0.11131054113E+04  0.11131054113E+04  0.00000000000E+00 0.  1.
         23    2    1    2    0    0 -0.13406423263E+03 -0.25071150506E+02  0.25925775618E+03  0.30814213401E+03  0.95578290181E+02 0.  0.
        254    2    1    2    0    0  0.13406423263E+03  0.25071150506E+02 -0.90003494301E+03  0.12772915018E+04  0.89599603845E+03 0.  0.
         23    2    4    4    0    0  0.20859939156E+03  0.40898066669E+03 -0.30225654564E+03  0.55711928489E+03  0.90796400438E+02 0.  0.
         23    2    4    4    0    0 -0.74535158927E+02 -0.38390951618E+03 -0.59777839737E+03  0.72017221693E+03  0.91471324155E+02 0.  0.
          4    1    3    3  502    0 -0.12450702353E+03 -0.45046593192E+02  0.25229712569E+03  0.28492987576E+03  0.00000000000E+00 0. -1.
         -4    1    3    3    0  502 -0.95572091028E+01  0.19975442686E+02  0.69606304850E+01  0.23212258251E+02  0.00000000000E+00 0.  1.
         11    1    5    5    0    0  0.26403817404E+01  0.61513405412E+02 -0.60800116856E+02  0.86530485211E+02  0.00000000000E+00 0.  1.
        -11    1    5    5    0    0  0.20595900981E+03  0.34746726127E+03 -0.24145642879E+03  0.47058879968E+03  0.00000000000E+00 0. -1.
          1    1    6    6  503    0 -0.29361849951E+02 -0.12846436149E+03 -0.28374364101E+03  0.31285086578E+03  0.00000000000E+00 0. -1.
         -1    1    6    6    0  503 -0.45173308976E+02 -0.25544515469E+03 -0.31403475636E+03  0.40732135115E+03  0.00000000000E+00 0.  1.
<mgrwt>
<rscale>  0 0.14501739E+04</rscale>
<asrwt>0</asrwt>
<pdfrwt beam="1">  1        1 0.72665881E-01 0.14501739E+04</pdfrwt>
<pdfrwt beam="2">  1       -1 0.17124699E+00 0.14501739E+04</pdfrwt>
<totfact> 0.11215119E+01</totfact>
</mgrwt>
</event>
<event>
12    2  0.3623523E-008  0.2443483E+04  0.7818608E-02  0.8423401E-01
         -1   -1    0    0    0  501 -0.00000000000E+00  0.00000000000E+00  0.14668640990E+04  0.14668640990E+04  0.00000000000E+00 0.  1.
          1   -1    0    0  501    0  0.00000000000E+00 -0.00000000000E+00 -0.10175803411E+04  0.10175803411E+04  0.00000000000E+00 0. -1.
         23    2    1    2    0    0  0.47289255984E+02  0.10349852147E+04  0.17705938855E+03  0.10549417293E+04  0.90118571363E+02 0.  0.
        254    2    1    2    0    0 -0.47289255984E+02 -0.10349852147E+04  0.27222436941E+03  0.14295027108E+04  0.94654171835E+03 0.  0.
         23    2    4    4    0    0 -0.17161280261E+03  0.70664687290E+02 -0.12782442223E+03  0.24368098894E+03  0.92719412224E+02 0.  0.
         23    2    4    4    0    0  0.12432354663E+03 -0.11056499020E+04  0.40004879164E+03  0.11858217219E+04  0.90642541873E+02 0.  0.
          4    1    3    3  502    0  0.10185834893E+02  0.15363833601E+03 -0.56998362316E+01  0.15408107495E+03  0.00000000000E+00 0. -1.
         -4    1    3    3    0  502  0.37103421091E+02  0.88134687866E+03  0.18275922478E+03  0.90086065438E+03  0.00000000000E+00 0.  1.
         11    1    5    5    0    0 -0.18008910512E+03  0.69470373123E+02 -0.10594698596E+03  0.22018851550E+03  0.00000000000E+00 0.  1.
        -11    1    5    5    0    0  0.84763025089E+01  0.11943141674E+01 -0.21877436271E+02  0.23492473440E+02  0.00000000000E+00 0. -1.
          4    1    6    6  503    0  0.39993425438E+02 -0.11507684543E+03  0.34914773533E+02  0.12673277336E+03  0.00000000000E+00 0. -1.
         -4    1    6    6    0  503  0.84330121193E+02 -0.99057305653E+03  0.36513401811E+03  0.10590889485E+04  0.00000000000E+00 0.  1.
<mgrwt>
<rscale>  0 0.24434828E+04</rscale>
<asrwt>0</asrwt>
<pdfrwt beam="1">  1        1 0.15655082E+00 0.24434828E+04</pdfrwt>
<pdfrwt beam="2">  1       -1 0.22567140E+00 0.24434828E+04</pdfrwt>
<totfact> 0.13199911E+00</totfact>
</mgrwt>
</event>
<event>
12    2  0.3623523E-008  0.1647841E+04  0.7818608E-02  0.8791685E-01
         -1   -1    0    0    0  501 -0.00000000000E+00  0.00000000000E+00  0.82338083976E+03  0.82338083976E+03  0.00000000000E+00 0.  1.
          1   -1    0    0  501    0  0.00000000000E+00 -0.00000000000E+00 -0.82446085423E+03  0.82446085423E+03  0.00000000000E+00 0. -1.
         23    2    1    2    0    0 -0.21093603915E+01 -0.31438134185E+03 -0.42686919939E+03  0.53783267274E+03  0.90590247703E+02 0.  0.
        254    2    1    2    0    0  0.21093603915E+01  0.31438134185E+03  0.42578918492E+03  0.11100090212E+04  0.97569642807E+03 0.  0.
         23    2    4    4    0    0 -0.12521483488E+03 -0.32233383474E+03  0.23163416407E+03  0.42610721926E+03  0.91296880829E+02 0.  0.
         23    2    4    4    0    0  0.12732419527E+03  0.63671517659E+03  0.19415502085E+03  0.68390180198E+03  0.91694251868E+02 0.  0.
          1    1    3    3  502    0  0.26402103255E+02 -0.95137173471E+02 -0.18800135443E+03  0.21235032870E+03  0.00000000000E+00 0. -1.
         -1    1    3    3    0  502 -0.28511463647E+02 -0.21924416838E+03 -0.23886784496E+03  0.32548234404E+03  0.00000000000E+00 0.  1.
         11    1    5    5    0    0 -0.90514369426E+02 -0.17350381456E+03  0.81851667999E+02  0.21212288960E+03  0.00000000000E+00 0. -1.
        -11    1    5    5    0    0 -0.34700465452E+02 -0.14883002019E+03  0.14978249607E+03  0.21398432966E+03  0.00000000000E+00 0.  1.
          1    1    6    6  503    0  0.55741724707E+02  0.17703269781E+03  0.93888242595E+02  0.20799691840E+03  0.00000000000E+00 0. -1.
         -1    1    6    6    0  503  0.71582470563E+02  0.45968247878E+03  0.10026677826E+03  0.47590488358E+03  0.00000000000E+00 0.  1.
<mgrwt>
<rscale>  0 0.16478413E+04</rscale>
<asrwt>0</asrwt>
<pdfrwt beam="1">  1        1 0.12684013E+00 0.16478413E+04</pdfrwt>
<pdfrwt beam="2">  1       -1 0.12667397E+00 0.16478413E+04</pdfrwt>
<totfact> 0.10896801E+01</totfact>
</mgrwt>
</event>
<event>
12    2  0.3623523E-008  0.4339090E+04  0.7818608E-02  0.7939429E-01
          2   -1    0    0  501    0  0.00000000000E+00  0.00000000000E+00  0.31513732148E+04  0.31513732148E+04  0.00000000000E+00 0.  1.
         -2   -1    0    0    0  501 -0.00000000000E+00 -0.00000000000E+00 -0.14936111668E+04  0.14936111668E+04  0.00000000000E+00 0. -1.
         23    2    1    2    0    0  0.74492872832E+03  0.14676939785E+04 -0.56015108130E+03  0.17411530961E+04  0.93810688835E+02 0.  0.
        254    2    1    2    0    0 -0.74492872832E+03 -0.14676939785E+04  0.22179131293E+04  0.29038312855E+04  0.89669005817E+03 0.  0.
         23    2    4    4    0    0 -0.69450639870E+03 -0.41877738782E+03  0.87097399901E+03  0.11934310019E+04  0.89264836744E+02 0.  0.
         23    2    4    4    0    0 -0.50422329620E+02 -0.10489165907E+04  0.13469391303E+04  0.17104002835E+04  0.91954790788E+02 0.  0.
          3    1    3    3  502    0  0.69195490298E+03  0.13387873845E+04 -0.53714906879E+03  0.15999007378E+04  0.00000000000E+00 0. -1.
         -3    1    3    3    0  502  0.52973825335E+02  0.12890659401E+03 -0.23002012513E+02  0.14125235831E+03  0.00000000000E+00 0.  1.
         11    1    5    5    0    0 -0.10049483459E+03 -0.94207304651E+02  0.17288140362E+03  0.22104797611E+03  0.00000000000E+00 0. -1.
        -11    1    5    5    0    0 -0.59401156411E+03 -0.32457008317E+03  0.69809259539E+03  0.97238302583E+03  0.00000000000E+00 0.  1.
          1    1    6    6  503    0 -0.49952632159E+02 -0.31699566499E+03  0.45057504115E+03  0.55317211136E+03  0.00000000000E+00 0. -1.
         -1    1    6    6    0  503 -0.46969746049E+00 -0.73192092572E+03  0.89636408917E+03  0.11572281722E+04  0.00000000000E+00 0.  1.
<mgrwt>
<rscale>  0 0.43390903E+04</rscale>
<asrwt>0</asrwt>
<pdfrwt beam="1">  1        2 0.48482665E+00 0.43390903E+04</pdfrwt>
<pdfrwt beam="2">  1       -2 0.22978633E+00 0.43390903E+04</pdfrwt>
<totfact> 0.91731454E-02</totfact>
</mgrwt>
</event>
<event>
12    2  0.3623523E-008  0.1097948E+04  0.7818608E-02  0.9207194E-01
         -2   -1    0    0    0  501 -0.00000000000E+00  0.00000000000E+00  0.14044017411E+03  0.14044017411E+03  0.00000000000E+00 0.  1.
          2   -1    0    0  501    0  0.00000000000E+00 -0.00000000000E+00 -0.21459126237E+04  0.21459126237E+04  0.00000000000E+00 0. -1.
         23    2    1    2    0    0  0.89025634702E+02  0.11695322234E+03 -0.22423840599E+03  0.28314790445E+03  0.91028859290E+02 0.  0.
        254    2    1    2    0    0 -0.89025634702E+02 -0.11695322234E+03 -0.17812340436E+04  0.20032048933E+04  0.90467204378E+03 0.  0.
         23    2    4    4    0    0  0.17130254637E+02  0.36524717372E+03 -0.10512324087E+04  0.11164661042E+04  0.87795451345E+02 0.  0.
         23    2    4    4    0    0 -0.10615588934E+03 -0.48220039606E+03 -0.73000163490E+03  0.88673878911E+03  0.98066295719E+02 0.  0.
          3    1    3    3  502    0  0.10411812594E+01 -0.14529896796E+02 -0.21889122160E+02  0.26293262031E+02  0.00000000000E+00 0. -1.
         -3    1    3    3    0  502  0.87984453443E+02  0.13148311914E+03 -0.20234928383E+03  0.25685464242E+03  0.00000000000E+00 0.  1.
         11    1    5    5    0    0 -0.21490014532E+02  0.12522923115E+03 -0.45945049819E+03  0.47669585833E+03  0.00000000000E+00 0.  1.
        -11    1    5    5    0    0  0.38620269168E+02  0.24001794256E+03 -0.59178191048E+03  0.63977024588E+03  0.00000000000E+00 0. -1.
          2    1    6    6  503    0 -0.10749635277E+03 -0.39091251554E+03 -0.64596443434E+03  0.76265202491E+03  0.00000000000E+00 0. -1.
         -2    1    6    6    0  503  0.13404634351E+01 -0.91287880523E+02 -0.84037200559E+02  0.12408676420E+03  0.00000000000E+00 0.  1.
<mgrwt>
<rscale>  0 0.10979478E+04</rscale>
<asrwt>0</asrwt>
<pdfrwt beam="1">  1        2 0.33014039E+00 0.10979478E+04</pdfrwt>
<pdfrwt beam="2">  1       -2 0.21606182E-01 0.10979478E+04</pdfrwt>
<totfact> 0.10292394E+02</totfact>
</mgrwt>
</event>
<event>
12    2  0.3623523E-008  0.2664655E+04  0.7818608E-02  0.8346565E-01
          1   -1    0    0  501    0  0.00000000000E+00  0.00000000000E+00  0.16843994408E+04  0.16843994408E+04  0.00000000000E+00 0. -1.
         -1   -1    0    0    0  501 -0.00000000000E+00 -0.00000000000E+00 -0.10538456521E+04  0.10538456521E+04  0.00000000000E+00 0.  1.
         23    2    1    2    0    0 -0.10997983412E+04 -0.41316384652E+03  0.20571334729E+03  0.11970255457E+04  0.10144663843E+03 0.  0.
        254    2    1    2    0    0  0.10997983412E+04  0.41316384652E+03  0.42484044140E+03  0.15412195472E+04  0.90255611280E+03 0.  0.
         23    2    4    4    0    0  0.60348874166E+03  0.66993266276E+03  0.34303269156E+03  0.96918068435E+03  0.92904991707E+02 0.  0.
         23    2    4    4    0    0  0.49630959950E+03 -0.25676881624E+03  0.81807749837E+02  0.57203886286E+03  0.91008291573E+02 0.  0.
          1    1    3    3  502    0 -0.74032488973E+03 -0.24794038033E+03  0.97057589403E+02  0.78674999219E+03  0.00000000000E+00 0. -1.
         -1    1    3    3    0  502 -0.35947345144E+03 -0.16522346619E+03  0.10865575788E+03  0.41027555349E+03  0.00000000000E+00 0.  1.
         11    1    5    5    0    0  0.50941122359E+03  0.51566755295E+03  0.29165968837E+03  0.78133103977E+03  0.00000000000E+00 0. -1.
        -11    1    5    5    0    0  0.94077518073E+02  0.15426510981E+03  0.51373003187E+02  0.18784964457E+03  0.00000000000E+00 0.  1.
          1    1    6    6  503    0  0.46617679350E+03 -0.21189236530E+03  0.75755308631E+02  0.51764664015E+03  0.00000000000E+00 0. -1.
         -1    1    6    6    0  503  0.30132806003E+02 -0.44876450947E+02  0.60524412064E+01  0.54392222714E+02  0.00000000000E+00 0.  1.
<mgrwt>
<rscale>  0 0.26646553E+04</rscale>
<asrwt>0</asrwt>
<pdfrwt beam="1">  1        1 0.25913837E+00 0.26646553E+04</pdfrwt>
<pdfrwt beam="2">  1       -1 0.16213010E+00 0.26646553E+04</pdfrwt>
<totfact> 0.12046743E+00</totfact>
</mgrwt>
</event>
<event>
12    2  0.3623523E-008  0.3814892E+04  0.7818608E-02  0.8042967E-01
         -1   -1    0    0    0  501 -0.00000000000E+00  0.00000000000E+00  0.11969743451E+04  0.11969743451E+04  0.00000000000E+00 0.  1.
          1   -1    0    0  501    0  0.00000000000E+00 -0.00000000000E+00 -0.30396224581E+04  0.30396224581E+04  0.00000000000E+00 0. -1.
         23    2    1    2    0    0 -0.57153410126E+03 -0.27609778385E+03  0.10043746804E+04  0.11914940893E+04  0.89489949105E+02 0.  0.
        254    2    1    2    0    0  0.57153410126E+03  0.27609778385E+03 -0.28470227934E+04  0.30451027139E+04  0.87420280062E+03 0.  0.
         23    2    4    4    0    0  0.57397805082E+03  0.93449086501E+02 -0.82919536206E+03  0.10169114250E+04  0.91435021699E+02 0.  0.
         23    2    4    4    0    0 -0.24439495618E+01  0.18264869735E+03 -0.20178274313E+04  0.20281912889E+04  0.92551834462E+02 0.  0.
          4    1    3    3  502    0 -0.10321770466E+03 -0.84984427002E+02  0.17824494757E+03  0.22281720922E+03  0.00000000000E+00 0. -1.
         -4    1    3    3    0  502 -0.46831639660E+03 -0.19111335685E+03  0.82612973287E+03  0.96867688009E+03  0.00000000000E+00 0.  1.
         11    1    5    5    0    0  0.30532731855E+03  0.54073395979E+01 -0.45338768550E+03  0.54663919008E+03  0.00000000000E+00 0.  1.
        -11    1    5    5    0    0  0.26865073228E+03  0.88041746903E+02 -0.37580767656E+03  0.47027223489E+03  0.00000000000E+00 0. -1.
          3    1    6    6  503    0  0.31686856963E+02  0.17640995845E+02 -0.35111822707E+03  0.35298621931E+03  0.00000000000E+00 0. -1.
         -3    1    6    6    0  503 -0.34130806525E+02  0.16500770151E+03 -0.16667092043E+04  0.16752050696E+04  0.00000000000E+00 0.  1.
<mgrwt>
<rscale>  0 0.38148919E+04</rscale>
<asrwt>0</asrwt>
<pdfrwt beam="1">  1        1 0.46763422E+00 0.38148919E+04</pdfrwt>
<pdfrwt beam="2">  1       -1 0.18414990E+00 0.38148919E+04</pdfrwt>
<totfact> 0.86299051E-02</totfact>
</mgrwt>
</event>
<event>
12    2  0.3623523E-008  0.1923160E+04  0.7818608E-02  0.8643413E-01
          1   -1    0    0  501    0  0.00000000000E+00  0.00000000000E+00  0.29642545732E+04  0.29642545732E+04  0.00000000000E+00 0. -1.
         -1   -1    0    0    0  501 -0.00000000000E+00 -0.00000000000E+00 -0.31192884755E+03  0.31192884755E+03  0.00000000000E+00 0.  1.
         23    2    1    2    0    0 -0.41766545803E+03  0.18082051544E+03  0.20461521480E+04  0.20981617178E+04  0.91670538472E+02 0.  0.
        254    2    1    2    0    0  0.41766545803E+03 -0.18082051544E+03  0.60617357774E+03  0.11780217030E+04  0.90174732207E+03 0.  0.
         23    2    4    4    0    0 -0.18037790984E+03 -0.21361136527E+02  0.50510644918E+03  0.54444595566E+03  0.91084494378E+02 0.  0.
         23    2    4    4    0    0  0.59804336787E+03 -0.15945937891E+03  0.10106712856E+03  0.63357574739E+03  0.90113815938E+02 0.  0.
          3    1    3    3  502    0 -0.42115424169E+03  0.17553063004E+03  0.20328778924E+04  0.20834525247E+04  0.00000000000E+00 0. -1.
         -3    1    3    3    0  502  0.34887836646E+01  0.52898853951E+01  0.13274255572E+02  0.14709193042E+02  0.00000000000E+00 0.  1.
         11    1    5    5    0    0 -0.12262325519E+03 -0.35622207498E+02  0.43042481700E+03  0.44896651041E+03  0.00000000000E+00 0. -1.
        -11    1    5    5    0    0 -0.57754654659E+02  0.14261070972E+02  0.74681632178E+02  0.95479445248E+02  0.00000000000E+00 0.  1.
          3    1    6    6  503    0  0.54495911951E+03 -0.11768615177E+03  0.97061088351E+02  0.56590752524E+03  0.00000000000E+00 0. -1.
         -3    1    6    6    0  503  0.53084248362E+02 -0.41773227140E+02  0.40060402082E+01  0.67668222143E+02  0.00000000000E+00 0.  1.
<mgrwt>
<rscale>  0 0.19231604E+04</rscale>
<asrwt>0</asrwt>
<pdfrwt beam="1">  1        1 0.45603915E+00 0.19231604E+04</pdfrwt>
<pdfrwt beam="2">  1       -1 0.47989056E-01 0.19231604E+04</pdfrwt>
<totfact> 0.25773714E+00</totfact>
</mgrwt>
</event>
<event>
12    2  0.3623523E-008  0.1341472E+04  0.7818608E-02  0.8997309E-01
         -2   -1    0    0    0  501 -0.00000000000E+00  0.00000000000E+00  0.27360504025E+04  0.27360504025E+04  0.00000000000E+00 0.  1.
          2   -1    0    0  501    0  0.00000000000E+00 -0.00000000000E+00 -0.16442920400E+03  0.16442920400E+03  0.00000000000E+00 0. -1.
         23    2    1    2    0    0 -0.17248652363E+03 -0.31486949692E+02  0.13185028636E+04  0.13333702550E+04  0.93184798410E+02 0.  0.
        254    2    1    2    0    0  0.17248652363E+03  0.31486949692E+02  0.12531183349E+04  0.15671093515E+04  0.92454482291E+03 0.  0.
         23    2    4    4    0    0 -0.25574882653E+03 -0.27389576219E+03  0.36501324806E+03  0.53086431357E+03  0.90310006920E+02 0.  0.
         23    2    4    4    0    0  0.42823535016E+03  0.30538271189E+03  0.88810508680E+03  0.10362450379E+04  0.91809681315E+02 0.  0.
          1    1    3    3  502    0  0.26719573289E+01 -0.15730551714E+02  0.44254667442E+02  0.47043226968E+02  0.00000000000E+00 0. -1.
         -1    1    3    3    0  502 -0.17515848096E+03 -0.15756397978E+02  0.12742481962E+04  0.12863270280E+04  0.00000000000E+00 0.  1.
         11    1    5    5    0    0 -0.17729646952E+03 -0.16997818381E+03  0.17949003013E+03  0.30420928979E+03  0.00000000000E+00 0. -1.
        -11    1    5    5    0    0 -0.78452357005E+02 -0.10391757838E+03  0.18552321793E+03  0.22665502379E+03  0.00000000000E+00 0.  1.
          4    1    6    6  503    0  0.21526532490E+03  0.19377942404E+03  0.42286854784E+03  0.51254993322E+03  0.00000000000E+00 0. -1.
         -4    1    6    6    0  503  0.21297002526E+03  0.11160328785E+03  0.46523653896E+03  0.52369510471E+03  0.00000000000E+00 0.  1.
<mgrwt>
<rscale>  0 0.13414717E+04</rscale>
<asrwt>0</asrwt>
<pdfrwt beam="1">  1        2 0.25296803E-01 0.13414717E+04</pdfrwt>
<pdfrwt beam="2">  1       -2 0.42093080E+00 0.13414717E+04</pdfrwt>
<totfact> 0.11598881E+00</totfact>
</mgrwt>
</event>
<event>
12    2  0.3623523E-008  0.1175705E+04  0.7818608E-02  0.9134392E-01
          4   -1    0    0  501    0  0.00000000000E+00  0.00000000000E+00  0.52052678865E+03  0.52052678865E+03  0.00000000000E+00 0. -1.
         -4   -1    0    0    0  501 -0.00000000000E+00 -0.00000000000E+00 -0.66388614120E+03  0.66388614120E+03  0.00000000000E+00 0.  1.
         23    2    1    2    0    0  0.87566356818E+02 -0.14374108474E+03  0.13119662610E+03  0.23148947757E+03  0.89696472807E+02 0.  0.
        254    2    1    2    0    0 -0.87566356818E+02  0.14374108474E+03 -0.27455597865E+03  0.95292345227E+03  0.89685715373E+03 0.  0.
         23    2    4    4    0    0 -0.12865070225E+03  0.42608522289E+03  0.10801313172E+03  0.46720403612E+03  0.92266756696E+02 0.  0.
         23    2    4    4    0    0  0.41084345435E+02 -0.28234413814E+03 -0.38256911038E+03  0.48571941615E+03  0.90322152492E+02 0.  0.
          1    1    3    3  502    0  0.96943420874E+02 -0.11333734975E+03  0.75064748860E+02  0.16696735675E+03  0.00000000000E+00 0. -1.
         -1    1    3    3    0  502 -0.93770640557E+01 -0.30403734998E+02  0.56131877245E+02  0.64522120820E+02  0.00000000000E+00 0.  1.
         11    1    5    5    0    0 -0.31383712723E+02  0.15138552787E+03  0.81013353536E+02  0.17454420335E+03  0.00000000000E+00 0. -1.
        -11    1    5    5    0    0 -0.97266989530E+02  0.27469969502E+03  0.26999778189E+02  0.29265983277E+03  0.00000000000E+00 0.  1.
          2    1    6    6  503    0 -0.20897635306E+02 -0.17731242150E+02 -0.38603052815E+02  0.47342410122E+02  0.00000000000E+00 0. -1.
         -2    1    6    6    0  503  0.61981980741E+02 -0.26461289599E+03 -0.34396605756E+03  0.43837700603E+03  0.00000000000E+00 0.  1.
<mgrwt>
<rscale>  0 0.11757049E+04</rscale>
<asrwt>0</asrwt>
<pdfrwt beam="1">  1        4 0.80081045E-01 0.11757049E+04</pdfrwt>
<pdfrwt beam="2">  1       -4 0.10213633E+00 0.11757049E+04</pdfrwt>
<totfact> 0.21406144E+00</totfact>
</mgrwt>
</event>
<event>
12    2  0.3623523E-008  0.1915504E+04  0.7818608E-02  0.8647178E-01
         -2   -1    0    0    0  501 -0.00000000000E+00  0.00000000000E+00  0.26375961666E+03  0.26375961666E+03  0.00000000000E+00 0.  1.
          2   -1    0    0  501    0  0.00000000000E+00 -0.00000000000E+00 -0.34777441715E+04  0.34777441715E+04  0.00000000000E+00 0. -1.
         23    2    1    2    0    0  0.45858477565E+03 -0.19510644663E+03 -0.17751793574E+03  0.53697343631E+03  0.91985497878E+02 0.  0.
        254    2    1    2    0    0 -0.45858477565E+03  0.19510644663E+03 -0.30364666191E+04  0.32045303519E+04  0.89471712011E+03 0.  0.
         23    2    4    4    0    0  0.99205428383E+02 -0.22614597859E+03 -0.13722335843E+04  0.13972659237E+04  0.91341835155E+02 0.  0.
         23    2    4    4    0    0 -0.55779020404E+03  0.42125242522E+03 -0.16642330348E+04  0.18072644282E+04  0.89160539736E+02 0.  0.
          2    1    3    3  502    0  0.16783808218E+03 -0.65603758603E+02 -0.11151653108E+03  0.21191840806E+03  0.00000000000E+00 0. -1.
         -2    1    3    3    0  502  0.29074669348E+03 -0.12950268803E+03 -0.66001404655E+02  0.32505502825E+03  0.00000000000E+00 0.  1.
         11    1    5    5    0    0  0.21957769601E+02  0.18541698492E+01 -0.92630955565E+02  0.95215941525E+02  0.00000000000E+00 0.  1.
        -11    1    5    5    0    0  0.77247658782E+02 -0.22800014844E+03 -0.12796026288E+04  0.13020499822E+04  0.00000000000E+00 0. -1.
          4    1    6    6  503    0 -0.29784664933E+03  0.16979082067E+03 -0.82789311717E+03  0.89607397170E+03  0.00000000000E+00 0.  1.
         -4    1    6    6    0  503 -0.25994355470E+03  0.25146160454E+03 -0.83633991763E+03  0.91119045650E+03  0.00000000000E+00 0. -1.
<mgrwt>
<rscale>  0 0.19155036E+04</rscale>
<asrwt>0</asrwt>
<pdfrwt beam="1">  1        2 0.53503755E+00 0.19155036E+04</pdfrwt>
<pdfrwt beam="2">  1       -2 0.40578404E-01 0.19155036E+04</pdfrwt>
<totfact> 0.45613022E+00</totfact>
</mgrwt>
</event>
<event>
12    2  0.3623523E-008  0.1113386E+04  0.7818608E-02  0.9192242E-01
          1   -1    0    0  501    0  0.00000000000E+00  0.00000000000E+00  0.40498744695E+03  0.40498744695E+03  0.00000000000E+00 0. -1.
         -1   -1    0    0    0  501 -0.00000000000E+00 -0.00000000000E+00 -0.76522629496E+03  0.76522629496E+03  0.00000000000E+00 0.  1.
         23    2    1    2    0    0 -0.57778864066E+02 -0.19138196039E+02  0.11061452050E+03  0.15472958038E+03  0.89448327090E+02 0.  0.
        254    2    1    2    0    0  0.57778864066E+02  0.19138196039E+02 -0.47085336851E+03  0.10154841615E+04  0.89766392375E+03 0.  0.
         23    2    4    4    0    0  0.22040927919E+03 -0.37762227756E+03 -0.14654626082E+03  0.47031222121E+03  0.92406406675E+02 0.  0.
         23    2    4    4    0    0 -0.16263041513E+03  0.39676047360E+03 -0.32430710769E+03  0.54517194032E+03  0.90387051460E+02 0.  0.
          2    1    3    3  502    0 -0.50217909320E+02  0.22690478881E+02  0.94258165302E+02  0.10918469661E+03  0.00000000000E+00 0. -1.
         -2    1    3    3    0  502 -0.75609547466E+01 -0.41828674920E+02  0.16356355201E+02  0.45544883771E+02  0.00000000000E+00 0.  1.
         11    1    5    5    0    0  0.27897354300E+02 -0.11255261506E+03 -0.64098232378E+02  0.13249504492E+03  0.00000000000E+00 0. -1.
        -11    1    5    5    0    0  0.19251192489E+03 -0.26506966251E+03 -0.82448028440E+02  0.33781717630E+03  0.00000000000E+00 0.  1.
          3    1    6    6  503    0 -0.98969894883E+02  0.25938524279E+03 -0.15470893379E+03  0.31782164568E+03  0.00000000000E+00 0. -1.
         -3    1    6    6    0  503 -0.63660520242E+02  0.13737523081E+03 -0.16959817391E+03  0.22735029464E+03  0.00000000000E+00 0.  1.
<mgrwt>
<rscale>  0 0.11133859E+04</rscale>
<asrwt>0</asrwt>
<pdfrwt beam="1">  1        1 0.62305761E-01 0.11133859E+04</pdfrwt>
<pdfrwt beam="2">  1       -1 0.11772712E+00 0.11133859E+04</pdfrwt>
<totfact> 0.38126200E+01</totfact>
</mgrwt>
</event>
<event>
12    2  0.3623523E-008  0.1300498E+04  0.7818608E-02  0.9029170E-01
          1   -1    0    0  501    0  0.00000000000E+00  0.00000000000E+00  0.96143348529E+03  0.96143348529E+03  0.00000000000E+00 0. -1.
         -1   -1    0    0    0  501 -0.00000000000E+00 -0.00000000000E+00 -0.43978505989E+03  0.43978505989E+03  0.00000000000E+00 0.  1.
         23    2    1    2    0    0 -0.29464331746E+02 -0.22641321066E+03  0.39156133601E+03  0.46228021195E+03  0.90838459358E+02 0.  0.
        254    2    1    2    0    0  0.29464331746E+02  0.22641321066E+03  0.13008708940E+03  0.93893833323E+03  0.90141635994E+03 0.  0.
         23    2    4    4    0    0 -0.42045950108E+03  0.36186685478E+02  0.47353655626E+02  0.43470908600E+03  0.92919064219E+02 0.  0.
         23    2    4    4    0    0  0.44992383283E+03  0.19022652518E+03  0.82733433773E+02  0.50422924723E+03  0.93726871612E+02 0.  0.
          2    1    3    3  502    0 -0.23023808604E+02 -0.10060566530E+02  0.72483879469E+02  0.76715210646E+02  0.00000000000E+00 0.  1.
         -2    1    3    3    0  502 -0.64405231425E+01 -0.21635264413E+03  0.31907745654E+03  0.38556500131E+03  0.00000000000E+00 0. -1.
         11    1    5    5    0    0 -0.38644955739E+03  0.60474229586E+01  0.38477075479E+02  0.38840741119E+03  0.00000000000E+00 0. -1.
        -11    1    5    5    0    0 -0.34009943696E+02  0.30139262520E+02  0.88765801467E+01  0.46301674813E+02  0.00000000000E+00 0.  1.
          4    1    6    6  503    0  0.20056014901E+03  0.86439384641E+02  0.84368478416E+02  0.23412428481E+03  0.00000000000E+00 0. -1.
         -4    1    6    6    0  503  0.24936368382E+03  0.10378714054E+03 -0.16350446425E+01  0.27010496241E+03  0.00000000000E+00 0.  1.
<mgrwt>
<rscale>  0 0.13004985E+04</rscale>
<asrwt>0</asrwt>
<pdfrwt beam="1">  1        1 0.14791284E+00 0.13004985E+04</pdfrwt>
<pdfrwt beam="2">  1       -1 0.67659240E-01 0.13004985E+04</pdfrwt>
<totfact> 0.35279625E+01</totfact>
</mgrwt>
</event>
<event>
12    2  0.3623523E-008  0.2180057E+04  0.7818608E-02  0.8526775E-01
         -1   -1    0    0    0  501 -0.00000000000E+00  0.00000000000E+00  0.82567932587E+03  0.82567932587E+03  0.00000000000E+00 0.  1.
          1   -1    0    0  501    0  0.00000000000E+00 -0.00000000000E+00 -0.14390110090E+04  0.14390110090E+04  0.00000000000E+00 0. -1.
         23    2    1    2    0    0  0.36890477643E+03  0.68918588840E+03  0.21148924656E+03  0.81511935354E+03  0.92865150918E+02 0.  0.
        254    2    1    2    0    0 -0.36890477643E+03 -0.68918588840E+03 -0.82482092972E+03  0.14495709814E+04  0.89992140828E+03 0.  0.
         23    2    4    4    0    0 -0.63810673184E+03 -0.39582783145E+03 -0.38275151005E+03  0.84761074177E+03  0.89918728474E+02 0.  0.
         23    2    4    4    0    0  0.26920195541E+03 -0.29335805694E+03 -0.44206941967E+03  0.60196023961E+03  0.91663056297E+02 0.  0.
          1    1    3    3  502    0  0.18779776779E+03  0.27949726549E+03  0.12325340722E+03  0.35857792095E+03  0.00000000000E+00 0. -1.
         -1    1    3    3    0  502  0.18110700864E+03  0.40968862291E+03  0.88235839336E+02  0.45654143258E+03  0.00000000000E+00 0.  1.
         11    1    5    5    0    0 -0.49758189371E+03 -0.34436665178E+03 -0.32766558699E+03  0.68814305831E+03  0.00000000000E+00 0.  1.
        -11    1    5    5    0    0 -0.14052483813E+03 -0.51461179672E+02 -0.55085923060E+02  0.15946768345E+03  0.00000000000E+00 0. -1.
          1    1    6    6  503    0  0.10576111950E+03 -0.10164947529E+03 -0.10167326531E+03  0.17848104410E+03  0.00000000000E+00 0. -1.
         -1    1    6    6    0  503  0.16344083591E+03 -0.19170858166E+03 -0.34039615436E+03  0.42347919550E+03  0.00000000000E+00 0.  1.
<mgrwt>
<rscale>  0 0.21800565E+04</rscale>
<asrwt>0</asrwt>
<pdfrwt beam="1">  1        1 0.22138631E+00 0.21800565E+04</pdfrwt>
<pdfrwt beam="2">  1       -1 0.12702759E+00 0.21800565E+04</pdfrwt>
<totfact> 0.35418248E+00</totfact>
</mgrwt>
</event>
<event>
12    2  0.3623523E-008  0.1304245E+04  0.7818608E-02  0.9026205E-01
         -1   -1    0    0    0  501 -0.00000000000E+00  0.00000000000E+00  0.56013617430E+03  0.56013617430E+03  0.00000000000E+00 0.  1.
          1   -1    0    0  501    0  0.00000000000E+00 -0.00000000000E+00 -0.75921547440E+03  0.75921547440E+03  0.00000000000E+00 0. -1.
         23    2    1    2    0    0  0.23535428528E+03  0.10143911128E+03 -0.28395447329E+03  0.39362740429E+03  0.92902409078E+02 0.  0.
        254    2    1    2    0    0 -0.23535428528E+03 -0.10143911128E+03  0.84875173188E+02  0.92572424441E+03  0.88548294663E+03 0.  0.
         23    2    4    4    0    0  0.19020922050E+03 -0.30719221847E+03 -0.13458682458E+03  0.39625082389E+03  0.91402929026E+02 0.  0.
         23    2    4    4    0    0 -0.42556350578E+03  0.20575310718E+03  0.21946199777E+03  0.52947342052E+03  0.93487410965E+02 0.  0.
          3    1    3    3  502    0  0.19346207053E+03  0.39017387866E+02 -0.20161901607E+03  0.28213499771E+03  0.00000000000E+00 0. -1.
         -3    1    3    3    0  502  0.41892214747E+02  0.62421723417E+02 -0.82335457217E+02  0.11149240658E+03  0.00000000000E+00 0.  1.
         11    1    5    5    0    0  0.65671226625E+02 -0.17971538175E+03 -0.95302080889E+02  0.21375877775E+03  0.00000000000E+00 0. -1.
        -11    1    5    5    0    0  0.12453799387E+03 -0.12747683671E+03 -0.39284743693E+02  0.18249204614E+03  0.00000000000E+00 0.  1.
          3    1    6    6  503    0 -0.25867848445E+03  0.12080809401E+03  0.18178835573E+03  0.33846146040E+03  0.00000000000E+00 0. -1.
         -3    1    6    6    0  503 -0.16688502133E+03  0.84945013177E+02  0.37673642045E+02  0.19101196013E+03  0.00000000000E+00 0.  1.
<mgrwt>
<rscale>  0 0.13042455E+04</rscale>
<asrwt>0</asrwt>
<pdfrwt beam="1">  1        1 0.11680238E+00 0.13042455E+04</pdfrwt>
<pdfrwt beam="2">  1       -1 0.86174796E-01 0.13042455E+04</pdfrwt>
<totfact> 0.31375028E+01</totfact>
</mgrwt>
</event>
<event>
12    2  0.3623523E-008  0.2102792E+04  0.7818608E-02  0.8560015E-01
          2   -1    0    0  501    0  0.00000000000E+00  0.00000000000E+00  0.32167089724E+03  0.32167089724E+03  0.00000000000E+00 0. -1.
         -2   -1    0    0    0  501 -0.00000000000E+00 -0.00000000000E+00 -0.34365352278E+04  0.34365352278E+04  0.00000000000E+00 0.  1.
         23    2    1    2    0    0  0.79415009413E+03 -0.25896477421E+03 -0.94464064866E+03  0.12643184688E+04  0.91750253974E+02 0.  0.
        254    2    1    2    0    0 -0.79415009413E+03  0.25896477421E+03 -0.21702236819E+04  0.24938876563E+04  0.90103700610E+03 0.  0.
         23    2    4    4    0    0 -0.36451548007E+03 -0.18634002759E+02 -0.18411512147E+04  0.18792232807E+04  0.91780075747E+02 0.  0.
         23    2    4    4    0    0 -0.42963461406E+03  0.27759877696E+03 -0.32907246728E+03  0.61466437558E+03  0.88750342631E+02 0.  0.
          1    1    3    3  502    0  0.10725170517E+03 -0.12663668494E+02 -0.15746364272E+03  0.19094003127E+03  0.00000000000E+00 0. -1.
         -1    1    3    3    0  502  0.68689838896E+03 -0.24630110571E+03 -0.78717700594E+03  0.10733784375E+04  0.00000000000E+00 0.  1.
         11    1    5    5    0    0 -0.31577879473E+03  0.16518296530E+02 -0.15354872930E+04  0.15677086235E+04  0.00000000000E+00 0.  1.
        -11    1    5    5    0    0 -0.48736685335E+02 -0.35152299289E+02 -0.30566392170E+03  0.31151465723E+03  0.00000000000E+00 0. -1.
          1    1    6    6  503    0 -0.32077613179E+03  0.19100334999E+03 -0.19382328703E+03  0.42065077324E+03  0.00000000000E+00 0. -1.
         -1    1    6    6    0  503 -0.10885848227E+03  0.86595426975E+02 -0.13524918025E+03  0.19401360234E+03  0.00000000000E+00 0.  1.
<mgrwt>
<rscale>  0 0.21027918E+04</rscale>
<asrwt>0</asrwt>
<pdfrwt beam="1">  1        2 0.49487832E-01 0.21027918E+04</pdfrwt>
<pdfrwt beam="2">  1       -2 0.52869771E+00 0.21027918E+04</pdfrwt>
<totfact> 0.10329171E-01</totfact>
</mgrwt>
</event>
<event>
12    2  0.3623523E-008  0.1783467E+04  0.7818608E-02  0.8715141E-01
          1   -1    0    0  501    0  0.00000000000E+00  0.00000000000E+00  0.33704081877E+04  0.33704081877E+04  0.00000000000E+00 0. -1.
         -1   -1    0    0    0  501 -0.00000000000E+00 -0.00000000000E+00 -0.23593239595E+03  0.23593239595E+03  0.00000000000E+00 0.  1.
         23    2    1    2    0    0 -0.25368799693E+03  0.59960915129E+03  0.13562162918E+04  0.15071456569E+04  0.90976189322E+02 0.  0.
        254    2    1    2    0    0  0.25368799693E+03 -0.59960915129E+03  0.17782595000E+04  0.20991949268E+04  0.90582766409E+03 0.  0.
         23    2    4    4    0    0  0.28533864765E+03 -0.24727640708E+02  0.13310197402E+04  0.13646316005E+04  0.92608079292E+02 0.  0.
         23    2    4    4    0    0 -0.31650650719E+02 -0.57488151058E+03  0.44723975986E+03  0.73456332625E+03  0.89829630854E+02 0.  0.
          4    1    3    3  502    0 -0.28792461480E+02  0.32309675132E+02  0.55412156038E+02  0.70309515587E+02  0.00000000000E+00 0. -1.
         -4    1    3    3    0  502 -0.22489553545E+03  0.56729947616E+03  0.13008041357E+04  0.14368361413E+04  0.00000000000E+00 0.  1.
         11    1    5    5    0    0  0.11266227423E+02 -0.20011010416E+02  0.17806910191E+03  0.17954379264E+03  0.00000000000E+00 0.  1.
        -11    1    5    5    0    0  0.27407242022E+03 -0.47166302924E+01  0.11529506382E+04  0.11850878079E+04  0.00000000000E+00 0. -1.
          2    1    6    6  503    0 -0.23711596188E+02 -0.53881234096E+03  0.44189480584E+03  0.69724600966E+03  0.00000000000E+00 0. -1.
         -2    1    6    6    0  503 -0.79390545314E+01 -0.36069169619E+02  0.53449540195E+01  0.37317316588E+02  0.00000000000E+00 0.  1.
<mgrwt>
<rscale>  0 0.17834668E+04</rscale>
<asrwt>0</asrwt>
<pdfrwt beam="1">  1        1 0.51852430E+00 0.17834668E+04</pdfrwt>
<pdfrwt beam="2">  1       -1 0.36297294E-01 0.17834668E+04</pdfrwt>
<totfact> 0.21783509E+00</totfact>
</mgrwt>
</event>
<event>
12    2  0.3623523E-008  0.2763788E+04  0.7818608E-02  0.8314600E-01
          2   -1    0    0  501    0  0.00000000000E+00  0.00000000000E+00  0.16161486534E+04  0.16161486534E+04  0.00000000000E+00 0. -1.
         -2   -1    0    0    0  501 -0.00000000000E+00 -0.00000000000E+00 -0.11815938370E+04  0.11815938370E+04  0.00000000000E+00 0.  1.
         23    2    1    2    0    0 -0.10752871813E+04 -0.55969621487E+03  0.26296518734E+03  0.12435767081E+04  0.88487082933E+02 0.  0.
        254    2    1    2    0    0  0.10752871813E+04  0.55969621487E+03  0.17158962909E+03  0.15541657823E+04  0.95733270229E+03 0.  0.
         23    2    4    4    0    0  0.10327820730E+04  0.77666110380E+03  0.80706199503E+02  0.12981928490E+04  0.94603922198E+02 0.  0.
         23    2    4    4    0    0  0.42505108284E+02 -0.21696488893E+03  0.90883429589E+02  0.25597293329E+03  0.91552703625E+02 0.  0.
          1    1    3    3  502    0 -0.44114768725E+01 -0.26639241533E+01  0.85291848938E+01  0.99651700961E+01  0.00000000000E+00 0. -1.
         -1    1    3    3    0  502 -0.10708757044E+04 -0.55703229071E+03  0.25443600245E+03  0.12336115380E+04  0.00000000000E+00 0.  1.
         11    1    5    5    0    0  0.95594817770E+03  0.73771026972E+03  0.93462513145E+02  0.12111104829E+04  0.00000000000E+00 0. -1.
        -11    1    5    5    0    0  0.76833895332E+02  0.38950834078E+02 -0.12756313642E+02  0.87082366097E+02  0.00000000000E+00 0.  1.
          1    1    6    6  503    0  0.41049161962E+02 -0.22569070661E+03  0.82478720723E+02  0.24377052349E+03  0.00000000000E+00 0. -1.
         -1    1    6    6    0  503  0.14559463228E+01  0.87258176768E+01  0.84047088664E+01  0.12202409801E+02  0.00000000000E+00 0.  1.
<mgrwt>
<rscale>  0 0.27637882E+04</rscale>
<asrwt>0</asrwt>
<pdfrwt beam="1">  1        2 0.24863825E+00 0.27637882E+04</pdfrwt>
<pdfrwt beam="2">  1       -2 0.18178367E+00 0.27637882E+04</pdfrwt>
<totfact> 0.16804399E+00</totfact>
</mgrwt>
</event>
<event>
12    2  0.3623523E-008  0.1502217E+04  0.7818608E-02  0.8882980E-01
         -1   -1    0    0    0  501 -0.00000000000E+00  0.00000000000E+00  0.32874791771E+03  0.32874791771E+03  0.00000000000E+00 0.  1.
          1   -1    0    0  501    0  0.00000000000E+00 -0.00000000000E+00 -0.17160980636E+04  0.17160980636E+04  0.00000000000E+00 0. -1.
         23    2    1    2    0    0  0.60881764684E+02  0.85510334055E+02  0.18542247823E+03  0.23272081363E+03  0.93588862393E+02 0.  0.
        254    2    1    2    0    0 -0.60881764684E+02 -0.85510334055E+02 -0.15727726241E+04  0.18121251677E+04  0.89396045193E+03 0.  0.
         23    2    4    4    0    0  0.84460854449E+02  0.27485142528E+03 -0.12860696404E+04  0.13209191163E+04  0.90417088840E+02 0.  0.
         23    2    4    4    0    0 -0.14534261913E+03 -0.36036175933E+03 -0.28670298375E+03  0.49120605139E+03  0.89998386135E+02 0.  0.
          2    1    3    3  502    0  0.25878780300E+02  0.96489920565E+00 -0.58037775453E-01  0.25896827386E+02  0.00000000000E+00 0. -1.
         -2    1    3    3    0  502  0.35002984384E+02  0.84545434849E+02  0.18548051601E+03  0.20682398625E+03  0.00000000000E+00 0.  1.
         11    1    5    5    0    0  0.53049551139E+02  0.63335894535E+02 -0.47517546223E+03  0.48230427152E+03  0.00000000000E+00 0.  1.
        -11    1    5    5    0    0  0.31411303310E+02  0.21151553074E+03 -0.81089417815E+03  0.83861484478E+03  0.00000000000E+00 0. -1.
          3    1    6    6  503    0 -0.95709515996E+02 -0.30856436997E+03 -0.25986838992E+03  0.41461290615E+03  0.00000000000E+00 0. -1.
         -3    1    6    6    0  503 -0.49633103137E+02 -0.51797389357E+02 -0.26834593829E+02  0.76593145236E+02  0.00000000000E+00 0.  1.
<mgrwt>
<rscale>  0 0.15022166E+04</rscale>
<asrwt>0</asrwt>
<pdfrwt beam="1">  1        1 0.26401509E+00 0.15022166E+04</pdfrwt>
<pdfrwt beam="2">  1       -1 0.50576603E-01 0.15022166E+04</pdfrwt>
<totfact> 0.17650885E+01</totfact>
</mgrwt>
</event>
<event>
12    2  0.3623523E-008  0.1817907E+04  0.7818608E-02  0.8696834E-01
          2   -1    0    0  501    0  0.00000000000E+00  0.00000000000E+00  0.14672756062E+04  0.14672756062E+04  0.00000000000E+00 0.  1.
         -2   -1    0    0    0  501 -0.00000000000E+00 -0.00000000000E+00 -0.56308215183E+03  0.56308215183E+03  0.00000000000E+00 0. -1.
         23    2    1    2    0    0 -0.65641027557E+03 -0.43264157714E+01  0.13593815890E+03  0.67600871841E+03  0.87266468773E+02 0.  0.
        254    2    1    2    0    0  0.65641027557E+03  0.43264157714E+01  0.76825529547E+03  0.13543490396E+04  0.90174938555E+03 0.  0.
         23    2    4    4    0    0  0.84291119579E+03 -0.25780466352E+02  0.77031426565E+03  0.11457200572E+04  0.90146908376E+02 0.  0.
         23    2    4    4    0    0 -0.18650092022E+03  0.30106882124E+02 -0.20589701801E+01  0.20862898245E+03  0.88503081093E+02 0.  0.
          4    1    3    3  502    0 -0.40950620147E+03 -0.31393441882E+02  0.11626753627E+03  0.42684776821E+03  0.00000000000E+00 0. -1.
         -4    1    3    3    0  502 -0.24690407410E+03  0.27067026110E+02  0.19670622634E+02  0.24916095020E+03  0.00000000000E+00 0.  1.
         11    1    5    5    0    0  0.45837470098E+03 -0.26003271825E+02  0.47730200818E+03  0.66226938904E+03  0.00000000000E+00 0.  1.
        -11    1    5    5    0    0  0.38453649481E+03  0.22280547296E+00  0.29301225747E+03  0.48345066813E+03  0.00000000000E+00 0. -1.
          3    1    6    6  503    0 -0.16223325119E+03  0.23402634506E+02 -0.34560860255E+02  0.16751645936E+03  0.00000000000E+00 0. -1.
         -3    1    6    6    0  503 -0.24267669033E+02  0.67042476181E+01  0.32501890075E+02  0.41112523090E+02  0.00000000000E+00 0.  1.
<mgrwt>
<rscale>  0 0.18179073E+04</rscale>
<asrwt>0</asrwt>
<pdfrwt beam="1">  1        2 0.22573471E+00 0.18179073E+04</pdfrwt>
<pdfrwt beam="2">  1       -2 0.86628024E-01 0.18179073E+04</pdfrwt>
<totfact> 0.14409842E+01</totfact>
</mgrwt>
</event>
<event>
12    2  0.3623523E-008  0.1180359E+04  0.7818608E-02  0.9130225E-01
          2   -1    0    0  501    0  0.00000000000E+00  0.00000000000E+00  0.13451140149E+04  0.13451140149E+04  0.00000000000E+00 0.  1.
         -2   -1    0    0    0  501 -0.00000000000E+00 -0.00000000000E+00 -0.25894575529E+03  0.25894575529E+03  0.00000000000E+00 0. -1.
         23    2    1    2    0    0  0.17278979852E+02 -0.20888647102E+03  0.97517603040E+02  0.24967864537E+03  0.94327207798E+02 0.  0.
        254    2    1    2    0    0 -0.17278979852E+02  0.20888647102E+03  0.98865065658E+03  0.13543811248E+04  0.90165735709E+03 0.  0.
         23    2    4    4    0    0 -0.13893098217E+03  0.49409910150E+03  0.31802268205E+03  0.61049167684E+03  0.90143892115E+02 0.  0.
         23    2    4    4    0    0  0.12165200231E+03 -0.28521263048E+03  0.67062797453E+03  0.74388944798E+03  0.86511134261E+02 0.  0.
          3    1    3    3  502    0  0.13845563019E+02 -0.89278104716E+02 -0.72518603714E+01  0.90635914934E+02  0.00000000000E+00 0. -1.
         -3    1    3    3    0  502  0.34334168334E+01 -0.11960836631E+03  0.10476946341E+03  0.15904273044E+03  0.00000000000E+00 0.  1.
         11    1    5    5    0    0 -0.25693618635E+02  0.22007005460E+03  0.16889620547E+03  0.27859813207E+03  0.00000000000E+00 0. -1.
        -11    1    5    5    0    0 -0.11323736353E+03  0.27402904690E+03  0.14912647658E+03  0.33189354477E+03  0.00000000000E+00 0.  1.
          3    1    6    6  503    0  0.10121037654E+03 -0.18070357629E+03  0.35766853704E+03  0.41330872867E+03  0.00000000000E+00 0. -1.
         -3    1    6    6    0  503  0.20441625775E+02 -0.10450905418E+03  0.31295943749E+03  0.33058071931E+03  0.00000000000E+00 0.  1.
<mgrwt>
<rscale>  0 0.11803585E+04</rscale>
<asrwt>0</asrwt>
<pdfrwt beam="1">  1        2 0.20694061E+00 0.11803585E+04</pdfrwt>
<pdfrwt beam="2">  1       -2 0.39837809E-01 0.11803585E+04</pdfrwt>
<totfact> 0.91603856E+01</totfact>
</mgrwt>
</event>
<event>
12    2  0.3623523E-008  0.1889040E+04  0.7818608E-02  0.8660331E-01
          1   -1    0    0  501    0  0.00000000000E+00  0.00000000000E+00  0.14261495860E+04  0.14261495860E+04  0.00000000000E+00 0. -1.
         -1   -1    0    0    0  501 -0.00000000000E+00 -0.00000000000E+00 -0.62554278293E+03  0.62554278293E+03  0.00000000000E+00 0.  1.
         23    2    1    2    0    0  0.34965070818E+02 -0.37669877422E+03  0.95091023755E+03  0.10275624275E+04  0.92356590787E+02 0.  0.
        254    2    1    2    0    0 -0.34965070818E+02  0.37669877422E+03 -0.15030343450E+03  0.10241299414E+04  0.93974810018E+03 0.  0.
         23    2    4    4    0    0 -0.32152484331E+03  0.56372415857E+03 -0.13616169806E+03  0.66979963540E+03  0.94490167444E+02 0.  0.
         23    2    4    4    0    0  0.28655977249E+03 -0.18702538435E+03 -0.14141736440E+02  0.35433030601E+03  0.90856917430E+02 0.  0.
          1    1    3    3  502    0  0.80955073392E+01 -0.34710532617E+03  0.81443931166E+03  0.88535814057E+03  0.00000000000E+00 0. -1.
         -1    1    3    3    0  502  0.26869563479E+02 -0.29593448050E+02  0.13647092589E+03  0.14220428693E+03  0.00000000000E+00 0.  1.
         11    1    5    5    0    0  0.16133519174E+01  0.24025415611E+02  0.61685032756E+01  0.24857070068E+02  0.00000000000E+00 0.  1.
        -11    1    5    5    0    0 -0.32313819522E+03  0.53969874296E+03 -0.14233020133E+03  0.64494256533E+03  0.00000000000E+00 0. -1.
          2    1    6    6  503    0  0.22692946236E+03 -0.99799120735E+02 -0.18373388572E+02  0.24858484828E+03  0.00000000000E+00 0. -1.
         -2    1    6    6    0  503  0.59630310132E+02 -0.87226263616E+02  0.42316521322E+01  0.10574545773E+03  0.00000000000E+00 0.  1.
<mgrwt>
<rscale>  0 0.18890395E+04</rscale>
<asrwt>0</asrwt>
<pdfrwt beam="1">  1        1 0.21940763E+00 0.18890395E+04</pdfrwt>
<pdfrwt beam="2">  1       -1 0.96237352E-01 0.18890395E+04</pdfrwt>
<totfact> 0.71728583E+00</totfact>
</mgrwt>
</event>
<event>
12    2  0.3623523E-008  0.1421157E+04  0.7818608E-02  0.8938645E-01
          1   -1    0    0  501    0  0.00000000000E+00  0.00000000000E+00  0.81484099812E+03  0.81484099812E+03  0.00000000000E+00 0. -1.
         -1   -1    0    0    0  501 -0.00000000000E+00 -0.00000000000E+00 -0.61965680608E+03  0.61965680608E+03  0.00000000000E+00 0.  1.
         23    2    1    2    0    0  0.23864615127E+03  0.77699158393E+02  0.40047052200E+03  0.48113652741E+03  0.90147514036E+02 0.  0.
        254    2    1    2    0    0 -0.23864615127E+03 -0.77699158393E+02 -0.20528632995E+03  0.95336127679E+03  0.89653003413E+03 0.  0.
         23    2    4    4    0    0  0.33236679915E+03 -0.59522281059E+02 -0.44904327147E+02  0.35284220134E+03  0.92036021945E+02 0.  0.
         23    2    4    4    0    0 -0.57101295042E+03 -0.18176877334E+02 -0.16038200281E+03  0.60051907545E+03  0.92274507532E+02 0.  0.
          3    1    3    3  502    0  0.10911046904E+03  0.41868653676E+02  0.26824443377E+03  0.29259725710E+03  0.00000000000E+00 0. -1.
         -3    1    3    3    0  502  0.12953568224E+03  0.35830504717E+02  0.13222608823E+03  0.18853927031E+03  0.00000000000E+00 0.  1.
         11    1    5    5    0    0  0.74370151367E+02 -0.33593241198E+02  0.23033068457E+02  0.84793558193E+02  0.00000000000E+00 0. -1.
        -11    1    5    5    0    0  0.25799664778E+03 -0.25929039861E+02 -0.67937395604E+02  0.26804864315E+03  0.00000000000E+00 0.  1.
          2    1    6    6  503    0 -0.55671901083E+03 -0.30080445621E+02 -0.16484385284E+03  0.58139004640E+03  0.00000000000E+00 0. -1.
         -2    1    6    6    0  503 -0.14293939586E+02  0.11903568287E+02  0.44618500296E+01  0.19129029053E+02  0.00000000000E+00 0.  1.
<mgrwt>
<rscale>  0 0.14211570E+04</rscale>
<asrwt>0</asrwt>
<pdfrwt beam="1">  1        1 0.12536015E+00 0.14211570E+04</pdfrwt>
<pdfrwt beam="2">  1       -1 0.95331816E-01 0.14211570E+04</pdfrwt>
<totfact> 0.22204998E+01</totfact>
</mgrwt>
</event>
<event>
12    2  0.3623523E-008  0.1891419E+04  0.7818608E-02  0.8659139E-01
         -2   -1    0    0    0  501 -0.00000000000E+00  0.00000000000E+00  0.42629142914E+03  0.42629142914E+03  0.00000000000E+00 0.  1.
          2   -1    0    0  501    0  0.00000000000E+00 -0.00000000000E+00 -0.20980175687E+04  0.20980175687E+04  0.00000000000E+00 0. -1.
         23    2    1    2    0    0 -0.36026004423E+03  0.59151025489E+03 -0.90409022081E+03  0.11423610553E+04  0.89095298051E+02 0.  0.
        254    2    1    2    0    0  0.36026004423E+03 -0.59151025489E+03 -0.76763591873E+03  0.13819479425E+04  0.91697520745E+03 0.  0.
         23    2    4    4    0    0  0.76497143538E+02  0.30295020654E+02  0.17437620569E+03  0.21404558178E+03  0.92945407212E+02 0.  0.
         23    2    4    4    0    0  0.28376290069E+03 -0.62180527555E+03 -0.94201212442E+03  0.11679023608E+04  0.97190005849E+02 0.  0.
          3    1    3    3  502    0 -0.12393410327E+02  0.70767217778E+02 -0.84941086932E+02  0.11125009654E+03  0.00000000000E+00 0. -1.
         -3    1    3    3    0  502 -0.34786663390E+03  0.52074303711E+03 -0.81914913388E+03  0.10311109587E+04  0.00000000000E+00 0.  1.
         11    1    5    5    0    0  0.53594436553E+01  0.49377260104E+01  0.12181641151E+03  0.12203418737E+03  0.00000000000E+00 0. -1.
        -11    1    5    5    0    0  0.71137699883E+02  0.25357294643E+02  0.52559794180E+02  0.92011394406E+02  0.00000000000E+00 0.  1.
          1    1    6    6  503    0  0.19122612653E+03 -0.51240685741E+03 -0.73625807070E+03  0.91717182995E+03  0.00000000000E+00 0.  1.
         -1    1    6    6    0  503  0.92536774162E+02 -0.10939841814E+03 -0.20575405372E+03  0.25073053082E+03  0.00000000000E+00 0. -1.
<mgrwt>
<rscale>  0 0.18914195E+04</rscale>
<asrwt>0</asrwt>
<pdfrwt beam="1">  1        2 0.32277193E+00 0.18914195E+04</pdfrwt>
<pdfrwt beam="2">  1       -2 0.65583297E-01 0.18914195E+04</pdfrwt>
<totfact> 0.11823543E+01</totfact>
</mgrwt>
</event>
<event>
12    2  0.3623523E-008  0.2647684E+04  0.7818608E-02  0.8352182E-01
          2   -1    0    0  501    0  0.00000000000E+00  0.00000000000E+00  0.25100131660E+04  0.25100131660E+04  0.00000000000E+00 0. -1.
         -2   -1    0    0    0  501 -0.00000000000E+00 -0.00000000000E+00 -0.69822620977E+03  0.69822620977E+03  0.00000000000E+00 0.  1.
         23    2    1    2    0    0 -0.78068043369E+03  0.42095615035E+03 -0.12300652261E+03  0.90187684769E+03  0.10763467720E+03 0.  0.
        254    2    1    2    0    0  0.78068043369E+03 -0.42095615035E+03  0.19347934788E+04  0.23063625281E+04  0.88837845826E+03 0.  0.
         23    2    4    4    0    0 -0.14567053766E+03 -0.15031154683E+03  0.70150726709E+03  0.73774045472E+03  0.91296583144E+02 0.  0.
         23    2    4    4    0    0  0.92635097135E+03 -0.27064460351E+03  0.12332862117E+04  0.15686220733E+04  0.90585348754E+02 0.  0.
          2    1    3    3  502    0 -0.67952470372E+03  0.37046282514E+03 -0.70293675303E+02  0.77713430535E+03  0.00000000000E+00 0.  1.
         -2    1    3    3    0  502 -0.10115572997E+03  0.50493325209E+02 -0.52712847312E+02  0.12474254233E+03  0.00000000000E+00 0. -1.
         11    1    5    5    0    0 -0.14419496789E+02 -0.16247698318E+02  0.21845641327E+03  0.21953385635E+03  0.00000000000E+00 0. -1.
        -11    1    5    5    0    0 -0.13125104087E+03 -0.13406384851E+03  0.48305085382E+03  0.51820659836E+03  0.00000000000E+00 0.  1.
          3    1    6    6  503    0  0.67929877343E+03 -0.22570142468E+03  0.86313490140E+03  0.11213339443E+04  0.00000000000E+00 0. -1.
         -3    1    6    6    0  503  0.24705219792E+03 -0.44943178838E+02  0.37015131034E+03  0.44728812902E+03  0.00000000000E+00 0.  1.
<mgrwt>
<rscale>  0 0.26476835E+04</rscale>
<asrwt>0</asrwt>
<pdfrwt beam="1">  1        2 0.38615587E+00 0.26476835E+04</pdfrwt>
<pdfrwt beam="2">  1       -2 0.10741942E+00 0.26476835E+04</pdfrwt>
<totfact> 0.21053952E+00</totfact>
</mgrwt>
</event>
<event>
12    2  0.3623523E-008  0.2256189E+04  0.7818608E-02  0.8495398E-01
          2   -1    0    0  501    0  0.00000000000E+00  0.00000000000E+00  0.12447485485E+04  0.12447485485E+04  0.00000000000E+00 0. -1.
         -2   -1    0    0    0  501 -0.00000000000E+00 -0.00000000000E+00 -0.10223730575E+04  0.10223730575E+04  0.00000000000E+00 0.  1.
         23    2    1    2    0    0  0.57984152094E+03  0.69673948715E+03 -0.18594474239E+03  0.92977100698E+03  0.90755582901E+02 0.  0.
        254    2    1    2    0    0 -0.57984152094E+03 -0.69673948715E+03  0.40832023336E+03  0.13373505991E+04  0.89449377274E+03 0.  0.
         23    2    4    4    0    0 -0.61331364010E+03 -0.75074448541E+03  0.57795187657E+03  0.11327175940E+04  0.96176258011E+02 0.  0.
         23    2    4    4    0    0  0.33472119155E+02  0.54004998257E+02 -0.16963164320E+03  0.20463300507E+03  0.95199001001E+02 0.  0.
          3    1    3    3  502    0  0.45060758223E+03  0.49572750916E+03 -0.16462320884E+03  0.68985053264E+03  0.00000000000E+00 0. -1.
         -3    1    3    3    0  502  0.12923393872E+03  0.20101197800E+03 -0.21321533555E+02  0.23992047434E+03  0.00000000000E+00 0.  1.
         11    1    5    5    0    0 -0.42073938168E+02 -0.87869686280E+02  0.78854283154E+02  0.12533673050E+03  0.00000000000E+00 0. -1.
        -11    1    5    5    0    0 -0.57123970193E+03 -0.66287479913E+03  0.49909759341E+03  0.10073808635E+04  0.00000000000E+00 0.  1.
          1    1    6    6  503    0 -0.19010244832E+02  0.97069011988E+01 -0.11475427751E+03  0.11672256657E+03  0.00000000000E+00 0. -1.
         -1    1    6    6    0  503  0.52482363987E+02  0.44298097058E+02 -0.54877365694E+02  0.87910438505E+02  0.00000000000E+00 0.  1.
<mgrwt>
<rscale>  0 0.22561892E+04</rscale>
<asrwt>0</asrwt>
<pdfrwt beam="1">  1        2 0.19149978E+00 0.22561892E+04</pdfrwt>
<pdfrwt beam="2">  1       -2 0.15728816E+00 0.22561892E+04</pdfrwt>
<totfact> 0.42773567E+00</totfact>
</mgrwt>
</event>
<event>
12    2  0.3623523E-008  0.1253147E+04  0.7818608E-02  0.9067568E-01
         -1   -1    0    0    0  501 -0.00000000000E+00  0.00000000000E+00  0.24725248250E+03  0.24725248250E+03  0.00000000000E+00 0.  1.
          1   -1    0    0  501    0  0.00000000000E+00 -0.00000000000E+00 -0.15878281971E+04  0.15878281971E+04  0.00000000000E+00 0. -1.
         23    2    1    2    0    0 -0.27873011789E+03  0.32191247281E+02 -0.38187040498E+03  0.48251303298E+03  0.90923406076E+02 0.  0.
        254    2    1    2    0    0  0.27873011789E+03 -0.32191247281E+02 -0.95870530964E+03  0.13525676467E+04  0.91191919215E+03 0.  0.
         23    2    4    4    0    0 -0.15907841690E+03  0.28834529859E+03 -0.14280286740E+03  0.36854217719E+03  0.83556708228E+02 0.  0.
         23    2    4    4    0    0  0.43780853479E+03 -0.32053654587E+03 -0.81590244224E+03  0.98402546946E+03  0.90494966200E+02 0.  0.
          3    1    3    3  502    0 -0.16492341204E+03 -0.11727865457E+01 -0.28543247306E+03  0.32965558382E+03  0.00000000000E+00 0. -1.
         -3    1    3    3    0  502 -0.11380670585E+03  0.33364033827E+02 -0.96437931921E+02  0.15285744916E+03  0.00000000000E+00 0.  1.
         11    1    5    5    0    0 -0.35004766568E+02  0.34440064411E+02  0.54651147804E+01  0.49409707535E+02  0.00000000000E+00 0. -1.
        -11    1    5    5    0    0 -0.12407365033E+03  0.25390523418E+03 -0.14826798218E+03  0.31913246966E+03  0.00000000000E+00 0.  1.
          1    1    6    6  503    0  0.20638097486E+03 -0.10548727794E+03 -0.30042666513E+03  0.37944282008E+03  0.00000000000E+00 0. -1.
         -1    1    6    6    0  503  0.23142755993E+03 -0.21504926793E+03 -0.51547577712E+03  0.60458264938E+03  0.00000000000E+00 0.  1.
<mgrwt>
<rscale>  0 0.12531472E+04</rscale>
<asrwt>0</asrwt>
<pdfrwt beam="1">  1        1 0.24428126E+00 0.12531472E+04</pdfrwt>
<pdfrwt beam="2">  1       -1 0.38038844E-01 0.12531472E+04</pdfrwt>
<totfact> 0.37443345E+01</totfact>
</mgrwt>
</event>
<event>
12    2  0.3623523E-008  0.2064361E+04  0.7818608E-02  0.8577107E-01
          1   -1    0    0  501    0  0.00000000000E+00  0.00000000000E+00  0.15361562709E+04  0.15361562709E+04  0.00000000000E+00 0. -1.
         -1   -1    0    0    0  501 -0.00000000000E+00 -0.00000000000E+00 -0.69354687986E+03  0.69354687986E+03  0.00000000000E+00 0.  1.
         23    2    1    2    0    0 -0.30799010734E+03  0.54197722010E+03  0.90725272536E+03  0.11049082464E+04  0.95485663490E+02 0.  0.
        254    2    1    2    0    0  0.30799010734E+03 -0.54197722010E+03 -0.64643334293E+02  0.11247949044E+04  0.93401691792E+03 0.  0.
         23    2    4    4    0    0  0.47219156382E+03 -0.29561931168E+03 -0.38241545954E+03  0.68153873649E+03  0.88869653221E+02 0.  0.
         23    2    4    4    0    0 -0.16420145647E+03 -0.24635790842E+03  0.31777212525E+03  0.44325616791E+03  0.88558282819E+02 0.  0.
          4    1    3    3  502    0 -0.19548510895E+03  0.37970023104E+03  0.68867106766E+03  0.81034223184E+03  0.00000000000E+00 0. -1.
         -4    1    3    3    0  502 -0.11250499840E+03  0.16227698907E+03  0.21858165770E+03  0.29456601455E+03  0.00000000000E+00 0.  1.
         11    1    5    5    0    0  0.14550690171E+03 -0.49524618238E+02 -0.83272931331E+02  0.17481226315E+03  0.00000000000E+00 0.  1.
        -11    1    5    5    0    0  0.32668466211E+03 -0.24609469344E+03 -0.29914252821E+03  0.50672647334E+03  0.00000000000E+00 0. -1.
          1    1    6    6  503    0 -0.15784871828E+03 -0.17883685374E+03  0.22166082982E+03  0.32562610705E+03  0.00000000000E+00 0. -1.
         -1    1    6    6    0  503 -0.63527381898E+01 -0.67521054685E+02  0.96111295431E+02  0.11763006086E+03  0.00000000000E+00 0.  1.
<mgrwt>
<rscale>  0 0.20643608E+04</rscale>
<asrwt>0</asrwt>
<pdfrwt beam="1">  1        1 0.23633173E+00 0.20643608E+04</pdfrwt>
<pdfrwt beam="2">  1       -1 0.10669952E+00 0.20643608E+04</pdfrwt>
<totfact> 0.46709727E+00</totfact>
</mgrwt>
</event>
<event>
12    2  0.3623523E-008  0.2218574E+04  0.7818608E-02  0.8510737E-01
          2   -1    0    0  501    0  0.00000000000E+00  0.00000000000E+00  0.37694055725E+04  0.37694055725E+04  0.00000000000E+00 0. -1.
         -2   -1    0    0    0  501 -0.00000000000E+00 -0.00000000000E+00 -0.32644859076E+03  0.32644859076E+03  0.00000000000E+00 0.  1.
         23    2    1    2    0    0  0.45771790904E+03 -0.37608440657E+03  0.27483637318E+04  0.28129673198E+04  0.91305943695E+02 0.  0.
        254    2    1    2    0    0 -0.45771790904E+03  0.37608440657E+03  0.69459324999E+03  0.12828868434E+04  0.90132885507E+03 0.  0.
         23    2    4    4    0    0 -0.45622543572E+03  0.63533007029E+03  0.41135519038E+03  0.88850496699E+03  0.91880559945E+02 0.  0.
         23    2    4    4    0    0 -0.14924733225E+01 -0.25924566372E+03  0.28323805960E+03  0.39438187644E+03  0.90015134412E+02 0.  0.
          3    1    3    3  502    0  0.24317935161E+03 -0.21798854881E+03  0.17131925714E+04  0.17440424281E+04  0.00000000000E+00 0. -1.
         -3    1    3    3    0  502  0.21453855742E+03 -0.15809585776E+03  0.10351711604E+04  0.10689248917E+04  0.00000000000E+00 0.  1.
         11    1    5    5    0    0 -0.43432707439E+03  0.56290972954E+03  0.35889189487E+03  0.79643628958E+03  0.00000000000E+00 0. -1.
        -11    1    5    5    0    0 -0.21898361330E+02  0.72420340749E+02  0.52463295520E+02  0.92068677409E+02  0.00000000000E+00 0.  1.
          3    1    6    6  503    0  0.27345588818E+02 -0.18703369596E+03  0.15516266784E+03  0.24455027734E+03  0.00000000000E+00 0. -1.
         -3    1    6    6    0  503 -0.28838062140E+02 -0.72211967752E+02  0.12807539176E+03  0.14983159910E+03  0.00000000000E+00 0.  1.
<mgrwt>
<rscale>  0 0.22185735E+04</rscale>
<asrwt>0</asrwt>
<pdfrwt beam="1">  1        2 0.57990852E+00 0.22185735E+04</pdfrwt>
<pdfrwt beam="2">  1       -2 0.50222863E-01 0.22185735E+04</pdfrwt>
<totfact> 0.17820015E+00</totfact>
</mgrwt>
</event>
<event>
12    2  0.3623523E-008  0.2521951E+04  0.7818608E-02  0.8395207E-01
         -2   -1    0    0    0  501 -0.00000000000E+00  0.00000000000E+00  0.16957139459E+04  0.16957139459E+04  0.00000000000E+00 0.  1.
          2   -1    0    0  501    0  0.00000000000E+00 -0.00000000000E+00 -0.93769288619E+03  0.93769288619E+03  0.00000000000E+00 0. -1.
         23    2    1    2    0    0  0.87205831135E+03  0.60398257400E+03  0.82805514165E+02  0.10678353820E+04  0.90194244333E+02 0.  0.
        254    2    1    2    0    0 -0.87205831135E+03 -0.60398257400E+03  0.67521554556E+03  0.15655714501E+04  0.93263995434E+03 0.  0.
         23    2    4    4    0    0 -0.87549166871E+03 -0.18700515871E+03  0.69660717707E+03  0.11379449455E+04  0.90556879260E+02 0.  0.
         23    2    4    4    0    0  0.34333573571E+01 -0.41697741528E+03 -0.21391631508E+02  0.42762650468E+03  0.92330237780E+02 0.  0.
          4    1    3    3  502    0  0.34543012132E+03  0.19968545498E+03  0.18770645320E+01  0.39899846242E+03  0.00000000000E+00 0. -1.
         -4    1    3    3    0  502  0.52662819003E+03  0.40429711901E+03  0.80928449633E+02  0.66883691954E+03  0.00000000000E+00 0.  1.
         11    1    5    5    0    0 -0.12791203812E+03 -0.19368962299E+02  0.63763165888E+02  0.14423032802E+03  0.00000000000E+00 0. -1.
        -11    1    5    5    0    0 -0.74757963059E+03 -0.16763619641E+03  0.63284401118E+03  0.99371461743E+03  0.00000000000E+00 0.  1.
          1    1    6    6  503    0  0.16303401323E+01 -0.15106570356E+02 -0.20790768843E+02  0.25751165914E+02  0.00000000000E+00 0. -1.
         -1    1    6    6    0  503  0.18030172248E+01 -0.40187084493E+03 -0.60086266536E+00  0.40187533877E+03  0.00000000000E+00 0.  1.
<mgrwt>
<rscale>  0 0.25219508E+04</rscale>
<asrwt>0</asrwt>
<pdfrwt beam="1">  1        2 0.14426044E+00 0.25219508E+04</pdfrwt>
<pdfrwt beam="2">  1       -2 0.26087907E+00 0.25219508E+04</pdfrwt>
<totfact> 0.13570493E+00</totfact>
</mgrwt>
</event>
<event>
12    2  0.3623523E-008  0.2658583E+04  0.7818608E-02  0.8348570E-01
          2   -1    0    0  501    0  0.00000000000E+00  0.00000000000E+00  0.26617594521E+04  0.26617594521E+04  0.00000000000E+00 0. -1.
         -2   -1    0    0    0  501 -0.00000000000E+00 -0.00000000000E+00 -0.66385262001E+03  0.66385262001E+03  0.00000000000E+00 0.  1.
         23    2    1    2    0    0 -0.33496432293E+03  0.81989420726E+03 -0.85199596656E+02  0.89411151534E+03  0.88027392684E+02 0.  0.
        254    2    1    2    0    0  0.33496432293E+03 -0.81989420726E+03  0.20831064288E+04  0.24315005568E+04  0.88793859888E+03 0.  0.
         23    2    4    4    0    0  0.17280872416E+03 -0.55154334685E+03  0.38106686301E+03  0.69838967069E+03  0.92050309329E+02 0.  0.
         23    2    4    4    0    0  0.16215559878E+03 -0.26835086041E+03  0.17020395658E+04  0.17331108861E+04  0.91804344293E+02 0.  0.
          3    1    3    3  502    0 -0.23747666490E+03  0.67033210530E+03 -0.57902431129E+02  0.71350752575E+03  0.00000000000E+00 0. -1.
         -3    1    3    3    0  502 -0.97487658039E+02  0.14956210196E+03 -0.27297165527E+02  0.18060398959E+03  0.00000000000E+00 0.  1.
         11    1    5    5    0    0  0.15069048958E+03 -0.37099017060E+03  0.29372687070E+03  0.49660528079E+03  0.00000000000E+00 0. -1.
        -11    1    5    5    0    0  0.22118234577E+02 -0.18055317624E+03  0.87339992312E+02  0.20178438990E+03  0.00000000000E+00 0.  1.
          4    1    6    6  503    0  0.42478380776E+02 -0.96424776447E+02  0.80894607384E+03  0.81577932109E+03  0.00000000000E+00 0. -1.
         -4    1    6    6    0  503  0.11967721800E+03 -0.17192608396E+03  0.89309349191E+03  0.91733156501E+03  0.00000000000E+00 0.  1.
<mgrwt>
<rscale>  0 0.26585831E+04</rscale>
<asrwt>0</asrwt>
<pdfrwt beam="1">  1        2 0.40950145E+00 0.26585831E+04</pdfrwt>
<pdfrwt beam="2">  1       -2 0.10213117E+00 0.26585831E+04</pdfrwt>
<totfact> 0.19344238E+00</totfact>
</mgrwt>
</event>
<event>
12    2  0.3623523E-008  0.3061955E+04  0.7818608E-02  0.8226257E-01
          2   -1    0    0  501    0  0.00000000000E+00  0.00000000000E+00  0.12181330283E+04  0.12181330283E+04  0.00000000000E+00 0. -1.
         -2   -1    0    0    0  501 -0.00000000000E+00 -0.00000000000E+00 -0.19241679236E+04  0.19241679236E+04  0.00000000000E+00 0.  1.
         23    2    1    2    0    0  0.58272833505E+03 -0.59624330875E+03 -0.14718113168E+04  0.16952630051E+04  0.11229295847E+03 0.  0.
        254    2    1    2    0    0 -0.58272833505E+03  0.59624330875E+03  0.76577642151E+03  0.14470379467E+04  0.90134726705E+03 0.  0.
         23    2    4    4    0    0 -0.57023046326E+03  0.66304257212E+03  0.24492268384E+03  0.91303207634E+03  0.94086224790E+02 0.  0.
         23    2    4    4    0    0 -0.12497871787E+02 -0.66799263374E+02  0.52085373767E+03  0.53400587038E+03  0.96204548613E+02 0.  0.
          2    1    3    3  502    0  0.25444507289E+03 -0.19725248308E+03 -0.63096632533E+03  0.70835678927E+03  0.00000000000E+00 0. -1.
         -2    1    3    3    0  502  0.32828326216E+03 -0.39899082567E+03 -0.84084499149E+03  0.98690621586E+03  0.00000000000E+00 0.  1.
         11    1    5    5    0    0 -0.21229731951E+03  0.18857811987E+03  0.56301319168E+02  0.28948522881E+03  0.00000000000E+00 0.  1.
        -11    1    5    5    0    0 -0.35793314376E+03  0.47446445225E+03  0.18862136467E+03  0.62354684753E+03  0.00000000000E+00 0. -1.
          3    1    6    6  503    0  0.10565706179E+02 -0.79263000478E+02  0.26471439172E+03  0.27652841911E+03  0.00000000000E+00 0. -1.
         -3    1    6    6    0  503 -0.23063577966E+02  0.12463737104E+02  0.25613934595E+03  0.25747745127E+03  0.00000000000E+00 0.  1.
<mgrwt>
<rscale>  0 0.30619553E+04</rscale>
<asrwt>0</asrwt>
<pdfrwt beam="1">  1        2 0.18740508E+00 0.30619553E+04</pdfrwt>
<pdfrwt beam="2">  1       -2 0.29602583E+00 0.30619553E+04</pdfrwt>
<totfact> 0.52885561E-01</totfact>
</mgrwt>
</event>
<event>
12    2  0.3623523E-008  0.1594234E+04  0.7818608E-02  0.8824098E-01
          1   -1    0    0  501    0  0.00000000000E+00  0.00000000000E+00  0.52681443991E+03  0.52681443991E+03  0.00000000000E+00 0. -1.
         -1   -1    0    0    0  501 -0.00000000000E+00 -0.00000000000E+00 -0.12061080497E+04  0.12061080497E+04  0.00000000000E+00 0.  1.
         23    2    1    2    0    0  0.52891402833E+03 -0.23757469010E+02 -0.76092975056E+02  0.54286340637E+03  0.92714995689E+02 0.  0.
        254    2    1    2    0    0 -0.52891402833E+03  0.23757469010E+02 -0.60320063478E+03  0.11900590833E+04  0.87867806914E+03 0.  0.
         23    2    4    4    0    0 -0.42389504904E+03 -0.26330963584E+03 -0.69175565378E+03  0.85730945733E+03  0.86224382619E+02 0.  0.
         23    2    4    4    0    0 -0.10501897929E+03  0.28706710485E+03  0.88555018998E+02  0.33274962595E+03  0.97179285230E+02 0.  0.
          3    1    3    3  502    0  0.33344724200E+03 -0.40390036148E+02 -0.10618447519E+02  0.33605233171E+03  0.00000000000E+00 0. -1.
         -3    1    3    3    0  502  0.19546678633E+03  0.16632567138E+02 -0.65474527537E+02  0.20681107466E+03  0.00000000000E+00 0.  1.
         11    1    5    5    0    0 -0.56343610593E+02 -0.54870000633E+02 -0.15850401108E+03  0.17694304438E+03  0.00000000000E+00 0.  1.
        -11    1    5    5    0    0 -0.36755143845E+03 -0.20843963521E+03 -0.53325164269E+03  0.68036641295E+03  0.00000000000E+00 0. -1.
          3    1    6    6  503    0 -0.75524333907E+01  0.15565787243E+03  0.28255457570E+02  0.15838176467E+03  0.00000000000E+00 0. -1.
         -3    1    6    6    0  503 -0.97466545900E+02  0.13140923243E+03  0.60299561427E+02  0.17436786127E+03  0.00000000000E+00 0.  1.
<mgrwt>
<rscale>  0 0.15942335E+04</rscale>
<asrwt>0</asrwt>
<pdfrwt beam="1">  1        1 0.81048375E-01 0.15942335E+04</pdfrwt>
<pdfrwt beam="2">  1       -1 0.18555509E+00 0.15942335E+04</pdfrwt>
<totfact> 0.75138614E+00</totfact>
</mgrwt>
</event>
<event>
12    2  0.3623523E-008  0.2377103E+04  0.7818608E-02  0.8448126E-01
         -2   -1    0    0    0  501 -0.00000000000E+00  0.00000000000E+00  0.78077210896E+03  0.78077210896E+03  0.00000000000E+00 0.  1.
          2   -1    0    0  501    0  0.00000000000E+00 -0.00000000000E+00 -0.18093054822E+04  0.18093054822E+04  0.00000000000E+00 0. -1.
         23    2    1    2    0    0  0.17906051875E+03 -0.10157842887E+04 -0.49235596810E+03  0.11465231212E+04  0.90666850011E+02 0.  0.
        254    2    1    2    0    0 -0.17906051875E+03  0.10157842887E+04 -0.53617740517E+03  0.14435544700E+04  0.85585215278E+03 0.  0.
         23    2    4    4    0    0 -0.37557286531E+03  0.34576007971E+03 -0.52601468942E+03  0.73939006737E+03  0.96959828573E+02 0.  0.
         23    2    4    4    0    0  0.19651234656E+03  0.67002420897E+03 -0.10162715750E+02  0.70416440259E+03  0.90524483559E+02 0.  0.
          3    1    3    3  502    0  0.10835993252E+03 -0.60114165822E+03 -0.34050108946E+03  0.69932407377E+03  0.00000000000E+00 0. -1.
         -3    1    3    3    0  502  0.70700586223E+02 -0.41464263046E+03 -0.15185487864E+03  0.44719904747E+03  0.00000000000E+00 0.  1.
         11    1    5    5    0    0 -0.10721639931E+03  0.12955493984E+03 -0.11863953183E+03  0.20580373473E+03  0.00000000000E+00 0.  1.
        -11    1    5    5    0    0 -0.26835646600E+03  0.21620513987E+03 -0.40737515760E+03  0.53358633264E+03  0.00000000000E+00 0. -1.
          3    1    6    6  503    0  0.16784768533E+03  0.42352643979E+03  0.41566885074E+01  0.45559276633E+03  0.00000000000E+00 0. -1.
         -3    1    6    6    0  503  0.28664661233E+02  0.24649776919E+03 -0.14319404257E+02  0.24857163627E+03  0.00000000000E+00 0.  1.
<mgrwt>
<rscale>  0 0.23771035E+04</rscale>
<asrwt>0</asrwt>
<pdfrwt beam="1">  1        2 0.27835469E+00 0.23771035E+04</pdfrwt>
<pdfrwt beam="2">  1       -2 0.12011879E+00 0.23771035E+04</pdfrwt>
<totfact> 0.40694012E+00</totfact>
</mgrwt>
</event>
<event>
12    2  0.3623523E-008  0.2073646E+04  0.7818608E-02  0.8572942E-01
         -2   -1    0    0    0  501 -0.00000000000E+00  0.00000000000E+00  0.40454793045E+03  0.40454793045E+03  0.00000000000E+00 0.  1.
          2   -1    0    0  501    0  0.00000000000E+00 -0.00000000000E+00 -0.26572928249E+04  0.26572928249E+04  0.00000000000E+00 0. -1.
         23    2    1    2    0    0 -0.80223415717E+03  0.65765303143E+02 -0.12583694108E+04  0.14967875900E+04  0.94735406822E+02 0.  0.
        254    2    1    2    0    0  0.80223415717E+03 -0.65765303143E+02 -0.99437548363E+03  0.15650531654E+04  0.90150102056E+03 0.  0.
         23    2    4    4    0    0  0.69702188133E+03 -0.42404964449E+03 -0.63402505627E+03  0.10380323997E+04  0.99327170799E+02 0.  0.
         23    2    4    4    0    0  0.10521227584E+03  0.35828434134E+03 -0.36035042736E+03  0.52702076568E+03  0.91984589578E+02 0.  0.
          4    1    3    3  502    0 -0.39366574785E+03  0.14317871113E+02 -0.53442133813E+03  0.66391557378E+03  0.00000000000E+00 0. -1.
         -4    1    3    3    0  502 -0.40856840932E+03  0.51447432030E+02 -0.72394807272E+03  0.83287201619E+03  0.00000000000E+00 0.  1.
         11    1    5    5    0    0  0.10498331871E+03 -0.49243049029E+02 -0.51800091817E+02  0.12700245902E+03  0.00000000000E+00 0.  1.
        -11    1    5    5    0    0  0.59203856262E+03 -0.37480659546E+03 -0.58222496445E+03  0.91102994070E+03  0.00000000000E+00 0. -1.
          3    1    6    6  503    0  0.87275390886E+02  0.30539652701E+03 -0.34533415838E+03  0.46919048744E+03  0.00000000000E+00 0. -1.
         -3    1    6    6    0  503  0.17936884952E+02  0.52887814336E+02 -0.15016268983E+02  0.57830278239E+02  0.00000000000E+00 0.  1.
<mgrwt>
<rscale>  0 0.20736464E+04</rscale>
<asrwt>0</asrwt>
<pdfrwt beam="1">  1        2 0.40881429E+00 0.20736464E+04</pdfrwt>
<pdfrwt beam="2">  1       -2 0.62238141E-01 0.20736464E+04</pdfrwt>
<totfact> 0.62343154E+00</totfact>
</mgrwt>
</event>
<event>
12    2  0.3623523E-008  0.3837341E+04  0.7818608E-02  0.8038189E-01
          2   -1    0    0  501    0  0.00000000000E+00  0.00000000000E+00  0.18941722414E+04  0.18941722414E+04  0.00000000000E+00 0. -1.
         -2   -1    0    0    0  501 -0.00000000000E+00 -0.00000000000E+00 -0.19434857462E+04  0.19434857462E+04  0.00000000000E+00 0.  1.
         23    2    1    2    0    0 -0.44007694160E+03  0.10201177745E+04 -0.14535698388E+04  0.18318498790E+04  0.92199318988E+02 0.  0.
        254    2    1    2    0    0  0.44007694160E+03 -0.10201177745E+04  0.14042563340E+04  0.20058081086E+04  0.90389287450E+03 0.  0.
         23    2    4    4    0    0  0.48299359075E+03 -0.57555226865E+03  0.13501609827E+04  0.15478545469E+04  0.91519378424E+02 0.  0.
         23    2    4    4    0    0 -0.42916649150E+02 -0.44456550581E+03  0.54095351316E+02  0.45795356165E+03  0.85526778656E+02 0.  0.
          3    1    3    3  502    0 -0.12486796393E+03  0.32528084722E+03 -0.39100547290E+03  0.52372217618E+03  0.00000000000E+00 0. -1.
         -3    1    3    3    0  502 -0.31520897767E+03  0.69483692724E+03 -0.10625643659E+04  0.13081277028E+04  0.00000000000E+00 0.  1.
         11    1    5    5    0    0  0.35682663695E+03 -0.36944323396E+03  0.86978856714E+03  0.10101216281E+04  0.00000000000E+00 0.  1.
        -11    1    5    5    0    0  0.12616695379E+03 -0.20610903470E+03  0.48037241556E+03  0.53773291888E+03  0.00000000000E+00 0. -1.
          4    1    6    6  503    0  0.25629796294E+02 -0.98088189340E+02  0.17338027059E+02  0.10285322809E+03  0.00000000000E+00 0. -1.
         -4    1    6    6    0  503 -0.68546445444E+02 -0.34647731647E+03  0.36757324257E+02  0.35510033356E+03  0.00000000000E+00 0.  1.
<mgrwt>
<rscale>  0 0.38373411E+04</rscale>
<asrwt>0</asrwt>
<pdfrwt beam="1">  1        2 0.29141112E+00 0.38373411E+04</pdfrwt>
<pdfrwt beam="2">  1       -2 0.29899781E+00 0.38373411E+04</pdfrwt>
<totfact> 0.19713231E-01</totfact>
</mgrwt>
</event>
<event>
12    2  0.3623523E-008  0.1577818E+04  0.7818608E-02  0.8834292E-01
          2   -1    0    0  501    0  0.00000000000E+00  0.00000000000E+00  0.65224901529E+03  0.65224901529E+03  0.00000000000E+00 0.  1.
         -2   -1    0    0    0  501 -0.00000000000E+00 -0.00000000000E+00 -0.95420234333E+03  0.95420234333E+03  0.00000000000E+00 0. -1.
         23    2    1    2    0    0  0.69411658734E+02  0.27461544716E+03  0.33944910057E+03  0.45160448449E+03  0.92137377598E+02 0.  0.
        254    2    1    2    0    0 -0.69411658734E+02 -0.27461544716E+03 -0.64140242860E+03  0.11548468741E+04  0.91762879482E+03 0.  0.
         23    2    4    4    0    0 -0.17079920060E+02 -0.26692968994E+03  0.17534292224E+03  0.33145367002E+03  0.87024203231E+02 0.  0.
         23    2    4    4    0    0 -0.52331738675E+02 -0.76857572230E+01 -0.81674535084E+03  0.82339320411E+03  0.90031765078E+02 0.  0.
          3    1    3    3  502    0 -0.22315202022E+02  0.46916964564E+02  0.68797341276E+02  0.86210463239E+02  0.00000000000E+00 0. -1.
         -3    1    3    3    0  502  0.91726860756E+02  0.22769848260E+03  0.27065175929E+03  0.36539402125E+03  0.00000000000E+00 0.  1.
         11    1    5    5    0    0  0.12225644176E+02 -0.10762585473E+03  0.11661257749E+03  0.15915804790E+03  0.00000000000E+00 0.  1.
        -11    1    5    5    0    0 -0.29305564235E+02 -0.15930383521E+03  0.58730344751E+02  0.17229562212E+03  0.00000000000E+00 0. -1.
          3    1    6    6  503    0 -0.45082106102E+02  0.29466924659E+02 -0.65785835579E+03  0.66005932478E+03  0.00000000000E+00 0. -1.
         -3    1    6    6    0  503 -0.72496325722E+01 -0.37152681882E+02 -0.15888699505E+03  0.16333387934E+03  0.00000000000E+00 0.  1.
<mgrwt>
<rscale>  0 0.15778182E+04</rscale>
<asrwt>0</asrwt>
<pdfrwt beam="1">  1        2 0.10034600E+00 0.15778182E+04</pdfrwt>
<pdfrwt beam="2">  1       -2 0.14680036E+00 0.15778182E+04</pdfrwt>
<totfact> 0.13632948E+01</totfact>
</mgrwt>
</event>
<event>
12    2  0.3623523E-008  0.2334139E+04  0.7818608E-02  0.8464581E-01
          1   -1    0    0  501    0  0.00000000000E+00  0.00000000000E+00  0.67841951072E+03  0.67841951072E+03  0.00000000000E+00 0. -1.
         -1   -1    0    0    0  501 -0.00000000000E+00 -0.00000000000E+00 -0.20076827203E+04  0.20076827203E+04  0.00000000000E+00 0.  1.
         23    2    1    2    0    0  0.45939182513E+03  0.50621638145E+03 -0.13950225723E+04  0.15562575390E+04  0.92486089585E+02 0.  0.
        254    2    1    2    0    0 -0.45939182513E+03 -0.50621638145E+03  0.65759362752E+02  0.11298446919E+04  0.89717827675E+03 0.  0.
         23    2    4    4    0    0 -0.14699989977E+02 -0.10413355909E+03 -0.36268781335E+03  0.38742682919E+03  0.86586431930E+02 0.  0.
         23    2    4    4    0    0 -0.44469183516E+03 -0.40208282236E+03  0.42844717610E+03  0.74241786275E+03  0.90531077166E+02 0.  0.
          1    1    3    3  502    0  0.39165486842E+03  0.37808600274E+03 -0.10766792578E+04  0.12064745275E+04  0.00000000000E+00 0.  1.
         -1    1    3    3    0  502  0.67736956718E+02  0.12813037871E+03 -0.31834331447E+03  0.34978301148E+03  0.00000000000E+00 0. -1.
         11    1    5    5    0    0  0.12794323933E+02 -0.67164532233E+02 -0.30993754787E+03  0.31738943381E+03  0.00000000000E+00 0.  1.
        -11    1    5    5    0    0 -0.27494313910E+02 -0.36969026859E+02 -0.52750265481E+02  0.70037395387E+02  0.00000000000E+00 0. -1.
          3    1    6    6  503    0 -0.56875777528E+01  0.46528069715E+01  0.89060899530E+01  0.11546237121E+02  0.00000000000E+00 0. -1.
         -3    1    6    6    0  503 -0.43900425740E+03 -0.40673562933E+03  0.41954108615E+03  0.73087162563E+03  0.00000000000E+00 0.  1.
<mgrwt>
<rscale>  0 0.23341389E+04</rscale>
<asrwt>0</asrwt>
<pdfrwt beam="1">  1        1 0.10437223E+00 0.23341389E+04</pdfrwt>
<pdfrwt beam="2">  1       -1 0.30887426E+00 0.23341389E+04</pdfrwt>
<totfact> 0.74480795E-01</totfact>
</mgrwt>
</event>
<event>
12    2  0.3623523E-008  0.1468031E+04  0.7818608E-02  0.8905995E-01
         -3   -1    0    0    0  501 -0.00000000000E+00  0.00000000000E+00  0.62139538582E+03  0.62139538582E+03  0.00000000000E+00 0.  1.
          3   -1    0    0  501    0  0.00000000000E+00 -0.00000000000E+00 -0.86704668587E+03  0.86704668587E+03  0.00000000000E+00 0. -1.
         23    2    1    2    0    0 -0.37613083870E+02 -0.25092178451E+03 -0.46805141899E+03  0.53995552231E+03  0.90018604960E+02 0.  0.
        254    2    1    2    0    0  0.37613083870E+02  0.25092178451E+03  0.22240011893E+03  0.94848654938E+03  0.88644708552E+03 0.  0.
         23    2    4    4    0    0  0.10021104048E+03 -0.30955073643E+03  0.85178633476E+01  0.33824170686E+03  0.92037966101E+02 0.  0.
         23    2    4    4    0    0 -0.62597956607E+02  0.56047252094E+03  0.21388225558E+03  0.61024484252E+03  0.92764204655E+02 0.  0.
          1    1    3    3  502    0 -0.17717933949E+02 -0.22547983209E+03 -0.44822995988E+03  0.50206092937E+03  0.00000000000E+00 0. -1.
         -1    1    3    3    0  502 -0.19895149921E+02 -0.25441952417E+02 -0.19821459106E+02  0.37894592942E+02  0.00000000000E+00 0.  1.
         11    1    5    5    0    0  0.72362045913E+02 -0.29046580769E+03  0.25541869279E+02  0.30043142015E+03  0.00000000000E+00 0.  1.
        -11    1    5    5    0    0  0.27848994564E+02 -0.19084928744E+02 -0.17024005932E+02  0.37810286714E+02  0.00000000000E+00 0. -1.
          4    1    6    6  503    0  0.10735226547E+02  0.44061769949E+02 -0.27976810802E+01  0.45436897775E+02  0.00000000000E+00 0. -1.
         -4    1    6    6    0  503 -0.73333183154E+02  0.51641075099E+03  0.21667993666E+03  0.56480794474E+03  0.00000000000E+00 0.  1.
<mgrwt>
<rscale>  0 0.14680311E+04</rscale>
<asrwt>0</asrwt>
<pdfrwt beam="1">  1        3 0.13339180E+00 0.14680311E+04</pdfrwt>
<pdfrwt beam="2">  1       -3 0.95599291E-01 0.14680311E+04</pdfrwt>
<totfact> 0.10739086E+00</totfact>
</mgrwt>
</event>
<event>
12    2  0.3623523E-008  0.1914725E+04  0.7818608E-02  0.8647561E-01
          2   -1    0    0  501    0  0.00000000000E+00  0.00000000000E+00  0.10416223615E+04  0.10416223615E+04  0.00000000000E+00 0.  1.
         -2   -1    0    0    0  501 -0.00000000000E+00 -0.00000000000E+00 -0.87991862628E+03  0.87991862628E+03  0.00000000000E+00 0. -1.
         23    2    1    2    0    0  0.25558572799E+03 -0.73352488731E+03 -0.17101589196E+02  0.78258178831E+03  0.93589349710E+02 0.  0.
        254    2    1    2    0    0 -0.25558572799E+03  0.73352488731E+03  0.17880532437E+03  0.11389591994E+04  0.81355632214E+03 0.  0.
         23    2    4    4    0    0 -0.42045866027E+02  0.62249028297E+03  0.44198855693E+03  0.76986558877E+03  0.89872871739E+02 0.  0.
         23    2    4    4    0    0 -0.21353986197E+03  0.11103460435E+03 -0.26318323256E+03  0.36909361066E+03  0.95061682712E+02 0.  0.
          2    1    3    3  502    0  0.28131525538E+02 -0.75494736073E+02 -0.30700489880E+02  0.86216923992E+02  0.00000000000E+00 0. -1.
         -2    1    3    3    0  502  0.22745420245E+03 -0.65803015124E+03  0.13598900684E+02  0.69636486432E+03  0.00000000000E+00 0.  1.
         11    1    5    5    0    0  0.25698556920E+02  0.93142540769E+02  0.71635776841E+02  0.12028147510E+03  0.00000000000E+00 0. -1.
        -11    1    5    5    0    0 -0.67744422947E+02  0.52934774220E+03  0.37035278009E+03  0.64958411367E+03  0.00000000000E+00 0.  1.
          3    1    6    6  503    0 -0.14352647721E+02  0.27334131931E+02 -0.31808892206E+01  0.31036612593E+02  0.00000000000E+00 0. -1.
         -3    1    6    6    0  503 -0.19918721424E+03  0.83700472414E+02 -0.26000234334E+03  0.33805699807E+03  0.00000000000E+00 0.  1.
<mgrwt>
<rscale>  0 0.19147250E+04</rscale>
<asrwt>0</asrwt>
<pdfrwt beam="1">  1        2 0.16024959E+00 0.19147250E+04</pdfrwt>
<pdfrwt beam="2">  1       -2 0.13537210E+00 0.19147250E+04</pdfrwt>
<totfact> 0.86834287E+00</totfact>
</mgrwt>
</event>
<event>
12    2  0.3623523E-008  0.1996302E+04  0.7818608E-02  0.8608352E-01
          1   -1    0    0  501    0  0.00000000000E+00  0.00000000000E+00  0.12777354605E+04  0.12777354605E+04  0.00000000000E+00 0. -1.
         -1   -1    0    0    0  501 -0.00000000000E+00 -0.00000000000E+00 -0.77974290961E+03  0.77974290961E+03  0.00000000000E+00 0.  1.
         23    2    1    2    0    0  0.12113657609E+03  0.17356244724E+03  0.98817395503E+03  0.10142993219E+04  0.86702686167E+02 0.  0.
        254    2    1    2    0    0 -0.12113657609E+03 -0.17356244724E+03 -0.49018140415E+03  0.10431790482E+04  0.89618453710E+03 0.  0.
         23    2    4    4    0    0  0.25042001561E+03  0.23799973672E+03 -0.17672686583E+03  0.39989836998E+03  0.96603635095E+02 0.  0.
         23    2    4    4    0    0 -0.37155659169E+03 -0.41156218396E+03 -0.31345453832E+03  0.64328067825E+03  0.90103003920E+02 0.  0.
          3    1    3    3  502    0  0.54283456866E+02  0.88525219670E+02  0.67568821065E+03  0.68362121546E+03  0.00000000000E+00 0. -1.
         -3    1    3    3    0  502  0.66853119221E+02  0.85037227571E+02  0.31248574438E+03  0.33067810642E+03  0.00000000000E+00 0.  1.
         11    1    5    5    0    0 -0.11151637358E+01  0.22914658058E+02  0.32509128433E+01  0.23170964123E+02  0.00000000000E+00 0. -1.
        -11    1    5    5    0    0  0.25153517934E+03  0.21508507866E+03 -0.17997777867E+03  0.37672740586E+03  0.00000000000E+00 0.  1.
          4    1    6    6  503    0 -0.51918196919E+02 -0.34282494720E+02 -0.97276564140E+01  0.62971548456E+02  0.00000000000E+00 0. -1.
         -4    1    6    6    0  503 -0.31963839477E+03 -0.37727968924E+03 -0.30372688191E+03  0.58030912979E+03  0.00000000000E+00 0.  1.
<mgrwt>
<rscale>  0 0.19963017E+04</rscale>
<asrwt>0</asrwt>
<pdfrwt beam="1">  1        1 0.19657469E+00 0.19963017E+04</pdfrwt>
<pdfrwt beam="2">  1       -1 0.11996045E+00 0.19963017E+04</pdfrwt>
<totfact> 0.53958819E+00</totfact>
</mgrwt>
</event>
<event>
12    2  0.3623523E-008  0.1914845E+04  0.7818608E-02  0.8647502E-01
         -1   -1    0    0    0  501 -0.00000000000E+00  0.00000000000E+00  0.15138610726E+04  0.15138610726E+04  0.00000000000E+00 0.  1.
          1   -1    0    0  501    0  0.00000000000E+00 -0.00000000000E+00 -0.60550968344E+03  0.60550968344E+03  0.00000000000E+00 0. -1.
         23    2    1    2    0    0 -0.34963083050E+03  0.45996936639E+03 -0.16353457735E+03  0.60745962307E+03  0.91924425591E+02 0.  0.
        254    2    1    2    0    0  0.34963083050E+03 -0.45996936639E+03  0.10718859665E+04  0.15119111329E+04  0.89617086158E+03 0.  0.
         23    2    4    4    0    0  0.57733776880E+03 -0.48601024115E+03  0.56122707987E+03  0.94487369695E+03  0.91025349387E+02 0.  0.
         23    2    4    4    0    0 -0.22770693830E+03  0.26040874763E+02  0.51065888661E+03  0.56703743599E+03  0.90721433198E+02 0.  0.
          1    1    3    3  502    0 -0.17846062971E+03  0.23489556377E+03 -0.35741887914E+02  0.29715585942E+03  0.00000000000E+00 0. -1.
         -1    1    3    3    0  502 -0.17117020079E+03  0.22507380262E+03 -0.12779268943E+03  0.31030376365E+03  0.00000000000E+00 0.  1.
         11    1    5    5    0    0  0.38693913102E+03 -0.37946687681E+03  0.40057527581E+03  0.67392696436E+03  0.00000000000E+00 0. -1.
        -11    1    5    5    0    0  0.19039863777E+03 -0.10654336435E+03  0.16065180406E+03  0.27094673259E+03  0.00000000000E+00 0.  1.
          1    1    6    6  503    0 -0.12287320416E+03  0.59204980793E+02  0.27300225526E+03  0.30517746547E+03  0.00000000000E+00 0. -1.
         -1    1    6    6    0  503 -0.10483373414E+03 -0.33164106031E+02  0.23765663135E+03  0.26185997053E+03  0.00000000000E+00 0.  1.
<mgrwt>
<rscale>  0 0.19148447E+04</rscale>
<asrwt>0</asrwt>
<pdfrwt beam="1">  1        1 0.93155337E-01 0.19148447E+04</pdfrwt>
<pdfrwt beam="2">  1       -1 0.23290170E+00 0.19148447E+04</pdfrwt>
<totfact> 0.28516209E+00</totfact>
</mgrwt>
</event>
<event>
12    2  0.3623523E-008  0.1753219E+04  0.7818608E-02  0.8731581E-01
          2   -1    0    0  501    0  0.00000000000E+00  0.00000000000E+00  0.20406795305E+04  0.20406795305E+04  0.00000000000E+00 0. -1.
         -2   -1    0    0    0  501 -0.00000000000E+00 -0.00000000000E+00 -0.37656273069E+03  0.37656273069E+03  0.00000000000E+00 0.  1.
         23    2    1    2    0    0  0.45788613079E+03  0.43445200689E+03  0.50910171848E+03  0.81608573724E+03  0.91668509876E+02 0.  0.
        254    2    1    2    0    0 -0.45788613079E+03 -0.43445200689E+03  0.11550150813E+04  0.16011565239E+04  0.91172041823E+03 0.  0.
         23    2    4    4    0    0 -0.27612679485E+03  0.22334932324E+03  0.65531404590E+03  0.75113396358E+03  0.92923653991E+02 0.  0.
         23    2    4    4    0    0 -0.18175933595E+03 -0.65780133012E+03  0.49970103543E+03  0.85002256037E+03  0.84250710401E+02 0.  0.
          2    1    3    3  502    0  0.28435214043E+03  0.30650405183E+03  0.29091893702E+03  0.50934732892E+03  0.00000000000E+00 0. -1.
         -2    1    3    3    0  502  0.17353399036E+03  0.12794795505E+03  0.21818278146E+03  0.30673840832E+03  0.00000000000E+00 0.  1.
         11    1    5    5    0    0 -0.10439552723E+03  0.11118983242E+03  0.19802744521E+03  0.24995294356E+03  0.00000000000E+00 0. -1.
        -11    1    5    5    0    0 -0.17173126762E+03  0.11215949082E+03  0.45728660069E+03  0.50118102002E+03  0.00000000000E+00 0.  1.
          3    1    6    6  503    0 -0.16748439010E+03 -0.61220505967E+03  0.43445613245E+03  0.76915420238E+03  0.00000000000E+00 0. -1.
         -3    1    6    6    0  503 -0.14274945843E+02 -0.45596270451E+02  0.65244902987E+02  0.80868357987E+02  0.00000000000E+00 0.  1.
<mgrwt>
<rscale>  0 0.17532186E+04</rscale>
<asrwt>0</asrwt>
<pdfrwt beam="1">  1        2 0.31395069E+00 0.17532186E+04</pdfrwt>
<pdfrwt beam="2">  1       -2 0.57932729E-01 0.17532186E+04</pdfrwt>
<totfact> 0.16759716E+01</totfact>
</mgrwt>
</event>
<event>
12    2  0.3623523E-008  0.3759820E+04  0.7818608E-02  0.8054833E-01
          2   -1    0    0  501    0  0.00000000000E+00  0.00000000000E+00  0.23052933644E+04  0.23052933644E+04  0.00000000000E+00 0. -1.
         -2   -1    0    0    0  501 -0.00000000000E+00 -0.00000000000E+00 -0.15330205818E+04  0.15330205818E+04  0.00000000000E+00 0.  1.
         23    2    1    2    0    0 -0.65657502875E+03  0.22726829317E+03 -0.12920580264E+04  0.14701235267E+04  0.95433718858E+02 0.  0.
        254    2    1    2    0    0  0.65657502875E+03 -0.22726829317E+03  0.20643308090E+04  0.23681904195E+04  0.92958191071E+03 0.  0.
         23    2    4    4    0    0  0.95743343804E+02 -0.13327162070E+03  0.16428189761E+04  0.16535420405E+04  0.91754992136E+02 0.  0.
         23    2    4    4    0    0  0.56083168494E+03 -0.93996672472E+02  0.42151183286E+03  0.71464837904E+03  0.98399833054E+02 0.  0.
          1    1    3    3  502    0 -0.52680391998E+03  0.18792388533E+03 -0.95385048315E+03  0.11057434155E+04  0.00000000000E+00 0. -1.
         -1    1    3    3    0  502 -0.12977110877E+03  0.39344407844E+02 -0.33820754327E+03  0.36438011118E+03  0.00000000000E+00 0.  1.
         11    1    5    5    0    0 -0.12221431015E+02 -0.21504335379E+02  0.44472210202E+03  0.44540941598E+03  0.00000000000E+00 0. -1.
        -11    1    5    5    0    0  0.10796477482E+03 -0.11176728532E+03  0.11980968741E+04  0.12081326245E+04  0.00000000000E+00 0.  1.
          3    1    6    6  503    0  0.79367194272E+02  0.11085740886E+02  0.31172736432E+02  0.85987119234E+02  0.00000000000E+00 0. -1.
         -3    1    6    6    0  503  0.48146449067E+03 -0.10508241336E+03  0.39033909643E+03  0.62866125980E+03  0.00000000000E+00 0.  1.
<mgrwt>
<rscale>  0 0.37598203E+04</rscale>
<asrwt>0</asrwt>
<pdfrwt beam="1">  1        2 0.35466052E+00 0.37598203E+04</pdfrwt>
<pdfrwt beam="2">  1       -2 0.23584932E+00 0.37598203E+04</pdfrwt>
<totfact> 0.28470990E-01</totfact>
</mgrwt>
</event>
<event>
12    2  0.3623523E-008  0.1415864E+04  0.7818608E-02  0.8942415E-01
         -1   -1    0    0    0  501 -0.00000000000E+00  0.00000000000E+00  0.41677823607E+03  0.41677823607E+03  0.00000000000E+00 0.  1.
          1   -1    0    0  501    0  0.00000000000E+00 -0.00000000000E+00 -0.12024797725E+04  0.12024797725E+04  0.00000000000E+00 0. -1.
         23    2    1    2    0    0  0.18337343258E+03 -0.30352871779E+03 -0.40913392422E+03  0.54792194950E+03  0.84097541560E+02 0.  0.
        254    2    1    2    0    0 -0.18337343258E+03  0.30352871779E+03 -0.37656761219E+03  0.10713360590E+04  0.93819096486E+03 0.  0.
         23    2    4    4    0    0  0.13072960858E+03  0.17974997906E+03  0.25435433004E+03  0.34991131566E+03  0.91331911641E+02 0.  0.
         23    2    4    4    0    0 -0.31410304116E+03  0.12377873874E+03 -0.63092194223E+03  0.72142474339E+03  0.91702053147E+02 0.  0.
          4    1    3    3  502    0  0.12770771008E+03 -0.27196537705E+03 -0.33599481413E+03  0.45074043600E+03  0.00000000000E+00 0. -1.
         -4    1    3    3    0  502  0.55665722508E+02 -0.31563340744E+02 -0.73139110092E+02  0.97181513501E+02  0.00000000000E+00 0.  1.
         11    1    5    5    0    0 -0.13284788135E+02  0.28527141338E+02  0.33280175234E+02  0.45802330206E+02  0.00000000000E+00 0.  1.
        -11    1    5    5    0    0  0.14401439671E+03  0.15122283772E+03  0.22107415481E+03  0.30410898545E+03  0.00000000000E+00 0. -1.
          2    1    6    6  503    0 -0.16475331213E+03  0.10199307467E+03 -0.41469601190E+03  0.45773248020E+03  0.00000000000E+00 0. -1.
         -2    1    6    6    0  503 -0.14934972903E+03  0.21785664064E+02 -0.21622593033E+03  0.26369226319E+03  0.00000000000E+00 0.  1.
<mgrwt>
<rscale>  0 0.14158636E+04</rscale>
<asrwt>0</asrwt>
<pdfrwt beam="1">  1        1 0.18499689E+00 0.14158636E+04</pdfrwt>
<pdfrwt beam="2">  1       -1 0.64119728E-01 0.14158636E+04</pdfrwt>
<totfact> 0.25560996E+01</totfact>
</mgrwt>
</event>
<event>
12    2  0.3623523E-008  0.2062310E+04  0.7818608E-02  0.8578030E-01
          2   -1    0    0  501    0  0.00000000000E+00  0.00000000000E+00  0.82045831578E+03  0.82045831578E+03  0.00000000000E+00 0. -1.
         -2   -1    0    0    0  501 -0.00000000000E+00 -0.00000000000E+00 -0.12959599276E+04  0.12959599276E+04  0.00000000000E+00 0.  1.
         23    2    1    2    0    0 -0.99166754656E+02 -0.40956986142E+03  0.54439051197E+03  0.69430824866E+03  0.90118799522E+02 0.  0.
        254    2    1    2    0    0  0.99166754656E+02  0.40956986142E+03 -0.10198921238E+04  0.14221099947E+04  0.89701470238E+03 0.  0.
         23    2    4    4    0    0  0.10028442717E+03  0.62756684963E+03 -0.39414759118E+03  0.75317598142E+03  0.89580233705E+02 0.  0.
         23    2    4    4    0    0 -0.11176725188E+01 -0.21799698821E+03 -0.62574453260E+03  0.66893401328E+03  0.91610905434E+02 0.  0.
          3    1    3    3  502    0 -0.82709469349E+02 -0.25588432001E+03  0.40514247748E+03  0.48626954316E+03  0.00000000000E+00 0. -1.
         -3    1    3    3    0  502 -0.16457285307E+02 -0.15368554141E+03  0.13924803449E+03  0.20803870551E+03  0.00000000000E+00 0.  1.
         11    1    5    5    0    0  0.27033400819E+02  0.20601500658E+03 -0.17904270306E+03  0.27427956033E+03  0.00000000000E+00 0. -1.
        -11    1    5    5    0    0  0.73251026356E+02  0.42155184305E+03 -0.21510488812E+03  0.47889642109E+03  0.00000000000E+00 0.  1.
          4    1    6    6  503    0  0.21655138914E+02 -0.55900665953E+01 -0.47832998183E+02  0.52803310513E+02  0.00000000000E+00 0. -1.
         -4    1    6    6    0  503 -0.22772811433E+02 -0.21240692161E+03 -0.57791153441E+03  0.61613070277E+03  0.00000000000E+00 0.  1.
<mgrwt>
<rscale>  0 0.20623105E+04</rscale>
<asrwt>0</asrwt>
<pdfrwt beam="1">  1        2 0.12622436E+00 0.20623105E+04</pdfrwt>
<pdfrwt beam="2">  1       -2 0.19937845E+00 0.20623105E+04</pdfrwt>
<totfact> 0.41307338E+00</totfact>
</mgrwt>
</event>
<event>
12    2  0.3623523E-008  0.1300065E+04  0.7818608E-02  0.9029514E-01
         -2   -1    0    0    0  501 -0.00000000000E+00  0.00000000000E+00  0.42737875198E+03  0.42737875198E+03  0.00000000000E+00 0. -1.
          2   -1    0    0  501    0  0.00000000000E+00 -0.00000000000E+00 -0.98868347659E+03  0.98868347659E+03  0.00000000000E+00 0.  1.
         23    2    1    2    0    0  0.79193897039E+02 -0.18324247225E+03 -0.43476475281E+03  0.48709398631E+03  0.91600678183E+02 0.  0.
        254    2    1    2    0    0 -0.79193897039E+02  0.18324247225E+03 -0.12653997180E+03  0.92896824226E+03  0.89839866079E+03 0.  0.
         23    2    4    4    0    0 -0.32813681131E+02 -0.33766553286E+03 -0.18596670563E+03  0.39487186443E+03  0.79027994821E+02 0.  0.
         23    2    4    4    0    0 -0.46380215908E+02  0.52090800511E+03  0.59426733830E+02  0.53409637783E+03  0.90725574712E+02 0.  0.
          2    1    3    3  502    0  0.63708284534E+02 -0.47708760894E+02 -0.20465991564E+03  0.21959178595E+03  0.00000000000E+00 0. -1.
         -2    1    3    3    0  502  0.15485612505E+02 -0.13553371135E+03 -0.23010483717E+03  0.26750220036E+03  0.00000000000E+00 0.  1.
         11    1    5    5    0    0  0.61655443595E+01 -0.28105342507E+00  0.22588700367E+01  0.65723224297E+01  0.00000000000E+00 0. -1.
        -11    1    5    5    0    0 -0.38979225490E+02 -0.33738447943E+03 -0.18822557567E+03  0.38829954200E+03  0.00000000000E+00 0.  1.
          3    1    6    6  503    0 -0.17810085491E+00  0.65012165830E+02 -0.22106808664E+02  0.68668219834E+02  0.00000000000E+00 0. -1.
         -3    1    6    6    0  503 -0.46202115053E+02  0.45589583928E+03  0.81533542494E+02  0.46542815800E+03  0.00000000000E+00 0.  1.
<mgrwt>
<rscale>  0 0.13000651E+04</rscale>
<asrwt>0</asrwt>
<pdfrwt beam="1">  1        2 0.15210515E+00 0.13000651E+04</pdfrwt>
<pdfrwt beam="2">  1       -2 0.65750578E-01 0.13000651E+04</pdfrwt>
<totfact> 0.53485612E+01</totfact>
</mgrwt>
</event>
<event>
12    2  0.3623523E-008  0.1861012E+04  0.7818608E-02  0.8674510E-01
          2   -1    0    0  501    0  0.00000000000E+00  0.00000000000E+00  0.99591353439E+03  0.99591353439E+03  0.00000000000E+00 0. -1.
         -2   -1    0    0    0  501 -0.00000000000E+00 -0.00000000000E+00 -0.86939452532E+03  0.86939452532E+03  0.00000000000E+00 0.  1.
         23    2    1    2    0    0  0.26667700106E+03 -0.52250101679E+02  0.70528509059E+03  0.76156676376E+03  0.93328348569E+02 0.  0.
        254    2    1    2    0    0 -0.26667700106E+03  0.52250101679E+02 -0.57876608152E+03  0.11037412960E+04  0.89968215235E+03 0.  0.
         23    2    4    4    0    0 -0.36643818042E+03  0.17381359769E+03  0.77544826853E+02  0.42288841338E+03  0.91286927816E+02 0.  0.
         23    2    4    4    0    0  0.99761179363E+02 -0.12156349601E+03 -0.65631090837E+03  0.68085288257E+03  0.89925873831E+02 0.  0.
          2    1    3    3  502    0  0.24047519791E+03 -0.74051707415E+02  0.59171701291E+03  0.64299377878E+03  0.00000000000E+00 0. -1.
         -2    1    3    3    0  502  0.26201803143E+02  0.21801605736E+02  0.11356807767E+03  0.11857298498E+03  0.00000000000E+00 0.  1.
         11    1    5    5    0    0 -0.27882853528E+03  0.15290500603E+03  0.93397665960E+02  0.33143388022E+03  0.00000000000E+00 0.  1.
        -11    1    5    5    0    0 -0.87609645145E+02  0.20908591656E+02 -0.15852839107E+02  0.91454533158E+02  0.00000000000E+00 0. -1.
          3    1    6    6  503    0  0.95887250269E+02 -0.48188932251E+02 -0.36820598942E+03  0.38352599469E+03  0.00000000000E+00 0. -1.
         -3    1    6    6    0  503  0.38739290935E+01 -0.73374563757E+02 -0.28810491895E+03  0.29732688788E+03  0.00000000000E+00 0.  1.
<mgrwt>
<rscale>  0 0.18610124E+04</rscale>
<asrwt>0</asrwt>
<pdfrwt beam="1">  1        2 0.15321747E+00 0.18610124E+04</pdfrwt>
<pdfrwt beam="2">  1       -2 0.13375300E+00 0.18610124E+04</pdfrwt>
<totfact> 0.96177360E+00</totfact>
</mgrwt>
</event>
<event>
12    2  0.3623523E-008  0.2522606E+04  0.7818608E-02  0.8394976E-01
         -1   -1    0    0    0  501 -0.00000000000E+00  0.00000000000E+00  0.99647057925E+03  0.99647057925E+03  0.00000000000E+00 0.  1.
          1   -1    0    0  501    0  0.00000000000E+00 -0.00000000000E+00 -0.15965205083E+04  0.15965205083E+04  0.00000000000E+00 0. -1.
         23    2    1    2    0    0 -0.80360299402E+03  0.44978900283E+03  0.38716237551E+03  0.10030224301E+04  0.89840809982E+02 0.  0.
        254    2    1    2    0    0  0.80360299402E+03 -0.44978900283E+03 -0.98721230461E+03  0.15899686575E+04  0.83983586403E+03 0.  0.
         23    2    4    4    0    0  0.49921360610E+03 -0.55471658638E+03 -0.27016786569E+03  0.79862998283E+03  0.88850763127E+02 0.  0.
         23    2    4    4    0    0  0.30438938792E+03  0.10492758355E+03 -0.71704443892E+03  0.79133867470E+03  0.91659551737E+02 0.  0.
          2    1    3    3  502    0 -0.20193952442E+03  0.13083215731E+03  0.62454218852E+02  0.24859033441E+03  0.00000000000E+00 0. -1.
         -2    1    3    3    0  502 -0.60166346960E+03  0.31895684552E+03  0.32470815666E+03  0.75443209565E+03  0.00000000000E+00 0.  1.
         11    1    5    5    0    0  0.26877443445E+03 -0.30010393797E+03 -0.98646656680E+02  0.41476889116E+03  0.00000000000E+00 0. -1.
        -11    1    5    5    0    0  0.23043917165E+03 -0.25461264841E+03 -0.17152120901E+03  0.38386109167E+03  0.00000000000E+00 0.  1.
          2    1    6    6  503    0  0.15756083682E+03  0.99335985598E+02 -0.36250266552E+03  0.40755519607E+03  0.00000000000E+00 0. -1.
         -2    1    6    6    0  503  0.14682855110E+03  0.55915979546E+01 -0.35454177340E+03  0.38378347863E+03  0.00000000000E+00 0.  1.
<mgrwt>
<rscale>  0 0.25226064E+04</rscale>
<asrwt>0</asrwt>
<pdfrwt beam="1">  1        1 0.24561854E+00 0.25226064E+04</pdfrwt>
<pdfrwt beam="2">  1       -1 0.15330317E+00 0.25226064E+04</pdfrwt>
<totfact> 0.16362128E+00</totfact>
</mgrwt>
</event>
<event>
12    2  0.3623523E-008  0.2853661E+04  0.7818608E-02  0.8286800E-01
          1   -1    0    0  501    0  0.00000000000E+00  0.00000000000E+00  0.20084316653E+04  0.20084316653E+04  0.00000000000E+00 0. -1.
         -1   -1    0    0    0  501 -0.00000000000E+00 -0.00000000000E+00 -0.10136494269E+04  0.10136494269E+04  0.00000000000E+00 0.  1.
         23    2    1    2    0    0 -0.58216572700E+03 -0.81819909736E+03  0.12929951057E+04  0.16397461295E+04  0.92543661372E+02 0.  0.
        254    2    1    2    0    0  0.58216572700E+03  0.81819909736E+03 -0.29821286730E+03  0.13823349627E+04  0.90197136225E+03 0.  0.
         23    2    4    4    0    0 -0.20244579549E+02  0.55445256174E+03  0.14896004996E+03  0.58200992679E+03  0.93375436713E+02 0.  0.
         23    2    4    4    0    0  0.60241030655E+03  0.26374653562E+03 -0.44717291725E+03  0.80032503593E+03  0.89978512537E+02 0.  0.
          3    1    3    3  502    0 -0.14898579766E+03 -0.21119328844E+03  0.40128347896E+03  0.47731310842E+03  0.00000000000E+00 0. -1.
         -3    1    3    3    0  502 -0.43317992935E+03 -0.60700580892E+03  0.89171162672E+03  0.11624330211E+04  0.00000000000E+00 0.  1.
         11    1    5    5    0    0  0.27871010565E+02  0.39636888362E+03  0.10808008992E+03  0.41178439865E+03  0.00000000000E+00 0. -1.
        -11    1    5    5    0    0 -0.48115590114E+02  0.15808367812E+03  0.40879960036E+02  0.17022552815E+03  0.00000000000E+00 0.  1.
          1    1    6    6  503    0  0.35912844924E+03  0.11670439784E+03 -0.28460404392E+03  0.47285581454E+03  0.00000000000E+00 0. -1.
         -1    1    6    6    0  503  0.24328185731E+03  0.14704213778E+03 -0.16256887333E+03  0.32746922139E+03  0.00000000000E+00 0.  1.
<mgrwt>
<rscale>  0 0.28536612E+04</rscale>
<asrwt>0</asrwt>
<pdfrwt beam="1">  1        1 0.30898949E+00 0.28536612E+04</pdfrwt>
<pdfrwt beam="2">  1       -1 0.15594607E+00 0.28536612E+04</pdfrwt>
<totfact> 0.79530147E-01</totfact>
</mgrwt>
</event>
<event>
12    2  0.3623523E-008  0.1105040E+04  0.7818608E-02  0.9200293E-01
         -2   -1    0    0    0  501 -0.00000000000E+00  0.00000000000E+00  0.19757228627E+03  0.19757228627E+03  0.00000000000E+00 0.  1.
          2   -1    0    0  501    0  0.00000000000E+00 -0.00000000000E+00 -0.15451484859E+04  0.15451484859E+04  0.00000000000E+00 0. -1.
         23    2    1    2    0    0  0.43155206261E+02 -0.14043438686E+03 -0.31363309754E+03  0.35877480166E+03  0.93645339431E+02 0.  0.
        254    2    1    2    0    0 -0.43155206261E+02  0.14043438686E+03 -0.10339431021E+04  0.13839459705E+04  0.90812109440E+03 0.  0.
         23    2    4    4    0    0  0.24926123439E+03 -0.25210464919E+03 -0.68254553156E+03  0.77441258127E+03  0.90324560622E+02 0.  0.
         23    2    4    4    0    0 -0.29241644065E+03  0.39253903605E+03 -0.35139757054E+03  0.60953338925E+03  0.91958851923E+02 0.  0.
          2    1    3    3  502    0  0.79882557409E+01 -0.63881714618E+02 -0.23455927811E+03  0.24323392165E+03  0.00000000000E+00 0. -1.
         -2    1    3    3    0  502  0.35166950520E+02 -0.76552672237E+02 -0.79073819428E+02  0.11554088001E+03  0.00000000000E+00 0.  1.
         11    1    5    5    0    0  0.12760890679E+03 -0.71009816519E+02 -0.31033705554E+03  0.34298034226E+03  0.00000000000E+00 0. -1.
        -11    1    5    5    0    0  0.12165232760E+03 -0.18109483267E+03 -0.37220847603E+03  0.43143223901E+03  0.00000000000E+00 0.  1.
          1    1    6    6  503    0 -0.59941405173E+02  0.38622686631E+02 -0.27528701907E+02  0.76436335635E+02  0.00000000000E+00 0. -1.
         -1    1    6    6    0  503 -0.23247503548E+03  0.35391634942E+03 -0.32386886863E+03  0.53309705362E+03  0.00000000000E+00 0.  1.
<mgrwt>
<rscale>  0 0.11050403E+04</rscale>
<asrwt>0</asrwt>
<pdfrwt beam="1">  1        2 0.23771515E+00 0.11050403E+04</pdfrwt>
<pdfrwt beam="2">  1       -2 0.30395737E-01 0.11050403E+04</pdfrwt>
<totfact> 0.11881851E+02</totfact>
</mgrwt>
</event>
<event>
12    2  0.3623523E-008  0.1394047E+04  0.7818608E-02  0.8958139E-01
         -1   -1    0    0    0  501 -0.00000000000E+00  0.00000000000E+00  0.34474847319E+03  0.34474847319E+03  0.00000000000E+00 0.  1.
          1   -1    0    0  501    0  0.00000000000E+00 -0.00000000000E+00 -0.14092647323E+04  0.14092647323E+04  0.00000000000E+00 0. -1.
         23    2    1    2    0    0 -0.17661425926E+03 -0.29185222529E+03 -0.52182475076E+02  0.36232708874E+03  0.11039742092E+03 0.  0.
        254    2    1    2    0    0  0.17661425926E+03  0.29185222529E+03 -0.10123337840E+04  0.13916861168E+04  0.89196425896E+03 0.  0.
         23    2    4    4    0    0  0.26275145192E+03  0.10637066715E+03 -0.11088474614E+04  0.11481330565E+04  0.91179922848E+02 0.  0.
         23    2    4    4    0    0 -0.86137192655E+02  0.18548155815E+03  0.96513677392E+02  0.24355306028E+03  0.90444341313E+02 0.  0.
          2    1    3    3  502    0 -0.31467990953E+02 -0.11130498716E+03 -0.60473328560E+02  0.13052225132E+03  0.00000000000E+00 0. -1.
         -2    1    3    3    0  502 -0.14514626831E+03 -0.18054723813E+03  0.82908534842E+01  0.23180483742E+03  0.00000000000E+00 0.  1.
         11    1    5    5    0    0  0.25670751200E+03  0.11843389033E+03 -0.10279223037E+04  0.10660908008E+04  0.00000000000E+00 0. -1.
        -11    1    5    5    0    0  0.60439399172E+01 -0.12063223179E+02 -0.80925157691E+02  0.82042255640E+02  0.00000000000E+00 0.  1.
          4    1    6    6  503    0 -0.78660117493E+02  0.16954443220E+03  0.11384803807E+03  0.21884721691E+03  0.00000000000E+00 0. -1.
         -4    1    6    6    0  503 -0.74770751618E+01  0.15937125946E+02 -0.17334360682E+02  0.24705843371E+02  0.00000000000E+00 0.  1.
<mgrwt>
<rscale>  0 0.13940472E+04</rscale>
<asrwt>0</asrwt>
<pdfrwt beam="1">  1        1 0.21680996E+00 0.13940472E+04</pdfrwt>
<pdfrwt beam="2">  1       -1 0.53038226E-01 0.13940472E+04</pdfrwt>
<totfact> 0.26462336E+01</totfact>
</mgrwt>
</event>
<event>
12    2  0.3623523E-008  0.1538806E+04  0.7818608E-02  0.8859050E-01
          1   -1    0    0  501    0  0.00000000000E+00  0.00000000000E+00  0.11783821561E+04  0.11783821561E+04  0.00000000000E+00 0. -1.
         -1   -1    0    0    0  501 -0.00000000000E+00 -0.00000000000E+00 -0.50236732159E+03  0.50236732159E+03  0.00000000000E+00 0.  1.
         23    2    1    2    0    0 -0.21621978024E+03 -0.38968839454E+03  0.46933727436E+03  0.65326532581E+03  0.88713418401E+02 0.  0.
        254    2    1    2    0    0  0.21621978024E+03  0.38968839454E+03  0.20667756019E+03  0.10274841519E+04  0.90244115063E+03 0.  0.
         23    2    4    4    0    0  0.53059573564E+03  0.15823086149E+03  0.26847874819E+03  0.62197519138E+03  0.90572955393E+02 0.  0.
         23    2    4    4    0    0 -0.31437595540E+03  0.23145753305E+03 -0.61801187997E+02  0.40550896054E+03  0.90627254725E+02 0.  0.
          3    1    3    3  502    0 -0.13368960941E+03 -0.27016725948E+03  0.25767183497E+03  0.39655773135E+03  0.00000000000E+00 0. -1.
         -3    1    3    3    0  502 -0.82530170828E+02 -0.11952113506E+03  0.21166543939E+03  0.25670759446E+03  0.00000000000E+00 0.  1.
         11    1    5    5    0    0  0.23518374944E+03  0.32308500010E+02  0.85165102126E+02  0.25220691861E+03  0.00000000000E+00 0.  1.
        -11    1    5    5    0    0  0.29541198620E+03  0.12592236148E+03  0.18331364606E+03  0.36976827277E+03  0.00000000000E+00 0. -1.
          4    1    6    6  503    0 -0.90912673218E+02  0.42429606757E+02 -0.51179190515E+02  0.11262635226E+03  0.00000000000E+00 0. -1.
         -4    1    6    6    0  503 -0.22346328219E+03  0.18902792629E+03 -0.10621997483E+02  0.29288260828E+03  0.00000000000E+00 0.  1.
<mgrwt>
<rscale>  0 0.15388056E+04</rscale>
<asrwt>0</asrwt>
<pdfrwt beam="1">  1        1 0.18128956E+00 0.15388056E+04</pdfrwt>
<pdfrwt beam="2">  1       -1 0.77287281E-01 0.15388056E+04</pdfrwt>
<totfact> 0.17940637E+01</totfact>
</mgrwt>
</event>
<event>
12    2  0.3623523E-008  0.2348783E+04  0.7818608E-02  0.8458931E-01
         -2   -1    0    0    0  501 -0.00000000000E+00  0.00000000000E+00  0.54224034181E+03  0.54224034181E+03  0.00000000000E+00 0. -1.
          2   -1    0    0  501    0  0.00000000000E+00 -0.00000000000E+00 -0.25435130727E+04  0.25435130727E+04  0.00000000000E+00 0.  1.
         23    2    1    2    0    0  0.85268582902E+03 -0.49866975779E+03 -0.10682026017E+04  0.14577833217E+04  0.91273021003E+02 0.  0.
        254    2    1    2    0    0 -0.85268582902E+03  0.49866975779E+03 -0.93307012912E+03  0.16279700928E+04  0.89661703461E+03 0.  0.
         23    2    4    4    0    0  0.16859268260E+03  0.17382980344E+03 -0.20990744087E+03  0.33174470311E+03  0.85750341823E+02 0.  0.
         23    2    4    4    0    0 -0.10212785116E+04  0.32483995435E+03 -0.72316268825E+03  0.12962253897E+04  0.93301623168E+02 0.  0.
          4    1    3    3  502    0  0.16957843704E+03 -0.11238484820E+03 -0.27399544562E+03  0.34126339480E+03  0.00000000000E+00 0. -1.
         -4    1    3    3    0  502  0.68310739198E+03 -0.38628490959E+03 -0.79420715612E+03  0.11165199269E+04  0.00000000000E+00 0.  1.
         11    1    5    5    0    0  0.15230513815E+03  0.12346665023E+03 -0.12774321548E+03  0.23400683308E+03  0.00000000000E+00 0.  1.
        -11    1    5    5    0    0  0.16287544449E+02  0.50363153208E+02 -0.82164225394E+02  0.97737870040E+02  0.00000000000E+00 0. -1.
          4    1    6    6  503    0 -0.91141968297E+03  0.28924140001E+03 -0.67816481044E+03  0.11722857741E+04  0.00000000000E+00 0.  1.
         -4    1    6    6    0  503 -0.10985882864E+03  0.35598554339E+02 -0.44997877804E+02  0.12393961558E+03  0.00000000000E+00 0. -1.
<mgrwt>
<rscale>  0 0.23487830E+04</rscale>
<asrwt>0</asrwt>
<pdfrwt beam="1">  1        2 0.39130971E+00 0.23487830E+04</pdfrwt>
<pdfrwt beam="2">  1       -2 0.83421590E-01 0.23487830E+04</pdfrwt>
<totfact> 0.37286593E+00</totfact>
</mgrwt>
</event>
<event>
12    2  0.3623523E-008  0.1528196E+04  0.7818608E-02  0.8865916E-01
          2   -1    0    0  501    0  0.00000000000E+00  0.00000000000E+00  0.12258331520E+04  0.12258331520E+04  0.00000000000E+00 0. -1.
         -2   -1    0    0    0  501 -0.00000000000E+00 -0.00000000000E+00 -0.47628495344E+03  0.47628495344E+03  0.00000000000E+00 0.  1.
         23    2    1    2    0    0  0.29922717311E+02  0.93404696660E+02 -0.29079838959E+03  0.31793188335E+03  0.83049218528E+02 0.  0.
        254    2    1    2    0    0 -0.29922717311E+02 -0.93404696660E+02  0.10403465881E+04  0.13841862221E+04  0.90776134944E+03 0.  0.
         23    2    4    4    0    0 -0.16037948608E+03  0.29678567207E+03  0.11493397456E+03  0.36758451044E+03  0.90029101442E+02 0.  0.
         23    2    4    4    0    0  0.13045676877E+03 -0.39019036873E+03  0.92541261358E+03  0.10166017116E+04  0.88447964061E+02 0.  0.
          2    1    3    3  502    0 -0.27448132394E+02  0.23387888026E+02 -0.10962790256E+03  0.11540654356E+03  0.00000000000E+00 0. -1.
         -2    1    3    3    0  502  0.57370849705E+02  0.70016808634E+02 -0.18117048703E+03  0.20252533979E+03  0.00000000000E+00 0.  1.
         11    1    5    5    0    0 -0.11874367902E+03  0.23674634401E+03  0.49373326008E+02  0.26941903799E+03  0.00000000000E+00 0.  1.
        -11    1    5    5    0    0 -0.41635807057E+02  0.60039328062E+02  0.65560648551E+02  0.98165472452E+02  0.00000000000E+00 0. -1.
          4    1    6    6  503    0  0.63510995077E+02 -0.73574731344E+02  0.21075182574E+03  0.23208450969E+03  0.00000000000E+00 0. -1.
         -4    1    6    6    0  503  0.66945773689E+02 -0.31661563739E+03  0.71466078785E+03  0.78451720194E+03  0.00000000000E+00 0.  1.
<mgrwt>
<rscale>  0 0.15281962E+04</rscale>
<asrwt>0</asrwt>
<pdfrwt beam="1">  1        2 0.18858971E+00 0.15281962E+04</pdfrwt>
<pdfrwt beam="2">  1       -2 0.73274609E-01 0.15281962E+04</pdfrwt>
<totfact> 0.29634956E+01</totfact>
</mgrwt>
</event>
<event>
12    2  0.3623523E-008  0.1468625E+04  0.7818608E-02  0.8905589E-01
         -2   -1    0    0    0  501 -0.00000000000E+00  0.00000000000E+00  0.29512698688E+03  0.29512698688E+03  0.00000000000E+00 0.  1.
          2   -1    0    0  501    0  0.00000000000E+00 -0.00000000000E+00 -0.18270603702E+04  0.18270603702E+04  0.00000000000E+00 0. -1.
         23    2    1    2    0    0 -0.43242993663E+03 -0.11972596940E+03 -0.57329409728E+03  0.73381215554E+03  0.92109716152E+02 0.  0.
        254    2    1    2    0    0  0.43242993663E+03  0.11972596940E+03 -0.95863928603E+03  0.13883752015E+04  0.89848008417E+03 0.  0.
         23    2    4    4    0    0  0.17941237291E+03 -0.29540834411E+03 -0.59666382291E+02  0.36200050690E+03  0.89606922121E+02 0.  0.
         23    2    4    4    0    0  0.25301756372E+03  0.41513431352E+03 -0.89897290374E+03  0.10263746946E+04  0.94542827910E+02 0.  0.
          3    1    3    3  502    0 -0.14405869261E+03 -0.30728582216E+02 -0.25985414702E+03  0.29869939806E+03  0.00000000000E+00 0. -1.
         -3    1    3    3    0  502 -0.28837124402E+03 -0.88997387187E+02 -0.31343995026E+03  0.43511275748E+03  0.00000000000E+00 0.  1.
         11    1    5    5    0    0  0.77319045545E+02 -0.90047037725E+02  0.17622029678E+02  0.11998849835E+03  0.00000000000E+00 0. -1.
        -11    1    5    5    0    0  0.10209332736E+03 -0.20536130639E+03 -0.77288411970E+02  0.24201200854E+03  0.00000000000E+00 0.  1.
          2    1    6    6  503    0 -0.59732860004E+01  0.30334304719E+02 -0.45640420132E+02  0.55126201921E+02  0.00000000000E+00 0. -1.
         -2    1    6    6    0  503  0.25899084972E+03  0.38480000880E+03 -0.85333248361E+03  0.97124849271E+03  0.00000000000E+00 0.  1.
<mgrwt>
<rscale>  0 0.14686250E+04</rscale>
<asrwt>0</asrwt>
<pdfrwt beam="1">  1        2 0.28108622E+00 0.14686250E+04</pdfrwt>
<pdfrwt beam="2">  1       -2 0.45404151E-01 0.14686250E+04</pdfrwt>
<totfact> 0.37134501E+01</totfact>
</mgrwt>
</event>
<event>
12    2  0.3623523E-008  0.2096252E+04  0.7818608E-02  0.8562896E-01
          2   -1    0    0  501    0  0.00000000000E+00  0.00000000000E+00  0.18494613810E+04  0.18494613810E+04  0.00000000000E+00 0. -1.
         -2   -1    0    0    0  501 -0.00000000000E+00 -0.00000000000E+00 -0.59399381675E+03  0.59399381675E+03  0.00000000000E+00 0.  1.
         23    2    1    2    0    0 -0.28150501161E+03  0.45988315712E+03 -0.25847954312E+03  0.60501748498E+03  0.92178593815E+02 0.  0.
        254    2    1    2    0    0  0.28150501161E+03 -0.45988315712E+03  0.15139471074E+04  0.18384377128E+04  0.89279325157E+03 0.  0.
         23    2    4    4    0    0 -0.97650192522E+02 -0.54385162189E+03  0.12217193561E+04  0.13439083599E+04  0.90450803490E+02 0.  0.
         23    2    4    4    0    0  0.37915520413E+03  0.83968464776E+02  0.29222775127E+03  0.49452935292E+03  0.91393929704E+02 0.  0.
          3    1    3    3  502    0 -0.21644375938E+01  0.33342868624E+02 -0.34790271611E+02  0.48236860147E+02  0.00000000000E+00 0. -1.
         -3    1    3    3    0  502 -0.27934057402E+03  0.42654028849E+03 -0.22368927151E+03  0.55678062483E+03  0.00000000000E+00 0.  1.
         11    1    5    5    0    0 -0.87862509133E+02 -0.28654152641E+03  0.59100288529E+03  0.66265396497E+03  0.00000000000E+00 0. -1.
        -11    1    5    5    0    0 -0.97876833896E+01 -0.25731009549E+03  0.63071647084E+03  0.68125439490E+03  0.00000000000E+00 0.  1.
          4    1    6    6  503    0  0.14364446237E+03  0.70590551420E+02  0.88790954422E+02  0.18303166695E+03  0.00000000000E+00 0.  1.
         -4    1    6    6    0  503  0.23551074177E+03  0.13377913356E+02  0.20343679685E+03  0.31149768597E+03  0.00000000000E+00 0. -1.
<mgrwt>
<rscale>  0 0.20962525E+04</rscale>
<asrwt>0</asrwt>
<pdfrwt beam="1">  1        2 0.28453252E+00 0.20962525E+04</pdfrwt>
<pdfrwt beam="2">  1       -2 0.91383665E-01 0.20962525E+04</pdfrwt>
<totfact> 0.76171354E+00</totfact>
</mgrwt>
</event>
<event>
12    2  0.3623523E-008  0.1343609E+04  0.7818608E-02  0.8995680E-01
         -2   -1    0    0    0  501 -0.00000000000E+00  0.00000000000E+00  0.54178980899E+03  0.54178980899E+03  0.00000000000E+00 0. -1.
          2   -1    0    0  501    0  0.00000000000E+00 -0.00000000000E+00 -0.83301920753E+03  0.83301920753E+03  0.00000000000E+00 0.  1.
         23    2    1    2    0    0  0.21079542338E+03  0.12488365241E+02  0.20365478408E+03  0.30719456296E+03  0.91118377110E+02 0.  0.
        254    2    1    2    0    0 -0.21079542338E+03 -0.12488365241E+02 -0.49488418262E+03  0.10676144535E+04  0.92211691093E+03 0.  0.
         23    2    4    4    0    0  0.24113014066E+03  0.14779077858E+03 -0.49693588442E+03  0.57924211724E+03  0.92683861547E+02 0.  0.
         23    2    4    4    0    0 -0.45192556405E+03 -0.16027914382E+03  0.20517017925E+01  0.48837233631E+03  0.92613228042E+02 0.  0.
          3    1    3    3  502    0  0.18170950581E+03  0.28881950235E+02  0.20275869610E+03  0.27379481440E+03  0.00000000000E+00 0. -1.
         -3    1    3    3    0  502  0.29085917574E+02 -0.16393584994E+02  0.89608798594E+00  0.33399748558E+02  0.00000000000E+00 0.  1.
         11    1    5    5    0    0  0.21046419870E+02  0.53944370669E+02 -0.84593789982E+02  0.10251368796E+03  0.00000000000E+00 0.  1.
        -11    1    5    5    0    0  0.22008372079E+03  0.93846407914E+02 -0.41234209443E+03  0.47672842928E+03  0.00000000000E+00 0. -1.
          1    1    6    6  503    0 -0.41980158358E+03 -0.13610695245E+03 -0.21393758544E+02  0.44183273417E+03  0.00000000000E+00 0. -1.
         -1    1    6    6    0  503 -0.32123980470E+02 -0.24172191370E+02  0.23445460337E+02  0.46539602139E+02  0.00000000000E+00 0.  1.
<mgrwt>
<rscale>  0 0.13436090E+04</rscale>
<asrwt>0</asrwt>
<pdfrwt beam="1">  1        2 0.12815680E+00 0.13436090E+04</pdfrwt>
<pdfrwt beam="2">  1       -2 0.83352279E-01 0.13436090E+04</pdfrwt>
<totfact> 0.40176051E+01</totfact>
</mgrwt>
</event>
<event>
12    2  0.3623523E-008  0.2292236E+04  0.7818608E-02  0.8480989E-01
          2   -1    0    0  501    0  0.00000000000E+00  0.00000000000E+00  0.93024665476E+03  0.93024665476E+03  0.00000000000E+00 0.  1.
         -2   -1    0    0    0  501 -0.00000000000E+00 -0.00000000000E+00 -0.14120835789E+04  0.14120835789E+04  0.00000000000E+00 0. -1.
         23    2    1    2    0    0  0.20530812208E+03  0.91155827356E+03 -0.46410685478E+03  0.10472992836E+04  0.91382195788E+02 0.  0.
        254    2    1    2    0    0 -0.20530812208E+03 -0.91155827356E+03 -0.17730069397E+02  0.12950309501E+04  0.89649366716E+03 0.  0.
         23    2    4    4    0    0  0.16910801726E+03 -0.83849203808E+03  0.13675305857E+03  0.87107916368E+03  0.91712000007E+02 0.  0.
         23    2    4    4    0    0 -0.37441613935E+03 -0.73066235481E+02 -0.15448312797E+03  0.42395178641E+03  0.10170526144E+03 0.  0.
          1    1    3    3  502    0  0.20221275140E+03  0.78260262261E+03 -0.37889825562E+03  0.89270417825E+03  0.00000000000E+00 0. -1.
         -1    1    3    3    0  502  0.30953706819E+01  0.12895565094E+03 -0.85208599164E+02  0.15459510536E+03  0.00000000000E+00 0.  1.
         11    1    5    5    0    0  0.10874804845E+03 -0.34196592417E+03  0.33959855391E+02  0.36044431347E+03  0.00000000000E+00 0.  1.
        -11    1    5    5    0    0  0.60359968814E+02 -0.49652611391E+03  0.10279320318E+03  0.51063485021E+03  0.00000000000E+00 0. -1.
          3    1    6    6  503    0 -0.23687524824E+03 -0.72793803860E+02 -0.54020758289E+02  0.25362780493E+03  0.00000000000E+00 0. -1.
         -3    1    6    6    0  503 -0.13754089111E+03 -0.27243162053E+00 -0.10046236968E+03  0.17032398148E+03  0.00000000000E+00 0.  1.
<mgrwt>
<rscale>  0 0.22922356E+04</rscale>
<asrwt>0</asrwt>
<pdfrwt beam="1">  1        2 0.14311487E+00 0.22922356E+04</pdfrwt>
<pdfrwt beam="2">  1       -2 0.21724363E+00 0.22922356E+04</pdfrwt>
<totfact> 0.26113434E+00</totfact>
</mgrwt>
</event>
<event>
12    2  0.3623523E-008  0.2010909E+04  0.7818608E-02  0.8601537E-01
         -2   -1    0    0    0  501 -0.00000000000E+00  0.00000000000E+00  0.38168877049E+03  0.38168877049E+03  0.00000000000E+00 0.  1.
          2   -1    0    0  501    0  0.00000000000E+00 -0.00000000000E+00 -0.26485945276E+04  0.26485945276E+04  0.00000000000E+00 0. -1.
         23    2    1    2    0    0 -0.30131270322E+03 -0.45272211686E+03 -0.17780411326E+04  0.18614440677E+04  0.88301120651E+02 0.  0.
        254    2    1    2    0    0  0.30131270322E+03  0.45272211686E+03 -0.48886462451E+03  0.11688392303E+04  0.91183872756E+03 0.  0.
         23    2    4    4    0    0  0.55584535074E+03  0.81745460627E+02 -0.41590154199E+03  0.70470789115E+03  0.89402152928E+02 0.  0.
         23    2    4    4    0    0 -0.25453264752E+03  0.37097665624E+03 -0.72963082525E+02  0.46413133920E+03  0.87656947754E+02 0.  0.
          1    1    3    3  502    0 -0.20828589106E+03 -0.28380806930E+03 -0.10111295008E+04  0.10706600301E+04  0.00000000000E+00 0. -1.
         -1    1    3    3    0  502 -0.93026812155E+02 -0.16891404757E+03 -0.76691163171E+03  0.79078403759E+03  0.00000000000E+00 0.  1.
         11    1    5    5    0    0  0.50200095452E+03  0.96837165165E+02 -0.39029246818E+03  0.64320339366E+03  0.00000000000E+00 0.  1.
        -11    1    5    5    0    0  0.53844396219E+02 -0.15091704538E+02 -0.25609073802E+02  0.61504497486E+02  0.00000000000E+00 0. -1.
          3    1    6    6  503    0 -0.13648097165E+03  0.12522811693E+03 -0.40176054427E+02  0.18953430360E+03  0.00000000000E+00 0. -1.
         -3    1    6    6    0  503 -0.11805167587E+03  0.24574853931E+03 -0.32787028098E+02  0.27459703560E+03  0.00000000000E+00 0.  1.
<mgrwt>
<rscale>  0 0.20109090E+04</rscale>
<asrwt>0</asrwt>
<pdfrwt beam="1">  1        2 0.40747606E+00 0.20109090E+04</pdfrwt>
<pdfrwt beam="2">  1       -2 0.58721352E-01 0.20109090E+04</pdfrwt>
<totfact> 0.71746001E+00</totfact>
</mgrwt>
</event>
<event>
12    2  0.3623523E-008  0.1509084E+04  0.7818608E-02  0.8878435E-01
         -2   -1    0    0    0  501 -0.00000000000E+00  0.00000000000E+00  0.32547682876E+03  0.32547682876E+03  0.00000000000E+00 0.  1.
          2   -1    0    0  501    0  0.00000000000E+00 -0.00000000000E+00 -0.17492294280E+04  0.17492294280E+04  0.00000000000E+00 0. -1.
         23    2    1    2    0    0  0.23548823979E+03 -0.38660908311E+03 -0.64028653012E+03  0.78953869920E+03  0.92104411670E+02 0.  0.
        254    2    1    2    0    0 -0.23548823979E+03  0.38660908311E+03 -0.78346606911E+03  0.12851675576E+04  0.91264192065E+03 0.  0.
         23    2    4    4    0    0 -0.36353380518E+03  0.28646498570E+02 -0.81036330358E+03  0.89311464197E+03  0.89373544882E+02 0.  0.
         23    2    4    4    0    0  0.12804556539E+03  0.35796258454E+03  0.26897234474E+02  0.39205291559E+03  0.91919250704E+02 0.  0.
          1    1    3    3  502    0  0.13145399410E+03 -0.27350679027E+03 -0.36901283497E+03  0.47776206344E+03  0.00000000000E+00 0. -1.
         -1    1    3    3    0  502  0.10403424569E+03 -0.11310229284E+03 -0.27127369516E+03  0.31177663576E+03  0.00000000000E+00 0.  1.
         11    1    5    5    0    0 -0.45201022524E+02 -0.10299403495E+02 -0.17980398149E+03  0.18568436097E+03  0.00000000000E+00 0.  1.
        -11    1    5    5    0    0 -0.31833278265E+03  0.38945902065E+02 -0.63055932209E+03  0.70743028100E+03  0.00000000000E+00 0. -1.
          3    1    6    6  503    0  0.14042685707E+03  0.29502147792E+03  0.17337109080E+02  0.32719711180E+03  0.00000000000E+00 0. -1.
         -3    1    6    6    0  503 -0.12381291686E+02  0.62941106628E+02  0.95601253933E+01  0.64855803787E+02  0.00000000000E+00 0.  1.
<mgrwt>
<rscale>  0 0.15090840E+04</rscale>
<asrwt>0</asrwt>
<pdfrwt beam="1">  1        2 0.26911221E+00 0.15090840E+04</pdfrwt>
<pdfrwt beam="2">  1       -2 0.50073359E-01 0.15090840E+04</pdfrwt>
<totfact> 0.33539766E+01</totfact>
</mgrwt>
</event>
<event>
12    2  0.3623523E-008  0.1677151E+04  0.7818608E-02  0.8774504E-01
         -2   -1    0    0    0  501 -0.00000000000E+00  0.00000000000E+00  0.88439456349E+03  0.88439456349E+03  0.00000000000E+00 0.  1.
          2   -1    0    0  501    0  0.00000000000E+00 -0.00000000000E+00 -0.79513030751E+03  0.79513030751E+03  0.00000000000E+00 0. -1.
         23    2    1    2    0    0 -0.27868451473E+03 -0.40641750648E+03 -0.28329218479E+03  0.57485204097E+03  0.85791367375E+02 0.  0.
        254    2    1    2    0    0  0.27868451473E+03  0.40641750648E+03  0.37255644077E+03  0.11046728300E+04  0.91578573452E+03 0.  0.
         23    2    4    4    0    0  0.29279197286E+03 -0.35277971243E+01 -0.22033976454E+03  0.37799895067E+03  0.92703884206E+02 0.  0.
         23    2    4    4    0    0 -0.14107458135E+02  0.40994530360E+03  0.59289620531E+03  0.72667387937E+03  0.90966171536E+02 0.  0.
          4    1    3    3  502    0 -0.25763928542E+03 -0.32062353710E+03 -0.24330406375E+03  0.47788525963E+03  0.00000000000E+00 0. -1.
         -4    1    3    3    0  502 -0.21045229315E+02 -0.85793969379E+02 -0.39988121038E+02  0.96966781337E+02  0.00000000000E+00 0.  1.
         11    1    5    5    0    0  0.17609112328E+03  0.43182784843E+02 -0.12475931944E+03  0.22008572055E+03  0.00000000000E+00 0.  1.
        -11    1    5    5    0    0  0.11670084959E+03 -0.46710581967E+02 -0.95580445099E+02  0.15791323012E+03  0.00000000000E+00 0. -1.
          2    1    6    6  503    0 -0.49944552804E+01  0.37439200674E+03  0.57417704014E+03  0.68547326185E+03  0.00000000000E+00 0.  1.
         -2    1    6    6    0  503 -0.91130028541E+01  0.35553296866E+02  0.18719165174E+02  0.41200617519E+02  0.00000000000E+00 0. -1.
<mgrwt>
<rscale>  0 0.16771511E+04</rscale>
<asrwt>0</asrwt>
<pdfrwt beam="1">  1        2 0.12232774E+00 0.16771511E+04</pdfrwt>
<pdfrwt beam="2">  1       -2 0.13606070E+00 0.16771511E+04</pdfrwt>
<totfact> 0.12797357E+01</totfact>
</mgrwt>
</event>
<event>
12    2  0.3623523E-008  0.1185093E+04  0.7818608E-02  0.9126006E-01
          1   -1    0    0  501    0  0.00000000000E+00  0.00000000000E+00  0.69764650142E+03  0.69764650142E+03  0.00000000000E+00 0. -1.
         -1   -1    0    0    0  501 -0.00000000000E+00 -0.00000000000E+00 -0.50327981434E+03  0.50327981434E+03  0.00000000000E+00 0.  1.
         23    2    1    2    0    0 -0.14243466690E+03  0.23241136689E+03 -0.14863849733E+02  0.28715741094E+03  0.89082921105E+02 0.  0.
        254    2    1    2    0    0  0.14243466690E+03 -0.23241136689E+03  0.20923053682E+03  0.91376890483E+03  0.84669564549E+03 0.  0.
         23    2    4    4    0    0  0.39795874040E+03 -0.39494728680E+03  0.82516583751E+02  0.57392882916E+03  0.90723734148E+02 0.  0.
         23    2    4    4    0    0 -0.25552407350E+03  0.16253591991E+03  0.12671395306E+03  0.33984007567E+03  0.87888416355E+02 0.  0.
          1    1    3    3  502    0 -0.25997431832E+02  0.11127229713E+03  0.18767789977E+02  0.11579991586E+03  0.00000000000E+00 0. -1.
         -1    1    3    3    0  502 -0.11643723506E+03  0.12113906976E+03 -0.33631639711E+02  0.17135749508E+03  0.00000000000E+00 0.  1.
         11    1    5    5    0    0  0.70601088026E+02 -0.12383171377E+03  0.29769006477E+02  0.14561936929E+03  0.00000000000E+00 0. -1.
        -11    1    5    5    0    0  0.32735765237E+03 -0.27111557303E+03  0.52747577274E+02  0.42830945987E+03  0.00000000000E+00 0.  1.
          4    1    6    6  503    0  0.44356401205E+01 -0.43391336960E+01  0.43415001487E+01  0.75730844477E+01  0.00000000000E+00 0. -1.
         -4    1    6    6    0  503 -0.25995971362E+03  0.16687505360E+03  0.12237245292E+03  0.33226699122E+03  0.00000000000E+00 0.  1.
<mgrwt>
<rscale>  0 0.11850931E+04</rscale>
<asrwt>0</asrwt>
<pdfrwt beam="1">  1        1 0.10733023E+00 0.11850931E+04</pdfrwt>
<pdfrwt beam="2">  1       -1 0.77427664E-01 0.11850931E+04</pdfrwt>
<totfact> 0.45384181E+01</totfact>
</mgrwt>
</event>
<event>
12    2  0.3623523E-008  0.4016511E+04  0.7818608E-02  0.8001224E-01
          1   -1    0    0  501    0  0.00000000000E+00  0.00000000000E+00  0.21116642780E+04  0.21116642780E+04  0.00000000000E+00 0.  1.
         -1   -1    0    0    0  501 -0.00000000000E+00 -0.00000000000E+00 -0.19099108735E+04  0.19099108735E+04  0.00000000000E+00 0. -1.
         23    2    1    2    0    0 -0.14996201550E+04  0.11029364308E+04  0.50212093610E+03  0.19303097816E+04  0.92957186785E+02 0.  0.
        254    2    1    2    0    0  0.14996201550E+04 -0.11029364308E+04 -0.30036753156E+03  0.20912653699E+04  0.90434551675E+03 0.  0.
         23    2    4    4    0    0  0.16004714724E+04 -0.96054890883E+03 -0.30940613020E+03  0.18942797955E+04  0.91655060657E+02 0.  0.
         23    2    4    4    0    0 -0.10085131735E+03 -0.14238752197E+03  0.90385986365E+01  0.19698557441E+03  0.90974862665E+02 0.  0.
          4    1    3    3  502    0 -0.12139159777E+04  0.88853955326E+03  0.36762036275E+03  0.15486249610E+04  0.00000000000E+00 0. -1.
         -4    1    3    3    0  502 -0.28570417734E+03  0.21439687754E+03  0.13450057335E+03  0.38168482061E+03  0.00000000000E+00 0.  1.
         11    1    5    5    0    0  0.47653042524E+02 -0.13237583166E+02 -0.18353025523E+01  0.49491558930E+02  0.00000000000E+00 0. -1.
        -11    1    5    5    0    0  0.15528184299E+04 -0.94731132566E+03 -0.30757082765E+03  0.18447882366E+04  0.00000000000E+00 0.  1.
          1    1    6    6  503    0  0.64807130628E+01 -0.31853658516E+02  0.26485034802E+02  0.41929849405E+02  0.00000000000E+00 0. -1.
         -1    1    6    6    0  503 -0.10733203041E+03 -0.11053386346E+03 -0.17446436166E+02  0.15505572501E+03  0.00000000000E+00 0.  1.
<mgrwt>
<rscale>  0 0.40165112E+04</rscale>
<asrwt>0</asrwt>
<pdfrwt beam="1">  1        1 0.32487143E+00 0.40165112E+04</pdfrwt>
<pdfrwt beam="2">  1       -1 0.29383244E+00 0.40165112E+04</pdfrwt>
<totfact> 0.70819575E-02</totfact>
</mgrwt>
</event>
<event>
12    2  0.3623523E-008  0.1256147E+04  0.7818608E-02  0.9065082E-01
          2   -1    0    0  501    0  0.00000000000E+00  0.00000000000E+00  0.22905291409E+04  0.22905291409E+04  0.00000000000E+00 0.  1.
         -2   -1    0    0    0  501 -0.00000000000E+00 -0.00000000000E+00 -0.17222066931E+03  0.17222066931E+03  0.00000000000E+00 0. -1.
         23    2    1    2    0    0 -0.20092225737E+03  0.14067568105E+02  0.10624357544E+03  0.24821302246E+03  0.98764149456E+02 0.  0.
        254    2    1    2    0    0  0.20092225737E+03 -0.14067568105E+02  0.20120648961E+04  0.22145367877E+04  0.90288448209E+03 0.  0.
         23    2    4    4    0    0 -0.33147273566E+03 -0.13788770967E+03  0.74619429053E+03  0.83272722069E+03  0.87985850565E+02 0.  0.
         23    2    4    4    0    0  0.53239499302E+03  0.12382014157E+03  0.12658706056E+04  0.13818095670E+04  0.90517586100E+02 0.  0.
          3    1    3    3  502    0 -0.14514744634E+03 -0.26311460330E+02  0.40408775811E+02  0.15294751808E+03  0.00000000000E+00 0. -1.
         -3    1    3    3    0  502 -0.55774811028E+02  0.40379028435E+02  0.65834799633E+02  0.95265504383E+02  0.00000000000E+00 0.  1.
         11    1    5    5    0    0 -0.29839972326E+03 -0.14394058747E+03  0.70901050820E+03  0.78259644026E+03  0.00000000000E+00 0.  1.
        -11    1    5    5    0    0 -0.33073012395E+02  0.60528778027E+01  0.37183782325E+02  0.50130780431E+02  0.00000000000E+00 0. -1.
          1    1    6    6  503    0  0.83991385236E+02 -0.66274808875E+01  0.14772722595E+03  0.17006413373E+03  0.00000000000E+00 0. -1.
         -1    1    6    6    0  503  0.44840360779E+03  0.13044762245E+03  0.11181433797E+04  0.12117454333E+04  0.00000000000E+00 0.  1.
<mgrwt>
<rscale>  0 0.12561472E+04</rscale>
<asrwt>0</asrwt>
<pdfrwt beam="1">  1        2 0.35238908E+00 0.12561472E+04</pdfrwt>
<pdfrwt beam="2">  1       -2 0.26495489E-01 0.12561472E+04</pdfrwt>
<totfact> 0.58415684E+01</totfact>
</mgrwt>
</event>
<event>
12    2  0.3623523E-008  0.2204126E+04  0.7818608E-02  0.8516713E-01
         -2   -1    0    0    0  501 -0.00000000000E+00  0.00000000000E+00  0.45046298219E+03  0.45046298219E+03  0.00000000000E+00 0.  1.
          2   -1    0    0  501    0  0.00000000000E+00 -0.00000000000E+00 -0.26962092101E+04  0.26962092101E+04  0.00000000000E+00 0. -1.
         23    2    1    2    0    0  0.68675345047E+03  0.31503249423E+02 -0.71496897520E+02  0.69721718046E+03  0.91527230460E+02 0.  0.
        254    2    1    2    0    0 -0.68675345047E+03 -0.31503249423E+02 -0.21742493304E+04  0.24494550118E+04  0.89434162817E+03 0.  0.
         23    2    4    4    0    0 -0.87075552919E+03 -0.10854267445E+03 -0.15037406186E+04  0.17440485500E+04  0.10233666394E+03 0.  0.
         23    2    4    4    0    0  0.18400207873E+03  0.77039425029E+02 -0.67050871175E+03  0.70540646185E+03  0.90689061631E+02 0.  0.
          3    1    3    3  502    0  0.54233772138E+02 -0.14988212271E+02  0.11959859257E+02  0.57523793172E+02  0.00000000000E+00 0. -1.
         -3    1    3    3    0  502  0.63251967833E+03  0.46491461694E+02 -0.83456756777E+02  0.63969338729E+03  0.00000000000E+00 0.  1.
         11    1    5    5    0    0 -0.15777457061E+03 -0.73723403032E+01 -0.20225842151E+03  0.25662352893E+03  0.00000000000E+00 0.  1.
        -11    1    5    5    0    0 -0.71298095858E+03 -0.10117033415E+03 -0.13014821971E+04  0.14874250211E+04  0.00000000000E+00 0. -1.
          1    1    6    6  503    0  0.12547298480E+03  0.35214399139E+02 -0.54849951744E+03  0.56376878634E+03  0.00000000000E+00 0. -1.
         -1    1    6    6    0  503  0.58529093926E+02  0.41825025890E+02 -0.12200919431E+03  0.14163767550E+03  0.00000000000E+00 0.  1.
<mgrwt>
<rscale>  0 0.22041256E+04</rscale>
<asrwt>0</asrwt>
<pdfrwt beam="1">  1        2 0.41480141E+00 0.22041256E+04</pdfrwt>
<pdfrwt beam="2">  1       -2 0.69301998E-01 0.22041256E+04</pdfrwt>
<totfact> 0.46362930E+00</totfact>
</mgrwt>
</event>
<event>
12    2  0.3623523E-008  0.1520535E+04  0.7818608E-02  0.8870911E-01
          2   -1    0    0  501    0  0.00000000000E+00  0.00000000000E+00  0.21388692197E+04  0.21388692197E+04  0.00000000000E+00 0. -1.
         -2   -1    0    0    0  501 -0.00000000000E+00 -0.00000000000E+00 -0.27023952256E+03  0.27023952256E+03  0.00000000000E+00 0.  1.
         23    2    1    2    0    0 -0.91819609539E+02  0.13606956039E+03 -0.83860516030E+02  0.20583783639E+03  0.91601652711E+02 0.  0.
        254    2    1    2    0    0  0.91819609539E+02 -0.13606956039E+03  0.19524902132E+04  0.22032709059E+04  0.10075906342E+04 0.  0.
         23    2    4    4    0    0 -0.35709822563E+03  0.20676230960E+03  0.10790925151E+04  0.11590474669E+04  0.93169624665E+02 0.  0.
         23    2    4    4    0    0  0.44891783517E+03 -0.34283186999E+03  0.87339769801E+03  0.10442234389E+04  0.92293757594E+02 0.  0.
          3    1    3    3  502    0 -0.48912648229E+02  0.12200789084E+02 -0.35896654241E+00  0.50412649881E+02  0.00000000000E+00 0. -1.
         -3    1    3    3    0  502 -0.42906961310E+02  0.12386877131E+03 -0.83501549488E+02  0.15542518651E+03  0.00000000000E+00 0.  1.
         11    1    5    5    0    0 -0.11715816070E+03  0.11704434593E+03  0.38083035142E+03  0.41527962880E+03  0.00000000000E+00 0.  1.
        -11    1    5    5    0    0 -0.23994006493E+03  0.89717963668E+02  0.69826216373E+03  0.74376783815E+03  0.00000000000E+00 0. -1.
          2    1    6    6  503    0  0.93674211218E+02 -0.31007574385E+02  0.17500665660E+03  0.20090708641E+03  0.00000000000E+00 0. -1.
         -2    1    6    6    0  503  0.35524362396E+03 -0.31182429560E+03  0.69839104141E+03  0.84331635251E+03  0.00000000000E+00 0.  1.
<mgrwt>
<rscale>  0 0.15205354E+04</rscale>
<asrwt>0</asrwt>
<pdfrwt beam="1">  1        2 0.32905679E+00 0.15205354E+04</pdfrwt>
<pdfrwt beam="2">  1       -2 0.41575313E-01 0.15205354E+04</pdfrwt>
<totfact> 0.29575718E+01</totfact>
</mgrwt>
</event>
<event>
12    2  0.3623523E-008  0.2256509E+04  0.7818608E-02  0.8495269E-01
          2   -1    0    0  501    0  0.00000000000E+00  0.00000000000E+00  0.10731412299E+04  0.10731412299E+04  0.00000000000E+00 0. -1.
         -2   -1    0    0    0  501 -0.00000000000E+00 -0.00000000000E+00 -0.11861978303E+04  0.11861978303E+04  0.00000000000E+00 0.  1.
         23    2    1    2    0    0 -0.58802553342E+03  0.61105344784E+03  0.36660677371E+03  0.92837152698E+03  0.91174675815E+02 0.  0.
        254    2    1    2    0    0  0.58802553342E+03 -0.61105344784E+03 -0.47966337414E+03  0.13309675332E+04  0.90677300238E+03 0.  0.
         23    2    4    4    0    0  0.32208243281E+03 -0.34208186504E+03 -0.72703720596E+03  0.87043057164E+03  0.91154732660E+02 0.  0.
         23    2    4    4    0    0  0.26594310061E+03 -0.26897158280E+03  0.24737383182E+03  0.46053696155E+03  0.88481835208E+02 0.  0.
          2    1    3    3  502    0 -0.40783376851E+03  0.36571416008E+03  0.25393566889E+03  0.60378684447E+03  0.00000000000E+00 0. -1.
         -2    1    3    3    0  502 -0.18019176491E+03  0.24533928776E+03  0.11267110482E+03  0.32458468252E+03  0.00000000000E+00 0.  1.
         11    1    5    5    0    0  0.13729799513E+02 -0.24571475113E+02 -0.14609416476E+02  0.31712770829E+02  0.00000000000E+00 0.  1.
        -11    1    5    5    0    0  0.30835263330E+03 -0.31751038992E+03 -0.71242778949E+03  0.83871780081E+03  0.00000000000E+00 0. -1.
          4    1    6    6  503    0  0.18000401396E+03 -0.20596037078E+03  0.21860946621E+03  0.35015884694E+03  0.00000000000E+00 0. -1.
         -4    1    6    6    0  503  0.85939086647E+02 -0.63011212025E+02  0.28764365609E+02  0.11037811460E+03  0.00000000000E+00 0.  1.
<mgrwt>
<rscale>  0 0.22565086E+04</rscale>
<asrwt>0</asrwt>
<pdfrwt beam="1">  1        2 0.16509865E+00 0.22565086E+04</pdfrwt>
<pdfrwt beam="2">  1       -2 0.18249197E+00 0.22565086E+04</pdfrwt>
<totfact> 0.35897690E+00</totfact>
</mgrwt>
</event>
<event>
12    2  0.3623523E-008  0.1860208E+04  0.7818608E-02  0.8674921E-01
          2   -1    0    0  501    0  0.00000000000E+00  0.00000000000E+00  0.29423517386E+04  0.29423517386E+04  0.00000000000E+00 0. -1.
         -2   -1    0    0    0  501 -0.00000000000E+00 -0.00000000000E+00 -0.29401435138E+03  0.29401435138E+03  0.00000000000E+00 0.  1.
         23    2    1    2    0    0  0.51322394643E+01  0.97804655195E+02 -0.20295272392E+03  0.24380388723E+03  0.93050721765E+02 0.  0.
        254    2    1    2    0    0 -0.51322394643E+01 -0.97804655195E+02  0.28512901111E+04  0.29925622028E+04  0.90331674900E+03 0.  0.
         23    2    4    4    0    0 -0.19512857430E+03  0.30777654872E+03  0.19051273476E+04  0.19416976867E+04  0.88758840320E+02 0.  0.
         23    2    4    4    0    0  0.18999633484E+03 -0.40558120391E+03  0.94616276357E+03  0.10508645160E+04  0.92182078870E+02 0.  0.
          3    1    3    3  502    0 -0.33946130096E+02  0.61159820993E+01 -0.65382617160E+02  0.73923146660E+02  0.00000000000E+00 0. -1.
         -3    1    3    3    0  502  0.39078369561E+02  0.91688673095E+02 -0.13757010676E+03  0.16988074057E+03  0.00000000000E+00 0.  1.
         11    1    5    5    0    0 -0.11971920163E+03  0.24403934245E+03  0.15200599817E+04  0.15441729942E+04  0.00000000000E+00 0.  1.
        -11    1    5    5    0    0 -0.75409372670E+02  0.63737206271E+02  0.38506736587E+03  0.39752469258E+03  0.00000000000E+00 0. -1.
          4    1    6    6  503    0  0.90471528281E+00 -0.68147860629E+02  0.10725425595E+03  0.12707645273E+03  0.00000000000E+00 0. -1.
         -4    1    6    6    0  503  0.18909161955E+03 -0.33743334328E+03  0.83890850762E+03  0.92378806330E+03  0.00000000000E+00 0.  1.
<mgrwt>
<rscale>  0 0.18602082E+04</rscale>
<asrwt>0</asrwt>
<pdfrwt beam="1">  1        2 0.45266948E+00 0.18602082E+04</pdfrwt>
<pdfrwt beam="2">  1       -2 0.45232979E-01 0.18602082E+04</pdfrwt>
<totfact> 0.82617428E+00</totfact>
</mgrwt>
</event>
<event>
12    2  0.3623523E-008  0.1844135E+04  0.7818608E-02  0.8683175E-01
         -1   -1    0    0    0  501 -0.00000000000E+00  0.00000000000E+00  0.67439955466E+03  0.67439955466E+03  0.00000000000E+00 0.  1.
          1   -1    0    0  501    0  0.00000000000E+00 -0.00000000000E+00 -0.12606895763E+04  0.12606895763E+04  0.00000000000E+00 0. -1.
         23    2    1    2    0    0 -0.39058512991E+03  0.42971954177E+03 -0.65945616637E+03  0.88362379087E+03  0.93235938102E+02 0.  0.
        254    2    1    2    0    0  0.39058512991E+03 -0.42971954177E+03  0.73166144733E+02  0.10514653401E+04  0.87350469282E+03 0.  0.
         23    2    4    4    0    0  0.16379946622E+03  0.25541323911E+03  0.70837172045E+02  0.32397750938E+03  0.88754345208E+02 0.  0.
         23    2    4    4    0    0  0.22678566369E+03 -0.68513278088E+03  0.23289726879E+01  0.72748783070E+03  0.91621258553E+02 0.  0.
          4    1    3    3  502    0 -0.20876747340E+02  0.31320823669E+02 -0.84124554228E+02  0.92161668815E+02  0.00000000000E+00 0. -1.
         -4    1    3    3    0  502 -0.36970838257E+03  0.39839871810E+03 -0.57533161214E+03  0.79146212206E+03  0.00000000000E+00 0.  1.
         11    1    5    5    0    0  0.15777226435E+03  0.26095067622E+03  0.60652620717E+02  0.31091169682E+03  0.00000000000E+00 0. -1.
        -11    1    5    5    0    0  0.60272018703E+01 -0.55374371103E+01  0.10184551329E+02  0.13065812562E+02  0.00000000000E+00 0.  1.
          3    1    6    6  503    0  0.19335003936E+03 -0.57486646149E+03  0.35604053569E+02  0.60755521140E+03  0.00000000000E+00 0. -1.
         -3    1    6    6    0  503  0.33435624329E+02 -0.11026631939E+03 -0.33275080882E+02  0.11993261930E+03  0.00000000000E+00 0.  1.
<mgrwt>
<rscale>  0 0.18441350E+04</rscale>
<asrwt>0</asrwt>
<pdfrwt beam="1">  1        1 0.19395224E+00 0.18441350E+04</pdfrwt>
<pdfrwt beam="2">  1       -1 0.10375378E+00 0.18441350E+04</pdfrwt>
<totfact> 0.79444574E+00</totfact>
</mgrwt>
</event>
<event>
12    2  0.3623523E-008  0.1399890E+04  0.7818608E-02  0.8953898E-01
         -3   -1    0    0    0  501 -0.00000000000E+00  0.00000000000E+00  0.26785434460E+04  0.26785434460E+04  0.00000000000E+00 0.  1.
          3   -1    0    0  501    0  0.00000000000E+00 -0.00000000000E+00 -0.18290656963E+03  0.18290656963E+03  0.00000000000E+00 0. -1.
         23    2    1    2    0    0  0.28338914830E+03 -0.12024838754E+03  0.22028949683E+03  0.38913493057E+03  0.90163449865E+02 0.  0.
        254    2    1    2    0    0 -0.28338914830E+03  0.12024838754E+03  0.22753473796E+04  0.24723150851E+04  0.91671538561E+03 0.  0.
         23    2    4    4    0    0 -0.11967932111E+03  0.46761028241E+03  0.74898738863E+03  0.89584119386E+03  0.92557118515E+02 0.  0.
         23    2    4    4    0    0 -0.16370982719E+03 -0.34736189486E+03  0.15263599909E+04  0.15764738912E+04  0.89632105154E+02 0.  0.
          3    1    3    3  502    0  0.28551911978E+03 -0.10341018451E+03  0.20599772471E+03  0.36694672176E+03  0.00000000000E+00 0. -1.
         -3    1    3    3    0  502 -0.21299714839E+01 -0.16838203028E+02  0.14291772116E+02  0.22188208805E+02  0.00000000000E+00 0.  1.
         11    1    5    5    0    0 -0.38564040194E+02  0.48771516794E+02  0.66970575748E+02  0.91383281089E+02  0.00000000000E+00 0. -1.
        -11    1    5    5    0    0 -0.81115280920E+02  0.41883876561E+03  0.68201681288E+03  0.80445791277E+03  0.00000000000E+00 0.  1.
          3    1    6    6  503    0 -0.65250047574E+01 -0.18095750271E+01  0.48729199597E+01  0.83423976048E+01  0.00000000000E+00 0. -1.
         -3    1    6    6    0  503 -0.15718482243E+03 -0.34555231983E+03  0.15214870710E+04  0.15681314936E+04  0.00000000000E+00 0.  1.
<mgrwt>
<rscale>  0 0.13998903E+04</rscale>
<asrwt>0</asrwt>
<pdfrwt beam="1">  1        3 0.28139474E-01 0.13998903E+04</pdfrwt>
<pdfrwt beam="2">  1       -3 0.41208358E+00 0.13998903E+04</pdfrwt>
<totfact> 0.28733389E-01</totfact>
</mgrwt>
</event>
<event>
12    2  0.3623523E-008  0.1572296E+04  0.7818608E-02  0.8837751E-01
         -2   -1    0    0    0  501 -0.00000000000E+00  0.00000000000E+00  0.71000305987E+03  0.71000305987E+03  0.00000000000E+00 0.  1.
          2   -1    0    0  501    0  0.00000000000E+00 -0.00000000000E+00 -0.87045909232E+03  0.87045909232E+03  0.00000000000E+00 0. -1.
         23    2    1    2    0    0 -0.34994935464E+03 -0.23978213918E+03 -0.36251639066E+03  0.56770543854E+03  0.10445719873E+03 0.  0.
        254    2    1    2    0    0  0.34994935464E+03  0.23978213918E+03  0.20206035820E+03  0.10127567137E+04  0.89715536426E+03 0.  0.
         23    2    4    4    0    0 -0.15660828636E+03 -0.69754759826E+02  0.34362244054E+03  0.39557046866E+03  0.94909073122E+02 0.  0.
         23    2    4    4    0    0  0.50655764100E+03  0.30953689900E+03 -0.14156208233E+03  0.61718624500E+03  0.92007077797E+02 0.  0.
          1    1    3    3  502    0 -0.22197702249E+03 -0.12138718415E+03 -0.27123842212E+03  0.37091633642E+03  0.00000000000E+00 0. -1.
         -1    1    3    3    0  502 -0.12797233215E+03 -0.11839495503E+03 -0.91277968542E+02  0.19678910212E+03  0.00000000000E+00 0.  1.
         11    1    5    5    0    0 -0.48775109583E+02 -0.19590256499E+02  0.30843266756E+02  0.60943388228E+02  0.00000000000E+00 0.  1.
        -11    1    5    5    0    0 -0.10783317678E+03 -0.50164503328E+02  0.31277917378E+03  0.33462708043E+03  0.00000000000E+00 0. -1.
          1    1    6    6  503    0  0.40509097588E+03  0.25106742152E+03 -0.74901174058E+02  0.48243521302E+03  0.00000000000E+00 0. -1.
         -1    1    6    6    0  503  0.10146666512E+03  0.58469477480E+02 -0.66660908273E+02  0.13475103198E+03  0.00000000000E+00 0.  1.
<mgrwt>
<rscale>  0 0.15722959E+04</rscale>
<asrwt>0</asrwt>
<pdfrwt beam="1">  1        2 0.13391678E+00 0.15722959E+04</pdfrwt>
<pdfrwt beam="2">  1       -2 0.10923124E+00 0.15722959E+04</pdfrwt>
<totfact> 0.19728443E+01</totfact>
</mgrwt>
</event>
<event>
12    2  0.3623523E-008  0.1427961E+04  0.7818608E-02  0.8933824E-01
          1   -1    0    0  501    0  0.00000000000E+00  0.00000000000E+00  0.19048979177E+04  0.19048979177E+04  0.00000000000E+00 0. -1.
         -1   -1    0    0    0  501 -0.00000000000E+00 -0.00000000000E+00 -0.26760909141E+03  0.26760909141E+03  0.00000000000E+00 0.  1.
         23    2    1    2    0    0  0.33708745724E+01  0.12057270080E+03  0.11163629539E+04  0.11265219864E+04  0.90754624528E+02 0.  0.
        254    2    1    2    0    0 -0.33708745724E+01 -0.12057270080E+03  0.52092587236E+03  0.10459850227E+04  0.89898373975E+03 0.  0.
         23    2    4    4    0    0 -0.40376857708E+02 -0.17288955142E+03  0.75757781608E+03  0.78456900693E+03  0.10051513109E+03 0.  0.
         23    2    4    4    0    0  0.37005983136E+02  0.52316850624E+02 -0.23665194373E+03  0.26141601581E+03  0.90706643670E+02 0.  0.
          2    1    3    3  502    0 -0.42138377695E+02  0.75518157485E+02  0.68296694002E+03  0.68842027581E+03  0.00000000000E+00 0. -1.
         -2    1    3    3    0  502  0.45509252267E+02  0.45054543315E+02  0.43339601392E+03  0.43810171057E+03  0.00000000000E+00 0.  1.
         11    1    5    5    0    0 -0.14892387667E+02 -0.57938532378E+02  0.47044129574E+03  0.47422955358E+03  0.00000000000E+00 0. -1.
        -11    1    5    5    0    0 -0.25484470041E+02 -0.11495101905E+03  0.28713652034E+03  0.31033945335E+03  0.00000000000E+00 0.  1.
          2    1    6    6  503    0  0.41031417444E+02  0.70431177025E+02 -0.13205526181E+03  0.15518608213E+03  0.00000000000E+00 0.  1.
         -2    1    6    6    0  503 -0.40254343076E+01 -0.18114326401E+02 -0.10459668192E+03  0.10622993368E+03  0.00000000000E+00 0. -1.
<mgrwt>
<rscale>  0 0.14279608E+04</rscale>
<asrwt>0</asrwt>
<pdfrwt beam="1">  1        1 0.29306121E+00 0.14279608E+04</pdfrwt>
<pdfrwt beam="2">  1       -1 0.41170631E-01 0.14279608E+04</pdfrwt>
<totfact> 0.19442138E+01</totfact>
</mgrwt>
</event>
<event>
12    2  0.3623523E-008  0.2748876E+04  0.7818608E-02  0.8319319E-01
          2   -1    0    0  501    0  0.00000000000E+00  0.00000000000E+00  0.16268505233E+04  0.16268505233E+04  0.00000000000E+00 0. -1.
         -2   -1    0    0    0  501 -0.00000000000E+00 -0.00000000000E+00 -0.11611879362E+04  0.11611879362E+04  0.00000000000E+00 0.  1.
         23    2    1    2    0    0 -0.73104768518E+02 -0.19249918620E+03 -0.10189929509E+04  0.10434587222E+04  0.89773198465E+02 0.  0.
        254    2    1    2    0    0  0.73104768518E+02  0.19249918620E+03  0.14846555380E+04  0.17445797374E+04  0.89272400535E+03 0.  0.
         23    2    4    4    0    0 -0.75301418131E+02  0.49951808370E+03  0.11447843335E+04  0.12545841333E+04  0.90893112411E+02 0.  0.
         23    2    4    4    0    0  0.14840618665E+03 -0.30701889751E+03  0.33987120452E+03  0.48999560407E+03  0.91094767608E+02 0.  0.
          1    1    3    3  502    0  0.84962046191E+01 -0.56129951009E+02 -0.41683947569E+03  0.42068742005E+03  0.00000000000E+00 0. -1.
         -1    1    3    3    0  502 -0.81600973137E+02 -0.13636923519E+03 -0.60215347519E+03  0.62277130217E+03  0.00000000000E+00 0.  1.
         11    1    5    5    0    0 -0.15690582651E+02  0.13226129958E+03  0.21238939568E+03  0.25069603337E+03  0.00000000000E+00 0. -1.
        -11    1    5    5    0    0 -0.59610835480E+02  0.36725678413E+03  0.93239493777E+03  0.10038880999E+04  0.00000000000E+00 0.  1.
          1    1    6    6  503    0 -0.12695326458E+02 -0.17255088673E+02  0.21215295200E+02  0.30149596173E+02  0.00000000000E+00 0. -1.
         -1    1    6    6    0  503  0.16110151311E+03 -0.28976380883E+03  0.31865590932E+03  0.45984600790E+03  0.00000000000E+00 0.  1.
<mgrwt>
<rscale>  0 0.27488756E+04</rscale>
<asrwt>0</asrwt>
<pdfrwt beam="1">  1        2 0.25028470E+00 0.27488756E+04</pdfrwt>
<pdfrwt beam="2">  1       -2 0.17864430E+00 0.27488756E+04</pdfrwt>
<totfact> 0.17444863E+00</totfact>
</mgrwt>
</event>
<event>
12    2  0.3623523E-008  0.1810573E+04  0.7818608E-02  0.8700697E-01
          2   -1    0    0  501    0  0.00000000000E+00  0.00000000000E+00  0.68645348693E+03  0.68645348693E+03  0.00000000000E+00 0. -1.
         -2   -1    0    0    0  501 -0.00000000000E+00 -0.00000000000E+00 -0.11938806518E+04  0.11938806518E+04  0.00000000000E+00 0.  1.
         23    2    1    2    0    0 -0.34652471267E+03  0.52254469577E+03  0.68401837940E+02  0.63707283028E+03  0.89725381489E+02 0.  0.
        254    2    1    2    0    0  0.34652471267E+03 -0.52254469577E+03 -0.57582900283E+03  0.12432613085E+04  0.90608349786E+03 0.  0.
         23    2    4    4    0    0 -0.15657130257E+03 -0.46743037891E+03 -0.42811414192E+02  0.50241379478E+03  0.87069352184E+02 0.  0.
         23    2    4    4    0    0  0.50309601523E+03 -0.55114316857E+02 -0.53301758864E+03  0.74084751369E+03  0.92758289572E+02 0.  0.
          4    1    3    3  502    0 -0.24460557183E+03  0.35319632153E+03  0.55326906690E+01  0.42966281893E+03  0.00000000000E+00 0. -1.
         -4    1    3    3    0  502 -0.10191914084E+03  0.16934837424E+03  0.62869147271E+02  0.20741001134E+03  0.00000000000E+00 0.  1.
         11    1    5    5    0    0 -0.14753858030E+03 -0.31848968399E+03 -0.38851374125E+02  0.35314691101E+03  0.00000000000E+00 0.  1.
        -11    1    5    5    0    0 -0.90327222707E+01 -0.14894069492E+03 -0.39600400669E+01  0.14926688377E+03  0.00000000000E+00 0. -1.
          3    1    6    6  503    0  0.24935602105E+03 -0.73391032170E+02 -0.25887953638E+03  0.36685594338E+03  0.00000000000E+00 0. -1.
         -3    1    6    6    0  503  0.25373999418E+03  0.18276715313E+02 -0.27413805226E+03  0.37399157031E+03  0.00000000000E+00 0.  1.
<mgrwt>
<rscale>  0 0.18105729E+04</rscale>
<asrwt>0</asrwt>
<pdfrwt beam="1">  1        2 0.10560823E+00 0.18105729E+04</pdfrwt>
<pdfrwt beam="2">  1       -2 0.18367394E+00 0.18105729E+04</pdfrwt>
<totfact> 0.67724182E+00</totfact>
</mgrwt>
</event>
<event>
12    2  0.3623523E-008  0.2780919E+04  0.7818608E-02  0.8309217E-01
          1   -1    0    0  501    0  0.00000000000E+00  0.00000000000E+00  0.88412354733E+03  0.88412354733E+03  0.00000000000E+00 0. -1.
         -1   -1    0    0    0  501 -0.00000000000E+00 -0.00000000000E+00 -0.21867733088E+04  0.21867733088E+04  0.00000000000E+00 0.  1.
         23    2    1    2    0    0 -0.80986581429E+03  0.93231184564E+03 -0.43750800365E+03  0.13133675518E+04  0.91831683857E+02 0.  0.
        254    2    1    2    0    0  0.80986581429E+03 -0.93231184564E+03 -0.86514175780E+03  0.17575293043E+04  0.90296787308E+03 0.  0.
         23    2    4    4    0    0  0.88232315610E+03 -0.75126630220E+03 -0.97111186277E+03  0.15144871535E+04  0.87851463012E+02 0.  0.
         23    2    4    4    0    0 -0.72457341805E+02 -0.18104554343E+03  0.10597010496E+03  0.24304215081E+03  0.99056896519E+02 0.  0.
          1    1    3    3  502    0 -0.11861406627E+03  0.12008016323E+03 -0.29035921975E+02  0.17126478646E+03  0.00000000000E+00 0. -1.
         -1    1    3    3    0  502 -0.69125174802E+03  0.81223168241E+03 -0.40847208168E+03  0.11421027653E+04  0.00000000000E+00 0.  1.
         11    1    5    5    0    0  0.86607470515E+03 -0.74219802466E+03 -0.96721479246E+03  0.14954757629E+04  0.00000000000E+00 0. -1.
        -11    1    5    5    0    0  0.16248450946E+02 -0.90682775430E+01 -0.38970703096E+01  0.19011390605E+02  0.00000000000E+00 0.  1.
          4    1    6    6  503    0 -0.53942267032E+02 -0.16551964949E+03  0.48528208758E+02  0.18072495563E+03  0.00000000000E+00 0. -1.
         -4    1    6    6    0  503 -0.18515074773E+02 -0.15525893942E+02  0.57441896206E+02  0.62317195190E+02  0.00000000000E+00 0.  1.
<mgrwt>
<rscale>  0 0.27809191E+04</rscale>
<asrwt>0</asrwt>
<pdfrwt beam="1">  1        1 0.13601901E+00 0.27809191E+04</pdfrwt>
<pdfrwt beam="2">  1       -1 0.33642666E+00 0.27809191E+04</pdfrwt>
<totfact> 0.31060621E-01</totfact>
</mgrwt>
</event>
<event>
12    2  0.3623523E-008  0.3188260E+04  0.7818608E-02  0.8191924E-01
         -2   -1    0    0    0  501 -0.00000000000E+00  0.00000000000E+00  0.94155043409E+03  0.94155043409E+03  0.00000000000E+00 0.  1.
          2   -1    0    0  501    0  0.00000000000E+00 -0.00000000000E+00 -0.26990066886E+04  0.26990066886E+04  0.00000000000E+00 0. -1.
         23    2    1    2    0    0 -0.40467282242E+03 -0.12812358548E+04 -0.13994903683E+03  0.13542526469E+04  0.95336717484E+02 0.  0.
        254    2    1    2    0    0  0.40467282242E+03  0.12812358548E+04 -0.16175072176E+04  0.22863044758E+04  0.89751498478E+03 0.  0.
         23    2    4    4    0    0 -0.20025604472E+03  0.26018639722E+03 -0.71613214488E+03  0.79325071147E+03  0.92746954497E+02 0.  0.
         23    2    4    4    0    0  0.60492886714E+03  0.10210494576E+04 -0.90137507275E+03  0.14930537643E+04  0.90838274421E+02 0.  0.
          1    1    3    3  502    0 -0.15059777005E+03 -0.46605715275E+03 -0.97134995004E+02  0.49932370786E+03  0.00000000000E+00 0. -1.
         -1    1    3    3    0  502 -0.25407505237E+03 -0.81517870210E+03 -0.42814041830E+02  0.85492893902E+03  0.00000000000E+00 0.  1.
         11    1    5    5    0    0 -0.53177988615E+02  0.12316710656E+03 -0.21647413147E+03  0.25467446713E+03  0.00000000000E+00 0.  1.
        -11    1    5    5    0    0 -0.14707805611E+03  0.13701929066E+03 -0.49965801341E+03  0.53857624434E+03  0.00000000000E+00 0. -1.
          3    1    6    6  503    0  0.54701737360E+03  0.96726289644E+03 -0.84077160996E+03  0.13934570026E+04  0.00000000000E+00 0. -1.
         -3    1    6    6    0  503  0.57911493546E+02  0.53786561186E+02 -0.60603462793E+02  0.99596761752E+02  0.00000000000E+00 0.  1.
<mgrwt>
<rscale>  0 0.31882603E+04</rscale>
<asrwt>0</asrwt>
<pdfrwt beam="1">  1        2 0.41523180E+00 0.31882603E+04</pdfrwt>
<pdfrwt beam="2">  1       -2 0.14485391E+00 0.31882603E+04</pdfrwt>
<totfact> 0.73609757E-01</totfact>
</mgrwt>
</event>
<event>
12    2  0.3623523E-008  0.1323704E+04  0.7818608E-02  0.9010976E-01
         -2   -1    0    0    0  501 -0.00000000000E+00  0.00000000000E+00  0.41005351953E+03  0.41005351953E+03  0.00000000000E+00 0.  1.
          2   -1    0    0  501    0  0.00000000000E+00 -0.00000000000E+00 -0.10682706062E+04  0.10682706062E+04  0.00000000000E+00 0. -1.
         23    2    1    2    0    0 -0.63876969849E+02 -0.79771616539E+01  0.21105649921E+03  0.23853918142E+03  0.90621150015E+02 0.  0.
        254    2    1    2    0    0  0.63876969849E+02  0.79771616539E+01 -0.86927358587E+03  0.12397849443E+04  0.88163838314E+03 0.  0.
         23    2    4    4    0    0  0.10896612257E+03  0.41595289043E+03 -0.59039047668E+03  0.73576123048E+03  0.88843966622E+02 0.  0.
         23    2    4    4    0    0 -0.45089152718E+02 -0.40797572877E+03 -0.27888310919E+03  0.50402371381E+03  0.88243348390E+02 0.  0.
          3    1    3    3  502    0 -0.16194015041E+02 -0.18456931015E+01 -0.51178887000E+01  0.17083485912E+02  0.00000000000E+00 0. -1.
         -3    1    3    3    0  502 -0.47682954808E+02 -0.61314685523E+01  0.21617438791E+03  0.22145569551E+03  0.00000000000E+00 0.  1.
         11    1    5    5    0    0  0.93106615300E+02  0.33303252251E+03 -0.52641849780E+03  0.62983802496E+03  0.00000000000E+00 0. -1.
        -11    1    5    5    0    0  0.15859507267E+02  0.82920367915E+02 -0.63971978884E+02  0.10592320552E+03  0.00000000000E+00 0.  1.
          1    1    6    6  503    0 -0.19308367690E+02 -0.38437038206E+03 -0.25403738507E+03  0.46113815358E+03  0.00000000000E+00 0. -1.
         -1    1    6    6    0  503 -0.25780785028E+02 -0.23605346710E+02 -0.24845724112E+02  0.42885560234E+02  0.00000000000E+00 0.  1.
<mgrwt>
<rscale>  0 0.13237041E+04</rscale>
<asrwt>0</asrwt>
<pdfrwt beam="1">  1        2 0.16434932E+00 0.13237041E+04</pdfrwt>
<pdfrwt beam="2">  1       -2 0.63085159E-01 0.13237041E+04</pdfrwt>
<totfact> 0.51939457E+01</totfact>
</mgrwt>
</event>
<event>
12    2  0.3623523E-008  0.3274032E+04  0.7818608E-02  0.8169535E-01
          2   -1    0    0  501    0  0.00000000000E+00  0.00000000000E+00  0.14285831168E+04  0.14285831168E+04  0.00000000000E+00 0. -1.
         -2   -1    0    0    0  501 -0.00000000000E+00 -0.00000000000E+00 -0.18758592149E+04  0.18758592149E+04  0.00000000000E+00 0.  1.
         23    2    1    2    0    0 -0.86475264844E+03 -0.56167437045E+03  0.90967408586E+03  0.13780709628E+04  0.91090035355E+02 0.  0.
        254    2    1    2    0    0  0.86475264844E+03  0.56167437045E+03 -0.13569501839E+04  0.19263713690E+04  0.89795189639E+03 0.  0.
         23    2    4    4    0    0  0.64087381154E+02 -0.39611916005E+02 -0.73493283806E+03  0.74407859406E+03  0.88602377880E+02 0.  0.
         23    2    4    4    0    0  0.80066526728E+03  0.60128628645E+03 -0.62201734587E+03  0.11822927749E+04  0.91107401492E+02 0.  0.
          4    1    3    3  502    0 -0.73042390142E+03 -0.45536886156E+03  0.79672912597E+03  0.11728841273E+04  0.00000000000E+00 0. -1.
         -4    1    3    3    0  502 -0.13432874701E+03 -0.10630550889E+03  0.11294495989E+03  0.20518683549E+03  0.00000000000E+00 0.  1.
         11    1    5    5    0    0  0.43668696875E+02  0.90848578144E+01 -0.14299157954E+03  0.14978678696E+03  0.00000000000E+00 0.  1.
        -11    1    5    5    0    0  0.20418684279E+02 -0.48696773819E+02 -0.59194125852E+03  0.59429180710E+03  0.00000000000E+00 0. -1.
          3    1    6    6  503    0  0.70492611094E+03  0.54527097090E+03 -0.58182839520E+03  0.10643145846E+04  0.00000000000E+00 0. -1.
         -3    1    6    6    0  503  0.95739156342E+02  0.56015315553E+02 -0.40188950670E+02  0.11797819031E+03  0.00000000000E+00 0.  1.
<mgrwt>
<rscale>  0 0.32740316E+04</rscale>
<asrwt>0</asrwt>
<pdfrwt beam="1">  1        2 0.21978202E+00 0.32740316E+04</pdfrwt>
<pdfrwt beam="2">  1       -2 0.28859372E+00 0.32740316E+04</pdfrwt>
<totfact> 0.43528833E-01</totfact>
</mgrwt>
</event>
<event>
12    2  0.3623523E-008  0.1610261E+04  0.7818608E-02  0.8814269E-01
         -1   -1    0    0    0  501 -0.00000000000E+00  0.00000000000E+00  0.19312855934E+04  0.19312855934E+04  0.00000000000E+00 0.  1.
          1   -1    0    0  501    0  0.00000000000E+00 -0.00000000000E+00 -0.33564934198E+03  0.33564934198E+03  0.00000000000E+00 0. -1.
         23    2    1    2    0    0 -0.15625040695E+03 -0.12314547156E+03 -0.17054448054E+03  0.27759018355E+03  0.91607277677E+02 0.  0.
        254    2    1    2    0    0  0.15625040695E+03  0.12314547156E+03  0.17661807320E+04  0.19893447518E+04  0.89359899667E+03 0.  0.
         23    2    4    4    0    0  0.48034518625E+03  0.22043088426E+03  0.81213366272E+03  0.97333913454E+03  0.92231838407E+02 0.  0.
         23    2    4    4    0    0 -0.32409477930E+03 -0.97285412694E+02  0.95404706926E+03  0.10160056173E+04  0.86946687931E+02 0.  0.
          4    1    3    3  502    0 -0.13656066749E+03 -0.12725868307E+03 -0.17620515566E+03  0.25669406928E+03  0.00000000000E+00 0. -1.
         -4    1    3    3    0  502 -0.19689739463E+02  0.41132115079E+01  0.56606751178E+01  0.20896114276E+02  0.00000000000E+00 0.  1.
         11    1    5    5    0    0  0.15035959399E+03  0.11457784659E+03  0.31411336033E+03  0.36661054755E+03  0.00000000000E+00 0.  1.
        -11    1    5    5    0    0  0.32998559227E+03  0.10585303767E+03  0.49802030239E+03  0.60672858699E+03  0.00000000000E+00 0. -1.
          3    1    6    6  503    0 -0.14090423460E+03  0.20467355316E+01  0.39459664783E+03  0.41900442353E+03  0.00000000000E+00 0. -1.
         -3    1    6    6    0  503 -0.18319054470E+03 -0.99332148226E+02  0.55945042143E+03  0.59700119378E+03  0.00000000000E+00 0.  1.
<mgrwt>
<rscale>  0 0.16102605E+04</rscale>
<asrwt>0</asrwt>
<pdfrwt beam="1">  1        1 0.51638361E-01 0.16102605E+04</pdfrwt>
<pdfrwt beam="2">  1       -1 0.29712086E+00 0.16102605E+04</pdfrwt>
<totfact> 0.25058882E+00</totfact>
</mgrwt>
</event>
<event>
12    2  0.3623523E-008  0.2294096E+04  0.7818608E-02  0.8480253E-01
          2   -1    0    0  501    0  0.00000000000E+00  0.00000000000E+00  0.14441266364E+04  0.14441266364E+04  0.00000000000E+00 0. -1.
         -2   -1    0    0    0  501 -0.00000000000E+00 -0.00000000000E+00 -0.91108270090E+03  0.91108270090E+03  0.00000000000E+00 0.  1.
         23    2    1    2    0    0 -0.58603976785E+03 -0.34704184182E+03  0.93452362685E+03  0.11602886646E+04  0.95156326557E+02 0.  0.
        254    2    1    2    0    0  0.58603976785E+03  0.34704184182E+03 -0.40147969131E+03  0.11949206728E+04  0.89597367275E+03 0.  0.
         23    2    4    4    0    0  0.90820363829E+02  0.81458787054E+02 -0.57907284338E+03  0.59862498912E+03  0.90236617761E+02 0.  0.
         23    2    4    4    0    0  0.49521940402E+03  0.26558305476E+03  0.17759315207E+03  0.59629568367E+03  0.90843808857E+02 0.  0.
          1    1    3    3  502    0 -0.56344699739E+03 -0.35142348473E+03  0.89341059633E+03  0.11131727081E+04  0.00000000000E+00 0. -1.
         -1    1    3    3    0  502 -0.22592770459E+02  0.43816429099E+01  0.41113030522E+02  0.47115956430E+02  0.00000000000E+00 0.  1.
         11    1    5    5    0    0 -0.13527629300E+02  0.47369138686E+01 -0.19161548226E+02  0.23929062620E+02  0.00000000000E+00 0.  1.
        -11    1    5    5    0    0  0.10434799313E+03  0.76721873185E+02 -0.55991129515E+03  0.57469592650E+03  0.00000000000E+00 0. -1.
          2    1    6    6  503    0  0.47016797347E+03  0.24281413488E+03  0.14356170872E+03  0.54829425638E+03  0.00000000000E+00 0. -1.
         -2    1    6    6    0  503  0.25051430551E+02  0.22768919886E+02  0.34031443345E+02  0.48001427287E+02  0.00000000000E+00 0.  1.
<mgrwt>
<rscale>  0 0.22940957E+04</rscale>
<asrwt>0</asrwt>
<pdfrwt beam="1">  1        2 0.22217333E+00 0.22940957E+04</pdfrwt>
<pdfrwt beam="2">  1       -2 0.14016657E+00 0.22940957E+04</pdfrwt>
<totfact> 0.44354569E+00</totfact>
</mgrwt>
</event>
<event>
12    2  0.3623523E-008  0.1471478E+04  0.7818608E-02  0.8903644E-01
          2   -1    0    0  501    0  0.00000000000E+00  0.00000000000E+00  0.26504001555E+04  0.26504001555E+04  0.00000000000E+00 0. -1.
         -2   -1    0    0    0  501 -0.00000000000E+00 -0.00000000000E+00 -0.20423785551E+03  0.20423785551E+03  0.00000000000E+00 0.  1.
         23    2    1    2    0    0  0.11348757775E+02 -0.41727176294E+03  0.16149572826E+04  0.16705665985E+04  0.91984872297E+02 0.  0.
        254    2    1    2    0    0 -0.11348757775E+02  0.41727176294E+03  0.83120501732E+03  0.11840714125E+04  0.73272014485E+03 0.  0.
         23    2    4    4    0    0 -0.78804389448E+02  0.44019135635E+03  0.92437707687E+03  0.10308702315E+04  0.90784866333E+02 0.  0.
         23    2    4    4    0    0  0.67455631673E+02 -0.22919593412E+02 -0.93172059551E+02  0.15320118101E+03  0.98559622439E+02 0.  0.
          1    1    3    3  502    0 -0.20666055199E+02 -0.29122187681E+03  0.12323206080E+04  0.12664325281E+04  0.00000000000E+00 0. -1.
         -1    1    3    3    0  502  0.32014812974E+02 -0.12604988613E+03  0.38263667462E+03  0.40413407034E+03  0.00000000000E+00 0.  1.
         11    1    5    5    0    0 -0.11754261407E+02  0.24756914190E+03  0.57812114046E+03  0.62900929701E+03  0.00000000000E+00 0.  1.
        -11    1    5    5    0    0 -0.67050128041E+02  0.19262221445E+03  0.34625593642E+03  0.40186093450E+03  0.00000000000E+00 0. -1.
          1    1    6    6  503    0  0.28684293617E+02 -0.14471202287E+02  0.16824058468E+02  0.36266421650E+02  0.00000000000E+00 0. -1.
         -1    1    6    6    0  503  0.38771338056E+02 -0.84483911250E+01 -0.10999611802E+03  0.11693475936E+03  0.00000000000E+00 0.  1.
<mgrwt>
<rscale>  0 0.14714782E+04</rscale>
<asrwt>0</asrwt>
<pdfrwt beam="1">  1        2 0.40775385E+00 0.14714782E+04</pdfrwt>
<pdfrwt beam="2">  1       -2 0.31421210E-01 0.14714782E+04</pdfrwt>
<totfact> 0.25981026E+01</totfact>
</mgrwt>
</event>
<event>
12    2  0.3623523E-008  0.1556266E+04  0.7818608E-02  0.8847875E-01
          2   -1    0    0  501    0  0.00000000000E+00  0.00000000000E+00  0.25242513408E+04  0.25242513408E+04  0.00000000000E+00 0. -1.
         -2   -1    0    0    0  501 -0.00000000000E+00 -0.00000000000E+00 -0.23986960959E+03  0.23986960959E+03  0.00000000000E+00 0.  1.
         23    2    1    2    0    0  0.12200531988E+03  0.18067990661E+03 -0.37785005833E+02  0.23921752804E+03  0.90921902313E+02 0.  0.
        254    2    1    2    0    0 -0.12200531988E+03 -0.18067990661E+03  0.23221667370E+04  0.25249034223E+04  0.96703071866E+03 0.  0.
         23    2    4    4    0    0 -0.14140014786E+03 -0.29877211627E+03  0.23478934813E+04  0.23729139138E+04  0.94116222755E+02 0.  0.
         23    2    4    4    0    0  0.19394827973E+02  0.11809220966E+03 -0.25726744278E+02  0.15198950855E+03  0.90094483768E+02 0.  0.
          1    1    3    3  502    0  0.57354794715E+02  0.15673163288E+03 -0.20586129168E+02  0.16816113087E+03  0.00000000000E+00 0. -1.
         -1    1    3    3    0  502  0.64650525169E+02  0.23948273733E+02 -0.17198876665E+02  0.71056397164E+02  0.00000000000E+00 0.  1.
         11    1    5    5    0    0 -0.93152959646E+02 -0.26922066220E+03  0.20494227266E+04  0.20691280171E+04  0.00000000000E+00 0. -1.
        -11    1    5    5    0    0 -0.48247188211E+02 -0.29551454071E+02  0.29847075477E+03  0.30378589674E+03  0.00000000000E+00 0.  1.
          4    1    6    6  503    0  0.32743132376E+02  0.18835074592E+01 -0.44590703866E+01  0.33098997369E+02  0.00000000000E+00 0.  1.
         -4    1    6    6    0  503 -0.13348304403E+02  0.11620870220E+03 -0.21267673892E+02  0.11889051118E+03  0.00000000000E+00 0. -1.
<mgrwt>
<rscale>  0 0.15562663E+04</rscale>
<asrwt>0</asrwt>
<pdfrwt beam="1">  1        2 0.38834634E+00 0.15562663E+04</pdfrwt>
<pdfrwt beam="2">  1       -2 0.36903019E-01 0.15562663E+04</pdfrwt>
<totfact> 0.22490388E+01</totfact>
</mgrwt>
</event>
<event>
12    2  0.3623523E-008  0.2056410E+04  0.7818608E-02  0.8580692E-01
         -1   -1    0    0    0  501 -0.00000000000E+00  0.00000000000E+00  0.59309305750E+03  0.59309305750E+03  0.00000000000E+00 0.  1.
          1   -1    0    0  501    0  0.00000000000E+00 -0.00000000000E+00 -0.17825292192E+04  0.17825292192E+04  0.00000000000E+00 0. -1.
         23    2    1    2    0    0 -0.36800065980E+02 -0.52574120844E+03  0.22839987626E+03  0.58138877501E+03  0.89935205182E+02 0.  0.
        254    2    1    2    0    0  0.36800065980E+02  0.52574120844E+03 -0.14178360380E+04  0.17942335017E+04  0.96501645840E+03 0.  0.
         23    2    4    4    0    0  0.37899746634E+03  0.85848500422E+02 -0.18838789470E+03  0.44132870872E+03  0.90950457683E+02 0.  0.
         23    2    4    4    0    0 -0.34219740036E+03  0.43989270801E+03 -0.12294481433E+04  0.13529047930E+04  0.90575860647E+02 0.  0.
          4    1    3    3  502    0  0.26039626664E+02 -0.21207715286E+03  0.10965061622E+03  0.24016252530E+03  0.00000000000E+00 0. -1.
         -4    1    3    3    0  502 -0.62839692643E+02 -0.31366405557E+03  0.11874926005E+03  0.34122624971E+03  0.00000000000E+00 0.  1.
         11    1    5    5    0    0  0.33810251927E+03  0.90075200142E+02 -0.13758434139E+03  0.37597381054E+03  0.00000000000E+00 0. -1.
        -11    1    5    5    0    0  0.40894947068E+02 -0.42266997201E+01 -0.50803553317E+02  0.65354898178E+02  0.00000000000E+00 0.  1.
          2    1    6    6  503    0 -0.20565324341E+03  0.22592440131E+03 -0.76253717657E+03  0.82146091647E+03  0.00000000000E+00 0. -1.
         -2    1    6    6    0  503 -0.13654415695E+03  0.21396830670E+03 -0.46691096672E+03  0.53144387654E+03  0.00000000000E+00 0.  1.
<mgrwt>
<rscale>  0 0.20564102E+04</rscale>
<asrwt>0</asrwt>
<pdfrwt beam="1">  1        1 0.27423526E+00 0.20564102E+04</pdfrwt>
<pdfrwt beam="2">  1       -1 0.91245086E-01 0.20564102E+04</pdfrwt>
<totfact> 0.45285399E+00</totfact>
</mgrwt>
</event>
<event>
12    2  0.3623523E-008  0.1696182E+04  0.7818608E-02  0.8763545E-01
         -2   -1    0    0    0  501 -0.00000000000E+00  0.00000000000E+00  0.67576354790E+03  0.67576354790E+03  0.00000000000E+00 0.  1.
          2   -1    0    0  501    0  0.00000000000E+00 -0.00000000000E+00 -0.10643644571E+04  0.10643644571E+04  0.00000000000E+00 0. -1.
         23    2    1    2    0    0  0.39312618542E+03  0.28688140886E+03 -0.40217227604E+03  0.63825444661E+03  0.93685957235E+02 0.  0.
        254    2    1    2    0    0 -0.39312618542E+03 -0.28688140886E+03  0.13571366791E+02  0.11018735584E+04  0.98847964894E+03 0.  0.
         23    2    4    4    0    0  0.44976528905E+02 -0.56285915214E+03 -0.40797334491E+02  0.57334665558E+03  0.90711915805E+02 0.  0.
         23    2    4    4    0    0 -0.43810271433E+03  0.27597774327E+03  0.54368701283E+02  0.52852690285E+03  0.91033116367E+02 0.  0.
          4    1    3    3  502    0  0.39233794015E+03  0.29282274639E+03 -0.39629569414E+03  0.62986069672E+03  0.00000000000E+00 0. -1.
         -4    1    3    3    0  502  0.78824527102E+00 -0.59413375286E+01 -0.58765819052E+01  0.83937498845E+01  0.00000000000E+00 0.  1.
         11    1    5    5    0    0  0.33723351787E+02 -0.13804646720E+03 -0.42693632079E+02  0.14838071904E+03  0.00000000000E+00 0.  1.
        -11    1    5    5    0    0  0.11253177118E+02 -0.42481268494E+03  0.18962975873E+01  0.42496593654E+03  0.00000000000E+00 0. -1.
          1    1    6    6  503    0 -0.31697273978E+03  0.14977746554E+03  0.43456977215E+02  0.35326125717E+03  0.00000000000E+00 0. -1.
         -1    1    6    6    0  503 -0.12112997454E+03  0.12620027774E+03  0.10911724068E+02  0.17526564568E+03  0.00000000000E+00 0.  1.
<mgrwt>
<rscale>  0 0.16961824E+04</rscale>
<asrwt>0</asrwt>
<pdfrwt beam="1">  1        2 0.16374838E+00 0.16961824E+04</pdfrwt>
<pdfrwt beam="2">  1       -2 0.10396362E+00 0.16961824E+04</pdfrwt>
<totfact> 0.16430933E+01</totfact>
</mgrwt>
</event>
<event>
12    2  0.3623523E-008  0.1659224E+04  0.7818608E-02  0.8784968E-01
          1   -1    0    0  501    0  0.00000000000E+00  0.00000000000E+00  0.70039161341E+03  0.70039161341E+03  0.00000000000E+00 0. -1.
         -1   -1    0    0    0  501 -0.00000000000E+00 -0.00000000000E+00 -0.98267332103E+03  0.98267332103E+03  0.00000000000E+00 0.  1.
         23    2    1    2    0    0  0.34728766184E+03 -0.23344194485E+03  0.30544420749E+03  0.52414984671E+03  0.79580375932E+02 0.  0.
        254    2    1    2    0    0 -0.34728766184E+03  0.23344194485E+03 -0.58772591511E+03  0.11589150877E+04  0.90695014615E+03 0.  0.
         23    2    4    4    0    0  0.65632539665E+02  0.31996342497E+02 -0.67105788106E+03  0.68121376383E+03  0.91663057492E+02 0.  0.
         23    2    4    4    0    0 -0.41292020150E+03  0.20144560235E+03  0.83331965952E+02  0.47770132390E+03  0.10085095331E+03 0.  0.
          4    1    3    3  502    0  0.34803127218E+03 -0.23290441882E+03  0.30902808742E+03  0.52045037567E+03  0.00000000000E+00 0. -1.
         -4    1    3    3    0  502 -0.74361033928E+00 -0.53752602903E+00 -0.35838799334E+01  0.36994710359E+01  0.00000000000E+00 0.  1.
         11    1    5    5    0    0  0.79375501782E+02  0.37147009851E+02 -0.64787683741E+03  0.65377730695E+03  0.00000000000E+00 0. -1.
        -11    1    5    5    0    0 -0.13742962116E+02 -0.51506673540E+01 -0.23181043647E+02  0.27436456887E+02  0.00000000000E+00 0.  1.
          4    1    6    6  503    0 -0.34185406323E+03  0.20601760247E+03  0.68765366987E+02  0.40501373899E+03  0.00000000000E+00 0. -1.
         -4    1    6    6    0  503 -0.71066138275E+02 -0.45720001118E+01  0.14566598965E+02  0.72687584908E+02  0.00000000000E+00 0.  1.
<mgrwt>
<rscale>  0 0.16592241E+04</rscale>
<asrwt>0</asrwt>
<pdfrwt beam="1">  1        1 0.10775256E+00 0.16592241E+04</pdfrwt>
<pdfrwt beam="2">  1       -1 0.15118051E+00 0.16592241E+04</pdfrwt>
<totfact> 0.88789544E+00</totfact>
</mgrwt>
</event>
<event>
12    2  0.3623523E-008  0.2092881E+04  0.7818608E-02  0.8564386E-01
         -2   -1    0    0    0  501 -0.00000000000E+00  0.00000000000E+00  0.45644884970E+03  0.45644884970E+03  0.00000000000E+00 0.  1.
          2   -1    0    0  501    0  0.00000000000E+00 -0.00000000000E+00 -0.23990371643E+04  0.23990371643E+04  0.00000000000E+00 0. -1.
         23    2    1    2    0    0 -0.67481829813E+03  0.49916117495E+03 -0.64876294569E+03  0.10647161239E+04  0.90473481122E+02 0.  0.
        254    2    1    2    0    0  0.67481829813E+03 -0.49916117495E+03 -0.12938253689E+04  0.17907698901E+04  0.91012696910E+03 0.  0.
         23    2    4    4    0    0  0.87660552074E+03 -0.37265417501E+03 -0.11618072734E+04  0.15051455723E+04  0.91425817506E+02 0.  0.
         23    2    4    4    0    0 -0.20178722261E+03 -0.12650699994E+03 -0.13201809552E+03  0.28562431779E+03  0.86199588899E+02 0.  0.
          3    1    3    3  502    0 -0.70817104001E+02  0.48499819408E+02 -0.34582543483E+02  0.92537813976E+02  0.00000000000E+00 0. -1.
         -3    1    3    3    0  502 -0.60400119413E+03  0.45066135554E+03 -0.61418040221E+03  0.97217830995E+03  0.00000000000E+00 0.  1.
         11    1    5    5    0    0  0.35010990815E+03 -0.19700659604E+03 -0.47467576160E+03  0.62185659546E+03  0.00000000000E+00 0.  1.
        -11    1    5    5    0    0  0.52649561259E+03 -0.17564757897E+03 -0.68713151181E+03  0.88328897683E+03  0.00000000000E+00 0. -1.
          1    1    6    6  503    0 -0.18714561613E+03 -0.11525297510E+03 -0.14476979589E+03  0.26318249126E+03  0.00000000000E+00 0. -1.
         -1    1    6    6    0  503 -0.14641606482E+02 -0.11254024836E+02  0.12751700373E+02  0.22441826525E+02  0.00000000000E+00 0.  1.
<mgrwt>
<rscale>  0 0.20928810E+04</rscale>
<asrwt>0</asrwt>
<pdfrwt beam="1">  1        2 0.36908264E+00 0.20928810E+04</pdfrwt>
<pdfrwt beam="2">  1       -2 0.70222900E-01 0.20928810E+04</pdfrwt>
<totfact> 0.67767372E+00</totfact>
</mgrwt>
</event>
<event>
12    2  0.3623523E-008  0.2175025E+04  0.7818608E-02  0.8528896E-01
          2   -1    0    0  501    0  0.00000000000E+00  0.00000000000E+00  0.37974944943E+04  0.37974944943E+04  0.00000000000E+00 0. -1.
         -2   -1    0    0    0  501 -0.00000000000E+00 -0.00000000000E+00 -0.31143777148E+03  0.31143777148E+03  0.00000000000E+00 0.  1.
         23    2    1    2    0    0  0.26190659061E+03 -0.38045951515E+03 -0.20179244729E+02  0.47091523978E+03  0.89495565609E+02 0.  0.
        254    2    1    2    0    0 -0.26190659061E+03  0.38045951515E+03  0.35062359676E+04  0.36380170260E+04  0.85330692984E+03 0.  0.
         23    2    4    4    0    0 -0.27129763902E+03  0.13071221590E+03  0.34920976621E+03  0.46949910522E+03  0.88282821963E+02 0.  0.
         23    2    4    4    0    0  0.93910484092E+01  0.24974729924E+03  0.31570262014E+04  0.31685179208E+04  0.10114085813E+03 0.  0.
          4    1    3    3  502    0  0.87833792944E+02 -0.91877974342E+02 -0.40174310363E+02  0.13330533585E+03  0.00000000000E+00 0. -1.
         -4    1    3    3    0  502  0.17407279767E+03 -0.28858154080E+03  0.19995065634E+02  0.33760990393E+03  0.00000000000E+00 0.  1.
         11    1    5    5    0    0 -0.36993345041E+02  0.57298232065E+02  0.80318541433E+02  0.10536917516E+03  0.00000000000E+00 0. -1.
        -11    1    5    5    0    0 -0.23430429398E+03  0.73413983837E+02  0.26889122478E+03  0.36412993006E+03  0.00000000000E+00 0.  1.
          4    1    6    6  503    0 -0.96879642007E+00  0.49519359140E+02  0.12500501053E+04  0.12510309234E+04  0.00000000000E+00 0. -1.
         -4    1    6    6    0  503  0.10359844829E+02  0.20022794010E+03  0.19069760961E+04  0.19174869975E+04  0.00000000000E+00 0.  1.
<mgrwt>
<rscale>  0 0.21750248E+04</rscale>
<asrwt>0</asrwt>
<pdfrwt beam="1">  1        2 0.58422989E+00 0.21750248E+04</pdfrwt>
<pdfrwt beam="2">  1       -2 0.47913506E-01 0.21750248E+04</pdfrwt>
<totfact> 0.18756140E+00</totfact>
</mgrwt>
</event>
<event>
12    2  0.3623523E-008  0.1702934E+04  0.7818608E-02  0.8759693E-01
          1   -1    0    0  501    0  0.00000000000E+00  0.00000000000E+00  0.82147020626E+03  0.82147020626E+03  0.00000000000E+00 0. -1.
         -1   -1    0    0    0  501 -0.00000000000E+00 -0.00000000000E+00 -0.88255962622E+03  0.88255962622E+03  0.00000000000E+00 0.  1.
         23    2    1    2    0    0 -0.39987981352E+03  0.40176126236E+03  0.20085969461E+03  0.60847246089E+03  0.92618257097E+02 0.  0.
        254    2    1    2    0    0  0.39987981352E+03 -0.40176126236E+03 -0.26194911457E+03  0.10955573716E+04  0.90017367137E+03 0.  0.
         23    2    4    4    0    0  0.22549859805E+03 -0.54696853691E+03  0.14920993725E+03  0.61684066442E+03  0.90579257071E+02 0.  0.
         23    2    4    4    0    0  0.17438121547E+03  0.14520727455E+03 -0.41115905182E+03  0.47871670717E+03  0.92865273061E+02 0.  0.
          4    1    3    3  502    0 -0.38836162633E+01 -0.22236007594E+01  0.10812883713E+02  0.11702364283E+02  0.00000000000E+00 0.  1.
         -4    1    3    3    0  502 -0.39599619725E+03  0.40398486312E+03  0.19004681090E+03  0.59677009661E+03  0.00000000000E+00 0. -1.
         11    1    5    5    0    0 -0.48694066298E+01 -0.16403250722E+02  0.15679657314E+02  0.23208390911E+02  0.00000000000E+00 0.  1.
        -11    1    5    5    0    0  0.23036800468E+03 -0.53056528619E+03  0.13353027993E+03  0.59363227351E+03  0.00000000000E+00 0. -1.
          1    1    6    6  503    0  0.18199393879E+03  0.11940780076E+03 -0.37581991427E+03  0.43430476005E+03  0.00000000000E+00 0. -1.
         -1    1    6    6    0  503 -0.76127233244E+01  0.25799473794E+02 -0.35339137552E+02  0.44411947124E+02  0.00000000000E+00 0.  1.
<mgrwt>
<rscale>  0 0.17029345E+04</rscale>
<asrwt>0</asrwt>
<pdfrwt beam="1">  1        1 0.12638003E+00 0.17029345E+04</pdfrwt>
<pdfrwt beam="2">  1       -1 0.13577840E+00 0.17029345E+04</pdfrwt>
<totfact> 0.91481170E+00</totfact>
</mgrwt>
</event>
<event>
12    2  0.3623523E-008  0.2044263E+04  0.7818608E-02  0.8586202E-01
         -2   -1    0    0    0  501 -0.00000000000E+00  0.00000000000E+00  0.11995788440E+04  0.11995788440E+04  0.00000000000E+00 0. -1.
          2   -1    0    0  501    0  0.00000000000E+00 -0.00000000000E+00 -0.87093260251E+03  0.87093260251E+03  0.00000000000E+00 0.  1.
         23    2    1    2    0    0  0.68025455220E+03 -0.24053514444E+03 -0.23340293806E+03  0.76365513816E+03  0.89937906578E+02 0.  0.
        254    2    1    2    0    0 -0.68025455220E+03  0.24053514444E+03  0.56204917956E+03  0.13068563084E+04  0.93347239861E+03 0.  0.
         23    2    4    4    0    0  0.16555068133E+03  0.24646858420E+03  0.25671876448E+03  0.40318862263E+03  0.92210358952E+02 0.  0.
         23    2    4    4    0    0 -0.84580523353E+03 -0.59334397690E+01  0.30533041508E+03  0.90366768573E+03  0.89257633183E+02 0.  0.
          2    1    3    3  502    0  0.32580090383E+03 -0.92683495722E+02 -0.15099960570E+03  0.37086027050E+03  0.00000000000E+00 0. -1.
         -2    1    3    3    0  502  0.35445364837E+03 -0.14785164871E+03 -0.82403332354E+02  0.39279486765E+03  0.00000000000E+00 0.  1.
         11    1    5    5    0    0  0.15162809768E+02  0.30474472012E+02  0.77857157208E+02  0.84972590716E+02  0.00000000000E+00 0.  1.
        -11    1    5    5    0    0  0.15038787156E+03  0.21599411219E+03  0.17886160727E+03  0.31821603192E+03  0.00000000000E+00 0. -1.
          1    1    6    6  503    0 -0.10868899807E+03 -0.41422375562E+01  0.72245357834E+02  0.13057506716E+03  0.00000000000E+00 0.  1.
         -1    1    6    6    0  503 -0.73711623546E+03 -0.17912022127E+01  0.23308505724E+03  0.77309261857E+03  0.00000000000E+00 0. -1.
<mgrwt>
<rscale>  0 0.20442625E+04</rscale>
<asrwt>0</asrwt>
<pdfrwt beam="1">  1        2 0.13398963E+00 0.20442625E+04</pdfrwt>
<pdfrwt beam="2">  1       -2 0.18455059E+00 0.20442625E+04</pdfrwt>
<totfact> 0.47927155E+00</totfact>
</mgrwt>
</event>
<event>
12    2  0.3623523E-008  0.1263776E+04  0.7818608E-02  0.9058795E-01
          2   -1    0    0  501    0  0.00000000000E+00  0.00000000000E+00  0.24221211642E+04  0.24221211642E+04  0.00000000000E+00 0. -1.
         -2   -1    0    0    0  501 -0.00000000000E+00 -0.00000000000E+00 -0.16484816305E+03  0.16484816305E+03  0.00000000000E+00 0.  1.
         23    2    1    2    0    0 -0.82047743103E+02 -0.29100309668E+03  0.62193341033E+03  0.69767625971E+03  0.92392435059E+02 0.  0.
        254    2    1    2    0    0  0.82047743103E+02  0.29100309668E+03  0.16353395908E+04  0.18892930675E+04  0.89648094420E+03 0.  0.
         23    2    4    4    0    0 -0.48312126141E+02  0.26596423328E+03  0.16942463745E+04  0.17180605683E+04  0.90500298033E+02 0.  0.
         23    2    4    4    0    0  0.13035986924E+03  0.25038863399E+02 -0.58906783638E+02  0.17123249927E+03  0.90718903540E+02 0.  0.
          3    1    3    3  502    0 -0.57450918927E+02 -0.19765144235E+03  0.50937148517E+03  0.54938694074E+03  0.00000000000E+00 0. -1.
         -3    1    3    3    0  502 -0.24596824175E+02 -0.93351654335E+02  0.11256192515E+03  0.14828931897E+03  0.00000000000E+00 0.  1.
         11    1    5    5    0    0 -0.22588829642E+02  0.67740324984E+01  0.18603969214E+03  0.18752842396E+03  0.00000000000E+00 0.  1.
        -11    1    5    5    0    0 -0.25723296499E+02  0.25919020078E+03  0.15082066823E+04  0.15305321443E+04  0.00000000000E+00 0. -1.
          3    1    6    6  503    0  0.10605032498E+03  0.43599283092E+02 -0.74661697275E+02  0.13682813291E+03  0.00000000000E+00 0. -1.
         -3    1    6    6    0  503  0.24309544262E+02 -0.18560419693E+02  0.15754913637E+02  0.34404366367E+02  0.00000000000E+00 0.  1.
<mgrwt>
<rscale>  0 0.12637757E+04</rscale>
<asrwt>0</asrwt>
<pdfrwt beam="1">  1        2 0.37263400E+00 0.12637757E+04</pdfrwt>
<pdfrwt beam="2">  1       -2 0.25361258E-01 0.12637757E+04</pdfrwt>
<totfact> 0.53258432E+01</totfact>
</mgrwt>
</event>
<event>
12    2  0.3623523E-008  0.1434476E+04  0.7818608E-02  0.8929234E-01
         -2   -1    0    0    0  501 -0.00000000000E+00  0.00000000000E+00  0.55808256188E+03  0.55808256188E+03  0.00000000000E+00 0. -1.
          2   -1    0    0  501    0  0.00000000000E+00 -0.00000000000E+00 -0.92178165275E+03  0.92178165275E+03  0.00000000000E+00 0.  1.
         23    2    1    2    0    0 -0.27021872292E+03  0.15002804385E+03  0.20115263827E+03  0.38039214735E+03  0.93323253911E+02 0.  0.
        254    2    1    2    0    0  0.27021872292E+03 -0.15002804385E+03 -0.56485172913E+03  0.10994720673E+04  0.89120972766E+03 0.  0.
         23    2    4    4    0    0 -0.11902372665E+03  0.22090911925E+03  0.55811463374E+02  0.27323853159E+03  0.92611496191E+02 0.  0.
         23    2    4    4    0    0  0.38924244958E+03 -0.37093716310E+03 -0.62066319251E+03  0.82623353570E+03  0.91296185338E+02 0.  0.
          3    1    3    3  502    0 -0.13660445649E+03  0.12815893870E+03  0.12250880466E+03  0.22381666229E+03  0.00000000000E+00 0. -1.
         -3    1    3    3    0  502 -0.13361426644E+03  0.21869105155E+02  0.78643833608E+02  0.15657548506E+03  0.00000000000E+00 0.  1.
         11    1    5    5    0    0 -0.12997705952E+03  0.18233036657E+03  0.30926920281E+02  0.22604175051E+03  0.00000000000E+00 0. -1.
        -11    1    5    5    0    0  0.10953332869E+02  0.38578752675E+02  0.24884543093E+02  0.47196781075E+02  0.00000000000E+00 0.  1.
          4    1    6    6  503    0  0.20134308564E+03 -0.15989794575E+03 -0.23648301563E+03  0.34932879622E+03  0.00000000000E+00 0. -1.
         -4    1    6    6    0  503  0.18789936394E+03 -0.21103921735E+03 -0.38418017688E+03  0.47690473948E+03  0.00000000000E+00 0.  1.
<mgrwt>
<rscale>  0 0.14344759E+04</rscale>
<asrwt>0</asrwt>
<pdfrwt beam="1">  1        2 0.14181256E+00 0.14344759E+04</pdfrwt>
<pdfrwt beam="2">  1       -2 0.85858857E-01 0.14344759E+04</pdfrwt>
<totfact> 0.32418960E+01</totfact>
</mgrwt>
</event>
<event>
12    2  0.3623523E-008  0.1186931E+04  0.7818608E-02  0.9124373E-01
          1   -1    0    0  501    0  0.00000000000E+00  0.00000000000E+00  0.11752157506E+04  0.11752157506E+04  0.00000000000E+00 0. -1.
         -1   -1    0    0    0  501 -0.00000000000E+00 -0.00000000000E+00 -0.29969099524E+03  0.29969099524E+03  0.00000000000E+00 0.  1.
         23    2    1    2    0    0 -0.46196865368E+02 -0.23825063608E+03  0.14870691204E+03  0.29926507954E+03  0.92457158612E+02 0.  0.
        254    2    1    2    0    0  0.46196865368E+02  0.23825063608E+03  0.72681784335E+03  0.11756416663E+04  0.89161181813E+03 0.  0.
         23    2    4    4    0    0  0.22989199287E+03  0.50549077518E+02 -0.12350014707E+03  0.28118645852E+03  0.91695149870E+02 0.  0.
         23    2    4    4    0    0 -0.18369512750E+03  0.18770155857E+03  0.85031799041E+03  0.89445520780E+03  0.89630681058E+02 0.  0.
          3    1    3    3  502    0 -0.10646454919E+01 -0.29754900331E+01  0.33125055247E+02  0.33275460870E+02  0.00000000000E+00 0. -1.
         -3    1    3    3    0  502 -0.45132219876E+02 -0.23527514605E+03  0.11558185680E+03  0.26598961867E+03  0.00000000000E+00 0.  1.
         11    1    5    5    0    0  0.30939066603E+02  0.29646621445E+02  0.54260237542E+01  0.43192473177E+02  0.00000000000E+00 0. -1.
        -11    1    5    5    0    0  0.19895292626E+03  0.20902456073E+02 -0.12892617082E+03  0.23799398535E+03  0.00000000000E+00 0.  1.
          2    1    6    6  503    0 -0.11697537421E+03  0.12779869328E+03  0.41002764251E+03  0.44512741075E+03  0.00000000000E+00 0.  1.
         -2    1    6    6    0  503 -0.66719753285E+02  0.59902865284E+02  0.44029034790E+03  0.44932779705E+03  0.00000000000E+00 0. -1.
<mgrwt>
<rscale>  0 0.11869315E+04</rscale>
<asrwt>0</asrwt>
<pdfrwt beam="1">  1        1 0.18080242E+00 0.11869315E+04</pdfrwt>
<pdfrwt beam="2">  1       -1 0.46106308E-01 0.11869315E+04</pdfrwt>
<totfact> 0.51635240E+01</totfact>
</mgrwt>
</event>
<event>
12    2  0.3623523E-008  0.1175938E+04  0.7818608E-02  0.9134183E-01
         -2   -1    0    0    0  501 -0.00000000000E+00  0.00000000000E+00  0.55867860664E+03  0.55867860664E+03  0.00000000000E+00 0.  1.
          2   -1    0    0  501    0  0.00000000000E+00 -0.00000000000E+00 -0.61879466335E+03  0.61879466335E+03  0.00000000000E+00 0. -1.
         23    2    1    2    0    0  0.19386264269E+03 -0.68568701307E+02  0.89898553784E+02  0.24240223356E+03  0.91611690486E+02 0.  0.
        254    2    1    2    0    0 -0.19386264269E+03  0.68568701307E+02 -0.15001461049E+03  0.93507103643E+03  0.89976056191E+03 0.  0.
         23    2    4    4    0    0  0.22570469186E+03 -0.86479754177E+02  0.22676923379E+03  0.34344456504E+03  0.90047365573E+02 0.  0.
         23    2    4    4    0    0 -0.41956733455E+03  0.15504845548E+03 -0.37678384428E+03  0.59162647139E+03  0.89325497868E+02 0.  0.
          3    1    3    3  502    0  0.63298246454E+02 -0.71954449422E+01  0.73402648230E+02  0.97192547035E+02  0.00000000000E+00 0.  1.
         -3    1    3    3    0  502  0.13056439623E+03 -0.61373256365E+02  0.16495905554E+02  0.14520968652E+03  0.00000000000E+00 0. -1.
         11    1    5    5    0    0  0.13713294631E+03 -0.16062451867E+02  0.16278699208E+03  0.21345503534E+03  0.00000000000E+00 0. -1.
        -11    1    5    5    0    0  0.88571745557E+02 -0.70417302310E+02  0.63982241714E+02  0.12998952970E+03  0.00000000000E+00 0.  1.
          4    1    6    6  503    0 -0.37926794624E+03  0.13704286903E+03 -0.36938233650E+03  0.54687131349E+03  0.00000000000E+00 0. -1.
         -4    1    6    6    0  503 -0.40299388311E+02  0.18005586449E+02 -0.74015077844E+01  0.44755157905E+02  0.00000000000E+00 0.  1.
<mgrwt>
<rscale>  0 0.11759377E+04</rscale>
<asrwt>0</asrwt>
<pdfrwt beam="1">  1        2 0.95199178E-01 0.11759377E+04</pdfrwt>
<pdfrwt beam="2">  1       -2 0.85950555E-01 0.11759377E+04</pdfrwt>
<totfact> 0.55483672E+01</totfact>
</mgrwt>
</event>
<event>
12    2  0.3623523E-008  0.4345160E+04  0.7818608E-02  0.7938320E-01
         -2   -1    0    0    0  501 -0.00000000000E+00  0.00000000000E+00  0.18947767047E+04  0.18947767047E+04  0.00000000000E+00 0.  1.
          2   -1    0    0  501    0  0.00000000000E+00 -0.00000000000E+00 -0.24911138779E+04  0.24911138779E+04  0.00000000000E+00 0. -1.
         23    2    1    2    0    0 -0.62433504327E+03  0.17273526864E+04  0.66308689782E+03  0.19548702690E+04  0.91060338632E+02 0.  0.
        254    2    1    2    0    0  0.62433504327E+03 -0.17273526864E+04 -0.12594240710E+04  0.24310203135E+04  0.97476624118E+03 0.  0.
         23    2    4    4    0    0 -0.97945069801E+02 -0.49534986204E+03  0.14077242595E+02  0.51550973382E+03  0.10289506490E+03 0.  0.
         23    2    4    4    0    0  0.72228011307E+03 -0.12320028243E+04 -0.12735013136E+04  0.19155105797E+04  0.88632186399E+02 0.  0.
          3    1    3    3  502    0 -0.27817641579E+03  0.71385858935E+03  0.31990710633E+03  0.83025102262E+03  0.00000000000E+00 0. -1.
         -3    1    3    3    0  502 -0.34615862748E+03  0.10134940970E+04  0.34317979149E+03  0.11246192464E+04  0.00000000000E+00 0.  1.
         11    1    5    5    0    0 -0.23130359467E+02 -0.34542070135E+03 -0.93529112922E+01  0.34632059050E+03  0.00000000000E+00 0. -1.
        -11    1    5    5    0    0 -0.74814710334E+02 -0.14992916069E+03  0.23430153888E+02  0.16918914332E+03  0.00000000000E+00 0.  1.
          1    1    6    6  503    0  0.72232721031E+03 -0.12327834186E+04 -0.12691418267E+04  0.19110815086E+04  0.00000000000E+00 0. -1.
         -1    1    6    6    0  503 -0.47097244456E-01  0.78059432889E+00 -0.43594868432E+01  0.44290711434E+01  0.00000000000E+00 0.  1.
<mgrwt>
<rscale>  0 0.43451603E+04</rscale>
<asrwt>0</asrwt>
<pdfrwt beam="1">  1        2 0.38324829E+00 0.43451603E+04</pdfrwt>
<pdfrwt beam="2">  1       -2 0.29150411E+00 0.43451603E+04</pdfrwt>
<totfact> 0.96821519E-02</totfact>
</mgrwt>
</event>
<event>
12    2  0.3623523E-008  0.1591952E+04  0.7818608E-02  0.8825507E-01
          1   -1    0    0  501    0  0.00000000000E+00  0.00000000000E+00  0.22341888648E+04  0.22341888648E+04  0.00000000000E+00 0. -1.
         -1   -1    0    0    0  501 -0.00000000000E+00 -0.00000000000E+00 -0.28358306708E+03  0.28358306708E+03  0.00000000000E+00 0.  1.
         23    2    1    2    0    0 -0.16674422569E+03 -0.18424691173E+03  0.14480241744E+04  0.14719160638E+04  0.89511608850E+02 0.  0.
        254    2    1    2    0    0  0.16674422569E+03  0.18424691173E+03  0.50258162329E+03  0.10458558680E+04  0.88287918045E+03 0.  0.
         23    2    4    4    0    0 -0.23401033253E+03  0.24520290820E+03  0.52290274137E+03  0.62968572454E+03  0.90507087172E+02 0.  0.
         23    2    4    4    0    0  0.40075455822E+03 -0.60955996473E+02 -0.20321118076E+02  0.41617014347E+03  0.92004298970E+02 0.  0.
          4    1    3    3  502    0 -0.15195352947E+03 -0.19215467099E+03  0.12943031212E+04  0.13172827572E+04  0.00000000000E+00 0. -1.
         -4    1    3    3    0  502 -0.14790696217E+02  0.79077592631E+01  0.15372105315E+03  0.15463330667E+03  0.00000000000E+00 0.  1.
         11    1    5    5    0    0 -0.45300047144E+02  0.59724355912E+02  0.19123069127E+03  0.20539783408E+03  0.00000000000E+00 0.  1.
        -11    1    5    5    0    0 -0.18871028539E+03  0.18547855229E+03  0.33167205010E+03  0.42428789046E+03  0.00000000000E+00 0. -1.
          3    1    6    6  503    0  0.38815144240E+03 -0.57966158859E+02 -0.45718088347E+00  0.39245614637E+03  0.00000000000E+00 0. -1.
         -3    1    6    6    0  503  0.12603115825E+02 -0.29898376139E+01 -0.19863937193E+02  0.23713997095E+02  0.00000000000E+00 0.  1.
<mgrwt>
<rscale>  0 0.15919524E+04</rscale>
<asrwt>0</asrwt>
<pdfrwt beam="1">  1        1 0.34372135E+00 0.15919524E+04</pdfrwt>
<pdfrwt beam="2">  1       -1 0.43628166E-01 0.15919524E+04</pdfrwt>
<totfact> 0.10296055E+01</totfact>
</mgrwt>
</event>
<event>
12    2  0.3623523E-008  0.1801824E+04  0.7818608E-02  0.8705330E-01
          1   -1    0    0  501    0  0.00000000000E+00  0.00000000000E+00  0.19477260786E+04  0.19477260786E+04  0.00000000000E+00 0. -1.
         -1   -1    0    0    0  501 -0.00000000000E+00 -0.00000000000E+00 -0.41671295743E+03  0.41671295743E+03  0.00000000000E+00 0.  1.
         23    2    1    2    0    0  0.12055273433E+03 -0.59300470959E+03  0.19369240020E+03  0.64164584526E+03  0.89471210397E+02 0.  0.
        254    2    1    2    0    0 -0.12055273433E+03  0.59300470959E+03  0.13373207210E+04  0.17227931907E+04  0.90188808621E+03 0.  0.
         23    2    4    4    0    0  0.11652421433E+03  0.36169803662E+03  0.55289046931E+02  0.39525349645E+03  0.93622035449E+02 0.  0.
         23    2    4    4    0    0 -0.23707694866E+03  0.23130667297E+03  0.12820316740E+04  0.13275396943E+04  0.95121870280E+02 0.  0.
          1    1    3    3  502    0  0.35977115764E+02 -0.16972869302E+03  0.13901401098E+02  0.17405582738E+03  0.00000000000E+00 0. -1.
         -1    1    3    3    0  502  0.84575618564E+02 -0.42327601658E+03  0.17979099910E+03  0.46759001788E+03  0.00000000000E+00 0.  1.
         11    1    5    5    0    0  0.11994657976E+03  0.35716862505E+03  0.39932880788E+02  0.37888156947E+03  0.00000000000E+00 0. -1.
        -11    1    5    5    0    0 -0.34223654276E+01  0.45294115709E+01  0.15356166143E+02  0.16371926977E+02  0.00000000000E+00 0.  1.
          4    1    6    6  503    0 -0.16742471823E+03  0.21395434111E+03  0.10558093949E+04  0.10902022632E+04  0.00000000000E+00 0. -1.
         -4    1    6    6    0  503 -0.69652230427E+02  0.17352331858E+02  0.22622227909E+03  0.23733743105E+03  0.00000000000E+00 0.  1.
<mgrwt>
<rscale>  0 0.18018243E+04</rscale>
<asrwt>0</asrwt>
<pdfrwt beam="1">  1        1 0.29965016E+00 0.18018243E+04</pdfrwt>
<pdfrwt beam="2">  1       -1 0.64109687E-01 0.18018243E+04</pdfrwt>
<totfact> 0.75280254E+00</totfact>
</mgrwt>
</event>
<event>
12    2  0.3623523E-008  0.1758693E+04  0.7818608E-02  0.8728580E-01
          2   -1    0    0  501    0  0.00000000000E+00  0.00000000000E+00  0.19802279317E+04  0.19802279317E+04  0.00000000000E+00 0.  1.
         -2   -1    0    0    0  501 -0.00000000000E+00 -0.00000000000E+00 -0.39048554548E+03  0.39048554548E+03  0.00000000000E+00 0. -1.
         23    2    1    2    0    0 -0.60626165907E+03  0.54138604391E+02  0.85575382124E+03  0.10542184220E+04  0.92615825006E+02 0.  0.
        254    2    1    2    0    0  0.60626165907E+03 -0.54138604391E+02  0.73398856496E+03  0.13164950551E+04  0.90770911030E+03 0.  0.
         23    2    4    4    0    0  0.41151742954E+03  0.38769316564E+03  0.54255190802E+03  0.78901342657E+03  0.92341913144E+02 0.  0.
         23    2    4    4    0    0  0.19474422953E+03 -0.44183177003E+03  0.19143665695E+03  0.52748162855E+03  0.91914345425E+02 0.  0.
          1    1    3    3  502    0 -0.16574806911E+03  0.56422643175E+02  0.23615265384E+03  0.29397961323E+03  0.00000000000E+00 0. -1.
         -1    1    3    3    0  502 -0.44051358996E+03 -0.22840387833E+01  0.61960116740E+03  0.76023880881E+03  0.00000000000E+00 0.  1.
         11    1    5    5    0    0  0.31082877646E+03  0.23385756616E+03  0.37242053027E+03  0.53851735431E+03  0.00000000000E+00 0.  1.
        -11    1    5    5    0    0  0.10068865309E+03  0.15383559948E+03  0.17013137774E+03  0.25049607227E+03  0.00000000000E+00 0. -1.
          1    1    6    6  503    0  0.22702157648E+02 -0.69184385929E+01  0.11299618848E+02  0.26285626121E+02  0.00000000000E+00 0. -1.
         -1    1    6    6    0  503  0.17204207188E+03 -0.43491333144E+03  0.18013703810E+03  0.50119600243E+03  0.00000000000E+00 0.  1.
<mgrwt>
<rscale>  0 0.17586931E+04</rscale>
<asrwt>0</asrwt>
<pdfrwt beam="1">  1        2 0.30465045E+00 0.17586931E+04</pdfrwt>
<pdfrwt beam="2">  1       -2 0.60074700E-01 0.17586931E+04</pdfrwt>
<totfact> 0.16766328E+01</totfact>
</mgrwt>
</event>
<event>
12    2  0.3623523E-008  0.3078853E+04  0.7818608E-02  0.8221566E-01
          2   -1    0    0  501    0  0.00000000000E+00  0.00000000000E+00  0.10137087636E+04  0.10137087636E+04  0.00000000000E+00 0. -1.
         -2   -1    0    0    0  501 -0.00000000000E+00 -0.00000000000E+00 -0.23377851352E+04  0.23377851352E+04  0.00000000000E+00 0.  1.
         23    2    1    2    0    0  0.23982091372E+03  0.99698089545E+03 -0.16525528963E+04  0.19467160909E+04  0.85366777520E+02 0.  0.
        254    2    1    2    0    0 -0.23982091372E+03 -0.99698089545E+03  0.32847652482E+03  0.14047778079E+04  0.90222995167E+03 0.  0.
         23    2    4    4    0    0 -0.50206154966E+03 -0.50114191755E+03  0.41963971973E+03  0.82915547296E+03  0.90511230225E+02 0.  0.
         23    2    4    4    0    0  0.26224063593E+03 -0.49583897790E+03 -0.91163194917E+02  0.57562233495E+03  0.91672794472E+02 0.  0.
          1    1    3    3  502    0  0.20815141482E+02  0.13701296584E+03 -0.17604420552E+03  0.22404772978E+03  0.00000000000E+00 0. -1.
         -1    1    3    3    0  502  0.21900577224E+03  0.85996792961E+03 -0.14765086908E+04  0.17226683611E+04  0.00000000000E+00 0.  1.
         11    1    5    5    0    0 -0.10085060721E+03 -0.13671104817E+03  0.67549327417E+02  0.18282140821E+03  0.00000000000E+00 0.  1.
        -11    1    5    5    0    0 -0.40121094244E+03 -0.36443086938E+03  0.35209039232E+03  0.64633406475E+03  0.00000000000E+00 0. -1.
          1    1    6    6  503    0  0.24045971496E+03 -0.38164162427E+03 -0.86338603600E+02  0.45926632618E+03  0.00000000000E+00 0. -1.
         -1    1    6    6    0  503  0.21780920971E+02 -0.11419735363E+03 -0.48245913171E+01  0.11635600877E+03  0.00000000000E+00 0.  1.
<mgrwt>
<rscale>  0 0.30788526E+04</rscale>
<asrwt>0</asrwt>
<pdfrwt beam="1">  1        2 0.15595519E+00 0.30788526E+04</pdfrwt>
<pdfrwt beam="2">  1       -2 0.35965925E+00 0.30788526E+04</pdfrwt>
<totfact> 0.28360517E-01</totfact>
</mgrwt>
</event>
<event>
12    2  0.3623523E-008  0.2419958E+04  0.7818608E-02  0.8432069E-01
         -2   -1    0    0    0  501 -0.00000000000E+00  0.00000000000E+00  0.70552874828E+03  0.70552874828E+03  0.00000000000E+00 0.  1.
          2   -1    0    0  501    0  0.00000000000E+00 -0.00000000000E+00 -0.20751089445E+04  0.20751089445E+04  0.00000000000E+00 0. -1.
         23    2    1    2    0    0 -0.73922106607E+03  0.26251298757E+03 -0.13525045834E+04  0.15662613649E+04  0.92440045145E+02 0.  0.
        254    2    1    2    0    0  0.73922106607E+03 -0.26251298757E+03 -0.17075612837E+02  0.12143763279E+04  0.92685351376E+03 0.  0.
         23    2    4    4    0    0  0.38968921237E+03  0.33016990480E+03 -0.51059185930E+02  0.51971554471E+03  0.81408590905E+02 0.  0.
         23    2    4    4    0    0  0.34953185370E+03 -0.59268289237E+03  0.33983573093E+02  0.69466078316E+03  0.89180674781E+02 0.  0.
          2    1    3    3  502    0 -0.51147323303E+03  0.20322222849E+03 -0.87083524601E+03  0.10301738533E+04  0.00000000000E+00 0. -1.
         -2    1    3    3    0  502 -0.22774783304E+03  0.59290759080E+02 -0.48166933737E+03  0.53608751163E+03  0.00000000000E+00 0.  1.
         11    1    5    5    0    0  0.11233361761E+03  0.52693927978E+02  0.24761084950E-01  0.12407857310E+03  0.00000000000E+00 0.  1.
        -11    1    5    5    0    0  0.27735559477E+03  0.27747597682E+03 -0.51083947015E+02  0.39563697161E+03  0.00000000000E+00 0. -1.
          3    1    6    6  503    0  0.28678251359E+03 -0.49726217601E+03  0.61117612907E+02  0.57727744145E+03  0.00000000000E+00 0. -1.
         -3    1    6    6    0  503  0.62749340110E+02 -0.95420716358E+02 -0.27134039814E+02  0.11738334171E+03  0.00000000000E+00 0.  1.
<mgrwt>
<rscale>  0 0.24199579E+04</rscale>
<asrwt>0</asrwt>
<pdfrwt beam="1">  1        2 0.31924752E+00 0.24199579E+04</pdfrwt>
<pdfrwt beam="2">  1       -2 0.10854289E+00 0.24199579E+04</pdfrwt>
<totfact> 0.36958135E+00</totfact>
</mgrwt>
</event>
<event>
12    2  0.3623523E-008  0.3220272E+04  0.7818608E-02  0.8183484E-01
          2   -1    0    0  501    0  0.00000000000E+00  0.00000000000E+00  0.21671183191E+04  0.21671183191E+04  0.00000000000E+00 0. -1.
         -2   -1    0    0    0  501 -0.00000000000E+00 -0.00000000000E+00 -0.11963063671E+04  0.11963063671E+04  0.00000000000E+00 0.  1.
         23    2    1    2    0    0  0.58999040475E+03  0.13154598822E+04  0.56380495084E+03  0.15505766670E+04  0.88817780726E+02 0.  0.
        254    2    1    2    0    0 -0.58999040475E+03 -0.13154598822E+04  0.40700700116E+03  0.18128480192E+04  0.10209014949E+04 0.  0.
         23    2    4    4    0    0  0.16788152209E+02 -0.11127644486E+04  0.20210063154E+03  0.11349149179E+04  0.93062588448E+02 0.  0.
         23    2    4    4    0    0 -0.60677855696E+03 -0.20269543363E+03  0.20490636962E+03  0.67793310138E+03  0.91329149978E+02 0.  0.
          2    1    3    3  502    0  0.20771165404E+03  0.39501718192E+03  0.20695747115E+03  0.49194928610E+03  0.00000000000E+00 0.  1.
         -2    1    3    3    0  502  0.38227875071E+03  0.92044270032E+03  0.35684747970E+03  0.10586273809E+04  0.00000000000E+00 0. -1.
         11    1    5    5    0    0 -0.28565957036E+02 -0.17169744805E+03  0.18557697209E+02  0.17504403930E+03  0.00000000000E+00 0.  1.
        -11    1    5    5    0    0  0.45354109245E+02 -0.94106700056E+03  0.18354293433E+03  0.95987087857E+03  0.00000000000E+00 0. -1.
          1    1    6    6  503    0 -0.59918011800E+03 -0.20247610009E+03  0.18867328172E+03  0.66000832734E+03  0.00000000000E+00 0. -1.
         -1    1    6    6    0  503 -0.75984389505E+01 -0.21933354153E+00  0.16233087896E+02  0.17924774038E+02  0.00000000000E+00 0.  1.
<mgrwt>
<rscale>  0 0.32202717E+04</rscale>
<asrwt>0</asrwt>
<pdfrwt beam="1">  1        2 0.33340282E+00 0.32202717E+04</pdfrwt>
<pdfrwt beam="2">  1       -2 0.18404713E+00 0.32202717E+04</pdfrwt>
<totfact> 0.77043571E-01</totfact>
</mgrwt>
</event>
<event>
12    2  0.3623523E-008  0.2094000E+04  0.7818608E-02  0.8563891E-01
          2   -1    0    0  501    0  0.00000000000E+00  0.00000000000E+00  0.25922261399E+04  0.25922261399E+04  0.00000000000E+00 0. -1.
         -2   -1    0    0    0  501 -0.00000000000E+00 -0.00000000000E+00 -0.42288315596E+03  0.42288315596E+03  0.00000000000E+00 0.  1.
         23    2    1    2    0    0  0.84554670851E+03 -0.82980238204E+02  0.84697417079E+03  0.12031384075E+04  0.91333593789E+02 0.  0.
        254    2    1    2    0    0 -0.84554670851E+03  0.82980238204E+02  0.13223688132E+04  0.18119708884E+04  0.90152330319E+03 0.  0.
         23    2    4    4    0    0 -0.45347865488E+03  0.34594382187E+03  0.23561294660E+03  0.62349163950E+03  0.88928879429E+02 0.  0.
         23    2    4    4    0    0 -0.39206805362E+03 -0.26296358367E+03  0.10867558666E+04  0.11884792489E+04  0.92614289122E+02 0.  0.
          4    1    3    3  502    0  0.29421265066E+03 -0.42985470060E+02  0.23945815512E+03  0.38177092935E+03  0.00000000000E+00 0. -1.
         -4    1    3    3    0  502  0.55133405785E+03 -0.39994768144E+02  0.60751601567E+03  0.82136747812E+03  0.00000000000E+00 0.  1.
         11    1    5    5    0    0 -0.36266295863E+03  0.25277068130E+03  0.21565910752E+03  0.49186003044E+03  0.00000000000E+00 0.  1.
        -11    1    5    5    0    0 -0.90815696251E+02  0.93173140576E+02  0.19953839078E+02  0.13163160906E+03  0.00000000000E+00 0. -1.
          4    1    6    6  503    0 -0.81570083415E+02 -0.39383015422E+02  0.30409733996E+03  0.31730094955E+03  0.00000000000E+00 0. -1.
         -4    1    6    6    0  503 -0.31049797021E+03 -0.22358056825E+03  0.78265852660E+03  0.87117829935E+03  0.00000000000E+00 0.  1.
<mgrwt>
<rscale>  0 0.20939998E+04</rscale>
<asrwt>0</asrwt>
<pdfrwt beam="1">  1        2 0.39880401E+00 0.20939998E+04</pdfrwt>
<pdfrwt beam="2">  1       -2 0.65058949E-01 0.20939998E+04</pdfrwt>
<totfact> 0.61814484E+00</totfact>
</mgrwt>
</event>
<event>
12    2  0.3623523E-008  0.2123544E+04  0.7818608E-02  0.8550942E-01
         -2   -1    0    0    0  501 -0.00000000000E+00  0.00000000000E+00  0.60724512228E+03  0.60724512228E+03  0.00000000000E+00 0.  1.
          2   -1    0    0  501    0  0.00000000000E+00 -0.00000000000E+00 -0.18565151495E+04  0.18565151495E+04  0.00000000000E+00 0. -1.
         23    2    1    2    0    0  0.20440062231E+03  0.56742505816E+03 -0.12444716361E+04  0.13859024338E+04  0.90912550973E+02 0.  0.
        254    2    1    2    0    0 -0.20440062231E+03 -0.56742505816E+03 -0.47983910713E+01  0.10778578379E+04  0.89331051892E+03 0.  0.
         23    2    4    4    0    0  0.49699506529E+02 -0.25703886240E+03  0.40895358475E+03  0.49384297982E+03  0.89993535922E+02 0.  0.
         23    2    4    4    0    0 -0.25410012884E+03 -0.31038619575E+03 -0.41375197582E+03  0.58401485811E+03  0.94742762274E+02 0.  0.
          3    1    3    3  502    0  0.14674683254E+03  0.49684231848E+03 -0.10815161588E+04  0.11991931137E+04  0.00000000000E+00 0. -1.
         -3    1    3    3    0  502  0.57653789777E+02  0.70582739673E+02 -0.16295547738E+03  0.18670932013E+03  0.00000000000E+00 0.  1.
         11    1    5    5    0    0 -0.22006216122E+02 -0.50047472232E+02  0.11408449756E+03  0.12650808515E+03  0.00000000000E+00 0. -1.
        -11    1    5    5    0    0  0.71705722651E+02 -0.20699139017E+03  0.29486908719E+03  0.36733489468E+03  0.00000000000E+00 0.  1.
          1    1    6    6  503    0  0.71444438490E+01 -0.91423566429E+01 -0.40100159182E+01  0.12276236824E+02  0.00000000000E+00 0. -1.
         -1    1    6    6    0  503 -0.26124457269E+03 -0.30124383911E+03 -0.40974195990E+03  0.57173862128E+03  0.00000000000E+00 0.  1.
<mgrwt>
<rscale>  0 0.21235440E+04</rscale>
<asrwt>0</asrwt>
<pdfrwt beam="1">  1        2 0.28561772E+00 0.21235440E+04</pdfrwt>
<pdfrwt beam="2">  1       -2 0.93422326E-01 0.21235440E+04</pdfrwt>
<totfact> 0.71555748E+00</totfact>
</mgrwt>
</event>
<event>
12    2  0.3623523E-008  0.2161541E+04  0.7818608E-02  0.8534608E-01
         -1   -1    0    0    0  501 -0.00000000000E+00  0.00000000000E+00  0.82155911692E+03  0.82155911692E+03  0.00000000000E+00 0.  1.
          1   -1    0    0  501    0  0.00000000000E+00 -0.00000000000E+00 -0.14217657583E+04  0.14217657583E+04  0.00000000000E+00 0. -1.
         23    2    1    2    0    0  0.85442151498E+03  0.20640701556E+03 -0.12358988821E+03  0.89230724520E+03  0.91092140367E+02 0.  0.
        254    2    1    2    0    0 -0.85442151498E+03 -0.20640701556E+03 -0.47661675316E+03  0.13510176300E+04  0.90854010691E+03 0.  0.
         23    2    4    4    0    0 -0.60213311949E+03  0.25638348272E+03 -0.43110660768E+02  0.66227958115E+03  0.91972445548E+02 0.  0.
         23    2    4    4    0    0 -0.25228839550E+03 -0.46279049828E+03 -0.43350609240E+03  0.68873804886E+03  0.92779782333E+02 0.  0.
          2    1    3    3  502    0  0.76157676580E+03  0.20263584473E+03 -0.88692710650E+02  0.79304908594E+03  0.00000000000E+00 0. -1.
         -2    1    3    3    0  502  0.92844749177E+02  0.37711708335E+01 -0.34897177562E+02  0.99258159266E+02  0.00000000000E+00 0.  1.
         11    1    5    5    0    0 -0.40304901405E+03  0.18052834883E+03 -0.71390277389E+02  0.44736513516E+03  0.00000000000E+00 0. -1.
        -11    1    5    5    0    0 -0.19908410544E+03  0.75855133890E+02  0.28279616621E+02  0.21491444598E+03  0.00000000000E+00 0.  1.
          4    1    6    6  503    0 -0.23826509153E+03 -0.43194004958E+03 -0.43047514045E+03  0.65471467589E+03  0.00000000000E+00 0. -1.
         -4    1    6    6    0  503 -0.14023303968E+02 -0.30850448696E+02 -0.30309519403E+01  0.34023372975E+02  0.00000000000E+00 0.  1.
<mgrwt>
<rscale>  0 0.21615408E+04</rscale>
<asrwt>0</asrwt>
<pdfrwt beam="1">  1        1 0.21873319E+00 0.21615408E+04</pdfrwt>
<pdfrwt beam="2">  1       -1 0.12639371E+00 0.21615408E+04</pdfrwt>
<totfact> 0.36935540E+00</totfact>
</mgrwt>
</event>
<event>
12    2  0.3623523E-008  0.1945291E+04  0.7818608E-02  0.8632635E-01
         -1   -1    0    0    0  501 -0.00000000000E+00  0.00000000000E+00  0.68631843473E+03  0.68631843473E+03  0.00000000000E+00 0.  1.
          1   -1    0    0  501    0  0.00000000000E+00 -0.00000000000E+00 -0.13784259182E+04  0.13784259182E+04  0.00000000000E+00 0. -1.
         23    2    1    2    0    0 -0.12751903746E+02 -0.38571827074E+03 -0.96816074054E+03  0.10462291979E+04  0.91209207472E+02 0.  0.
        254    2    1    2    0    0  0.12751903746E+02  0.38571827074E+03  0.27605325708E+03  0.10185151550E+04  0.90123610939E+03 0.  0.
         23    2    4    4    0    0 -0.11671479291E+03  0.62234822728E+03  0.28017216673E+02  0.64051682575E+03  0.92396865523E+02 0.  0.
         23    2    4    4    0    0  0.12946669665E+03 -0.23662995654E+03  0.24803604041E+03  0.37799832929E+03  0.92765822005E+02 0.  0.
          4    1    3    3  502    0  0.70252274215E+01 -0.31651754808E+03 -0.69442114271E+03  0.76318637010E+03  0.00000000000E+00 0. -1.
         -4    1    3    3    0  502 -0.19777131168E+02 -0.69200722658E+02 -0.27373959783E+03  0.28304282777E+03  0.00000000000E+00 0.  1.
         11    1    5    5    0    0 -0.11663579257E+03  0.54274310313E+03  0.51506335876E+02  0.55751850798E+03  0.00000000000E+00 0.  1.
        -11    1    5    5    0    0 -0.79000334218E-01  0.79605124146E+02 -0.23489119203E+02  0.82998317768E+02  0.00000000000E+00 0. -1.
          3    1    6    6  503    0  0.29177855452E+01 -0.38233414890E+02  0.80392864223E+02  0.89069187179E+02  0.00000000000E+00 0. -1.
         -3    1    6    6    0  503  0.12654891111E+03 -0.19839654165E+03  0.16764317618E+03  0.28892914211E+03  0.00000000000E+00 0.  1.
<mgrwt>
<rscale>  0 0.19452908E+04</rscale>
<asrwt>0</asrwt>
<pdfrwt beam="1">  1        1 0.21206552E+00 0.19452908E+04</pdfrwt>
<pdfrwt beam="2">  1       -1 0.10558745E+00 0.19452908E+04</pdfrwt>
<totfact> 0.62316614E+00</totfact>
</mgrwt>
</event>
<event>
12    2  0.3623523E-008  0.2006657E+04  0.7818608E-02  0.8603515E-01
          1   -1    0    0  501    0  0.00000000000E+00  0.00000000000E+00  0.27283870807E+04  0.27283870807E+04  0.00000000000E+00 0. -1.
         -1   -1    0    0    0  501 -0.00000000000E+00 -0.00000000000E+00 -0.36896075693E+03  0.36896075693E+03  0.00000000000E+00 0.  1.
         23    2    1    2    0    0 -0.23992401550E+03  0.75699237415E+03  0.90832888138E+03  0.12100046647E+04  0.91918137660E+02 0.  0.
        254    2    1    2    0    0  0.23992401550E+03 -0.75699237415E+03  0.14510974424E+04  0.18873431730E+04  0.90872409317E+03 0.  0.
         23    2    4    4    0    0 -0.43072092893E+02 -0.87749511846E+03  0.99594744609E+03  0.13308647188E+04  0.86236281469E+02 0.  0.
         23    2    4    4    0    0  0.28299610839E+03  0.12050274431E+03  0.45514999629E+03  0.55647845417E+03  0.88876555297E+02 0.  0.
          2    1    3    3  502    0 -0.24708089989E+03  0.73029310150E+03  0.86604502616E+03  0.11594873749E+04  0.00000000000E+00 0. -1.
         -2    1    3    3    0  502  0.71568843909E+01  0.26699272651E+02  0.42283855225E+02  0.50517289782E+02  0.00000000000E+00 0.  1.
         11    1    5    5    0    0  0.13795349149E+02 -0.24067325323E+03  0.23059837663E+03  0.33360086597E+03  0.00000000000E+00 0. -1.
        -11    1    5    5    0    0 -0.56867442041E+02 -0.63682186523E+03  0.76534906946E+03  0.99726385281E+03  0.00000000000E+00 0.  1.
          3    1    6    6  503    0  0.42955912572E+02 -0.11957517250E+02  0.83330179305E+02  0.94509848305E+02  0.00000000000E+00 0. -1.
         -3    1    6    6    0  503  0.24004019582E+03  0.13246026156E+03  0.37181981698E+03  0.46196860586E+03  0.00000000000E+00 0.  1.
<mgrwt>
<rscale>  0 0.20066567E+04</rscale>
<asrwt>0</asrwt>
<pdfrwt beam="1">  1        1 0.41975184E+00 0.20066567E+04</pdfrwt>
<pdfrwt beam="2">  1       -1 0.56763195E-01 0.20066567E+04</pdfrwt>
<totfact> 0.27320292E+00</totfact>
</mgrwt>
</event>
<event>
12    2  0.3623523E-008  0.2249072E+04  0.7818608E-02  0.8498277E-01
          1   -1    0    0  501    0  0.00000000000E+00  0.00000000000E+00  0.14797848653E+04  0.14797848653E+04  0.00000000000E+00 0. -1.
         -1   -1    0    0    0  501 -0.00000000000E+00 -0.00000000000E+00 -0.85457063557E+03  0.85457063557E+03  0.00000000000E+00 0.  1.
         23    2    1    2    0    0  0.34256063689E+03  0.74983912404E+01  0.11592923203E+04  0.12121778462E+04  0.89512183830E+02 0.  0.
        254    2    1    2    0    0 -0.34256063689E+03 -0.74983912404E+01 -0.53407809063E+03  0.11221776546E+04  0.92554808942E+03 0.  0.
         23    2    4    4    0    0  0.19108966327E+03 -0.29939774181E+03 -0.25708257747E+03  0.44783026511E+03  0.91138507231E+02 0.  0.
         23    2    4    4    0    0 -0.53365030017E+03  0.29189935057E+03 -0.27699551316E+03  0.67434738952E+03  0.89610343733E+02 0.  0.
          1    1    3    3  502    0  0.28241575021E+03  0.34860692956E+02  0.86675479211E+03  0.91227067997E+03  0.00000000000E+00 0. -1.
         -1    1    3    3    0  502  0.60144886679E+02 -0.27362301715E+02  0.29253752820E+03  0.29990716623E+03  0.00000000000E+00 0.  1.
         11    1    5    5    0    0  0.74264814641E+02 -0.63261013988E+02 -0.36284010964E+02  0.10408529212E+03  0.00000000000E+00 0. -1.
        -11    1    5    5    0    0  0.11682484863E+03 -0.23613672782E+03 -0.22079856650E+03  0.34374497299E+03  0.00000000000E+00 0.  1.
          1    1    6    6  503    0 -0.16235256758E+03  0.48478676571E+02 -0.56314646241E+02  0.17854937038E+03  0.00000000000E+00 0. -1.
         -1    1    6    6    0  503 -0.37129773259E+03  0.24342067400E+03 -0.22068086692E+03  0.49579801914E+03  0.00000000000E+00 0.  1.
<mgrwt>
<rscale>  0 0.22490715E+04</rscale>
<asrwt>0</asrwt>
<pdfrwt beam="1">  1        1 0.22765921E+00 0.22490715E+04</pdfrwt>
<pdfrwt beam="2">  1       -1 0.13147241E+00 0.22490715E+04</pdfrwt>
<totfact> 0.30233706E+00</totfact>
</mgrwt>
</event>
<event>
12    2  0.3623523E-008  0.1194629E+04  0.7818608E-02  0.9117571E-01
          2   -1    0    0  501    0  0.00000000000E+00  0.00000000000E+00  0.17718471122E+04  0.17718471122E+04  0.00000000000E+00 0. -1.
         -2   -1    0    0    0  501 -0.00000000000E+00 -0.00000000000E+00 -0.20136314580E+03  0.20136314580E+03  0.00000000000E+00 0.  1.
         23    2    1    2    0    0 -0.49501699230E+02  0.21005654472E+03  0.54498807651E+03  0.59320952039E+03  0.91166667917E+02 0.  0.
        254    2    1    2    0    0  0.49501699230E+02 -0.21005654472E+03  0.10254958899E+04  0.13800007376E+04  0.89787863622E+03 0.  0.
         23    2    4    4    0    0 -0.68984579839E+02  0.15114730246E+03 -0.83036084303E+02  0.20487884368E+03  0.86463691778E+02 0.  0.
         23    2    4    4    0    0  0.11848627907E+03 -0.36120384718E+03  0.11085319742E+04  0.11751218939E+04  0.86954644633E+02 0.  0.
          4    1    3    3  502    0 -0.57917064013E+02  0.12576824651E+03  0.41988764438E+03  0.44212856958E+03  0.00000000000E+00 0.  1.
         -4    1    3    3    0  502  0.84153647830E+01  0.84288298212E+02  0.12510043213E+03  0.15108095081E+03  0.00000000000E+00 0. -1.
         11    1    5    5    0    0 -0.71359738789E+02  0.13196782623E+03 -0.99055421450E+02  0.17977679494E+03  0.00000000000E+00 0. -1.
        -11    1    5    5    0    0  0.23751589498E+01  0.19179476222E+02  0.16019337147E+02  0.25102048737E+02  0.00000000000E+00 0.  1.
          4    1    6    6  503    0  0.40557057451E+02 -0.17973789776E+03  0.65572148139E+03  0.68111764619E+03  0.00000000000E+00 0. -1.
         -4    1    6    6    0  503  0.77929221618E+02 -0.18146594942E+03  0.45281049277E+03  0.49400424769E+03  0.00000000000E+00 0.  1.
<mgrwt>
<rscale>  0 0.11946292E+04</rscale>
<asrwt>0</asrwt>
<pdfrwt beam="1">  1        2 0.27259185E+00 0.11946292E+04</pdfrwt>
<pdfrwt beam="2">  1       -2 0.30978947E-01 0.11946292E+04</pdfrwt>
<totfact> 0.85267807E+01</totfact>
</mgrwt>
</event>
<event>
12    2  0.3623523E-008  0.1347865E+04  0.7818608E-02  0.8992446E-01
         -2   -1    0    0    0  501 -0.00000000000E+00  0.00000000000E+00  0.61190217569E+03  0.61190217569E+03  0.00000000000E+00 0.  1.
          2   -1    0    0  501    0  0.00000000000E+00 -0.00000000000E+00 -0.74225056420E+03  0.74225056420E+03  0.00000000000E+00 0. -1.
         23    2    1    2    0    0  0.13877626190E+03  0.46332137597E+02  0.32753628108E+03  0.36984802043E+03  0.90011249020E+02 0.  0.
        254    2    1    2    0    0 -0.13877626190E+03 -0.46332137597E+02 -0.45788466960E+03  0.98430471946E+03  0.85894813130E+03 0.  0.
         23    2    4    4    0    0 -0.48791444215E+03  0.18458558231E+02 -0.33091906649E+03  0.59647862516E+03  0.88758664249E+02 0.  0.
         23    2    4    4    0    0  0.34913818025E+03 -0.64790695828E+02 -0.12696560310E+03  0.38782609430E+03  0.90518019603E+02 0.  0.
          1    1    3    3  502    0 -0.26985765705E+01 -0.53651935464E+01 -0.29235320315E+01  0.66794203967E+01  0.00000000000E+00 0. -1.
         -1    1    3    3    0  502  0.14147483847E+03  0.51697331143E+02  0.33045981311E+03  0.36316860003E+03  0.00000000000E+00 0.  1.
         11    1    5    5    0    0 -0.16315639619E+03 -0.28768290698E+02 -0.83759528451E+02  0.18564289045E+03  0.00000000000E+00 0.  1.
        -11    1    5    5    0    0 -0.32475804596E+03  0.47226848929E+02 -0.24715953804E+03  0.41083573472E+03  0.00000000000E+00 0. -1.
          1    1    6    6  503    0  0.34013120323E+03 -0.68947027854E+02 -0.10319148775E+03  0.36206547917E+03  0.00000000000E+00 0. -1.
         -1    1    6    6    0  503  0.90069770149E+01  0.41563320261E+01 -0.23774115353E+02  0.25760615126E+02  0.00000000000E+00 0.  1.
<mgrwt>
<rscale>  0 0.13478646E+04</rscale>
<asrwt>0</asrwt>
<pdfrwt beam="1">  1        2 0.11419239E+00 0.13478646E+04</pdfrwt>
<pdfrwt beam="2">  1       -2 0.94138797E-01 0.13478646E+04</pdfrwt>
<totfact> 0.35362291E+01</totfact>
</mgrwt>
</event>
<event>
12    2  0.3623523E-008  0.2277943E+04  0.7818608E-02  0.8486669E-01
         -2   -1    0    0    0  501 -0.00000000000E+00  0.00000000000E+00  0.86655521705E+03  0.86655521705E+03  0.00000000000E+00 0. -1.
          2   -1    0    0  501    0  0.00000000000E+00 -0.00000000000E+00 -0.14970260961E+04  0.14970260961E+04  0.00000000000E+00 0.  1.
         23    2    1    2    0    0  0.90548747389E+03 -0.30471848901E+03 -0.35418230651E+03  0.10228003625E+04  0.88963770007E+02 0.  0.
        254    2    1    2    0    0 -0.90548747389E+03  0.30471848901E+03 -0.27628857255E+03  0.13407809507E+04  0.89922036199E+03 0.  0.
         23    2    4    4    0    0 -0.98132181194E+03  0.49642617716E+02 -0.35592432143E+03  0.10489875857E+04  0.90752103785E+02 0.  0.
         23    2    4    4    0    0  0.75834338055E+02  0.25507587130E+03  0.79635748880E+02  0.29179336493E+03  0.89369840395E+02 0.  0.
          3    1    3    3  502    0  0.54001906028E+03 -0.18266252081E+03 -0.25756351716E+03  0.62555986711E+03  0.00000000000E+00 0. -1.
         -3    1    3    3    0  502  0.36546841361E+03 -0.12205596821E+03 -0.96618789354E+02  0.39724049539E+03  0.00000000000E+00 0.  1.
         11    1    5    5    0    0 -0.60823527012E+03  0.40527887201E+02 -0.26609461719E+03  0.66513081327E+03  0.00000000000E+00 0. -1.
        -11    1    5    5    0    0 -0.37308654182E+03  0.91147305149E+01 -0.89829704235E+02  0.38385677246E+03  0.00000000000E+00 0.  1.
          1    1    6    6  503    0  0.90628724180E+02  0.23914561868E+03  0.84823707882E+02  0.26944248737E+03  0.00000000000E+00 0. -1.
         -1    1    6    6    0  503 -0.14794386125E+02  0.15930252618E+02 -0.51879590018E+01  0.22350877564E+02  0.00000000000E+00 0.  1.
<mgrwt>
<rscale>  0 0.22779427E+04</rscale>
<asrwt>0</asrwt>
<pdfrwt beam="1">  1        2 0.23031171E+00 0.22779427E+04</pdfrwt>
<pdfrwt beam="2">  1       -2 0.13331619E+00 0.22779427E+04</pdfrwt>
<totfact> 0.47155917E+00</totfact>
</mgrwt>
</event>
<event>
12    2  0.3623523E-008  0.1239746E+04  0.7818608E-02  0.9078761E-01
         -2   -1    0    0    0  501 -0.00000000000E+00  0.00000000000E+00  0.61124903360E+03  0.61124903360E+03  0.00000000000E+00 0.  1.
          2   -1    0    0  501    0  0.00000000000E+00 -0.00000000000E+00 -0.62861874575E+03  0.62861874575E+03  0.00000000000E+00 0. -1.
         23    2    1    2    0    0  0.14750623513E+03 -0.25892886617E+03 -0.24829539297E+03  0.40235597854E+03  0.10694617411E+03 0.  0.
        254    2    1    2    0    0 -0.14750623513E+03  0.25892886617E+03  0.23092568082E+03  0.83751180082E+03  0.74786168461E+03 0.  0.
         23    2    4    4    0    0 -0.86371494096E+02  0.17859279739E+03  0.49479364467E+03  0.54051875079E+03  0.89355172633E+02 0.  0.
         23    2    4    4    0    0 -0.61134741033E+02  0.80336068775E+02 -0.26386796385E+03  0.29699305003E+03  0.91581815411E+02 0.  0.
          3    1    3    3  502    0  0.10830192839E+03 -0.10590124548E+03 -0.16420009730E+03  0.22339662809E+03  0.00000000000E+00 0. -1.
         -3    1    3    3    0  502  0.39204306739E+02 -0.15302762069E+03 -0.84095295672E+02  0.17895935045E+03  0.00000000000E+00 0.  1.
         11    1    5    5    0    0 -0.48945779060E+02  0.92131465476E+02  0.36832419421E+03  0.38281406486E+03  0.00000000000E+00 0.  1.
        -11    1    5    5    0    0 -0.37425715037E+02  0.86461331917E+02  0.12646945046E+03  0.15770468592E+03  0.00000000000E+00 0. -1.
          4    1    6    6  503    0  0.87800499646E+00  0.11096128004E+01 -0.12759966289E+03  0.12760750802E+03  0.00000000000E+00 0. -1.
         -4    1    6    6    0  503 -0.62012746030E+02  0.79226455975E+02 -0.13626830096E+03  0.16938554201E+03  0.00000000000E+00 0.  1.
<mgrwt>
<rscale>  0 0.12397461E+04</rscale>
<asrwt>0</asrwt>
<pdfrwt beam="1">  1        2 0.96710577E-01 0.12397461E+04</pdfrwt>
<pdfrwt beam="2">  1       -2 0.94038313E-01 0.12397461E+04</pdfrwt>
<totfact> 0.44028842E+01</totfact>
</mgrwt>
</event>
<event>
12    2  0.3623523E-008  0.1898973E+04  0.7818608E-02  0.8655368E-01
          2   -1    0    0  501    0  0.00000000000E+00  0.00000000000E+00  0.16922690533E+04  0.16922690533E+04  0.00000000000E+00 0. -1.
         -2   -1    0    0    0  501 -0.00000000000E+00 -0.00000000000E+00 -0.53273110524E+03  0.53273110524E+03  0.00000000000E+00 0.  1.
         23    2    1    2    0    0 -0.16556474576E+03 -0.21836925173E+03  0.12665738652E+04  0.12990793576E+04  0.91109857798E+02 0.  0.
        254    2    1    2    0    0  0.16556474576E+03  0.21836925173E+03 -0.10703591721E+03  0.92592080088E+03  0.87793839578E+03 0.  0.
         23    2    4    4    0    0 -0.17722149695E+03  0.39137567542E+03 -0.25106397797E+03  0.50608411885E+03  0.92226005151E+02 0.  0.
         23    2    4    4    0    0  0.34278624271E+03 -0.17300642369E+03  0.14402806076E+03  0.41983668203E+03  0.89917331254E+02 0.  0.
          4    1    3    3  502    0 -0.95511087677E+02 -0.18350858163E+03  0.81945677317E+03  0.84516694829E+03  0.00000000000E+00 0. -1.
         -4    1    3    3    0  502 -0.70053658084E+02 -0.34860670105E+02  0.44711709208E+03  0.45391240935E+03  0.00000000000E+00 0.  1.
         11    1    5    5    0    0  0.10434889792E+02  0.10539677675E+02 -0.74822229366E+01  0.16611905084E+02  0.00000000000E+00 0. -1.
        -11    1    5    5    0    0 -0.18765638674E+03  0.38083599775E+03 -0.24358175503E+03  0.48947221377E+03  0.00000000000E+00 0.  1.
          2    1    6    6  503    0  0.32379667059E+02  0.81513876476E+01  0.23232123929E+02  0.40677014906E+02  0.00000000000E+00 0. -1.
         -2    1    6    6    0  503  0.31040657565E+03 -0.18115781134E+03  0.12079593683E+03  0.37915966712E+03  0.00000000000E+00 0.  1.
<mgrwt>
<rscale>  0 0.18989727E+04</rscale>
<asrwt>0</asrwt>
<pdfrwt beam="1">  1        2 0.26034908E+00 0.18989727E+04</pdfrwt>
<pdfrwt beam="2">  1       -2 0.81958632E-01 0.18989727E+04</pdfrwt>
<totfact> 0.12141649E+01</totfact>
</mgrwt>
</event>
<event>
12    2  0.3623523E-008  0.1844455E+04  0.7818608E-02  0.8683010E-01
         -2   -1    0    0    0  501 -0.00000000000E+00  0.00000000000E+00  0.28059720040E+03  0.28059720040E+03  0.00000000000E+00 0. -1.
          2   -1    0    0  501    0  0.00000000000E+00 -0.00000000000E+00 -0.30310469463E+04  0.30310469463E+04  0.00000000000E+00 0.  1.
         23    2    1    2    0    0 -0.64171000197E+03 -0.12336119216E+03 -0.11042705933E+04  0.12862976348E+04  0.90212812909E+02 0.  0.
        254    2    1    2    0    0  0.64171000197E+03  0.12336119216E+03 -0.16461791526E+04  0.20253465119E+04  0.98240163912E+03 0.  0.
         23    2    4    4    0    0  0.51450475933E+03 -0.37219034289E+03 -0.72637048079E+03  0.96886170462E+03  0.88533206200E+02 0.  0.
         23    2    4    4    0    0  0.12720524264E+03  0.49555153505E+03 -0.91980867177E+03  0.10564848073E+04  0.91431163703E+02 0.  0.
          4    1    3    3  502    0 -0.62445438161E+03 -0.10377756599E+03 -0.10495451808E+04  0.12256664083E+04  0.00000000000E+00 0.  1.
         -4    1    3    3    0  502 -0.17255620355E+02 -0.19583626167E+02 -0.54725412538E+02  0.60631226485E+02  0.00000000000E+00 0. -1.
         11    1    5    5    0    0  0.40783674839E+03 -0.29805512734E+03 -0.51960470227E+03  0.72467697555E+03  0.00000000000E+00 0. -1.
        -11    1    5    5    0    0  0.10666801093E+03 -0.74135215543E+02 -0.20676577852E+03  0.24418472906E+03  0.00000000000E+00 0.  1.
          4    1    6    6  503    0  0.11675270348E+03  0.29067240435E+03 -0.51832135802E+03  0.60562254796E+03  0.00000000000E+00 0. -1.
         -4    1    6    6    0  503  0.10452539160E+02  0.20487913070E+03 -0.40148731375E+03  0.45086225931E+03  0.00000000000E+00 0.  1.
<mgrwt>
<rscale>  0 0.18444547E+04</rscale>
<asrwt>0</asrwt>
<pdfrwt beam="1">  1        2 0.46631490E+00 0.18444547E+04</pdfrwt>
<pdfrwt beam="2">  1       -2 0.43168801E-01 0.18444547E+04</pdfrwt>
<totfact> 0.79964304E+00</totfact>
</mgrwt>
</event>
<event>
12    2  0.3623523E-008  0.1717273E+04  0.7818608E-02  0.8751574E-01
          1   -1    0    0  501    0  0.00000000000E+00  0.00000000000E+00  0.13703010774E+04  0.13703010774E+04  0.00000000000E+00 0. -1.
         -1   -1    0    0    0  501 -0.00000000000E+00 -0.00000000000E+00 -0.53802540944E+03  0.53802540944E+03  0.00000000000E+00 0.  1.
         23    2    1    2    0    0 -0.33492961281E+03  0.22526102688E+03 -0.21932012250E+03  0.46839544612E+03  0.91501923743E+02 0.  0.
        254    2    1    2    0    0  0.33492961281E+03 -0.22526102688E+03  0.10515957905E+04  0.14399310407E+04  0.89701021163E+03 0.  0.
         23    2    4    4    0    0  0.15593693913E+03 -0.34409937982E+03  0.26920631342E+02  0.38893445892E+03  0.88456660385E+02 0.  0.
         23    2    4    4    0    0  0.17899267367E+03  0.11883835294E+03  0.10246751591E+04  0.10509965818E+04  0.92052712553E+02 0.  0.
          1    1    3    3  502    0 -0.68896366764E+02  0.84616917612E+02 -0.31124796574E+02  0.11347019459E+03  0.00000000000E+00 0. -1.
         -1    1    3    3    0  502 -0.26603324604E+03  0.14064410927E+03 -0.18819532592E+03  0.35492525153E+03  0.00000000000E+00 0.  1.
         11    1    5    5    0    0  0.79303772319E+01 -0.63581590776E+01  0.17295127056E+02  0.20060869616E+02  0.00000000000E+00 0. -1.
        -11    1    5    5    0    0  0.14800656190E+03 -0.33774122074E+03  0.96255042862E+01  0.36887358931E+03  0.00000000000E+00 0.  1.
          2    1    6    6  503    0  0.13338963602E+03  0.50116476681E+02  0.50113481278E+03  0.52099957468E+03  0.00000000000E+00 0. -1.
         -2    1    6    6    0  503  0.45603037658E+02  0.68721876263E+02  0.52354034634E+03  0.52999700713E+03  0.00000000000E+00 0.  1.
<mgrwt>
<rscale>  0 0.17172732E+04</rscale>
<asrwt>0</asrwt>
<pdfrwt beam="1">  1        1 0.21081555E+00 0.17172732E+04</pdfrwt>
<pdfrwt beam="2">  1       -1 0.82773141E-01 0.17172732E+04</pdfrwt>
<totfact> 0.11108706E+01</totfact>
</mgrwt>
</event>
<event>
12    2  0.3623523E-008  0.1316038E+04  0.7818608E-02  0.9016943E-01
         -2   -1    0    0    0  501 -0.00000000000E+00  0.00000000000E+00  0.31498443884E+03  0.31498443884E+03  0.00000000000E+00 0.  1.
          2   -1    0    0  501    0  0.00000000000E+00 -0.00000000000E+00 -0.13746359260E+04  0.13746359260E+04  0.00000000000E+00 0. -1.
         23    2    1    2    0    0 -0.24896546417E+03  0.17429761510E+03 -0.10065140704E+03  0.33268613819E+03  0.90475962707E+02 0.  0.
        254    2    1    2    0    0  0.24896546417E+03 -0.17429761510E+03 -0.95900008012E+03  0.13569342267E+04  0.91061840571E+03 0.  0.
         23    2    4    4    0    0 -0.54458210065E+02  0.22884220534E+03  0.18925524313E+02  0.25271827863E+03  0.90409630524E+02 0.  0.
         23    2    4    4    0    0  0.30342367424E+03 -0.40313982044E+03 -0.97792560444E+03  0.11042159480E+04  0.91469837453E+02 0.  0.
          3    1    3    3  502    0 -0.27988250869E+02 -0.70475919732E+01 -0.21736855493E+02  0.36131726032E+02  0.00000000000E+00 0. -1.
         -3    1    3    3    0  502 -0.22097721330E+03  0.18134520707E+03 -0.78914551551E+02  0.29655441216E+03  0.00000000000E+00 0.  1.
         11    1    5    5    0    0  0.66276149223E+01  0.12171507764E+03 -0.19730967973E+02  0.12348196832E+03  0.00000000000E+00 0.  1.
        -11    1    5    5    0    0 -0.61085824987E+02  0.10712712771E+03  0.38656492286E+02  0.12923631030E+03  0.00000000000E+00 0. -1.
          3    1    6    6  503    0  0.51478320676E+02 -0.44667451212E+02 -0.20120036925E+03  0.21243066465E+03  0.00000000000E+00 0. -1.
         -3    1    6    6    0  503  0.25194535356E+03 -0.35847236923E+03 -0.77672523519E+03  0.89178528338E+03  0.00000000000E+00 0.  1.
<mgrwt>
<rscale>  0 0.13160379E+04</rscale>
<asrwt>0</asrwt>
<pdfrwt beam="1">  1        2 0.21148245E+00 0.13160379E+04</pdfrwt>
<pdfrwt beam="2">  1       -2 0.48459145E-01 0.13160379E+04</pdfrwt>
<totfact> 0.59076872E+01</totfact>
</mgrwt>
</event>
<event>
12    2  0.3623523E-008  0.1659932E+04  0.7818608E-02  0.8784553E-01
          2   -1    0    0  501    0  0.00000000000E+00  0.00000000000E+00  0.16328270974E+04  0.16328270974E+04  0.00000000000E+00 0. -1.
         -2   -1    0    0    0  501 -0.00000000000E+00 -0.00000000000E+00 -0.42187154585E+03  0.42187154585E+03  0.00000000000E+00 0.  1.
         23    2    1    2    0    0 -0.11197572122E+03  0.26090333987E+03  0.10710229230E+04  0.11117891302E+04  0.91519690280E+02 0.  0.
        254    2    1    2    0    0  0.11197572122E+03 -0.26090333987E+03  0.13993262855E+03  0.94290951297E+03  0.88819372561E+03 0.  0.
         23    2    4    4    0    0  0.34788655640E+03  0.89168042586E+02 -0.17421177833E+03  0.40891130656E+03  0.88784666358E+02 0.  0.
         23    2    4    4    0    0 -0.23591083518E+03 -0.35007138245E+03  0.31414440688E+03  0.53399820641E+03  0.90903691396E+02 0.  0.
          1    1    3    3  502    0 -0.46374631378E+02  0.19967169053E+03  0.66072861383E+03  0.69179598985E+03  0.00000000000E+00 0. -1.
         -1    1    3    3    0  502 -0.65601089845E+02  0.61231649334E+02  0.41029430914E+03  0.41999314040E+03  0.00000000000E+00 0.  1.
         11    1    5    5    0    0  0.21966381609E+03  0.54818207818E+02 -0.61071138701E+02  0.23449288260E+03  0.00000000000E+00 0. -1.
        -11    1    5    5    0    0  0.12822274031E+03  0.34349834768E+02 -0.11314063963E+03  0.17441842396E+03  0.00000000000E+00 0.  1.
          3    1    6    6  503    0 -0.51728739460E+02 -0.81946078985E+02  0.28284286201E+02  0.10095059778E+03  0.00000000000E+00 0. -1.
         -3    1    6    6    0  503 -0.18418209572E+03 -0.26812530347E+03  0.28586012068E+03  0.43304760862E+03  0.00000000000E+00 0.  1.
<mgrwt>
<rscale>  0 0.16599317E+04</rscale>
<asrwt>0</asrwt>
<pdfrwt beam="1">  1        2 0.25120417E+00 0.16599317E+04</pdfrwt>
<pdfrwt beam="2">  1       -2 0.64903315E-01 0.16599317E+04</pdfrwt>
<totfact> 0.22346068E+01</totfact>
</mgrwt>
</event>
<event>
12    2  0.3623523E-008  0.2297131E+04  0.7818608E-02  0.8479053E-01
         -2   -1    0    0    0  501 -0.00000000000E+00  0.00000000000E+00  0.39882199927E+03  0.39882199927E+03  0.00000000000E+00 0.  1.
          2   -1    0    0  501    0  0.00000000000E+00 -0.00000000000E+00 -0.33077475267E+04  0.33077475267E+04  0.00000000000E+00 0. -1.
         23    2    1    2    0    0  0.71411545208E+03 -0.44608077621E+03 -0.19898688709E+04  0.21626740665E+04  0.92908863574E+02 0.  0.
        254    2    1    2    0    0 -0.71411545208E+03  0.44608077621E+03 -0.91905665659E+03  0.15438954595E+04  0.91104287165E+03 0.  0.
         23    2    4    4    0    0 -0.40021634435E+03 -0.17818758953E+03 -0.65081417732E+03  0.78986727431E+03  0.91691211533E+02 0.  0.
         23    2    4    4    0    0 -0.31389910774E+03  0.62426836574E+03 -0.26824247927E+03  0.75402818518E+03  0.91437596542E+02 0.  0.
          2    1    3    3  502    0  0.39727859785E+03 -0.27048244902E+03 -0.12402974869E+04  0.13301612291E+04  0.00000000000E+00 0. -1.
         -2    1    3    3    0  502  0.31683685423E+03 -0.17559832720E+03 -0.74957138401E+03  0.83251283740E+03  0.00000000000E+00 0.  1.
         11    1    5    5    0    0 -0.19488238962E+03 -0.91026405599E+02 -0.23913079204E+03  0.32163409024E+03  0.00000000000E+00 0. -1.
        -11    1    5    5    0    0 -0.20533395473E+03 -0.87161183927E+02 -0.41168338528E+03  0.46823318407E+03  0.00000000000E+00 0.  1.
          3    1    6    6  503    0 -0.22691945575E+03  0.51764146608E+03 -0.23729263180E+03  0.61298688396E+03  0.00000000000E+00 0.  1.
         -3    1    6    6    0  503 -0.86979651990E+02  0.10662689966E+03 -0.30949847471E+02  0.14104130122E+03  0.00000000000E+00 0. -1.
<mgrwt>
<rscale>  0 0.22971308E+04</rscale>
<asrwt>0</asrwt>
<pdfrwt beam="1">  1        2 0.50888423E+00 0.22971308E+04</pdfrwt>
<pdfrwt beam="2">  1       -2 0.61357231E-01 0.22971308E+04</pdfrwt>
<totfact> 0.24697506E+00</totfact>
</mgrwt>
</event>
<event>
12    2  0.3623523E-008  0.2577012E+04  0.7818608E-02  0.8376052E-01
         -1   -1    0    0    0  501 -0.00000000000E+00  0.00000000000E+00  0.74097968301E+03  0.74097968301E+03  0.00000000000E+00 0.  1.
          1   -1    0    0  501    0  0.00000000000E+00 -0.00000000000E+00 -0.22406123363E+04  0.22406123363E+04  0.00000000000E+00 0. -1.
         23    2    1    2    0    0 -0.33753464711E+03 -0.91818062958E+03 -0.12986351468E+04  0.16284093430E+04  0.90985918265E+02 0.  0.
        254    2    1    2    0    0  0.33753464711E+03  0.91818062958E+03 -0.20099750653E+03  0.13531826763E+04  0.91308162361E+03 0.  0.
         23    2    4    4    0    0  0.61368456386E+03  0.62461174620E+03 -0.29722312251E+03  0.92875785864E+03  0.86608302299E+02 0.  0.
         23    2    4    4    0    0 -0.27614991674E+03  0.29356888338E+03  0.96225615985E+02  0.42442481770E+03  0.91845472943E+02 0.  0.
          4    1    3    3  502    0 -0.70810176635E+02 -0.19866814546E+03 -0.22109114496E+03  0.30555589916E+03  0.00000000000E+00 0.  1.
         -4    1    3    3    0  502 -0.26672447048E+03 -0.71951248412E+03 -0.10775440018E+04  0.13228534438E+04  0.00000000000E+00 0. -1.
         11    1    5    5    0    0  0.92154312419E+02  0.10411951612E+03 -0.15463469870E+02  0.13990142900E+03  0.00000000000E+00 0.  1.
        -11    1    5    5    0    0  0.52153025144E+03  0.52049223008E+03 -0.28175965264E+03  0.78885642965E+03  0.00000000000E+00 0. -1.
          2    1    6    6  503    0 -0.14552574645E+03  0.21281550944E+03  0.40069821522E+02  0.26090951407E+03  0.00000000000E+00 0.  1.
         -2    1    6    6    0  503 -0.13062417029E+03  0.80753373944E+02  0.56155794464E+02  0.16351530363E+03  0.00000000000E+00 0. -1.
<mgrwt>
<rscale>  0 0.25770124E+04</rscale>
<asrwt>0</asrwt>
<pdfrwt beam="1">  1        1 0.34470958E+00 0.25770124E+04</pdfrwt>
<pdfrwt beam="2">  1       -1 0.11399688E+00 0.25770124E+04</pdfrwt>
<totfact> 0.12639378E+00</totfact>
</mgrwt>
</event>
<event>
12    2  0.3623523E-008  0.1623993E+04  0.7818608E-02  0.8805942E-01
          1   -1    0    0  501    0  0.00000000000E+00  0.00000000000E+00  0.29359155845E+04  0.29359155845E+04  0.00000000000E+00 0. -1.
         -1   -1    0    0    0  501 -0.00000000000E+00 -0.00000000000E+00 -0.22457676278E+03  0.22457676278E+03  0.00000000000E+00 0.  1.
         23    2    1    2    0    0  0.45648594701E+03 -0.22380004024E+03  0.51583277691E+03  0.72924281469E+03  0.85121978418E+02 0.  0.
        254    2    1    2    0    0 -0.45648594701E+03  0.22380004024E+03  0.21955060448E+04  0.24312495326E+04  0.91228373826E+03 0.  0.
         23    2    4    4    0    0 -0.15458523161E+03 -0.12698943247E+03  0.18066385740E+04  0.18199199581E+04  0.90237503337E+02 0.  0.
         23    2    4    4    0    0 -0.30190071540E+03  0.35078947270E+03  0.38886747083E+03  0.61132957452E+03  0.91151756385E+02 0.  0.
          2    1    3    3  502    0  0.25535911937E+02  0.45832463483E+01  0.41207989901E+02  0.48694839328E+02  0.00000000000E+00 0. -1.
         -2    1    3    3    0  502  0.43095003507E+03 -0.22838328659E+03  0.47462478701E+03  0.68054797536E+03  0.00000000000E+00 0.  1.
         11    1    5    5    0    0 -0.45715908588E+02 -0.58610568234E+02  0.36082250224E+03  0.36839926863E+03  0.00000000000E+00 0.  1.
        -11    1    5    5    0    0 -0.10886932302E+03 -0.68378864232E+02  0.14458160717E+04  0.14515206894E+04  0.00000000000E+00 0. -1.
          4    1    6    6  503    0 -0.29324975509E+03  0.35447956776E+03  0.37050589284E+03  0.59069941548E+03  0.00000000000E+00 0. -1.
         -4    1    6    6    0  503 -0.86509603172E+01 -0.36900950512E+01  0.18361577992E+02  0.20630159046E+02  0.00000000000E+00 0.  1.
<mgrwt>
<rscale>  0 0.16239931E+04</rscale>
<asrwt>0</asrwt>
<pdfrwt beam="1">  1        1 0.45167929E+00 0.16239931E+04</pdfrwt>
<pdfrwt beam="2">  1       -1 0.34550273E-01 0.16239931E+04</pdfrwt>
<totfact> 0.50830814E+00</totfact>
</mgrwt>
</event>
<event>
12    2  0.3623523E-008  0.1917905E+04  0.7818608E-02  0.8645995E-01
          1   -1    0    0  501    0  0.00000000000E+00  0.00000000000E+00  0.98331081269E+03  0.98331081269E+03  0.00000000000E+00 0. -1.
         -1   -1    0    0    0  501 -0.00000000000E+00 -0.00000000000E+00 -0.93519779398E+03  0.93519779398E+03  0.00000000000E+00 0.  1.
         23    2    1    2    0    0 -0.63571029954E+03 -0.10247162870E+02 -0.37883053342E+03  0.74582849180E+03  0.92276632160E+02 0.  0.
        254    2    1    2    0    0  0.63571029954E+03  0.10247162870E+02  0.42694355213E+03  0.11726801149E+04  0.88806827767E+03 0.  0.
         23    2    4    4    0    0 -0.96262209992E+02 -0.26671286440E+03  0.17187105124E+03  0.34406500104E+03  0.91863494270E+02 0.  0.
         23    2    4    4    0    0  0.73197250954E+03  0.27696002727E+03  0.25507250089E+03  0.82861511383E+03  0.95133667692E+02 0.  0.
          1    1    3    3  502    0  0.48932748460E+00  0.39885644496E+01  0.17108722426E+01  0.43675132039E+01  0.00000000000E+00 0. -1.
         -1    1    3    3    0  502 -0.63619962703E+03 -0.14235727319E+02 -0.38054140566E+03  0.74146097860E+03  0.00000000000E+00 0.  1.
         11    1    5    5    0    0 -0.60544956250E+02 -0.91298785028E+02  0.24648277266E+02  0.11228845643E+03  0.00000000000E+00 0.  1.
        -11    1    5    5    0    0 -0.35717253742E+02 -0.17541407937E+03  0.14722277397E+03  0.23177654461E+03  0.00000000000E+00 0. -1.
          3    1    6    6  503    0  0.71797035401E+03  0.26343913161E+03  0.23365172563E+03  0.79967164148E+03  0.00000000000E+00 0. -1.
         -3    1    6    6    0  503  0.14002155530E+02  0.13520895652E+02  0.21420775257E+02  0.28943472344E+02  0.00000000000E+00 0.  1.
<mgrwt>
<rscale>  0 0.19179052E+04</rscale>
<asrwt>0</asrwt>
<pdfrwt beam="1">  1        1 0.15127859E+00 0.19179052E+04</pdfrwt>
<pdfrwt beam="2">  1       -1 0.14387658E+00 0.19179052E+04</pdfrwt>
<totfact> 0.56830849E+00</totfact>
</mgrwt>
</event>
<event>
12    2  0.3623523E-008  0.1565191E+04  0.7818608E-02  0.8842223E-01
         -1   -1    0    0    0  501 -0.00000000000E+00  0.00000000000E+00  0.64162458070E+03  0.64162458070E+03  0.00000000000E+00 0.  1.
          1   -1    0    0  501    0  0.00000000000E+00 -0.00000000000E+00 -0.95453858756E+03  0.95453858756E+03  0.00000000000E+00 0. -1.
         23    2    1    2    0    0 -0.48660913722E+03  0.18574062285E+03 -0.43606531337E+02  0.53092015564E+03  0.93202203218E+02 0.  0.
        254    2    1    2    0    0  0.48660913722E+03 -0.18574062285E+03 -0.26930747553E+03  0.10652430126E+04  0.88934140135E+03 0.  0.
         23    2    4    4    0    0  0.51527128977E+03 -0.54425622274E+02  0.20410074639E+03  0.56433642126E+03  0.91388354127E+02 0.  0.
         23    2    4    4    0    0 -0.28662152548E+02 -0.13131500057E+03 -0.47340822192E+03  0.50090659136E+03  0.93417987143E+02 0.  0.
          1    1    3    3  502    0 -0.33059308349E+03  0.16374736037E+03 -0.54765830606E+02  0.37296686325E+03  0.00000000000E+00 0. -1.
         -1    1    3    3    0  502 -0.15601605373E+03  0.21993262474E+02  0.11159299268E+02  0.15795329239E+03  0.00000000000E+00 0.  1.
         11    1    5    5    0    0  0.11226017207E+03 -0.50450459862E+02  0.45238587033E+02  0.13112636992E+03  0.00000000000E+00 0. -1.
        -11    1    5    5    0    0  0.40301111770E+03 -0.39751624118E+01  0.15886215935E+03  0.43321005134E+03  0.00000000000E+00 0.  1.
          3    1    6    6  503    0 -0.37063533761E+01  0.13054214152E+02 -0.79174654447E+02  0.80329169479E+02  0.00000000000E+00 0. -1.
         -3    1    6    6    0  503 -0.24955799172E+02 -0.14436921473E+03 -0.39423356747E+03  0.42057742188E+03  0.00000000000E+00 0.  1.
<mgrwt>
<rscale>  0 0.15651906E+04</rscale>
<asrwt>0</asrwt>
<pdfrwt beam="1">  1        1 0.14685209E+00 0.15651906E+04</pdfrwt>
<pdfrwt beam="2">  1       -1 0.98711475E-01 0.15651906E+04</pdfrwt>
<totfact> 0.15532469E+01</totfact>
</mgrwt>
</event>
<event>
12    2  0.3623523E-008  0.2309621E+04  0.7818608E-02  0.8474138E-01
         -2   -1    0    0    0  501 -0.00000000000E+00  0.00000000000E+00  0.43795990006E+03  0.43795990006E+03  0.00000000000E+00 0.  1.
          2   -1    0    0  501    0  0.00000000000E+00 -0.00000000000E+00 -0.30449973746E+04  0.30449973746E+04  0.00000000000E+00 0. -1.
         23    2    1    2    0    0  0.54334548013E+03 -0.30636571674E+02  0.12164817673E+03  0.56447227287E+03  0.87565733213E+02 0.  0.
        254    2    1    2    0    0 -0.54334548013E+03  0.30636571674E+02 -0.27286856513E+04  0.29184850018E+04  0.88071925829E+03 0.  0.
         23    2    4    4    0    0 -0.28678518663E+03 -0.17720541383E+03 -0.24566290916E+04  0.24813971894E+04  0.93048461389E+02 0.  0.
         23    2    4    4    0    0 -0.25656029350E+03  0.20784198550E+03 -0.27205655971E+03  0.43708781238E+03  0.89495859730E+02 0.  0.
          4    1    3    3  502    0  0.38406052394E+03 -0.59507922884E+02  0.72998251771E+02  0.39543953229E+03  0.00000000000E+00 0.  1.
         -4    1    3    3    0  502  0.15928495619E+03  0.28871351209E+02  0.48649924963E+02  0.16903274058E+03  0.00000000000E+00 0. -1.
         11    1    5    5    0    0 -0.18191317786E+03 -0.60630107962E+02 -0.12499323734E+04  0.12645550017E+04  0.00000000000E+00 0.  1.
        -11    1    5    5    0    0 -0.10487200877E+03 -0.11657530586E+03 -0.12066967182E+04  0.12168421878E+04  0.00000000000E+00 0. -1.
          1    1    6    6  503    0 -0.13226641870E+03  0.10937164327E+03 -0.19812808295E+03  0.26212840197E+03  0.00000000000E+00 0. -1.
         -1    1    6    6    0  503 -0.12429387481E+03  0.98470342228E+02 -0.73928476756E+02  0.17495941040E+03  0.00000000000E+00 0.  1.
<mgrwt>
<rscale>  0 0.23096205E+04</rscale>
<asrwt>0</asrwt>
<pdfrwt beam="1">  1        2 0.46846115E+00 0.23096205E+04</pdfrwt>
<pdfrwt beam="2">  1       -2 0.67378444E-01 0.23096205E+04</pdfrwt>
<totfact> 0.29875650E+00</totfact>
</mgrwt>
</event>
<event>
12    2  0.3623523E-008  0.1451785E+04  0.7818608E-02  0.8917164E-01
          2   -1    0    0  501    0  0.00000000000E+00  0.00000000000E+00  0.16146153321E+04  0.16146153321E+04  0.00000000000E+00 0. -1.
         -2   -1    0    0    0  501 -0.00000000000E+00 -0.00000000000E+00 -0.32634404530E+03  0.32634404530E+03  0.00000000000E+00 0.  1.
         23    2    1    2    0    0 -0.40671239711E+02 -0.19755953469E+02  0.95338980329E+03  0.95888360520E+03  0.91984802359E+02 0.  0.
        254    2    1    2    0    0  0.40671239711E+02  0.19755953469E+02  0.33488148346E+03  0.98207577215E+03  0.92210778483E+03 0.  0.
         23    2    4    4    0    0  0.25631140063E+03 -0.18160305776E+03 -0.18630952375E+03  0.37639044386E+03  0.91012762333E+02 0.  0.
         23    2    4    4    0    0 -0.21564016092E+03  0.20135901123E+03  0.52119100722E+03  0.60568532829E+03  0.90379867810E+02 0.  0.
          1    1    3    3  502    0 -0.41010415008E+02  0.31202685187E+02  0.47410459998E+03  0.47689687923E+03  0.00000000000E+00 0. -1.
         -1    1    3    3    0  502  0.33917529650E+00 -0.50958638656E+02  0.47928520331E+03  0.48198672597E+03  0.00000000000E+00 0.  1.
         11    1    5    5    0    0 -0.25260752813E+00 -0.19592075165E+02  0.13075552856E+01  0.19637283943E+02  0.00000000000E+00 0. -1.
        -11    1    5    5    0    0  0.25656400816E+03 -0.16201098259E+03 -0.18761707904E+03  0.35675315992E+03  0.00000000000E+00 0.  1.
          4    1    6    6  503    0  0.26560004777E+01 -0.28740921803E+01 -0.94778660622E+00  0.40265424187E+01  0.00000000000E+00 0. -1.
         -4    1    6    6    0  503 -0.21829616140E+03  0.20423310341E+03  0.52213879382E+03  0.60165878588E+03  0.00000000000E+00 0.  1.
<mgrwt>
<rscale>  0 0.14517852E+04</rscale>
<asrwt>0</asrwt>
<pdfrwt beam="1">  1        2 0.24840235E+00 0.14517852E+04</pdfrwt>
<pdfrwt beam="2">  1       -2 0.50206777E-01 0.14517852E+04</pdfrwt>
<totfact> 0.39812972E+01</totfact>
</mgrwt>
</event>
<event>
12    2  0.3623523E-008  0.1834721E+04  0.7818608E-02  0.8688050E-01
          2   -1    0    0  501    0  0.00000000000E+00  0.00000000000E+00  0.19580461746E+04  0.19580461746E+04  0.00000000000E+00 0. -1.
         -2   -1    0    0    0  501 -0.00000000000E+00 -0.00000000000E+00 -0.42979098685E+03  0.42979098685E+03  0.00000000000E+00 0.  1.
         23    2    1    2    0    0  0.10073582352E+03  0.21303556872E+03  0.14225111978E+04  0.14448610512E+04  0.92485079124E+02 0.  0.
        254    2    1    2    0    0 -0.10073582352E+03 -0.21303556872E+03  0.10574398993E+03  0.94297611018E+03  0.90691250586E+03 0.  0.
         23    2    4    4    0    0 -0.36199599748E+03 -0.16272850472E+03  0.37537929327E+03  0.55377598075E+03  0.90755465915E+02 0.  0.
         23    2    4    4    0    0  0.26126017396E+03 -0.50307064004E+02 -0.26963530334E+03  0.38920012943E+03  0.89363665713E+02 0.  0.
          2    1    3    3  502    0  0.11682224244E+03  0.19712336238E+03  0.13319402100E+04  0.13515064851E+04  0.00000000000E+00 0. -1.
         -2    1    3    3    0  502 -0.16086418919E+02  0.15912206343E+02  0.90570987800E+02  0.93354566119E+02  0.00000000000E+00 0.  1.
         11    1    5    5    0    0 -0.34376470335E+03 -0.14953409019E+03  0.31607383068E+03  0.49034404436E+03  0.00000000000E+00 0.  1.
        -11    1    5    5    0    0 -0.18231294130E+02 -0.13194414534E+02  0.59305462593E+02  0.63431936388E+02  0.00000000000E+00 0. -1.
          3    1    6    6  503    0  0.27794520639E+02  0.61215328196E+01 -0.48935807749E+00  0.28464855751E+02  0.00000000000E+00 0. -1.
         -3    1    6    6    0  503  0.23346565333E+03 -0.56428596824E+02 -0.26914594527E+03  0.36073527368E+03  0.00000000000E+00 0.  1.
<mgrwt>
<rscale>  0 0.18347213E+04</rscale>
<asrwt>0</asrwt>
<pdfrwt beam="1">  1        2 0.30123787E+00 0.18347213E+04</pdfrwt>
<pdfrwt beam="2">  1       -2 0.66121691E-01 0.18347213E+04</pdfrwt>
<totfact> 0.13964429E+01</totfact>
</mgrwt>
</event>
<event>
12    2  0.3623523E-008  0.1733027E+04  0.7818608E-02  0.8742749E-01
          1   -1    0    0  501    0  0.00000000000E+00  0.00000000000E+00  0.10855943611E+04  0.10855943611E+04  0.00000000000E+00 0. -1.
         -1   -1    0    0    0  501 -0.00000000000E+00 -0.00000000000E+00 -0.69164482484E+03  0.69164482484E+03  0.00000000000E+00 0.  1.
         23    2    1    2    0    0 -0.14253498003E+03 -0.29871924072E+03  0.66440991182E+03  0.74811367020E+03  0.93188665148E+02 0.  0.
        254    2    1    2    0    0  0.14253498003E+03  0.29871924072E+03 -0.27046037560E+03  0.10291255157E+04  0.93616297030E+03 0.  0.
         23    2    4    4    0    0  0.32170202842E+03  0.19354599662E+03  0.25120889088E+03  0.46053518182E+03  0.89635366588E+02 0.  0.
         23    2    4    4    0    0 -0.17916704839E+03  0.10517324410E+03 -0.52166926648E+03  0.56859033387E+03  0.89408621939E+02 0.  0.
          2    1    3    3  502    0 -0.70443090055E+02 -0.16799544839E+03  0.46191636559E+03  0.49653945304E+03  0.00000000000E+00 0. -1.
         -2    1    3    3    0  502 -0.72091889976E+02 -0.13072379232E+03  0.20249354622E+03  0.25157421717E+03  0.00000000000E+00 0.  1.
         11    1    5    5    0    0  0.72896240544E+01  0.30451528578E+02  0.26955064239E+02  0.41315973905E+02  0.00000000000E+00 0.  1.
        -11    1    5    5    0    0  0.31441240437E+03  0.16309446804E+03  0.22425382664E+03  0.41921920792E+03  0.00000000000E+00 0. -1.
          2    1    6    6  503    0 -0.15691610418E+03  0.12160031731E+03 -0.45859487035E+03  0.49971847678E+03  0.00000000000E+00 0. -1.
         -2    1    6    6    0  503 -0.22250944213E+02 -0.16427073207E+02 -0.63074396125E+02  0.68871857090E+02  0.00000000000E+00 0.  1.
<mgrwt>
<rscale>  0 0.17330271E+04</rscale>
<asrwt>0</asrwt>
<pdfrwt beam="1">  1        1 0.16701452E+00 0.17330271E+04</pdfrwt>
<pdfrwt beam="2">  1       -1 0.10640689E+00 0.17330271E+04</pdfrwt>
<totfact> 0.10183440E+01</totfact>
</mgrwt>
</event>
<event>
12    2  0.3623523E-008  0.2585556E+04  0.7818608E-02  0.8373124E-01
         -1   -1    0    0    0  501 -0.00000000000E+00  0.00000000000E+00  0.23923405056E+04  0.23923405056E+04  0.00000000000E+00 0.  1.
          1   -1    0    0  501    0  0.00000000000E+00 -0.00000000000E+00 -0.69859428498E+03  0.69859428498E+03  0.00000000000E+00 0. -1.
         23    2    1    2    0    0 -0.10231671180E+02  0.55157577620E+01  0.21014179478E+04  0.21040301507E+04  0.10416512316E+03 0.  0.
        254    2    1    2    0    0  0.10231671180E+02 -0.55157577620E+01 -0.40767172722E+03  0.98690463988E+03  0.89869317365E+03 0.  0.
         23    2    4    4    0    0 -0.14967972470E+03 -0.41276572819E+03 -0.15854790630E+03  0.47525797825E+03  0.89180384257E+02 0.  0.
         23    2    4    4    0    0  0.15991139588E+03  0.40724997043E+03 -0.24912382092E+03  0.51164666163E+03  0.91079280106E+02 0.  0.
          4    1    3    3  502    0  0.18023193503E+02  0.45697426360E+02  0.68419799635E+03  0.68595917407E+03  0.00000000000E+00 0. -1.
         -4    1    3    3    0  502 -0.28254864683E+02 -0.40181668598E+02  0.14172199515E+04  0.14180709766E+04  0.00000000000E+00 0.  1.
         11    1    5    5    0    0 -0.31632734692E+02 -0.45177188098E+02 -0.49418669770E+02  0.74052772739E+02  0.00000000000E+00 0.  1.
        -11    1    5    5    0    0 -0.11804699001E+03 -0.36758854009E+03 -0.10912923653E+03  0.40120520551E+03  0.00000000000E+00 0. -1.
          1    1    6    6  503    0  0.16837873397E+03  0.40045449653E+03 -0.24914867581E+03  0.50078964097E+03  0.00000000000E+00 0. -1.
         -1    1    6    6    0  503 -0.84673380934E+01  0.67954739007E+01  0.24854892422E-01  0.10857020664E+02  0.00000000000E+00 0.  1.
<mgrwt>
<rscale>  0 0.25855563E+04</rscale>
<asrwt>0</asrwt>
<pdfrwt beam="1">  1        1 0.10747604E+00 0.25855563E+04</pdfrwt>
<pdfrwt beam="2">  1       -1 0.36805238E+00 0.25855563E+04</pdfrwt>
<totfact> 0.28379684E-01</totfact>
</mgrwt>
</event>
<event>
12    2  0.3623523E-008  0.3352873E+04  0.7818608E-02  0.8149571E-01
          1   -1    0    0  501    0  0.00000000000E+00  0.00000000000E+00  0.25917822152E+04  0.25917822152E+04  0.00000000000E+00 0. -1.
         -1   -1    0    0    0  501 -0.00000000000E+00 -0.00000000000E+00 -0.10843652419E+04  0.10843652419E+04  0.00000000000E+00 0.  1.
         23    2    1    2    0    0 -0.99455620460E+03 -0.37028670890E+03 -0.54315492580E+03  0.11956795043E+04  0.91530938620E+02 0.  0.
        254    2    1    2    0    0  0.99455620460E+03  0.37028670890E+03  0.20505718991E+04  0.24804679528E+04  0.90643359421E+03 0.  0.
         23    2    4    4    0    0  0.21329764701E+03 -0.77546358157E+02  0.12447522026E+04  0.12685940595E+04  0.91725230407E+02 0.  0.
         23    2    4    4    0    0  0.78125855759E+03  0.44783306705E+03  0.80581969646E+03  0.12118738933E+04  0.91507160416E+02 0.  0.
          4    1    3    3  502    0 -0.12537448317E+03 -0.71719405193E+02 -0.97728204910E+02  0.17439391086E+03  0.00000000000E+00 0. -1.
         -4    1    3    3    0  502 -0.86918172143E+03 -0.29856730370E+03 -0.44542672089E+03  0.10212855935E+04  0.00000000000E+00 0.  1.
         11    1    5    5    0    0  0.23725107011E+01 -0.13094556730E+01 -0.94336637331E+00  0.28693938908E+01  0.00000000000E+00 0. -1.
        -11    1    5    5    0    0  0.21092513631E+03 -0.76236902484E+02  0.12456955690E+04  0.12657246656E+04  0.00000000000E+00 0.  1.
          1    1    6    6  503    0  0.58216686079E+03  0.34832503404E+03  0.65500317635E+03  0.94301524068E+03  0.00000000000E+00 0. -1.
         -1    1    6    6    0  503  0.19909169680E+03  0.99508033013E+02  0.15081652011E+03  0.26885865265E+03  0.00000000000E+00 0.  1.
<mgrwt>
<rscale>  0 0.33528725E+04</rscale>
<asrwt>0</asrwt>
<pdfrwt beam="1">  1        1 0.39873572E+00 0.33528725E+04</pdfrwt>
<pdfrwt beam="2">  1       -1 0.16682542E+00 0.33528725E+04</pdfrwt>
<totfact> 0.25073954E-01</totfact>
</mgrwt>
</event>
<event>
12    2  0.3623523E-008  0.2555537E+04  0.7818608E-02  0.8383463E-01
         -2   -1    0    0    0  501 -0.00000000000E+00  0.00000000000E+00  0.74180549450E+03  0.74180549450E+03  0.00000000000E+00 0. -1.
          2   -1    0    0  501    0  0.00000000000E+00 -0.00000000000E+00 -0.22009703336E+04  0.22009703336E+04  0.00000000000E+00 0.  1.
         23    2    1    2    0    0  0.27491606222E+03  0.71734401624E+03 -0.15839705331E+04  0.17626774414E+04  0.88926001611E+02 0.  0.
        254    2    1    2    0    0 -0.27491606222E+03 -0.71734401624E+03  0.12480569400E+03  0.11800983867E+04  0.88707071993E+03 0.  0.
         23    2    4    4    0    0  0.38588197961E+02  0.17397772485E+03  0.11493055065E+03  0.23076830716E+03  0.91036708827E+02 0.  0.
         23    2    4    4    0    0 -0.31350426019E+03 -0.89132174109E+03  0.98751433512E+01  0.94933007955E+03  0.91600841657E+02 0.  0.
          2    1    3    3  502    0  0.27918482181E+03  0.67110862011E+03 -0.14936911413E+04  0.16611574791E+04  0.00000000000E+00 0.  1.
         -2    1    3    3    0  502 -0.42687595827E+01  0.46235396127E+02 -0.90279391738E+02  0.10151996225E+03  0.00000000000E+00 0. -1.
         11    1    5    5    0    0 -0.19608312575E+02  0.14155413752E+02 -0.21494529003E+01  0.24279246453E+02  0.00000000000E+00 0.  1.
        -11    1    5    5    0    0  0.58196510537E+02  0.15982231109E+03  0.11708000355E+03  0.20648906071E+03  0.00000000000E+00 0. -1.
          3    1    6    6  503    0 -0.24626919125E+03 -0.70712946447E+03 -0.29367450760E+02  0.74936175593E+03  0.00000000000E+00 0. -1.
         -3    1    6    6    0  503 -0.67235068939E+02 -0.18419227661E+03  0.39242594111E+02  0.19996832362E+03  0.00000000000E+00 0.  1.
<mgrwt>
<rscale>  0 0.25555366E+04</rscale>
<asrwt>0</asrwt>
<pdfrwt beam="1">  1        2 0.33861081E+00 0.25555366E+04</pdfrwt>
<pdfrwt beam="2">  1       -2 0.11412393E+00 0.25555366E+04</pdfrwt>
<totfact> 0.27504364E+00</totfact>
</mgrwt>
</event>
<event>
12    2  0.3623523E-008  0.1494423E+04  0.7818608E-02  0.8888170E-01
          2   -1    0    0  501    0  0.00000000000E+00  0.00000000000E+00  0.37840895237E+03  0.37840895237E+03  0.00000000000E+00 0. -1.
         -2   -1    0    0    0  501 -0.00000000000E+00 -0.00000000000E+00 -0.14754545157E+04  0.14754545157E+04  0.00000000000E+00 0.  1.
         23    2    1    2    0    0 -0.34271837395E+03  0.90186819561E+02 -0.73273478171E+03  0.81812963153E+03  0.82742295066E+02 0.  0.
        254    2    1    2    0    0  0.34271837395E+03 -0.90186819561E+02 -0.36431078159E+03  0.10357338365E+04  0.90245924465E+03 0.  0.
         23    2    4    4    0    0 -0.22070445440E+03  0.11079988655E+03  0.91129433756E+02  0.27878358533E+03  0.91807639671E+02 0.  0.
         23    2    4    4    0    0  0.56342282835E+03 -0.20098670611E+03 -0.45544021534E+03  0.75695025118E+03  0.87789255939E+02 0.  0.
          1    1    3    3  502    0 -0.25384450197E+02  0.32437736082E+02 -0.75053252074E+02  0.85612894361E+02  0.00000000000E+00 0. -1.
         -1    1    3    3    0  502 -0.31733392375E+03  0.57749083478E+02 -0.65768152964E+03  0.73251673717E+03  0.00000000000E+00 0.  1.
         11    1    5    5    0    0 -0.17824172052E+03  0.10836524440E+03  0.40211139948E+02  0.21243839790E+03  0.00000000000E+00 0.  1.
        -11    1    5    5    0    0 -0.42462733889E+02  0.24346421532E+01  0.50918293807E+02  0.66345187436E+02  0.00000000000E+00 0. -1.
          3    1    6    6  503    0  0.38866700695E+03 -0.10895694380E+03 -0.26697548718E+03  0.48395203135E+03  0.00000000000E+00 0. -1.
         -3    1    6    6    0  503  0.17475582141E+03 -0.92029762310E+02 -0.18846472817E+03  0.27299821983E+03  0.00000000000E+00 0.  1.
<mgrwt>
<rscale>  0 0.14944232E+04</rscale>
<asrwt>0</asrwt>
<pdfrwt beam="1">  1        2 0.58216764E-01 0.14944232E+04</pdfrwt>
<pdfrwt beam="2">  1       -2 0.22699300E+00 0.14944232E+04</pdfrwt>
<totfact> 0.73037456E+00</totfact>
</mgrwt>
</event>
<event>
12    2  0.3623523E-008  0.1305834E+04  0.7818608E-02  0.9024952E-01
         -1   -1    0    0    0  501 -0.00000000000E+00  0.00000000000E+00  0.25245419102E+03  0.25245419102E+03  0.00000000000E+00 0. -1.
          1   -1    0    0  501    0  0.00000000000E+00 -0.00000000000E+00 -0.16886249992E+04  0.16886249992E+04  0.00000000000E+00 0.  1.
         23    2    1    2    0    0  0.10131259119E+03 -0.25379536069E+03 -0.66640543665E+03  0.72623811664E+03  0.93001450650E+02 0.  0.
        254    2    1    2    0    0 -0.10131259119E+03  0.25379536069E+03 -0.76976537156E+03  0.12148410736E+04  0.89923510867E+03 0.  0.
         23    2    4    4    0    0 -0.24971450173E+03 -0.21929729949E+03 -0.58267610502E+03  0.67710408138E+03  0.92248879199E+02 0.  0.
         23    2    4    4    0    0  0.14840191054E+03  0.47309266018E+03 -0.18708926654E+03  0.53773699224E+03  0.91207932794E+02 0.  0.
          4    1    3    3  502    0  0.22665774057E+02 -0.17173610416E+02 -0.24258905186E+02  0.37378666230E+02  0.00000000000E+00 0. -1.
         -4    1    3    3    0  502  0.78646817129E+02 -0.23662175027E+03 -0.64214653146E+03  0.68885945041E+03  0.00000000000E+00 0.  1.
         11    1    5    5    0    0 -0.19951951964E+03 -0.12521172796E+03 -0.43867158586E+03  0.49791442616E+03  0.00000000000E+00 0. -1.
        -11    1    5    5    0    0 -0.50194982090E+02 -0.94085571535E+02 -0.14400451916E+03  0.17918965522E+03  0.00000000000E+00 0.  1.
          2    1    6    6  503    0  0.73275316662E+02  0.21399737704E+03 -0.13364611274E+03  0.26272691690E+03  0.00000000000E+00 0. -1.
         -2    1    6    6    0  503  0.75126593879E+02  0.25909528314E+03 -0.53443153794E+02  0.27501007534E+03  0.00000000000E+00 0.  1.
<mgrwt>
<rscale>  0 0.13058338E+04</rscale>
<asrwt>0</asrwt>
<pdfrwt beam="1">  1        1 0.25978845E+00 0.13058338E+04</pdfrwt>
<pdfrwt beam="2">  1       -1 0.38839108E-01 0.13058338E+04</pdfrwt>
<totfact> 0.30635268E+01</totfact>
</mgrwt>
</event>
<event>
12    2  0.3623523E-008  0.1667214E+04  0.7818608E-02  0.8780288E-01
         -2   -1    0    0    0  501 -0.00000000000E+00  0.00000000000E+00  0.34200868670E+03  0.34200868670E+03  0.00000000000E+00 0.  1.
          2   -1    0    0  501    0  0.00000000000E+00 -0.00000000000E+00 -0.20318204445E+04  0.20318204445E+04  0.00000000000E+00 0. -1.
         23    2    1    2    0    0  0.14947352709E+03 -0.55430361208E+03 -0.46160137434E+03  0.74253547564E+03  0.93210912048E+02 0.  0.
        254    2    1    2    0    0 -0.14947352709E+03  0.55430361208E+03 -0.12282103834E+04  0.16312936556E+04  0.90720637949E+03 0.  0.
         23    2    4    4    0    0 -0.51291421126E+03  0.37909175371E+03 -0.88159176907E+03  0.10917005478E+04  0.88399621255E+02 0.  0.
         23    2    4    4    0    0  0.36344068417E+03  0.17521185837E+03 -0.34661861437E+03  0.53959310770E+03  0.90707948010E+02 0.  0.
          1    1    3    3  502    0  0.34458041007E+02 -0.34004760602E+02 -0.45800878845E+02  0.66643835698E+02  0.00000000000E+00 0. -1.
         -1    1    3    3    0  502  0.11501548608E+03 -0.52029885147E+03 -0.41580049550E+03  0.67589163994E+03  0.00000000000E+00 0.  1.
         11    1    5    5    0    0 -0.18837599580E+03  0.11688776943E+03 -0.37253957595E+03  0.43351355467E+03  0.00000000000E+00 0. -1.
        -11    1    5    5    0    0 -0.32453821545E+03  0.26220398428E+03 -0.50905219313E+03  0.65818699318E+03  0.00000000000E+00 0.  1.
          2    1    6    6  503    0  0.18612702948E+03  0.13686811951E+03 -0.21353856946E+03  0.31460272390E+03  0.00000000000E+00 0. -1.
         -2    1    6    6    0  503  0.17731365469E+03  0.38343738853E+02 -0.13308004491E+03  0.22499038380E+03  0.00000000000E+00 0.  1.
<mgrwt>
<rscale>  0 0.16672135E+04</rscale>
<asrwt>0</asrwt>
<pdfrwt beam="1">  1        2 0.31258776E+00 0.16672135E+04</pdfrwt>
<pdfrwt beam="2">  1       -2 0.52616721E-01 0.16672135E+04</pdfrwt>
<totfact> 0.20856941E+01</totfact>
</mgrwt>
</event>
<event>
12    2  0.3623523E-008  0.1724016E+04  0.7818608E-02  0.8747785E-01
         -2   -1    0    0    0  501 -0.00000000000E+00  0.00000000000E+00  0.33200155804E+03  0.33200155804E+03  0.00000000000E+00 0.  1.
          2   -1    0    0  501    0  0.00000000000E+00 -0.00000000000E+00 -0.22381141570E+04  0.22381141570E+04  0.00000000000E+00 0. -1.
         23    2    1    2    0    0  0.34458789718E+03 -0.14324495311E+03 -0.14487530427E+04  0.14986990433E+04  0.89182442743E+02 0.  0.
        254    2    1    2    0    0 -0.34458789718E+03  0.14324495311E+03 -0.45735955618E+03  0.10714166717E+04  0.89414539380E+03 0.  0.
         23    2    4    4    0    0  0.16443242378E+03  0.12442452402E+02 -0.50270565731E+03  0.53599251293E+03  0.85919493795E+02 0.  0.
         23    2    4    4    0    0 -0.50902032097E+03  0.13080250071E+03  0.45346101129E+02  0.53542415875E+03  0.91715754054E+02 0.  0.
          1    1    3    3  502    0  0.21684397591E+03 -0.97426585438E+02 -0.74599839209E+03  0.78296031218E+03  0.00000000000E+00 0. -1.
         -1    1    3    3    0  502  0.12774392127E+03 -0.45818367674E+02 -0.70275465065E+03  0.71573873113E+03  0.00000000000E+00 0.  1.
         11    1    5    5    0    0  0.49687417986E+01  0.11861182978E+02 -0.57647678629E+01  0.14092856531E+02  0.00000000000E+00 0.  1.
        -11    1    5    5    0    0  0.15946368198E+03  0.58126942426E+00 -0.49694088945E+03  0.52189965640E+03  0.00000000000E+00 0. -1.
          3    1    6    6  503    0 -0.35201392763E+03  0.13154912030E+03  0.19444618062E+02  0.37629386053E+03  0.00000000000E+00 0. -1.
         -3    1    6    6    0  503 -0.15700639333E+03 -0.74661959261E+00  0.25901483067E+02  0.15913029823E+03  0.00000000000E+00 0.  1.
<mgrwt>
<rscale>  0 0.17240155E+04</rscale>
<asrwt>0</asrwt>
<pdfrwt beam="1">  1        2 0.34432525E+00 0.17240155E+04</pdfrwt>
<pdfrwt beam="2">  1       -2 0.51077163E-01 0.17240155E+04</pdfrwt>
<totfact> 0.16918753E+01</totfact>
</mgrwt>
</event>
<event>
12    2  0.3623523E-008  0.1630107E+04  0.7818608E-02  0.8802263E-01
          1   -1    0    0  501    0  0.00000000000E+00  0.00000000000E+00  0.12406761998E+04  0.12406761998E+04  0.00000000000E+00 0. -1.
         -1   -1    0    0    0  501 -0.00000000000E+00 -0.00000000000E+00 -0.53544336663E+03  0.53544336663E+03  0.00000000000E+00 0.  1.
         23    2    1    2    0    0 -0.30212598241E+03 -0.28980243017E+02  0.76662861318E+03  0.82952728917E+03  0.90973233410E+02 0.  0.
        254    2    1    2    0    0  0.30212598241E+03  0.28980243017E+02 -0.61395780042E+02  0.94659227724E+03  0.89450966109E+03 0.  0.
         23    2    4    4    0    0  0.17362642254E+03  0.21762822798E+02 -0.47000173818E+03  0.50974959525E+03  0.91231907283E+02 0.  0.
         23    2    4    4    0    0  0.12849955987E+03  0.72174202190E+01  0.40860595814E+03  0.43684268198E+03  0.85489600142E+02 0.  0.
          2    1    3    3  502    0 -0.24391974646E+03  0.58774719724E+01  0.65414279823E+03  0.69816487155E+03  0.00000000000E+00 0. -1.
         -2    1    3    3    0  502 -0.58206235954E+02 -0.34857714989E+02  0.11248581495E+03  0.13136241762E+03  0.00000000000E+00 0.  1.
         11    1    5    5    0    0  0.12488391184E+03 -0.27625875545E+02 -0.29940304410E+03  0.32557850551E+03  0.00000000000E+00 0. -1.
        -11    1    5    5    0    0  0.48742510698E+02  0.49388698342E+02 -0.17059869408E+03  0.18417108974E+03  0.00000000000E+00 0.  1.
          3    1    6    6  503    0  0.13069055814E+03  0.25877068150E+02  0.37943564582E+03  0.40214556315E+03  0.00000000000E+00 0. -1.
         -3    1    6    6    0  503 -0.21909982712E+01 -0.18659647931E+02  0.29170312320E+02  0.34697118831E+02  0.00000000000E+00 0.  1.
<mgrwt>
<rscale>  0 0.16301066E+04</rscale>
<asrwt>0</asrwt>
<pdfrwt beam="1">  1        1 0.19087326E+00 0.16301066E+04</pdfrwt>
<pdfrwt beam="2">  1       -1 0.82375903E-01 0.16301066E+04</pdfrwt>
<totfact> 0.13997525E+01</totfact>
</mgrwt>
</event>
<event>
12    2  0.3623523E-008  0.1588265E+04  0.7818608E-02  0.8827790E-01
         -2   -1    0    0    0  501 -0.00000000000E+00  0.00000000000E+00  0.66093636304E+03  0.66093636304E+03  0.00000000000E+00 0.  1.
          2   -1    0    0  501    0  0.00000000000E+00 -0.00000000000E+00 -0.95417138440E+03  0.95417138440E+03  0.00000000000E+00 0. -1.
         23    2    1    2    0    0 -0.49293010141E+03 -0.18113017478E+03 -0.21618247191E+03  0.57525255025E+03  0.91610099413E+02 0.  0.
        254    2    1    2    0    0  0.49293010141E+03  0.18113017478E+03 -0.77052549453E+02  0.10398551972E+04  0.89418874443E+03 0.  0.
         23    2    4    4    0    0  0.48896033962E+03  0.24482202403E+03  0.31125388737E+03  0.63616347751E+03  0.93834697969E+02 0.  0.
         23    2    4    4    0    0  0.39697617922E+01 -0.63691849256E+02 -0.38830643682E+03  0.40369171968E+03  0.90070555627E+02 0.  0.
          4    1    3    3  502    0 -0.37191526599E+03 -0.14968719261E+03 -0.20343953227E+03  0.44957186745E+03  0.00000000000E+00 0. -1.
         -4    1    3    3    0  502 -0.12101483542E+03 -0.31442982169E+02 -0.12742939641E+02  0.12568068280E+03  0.00000000000E+00 0.  1.
         11    1    5    5    0    0  0.22006104695E+03  0.62368999766E+02  0.14872607140E+03  0.27282998521E+03  0.00000000000E+00 0. -1.
        -11    1    5    5    0    0  0.26889929267E+03  0.18245302427E+03  0.16252781598E+03  0.36333349230E+03  0.00000000000E+00 0.  1.
          1    1    6    6  503    0  0.39173566475E+02 -0.64003574993E+02 -0.27363469718E+03  0.28373750796E+03  0.00000000000E+00 0.  1.
         -1    1    6    6    0  503 -0.35203804683E+02  0.31172573706E+00 -0.11467173964E+03  0.11995421172E+03  0.00000000000E+00 0. -1.
<mgrwt>
<rscale>  0 0.15882652E+04</rscale>
<asrwt>0</asrwt>
<pdfrwt beam="1">  1        2 0.14679560E+00 0.15882652E+04</pdfrwt>
<pdfrwt beam="2">  1       -2 0.10168252E+00 0.15882652E+04</pdfrwt>
<totfact> 0.20559149E+01</totfact>
</mgrwt>
</event>
<event>
12    2  0.3623523E-008  0.1574710E+04  0.7818608E-02  0.8836237E-01
         -2   -1    0    0    0  501 -0.00000000000E+00  0.00000000000E+00  0.44333523270E+03  0.44333523270E+03  0.00000000000E+00 0.  1.
          2   -1    0    0  501    0  0.00000000000E+00 -0.00000000000E+00 -0.13983283844E+04  0.13983283844E+04  0.00000000000E+00 0. -1.
         23    2    1    2    0    0 -0.13585919526E+02  0.48831031653E+03 -0.63234158916E+03  0.80427369674E+03  0.91480880231E+02 0.  0.
        254    2    1    2    0    0  0.13585919526E+02 -0.48831031653E+03 -0.32265156251E+03  0.10373899203E+04  0.85641244360E+03 0.  0.
         23    2    4    4    0    0 -0.21685900816E+03 -0.33604567943E+03  0.18681019206E+03  0.45047986790E+03  0.89886236087E+02 0.  0.
         23    2    4    4    0    0  0.23044492769E+03 -0.15226463710E+03 -0.50946175457E+03  0.58691005242E+03  0.92858741379E+02 0.  0.
          3    1    3    3  502    0 -0.58773687732E+01  0.47887888736E+03 -0.63078960338E+03  0.79199435349E+03  0.00000000000E+00 0. -1.
         -3    1    3    3    0  502 -0.77085507526E+01  0.94314291693E+01 -0.15519857812E+01  0.12279343254E+02  0.00000000000E+00 0.  1.
         11    1    5    5    0    0 -0.17534809767E+03 -0.19611599417E+03  0.10583775072E+03  0.28356669057E+03  0.00000000000E+00 0.  1.
        -11    1    5    5    0    0 -0.41510910493E+02 -0.13992968526E+03  0.80972441348E+02  0.16691317733E+03  0.00000000000E+00 0. -1.
          2    1    6    6  503    0  0.39148497966E+02 -0.12403198607E+02 -0.15634920870E+03  0.16165246454E+03  0.00000000000E+00 0. -1.
         -2    1    6    6    0  503  0.19129642972E+03 -0.13986143849E+03 -0.35311254587E+03  0.42525758789E+03  0.00000000000E+00 0.  1.
<mgrwt>
<rscale>  0 0.15747104E+04</rscale>
<asrwt>0</asrwt>
<pdfrwt beam="1">  1        2 0.21512745E+00 0.15747104E+04</pdfrwt>
<pdfrwt beam="2">  1       -2 0.68205419E-01 0.15747104E+04</pdfrwt>
<totfact> 0.27409878E+01</totfact>
</mgrwt>
</event>
<event>
12    2  0.3623523E-008  0.3037190E+04  0.7818608E-02  0.8233190E-01
          2   -1    0    0  501    0  0.00000000000E+00  0.00000000000E+00  0.20583959965E+04  0.20583959965E+04  0.00000000000E+00 0.  1.
         -2   -1    0    0    0  501 -0.00000000000E+00 -0.00000000000E+00 -0.11203536202E+04  0.11203536202E+04  0.00000000000E+00 0. -1.
         23    2    1    2    0    0  0.10441267835E+04  0.54362245115E+03  0.11880832081E+04  0.16750412919E+04  0.92171095342E+02 0.  0.
        254    2    1    2    0    0 -0.10441267835E+04 -0.54362245115E+03 -0.25004083184E+03  0.15037083248E+04  0.90160534542E+03 0.  0.
         23    2    4    4    0    0 -0.76389055609E+03 -0.59661497300E+03  0.16883605921E+03  0.98796839610E+03  0.89987383047E+02 0.  0.
         23    2    4    4    0    0 -0.28023622743E+03  0.52992521850E+02 -0.41887689105E+03  0.51573992866E+03  0.95860699034E+02 0.  0.
          1    1    3    3  502    0  0.50976860116E+03  0.26901086983E+03  0.51659933037E+03  0.77401921355E+03  0.00000000000E+00 0. -1.
         -1    1    3    3    0  502  0.53435818236E+03  0.27461158133E+03  0.67148387775E+03  0.90102207838E+03  0.00000000000E+00 0.  1.
         11    1    5    5    0    0 -0.53508431396E+03 -0.36405394052E+03  0.11135602709E+03  0.65669677891E+03  0.00000000000E+00 0.  1.
        -11    1    5    5    0    0 -0.22880624213E+03 -0.23256103248E+03  0.57480032116E+02  0.33127161719E+03  0.00000000000E+00 0. -1.
          3    1    6    6  503    0 -0.15176132222E+03  0.73668386955E+02 -0.20624697190E+03  0.26645139064E+03  0.00000000000E+00 0. -1.
         -3    1    6    6    0  503 -0.12847490521E+03 -0.20675865106E+02 -0.21262991915E+03  0.24928853801E+03  0.00000000000E+00 0.  1.
<mgrwt>
<rscale>  0 0.30371904E+04</rscale>
<asrwt>0</asrwt>
<pdfrwt beam="1">  1        2 0.31667631E+00 0.30371904E+04</pdfrwt>
<pdfrwt beam="2">  1       -2 0.17236210E+00 0.30371904E+04</pdfrwt>
<totfact> 0.10849185E+00</totfact>
</mgrwt>
</event>
<event>
12    2  0.3623523E-008  0.1630805E+04  0.7818608E-02  0.8801844E-01
         -2   -1    0    0    0  501 -0.00000000000E+00  0.00000000000E+00  0.57657849431E+03  0.57657849431E+03  0.00000000000E+00 0.  1.
          2   -1    0    0  501    0  0.00000000000E+00 -0.00000000000E+00 -0.11531488823E+04  0.11531488823E+04  0.00000000000E+00 0. -1.
         23    2    1    2    0    0  0.40485782769E+03  0.39217014757E+03 -0.17455715546E+03  0.59721109421E+03  0.92106488577E+02 0.  0.
        254    2    1    2    0    0 -0.40485782769E+03 -0.39217014757E+03 -0.40201323251E+03  0.11325162824E+04  0.89625398490E+03 0.  0.
         23    2    4    4    0    0 -0.25768427190E+03  0.18302248622E+03  0.10682422280E+03  0.34586089164E+03  0.91158802868E+02 0.  0.
         23    2    4    4    0    0 -0.14717355578E+03 -0.57519263379E+03 -0.50883745531E+03  0.78665539073E+03  0.86049557559E+02 0.  0.
          3    1    3    3  502    0  0.22886275369E+03  0.20424245425E+03 -0.14086934899E+03  0.33754601706E+03  0.00000000000E+00 0. -1.
         -3    1    3    3    0  502  0.17599507399E+03  0.18792769332E+03 -0.33687806471E+02  0.25966507715E+03  0.00000000000E+00 0.  1.
         11    1    5    5    0    0 -0.14558287792E+03  0.73775738207E+02  0.95094972705E+02  0.18889226486E+03  0.00000000000E+00 0.  1.
        -11    1    5    5    0    0 -0.11210139398E+03  0.10924674801E+03  0.11729250098E+02  0.15696862678E+03  0.00000000000E+00 0. -1.
          1    1    6    6  503    0 -0.55122582219E+02 -0.18085824604E+03 -0.21519777914E+03  0.28645817911E+03  0.00000000000E+00 0. -1.
         -1    1    6    6    0  503 -0.92050973563E+02 -0.39433438775E+03 -0.29363967617E+03  0.50019721163E+03  0.00000000000E+00 0.  1.
<mgrwt>
<rscale>  0 0.16308045E+04</rscale>
<asrwt>0</asrwt>
<pdfrwt beam="1">  1        2 0.17740752E+00 0.16308045E+04</pdfrwt>
<pdfrwt beam="2">  1       -2 0.88704384E-01 0.16308045E+04</pdfrwt>
<totfact> 0.21134434E+01</totfact>
</mgrwt>
</event>
<event>
12    2  0.3623523E-008  0.1517070E+04  0.7818608E-02  0.8873180E-01
         -1   -1    0    0    0  501 -0.00000000000E+00  0.00000000000E+00  0.54449899959E+03  0.54449899959E+03  0.00000000000E+00 0.  1.
          1   -1    0    0  501    0  0.00000000000E+00 -0.00000000000E+00 -0.10567059027E+04  0.10567059027E+04  0.00000000000E+00 0. -1.
         23    2    1    2    0    0  0.29445112446E+03 -0.37964806503E+03 -0.12037522015E+03  0.50392831453E+03  0.92840910044E+02 0.  0.
        254    2    1    2    0    0 -0.29445112446E+03  0.37964806503E+03 -0.39183168296E+03  0.10972765878E+04  0.90534508577E+03 0.  0.
         23    2    4    4    0    0  0.39970811190E+02 -0.23424906851E+03 -0.29003750964E+03  0.38508217308E+03  0.87728166388E+02 0.  0.
         23    2    4    4    0    0 -0.33442193565E+03  0.61389713354E+03 -0.10179417332E+03  0.71219441470E+03  0.90283492323E+02 0.  0.
          2    1    3    3  502    0  0.58202286520E+02 -0.25796460109E+02 -0.20642808443E+02  0.66925996823E+02  0.00000000000E+00 0. -1.
         -2    1    3    3    0  502  0.23624883794E+03 -0.35385160492E+03 -0.99732411712E+02  0.43700231771E+03  0.00000000000E+00 0.  1.
         11    1    5    5    0    0  0.60323686446E+02 -0.18608694231E+03 -0.19270682589E+03  0.27459646390E+03  0.00000000000E+00 0. -1.
        -11    1    5    5    0    0 -0.20352875256E+02 -0.48162126197E+02 -0.97330683755E+02  0.11048570917E+03  0.00000000000E+00 0.  1.
          3    1    6    6  503    0 -0.18402267809E+03  0.26258207057E+03 -0.19225889330E+02  0.32122161300E+03  0.00000000000E+00 0. -1.
         -3    1    6    6    0  503 -0.15039925756E+03  0.35131506298E+03 -0.82568283989E+02  0.39097280170E+03  0.00000000000E+00 0.  1.
<mgrwt>
<rscale>  0 0.15170699E+04</rscale>
<asrwt>0</asrwt>
<pdfrwt beam="1">  1        1 0.16257014E+00 0.15170699E+04</pdfrwt>
<pdfrwt beam="2">  1       -1 0.83769079E-01 0.15170699E+04</pdfrwt>
<totfact> 0.18672445E+01</totfact>
</mgrwt>
</event>
<event>
12    2  0.3623523E-008  0.1380792E+04  0.7818608E-02  0.8967841E-01
         -1   -1    0    0    0  501 -0.00000000000E+00  0.00000000000E+00  0.33016562510E+03  0.33016562510E+03  0.00000000000E+00 0.  1.
          1   -1    0    0  501    0  0.00000000000E+00 -0.00000000000E+00 -0.14436600343E+04  0.14436600343E+04  0.00000000000E+00 0. -1.
         23    2    1    2    0    0 -0.29421901687E+03  0.20217504244E+03 -0.93400361488E+02  0.38021647181E+03  0.91658934260E+02 0.  0.
        254    2    1    2    0    0  0.29421901687E+03 -0.20217504244E+03 -0.10200940477E+04  0.13936091876E+04  0.87983812367E+03 0.  0.
         23    2    4    4    0    0 -0.13583653162E+03 -0.22885931126E+03 -0.89139895139E+03  0.93483576469E+03  0.92182800601E+02 0.  0.
         23    2    4    4    0    0  0.43005554850E+03  0.26684268814E+02 -0.12869509629E+03  0.45877342287E+03  0.90833918401E+02 0.  0.
          3    1    3    3  502    0 -0.90342706139E+02  0.39070857530E+02 -0.64158112061E+02  0.11749297768E+03  0.00000000000E+00 0.  1.
         -3    1    3    3    0  502 -0.20387631073E+03  0.16310418491E+03 -0.29242249428E+02  0.26272349413E+03  0.00000000000E+00 0. -1.
         11    1    5    5    0    0 -0.76690732653E+02 -0.13552636941E+03 -0.36272641716E+03  0.39473955843E+03  0.00000000000E+00 0.  1.
        -11    1    5    5    0    0 -0.59145798971E+02 -0.93332941850E+02 -0.52867253423E+03  0.54009620626E+03  0.00000000000E+00 0. -1.
          2    1    6    6  503    0  0.38445786405E+03  0.48553403865E+02 -0.12830771998E+03  0.40820111865E+03  0.00000000000E+00 0. -1.
         -2    1    6    6    0  503  0.45597684445E+02 -0.21869135052E+02 -0.38737631540E+00  0.50572304230E+02  0.00000000000E+00 0.  1.
<mgrwt>
<rscale>  0 0.13807924E+04</rscale>
<asrwt>0</asrwt>
<pdfrwt beam="1">  1        1 0.22210155E+00 0.13807924E+04</pdfrwt>
<pdfrwt beam="2">  1       -1 0.50794711E-01 0.13807924E+04</pdfrwt>
<totfact> 0.27229164E+01</totfact>
</mgrwt>
</event>
<event>
12    2  0.3623523E-008  0.1497764E+04  0.7818608E-02  0.8885941E-01
         -2   -1    0    0    0  501 -0.00000000000E+00  0.00000000000E+00  0.27114362482E+03  0.27114362482E+03  0.00000000000E+00 0.  1.
          2   -1    0    0  501    0  0.00000000000E+00 -0.00000000000E+00 -0.20683654695E+04  0.20683654695E+04  0.00000000000E+00 0. -1.
         23    2    1    2    0    0  0.20509834479E+03  0.41686692814E+03 -0.44885280965E+03  0.65244285518E+03  0.91484795074E+02 0.  0.
        254    2    1    2    0    0 -0.20509834479E+03 -0.41686692814E+03 -0.13483690350E+04  0.16870662392E+04  0.90124917411E+03 0.  0.
         23    2    4    4    0    0 -0.40103716053E+02  0.15708663061E+03 -0.93909427496E+03  0.95730401264E+03  0.90820690250E+02 0.  0.
         23    2    4    4    0    0 -0.16499462874E+03 -0.57395355875E+03 -0.40927476008E+03  0.72976222653E+03  0.91657857876E+02 0.  0.
          3    1    3    3  502    0  0.61159539422E+02  0.16495893496E+03 -0.11521843093E+03  0.21030270162E+03  0.00000000000E+00 0. -1.
         -3    1    3    3    0  502  0.14393880537E+03  0.25190799318E+03 -0.33363437872E+03  0.44214015356E+03  0.00000000000E+00 0.  1.
         11    1    5    5    0    0 -0.65039206591E+02  0.81857411185E+02 -0.46293480768E+03  0.47459390042E+03  0.00000000000E+00 0. -1.
        -11    1    5    5    0    0  0.24935490538E+02  0.75229219428E+02 -0.47615946729E+03  0.48271011221E+03  0.00000000000E+00 0.  1.
          4    1    6    6  503    0 -0.16650940287E+03 -0.50593660768E+03 -0.38623839513E+03  0.65793413812E+03  0.00000000000E+00 0.  1.
         -4    1    6    6    0  503  0.15147741268E+01 -0.68016951073E+02 -0.23036364949E+02  0.71828088405E+02  0.00000000000E+00 0. -1.
<mgrwt>
<rscale>  0 0.14977638E+04</rscale>
<asrwt>0</asrwt>
<pdfrwt beam="1">  1        2 0.31821007E+00 0.14977638E+04</pdfrwt>
<pdfrwt beam="2">  1       -2 0.41714404E-01 0.14977638E+04</pdfrwt>
<totfact> 0.32223567E+01</totfact>
</mgrwt>
</event>
<event>
12    2  0.3623523E-008  0.1425250E+04  0.7818608E-02  0.8935742E-01
          2   -1    0    0  501    0  0.00000000000E+00  0.00000000000E+00  0.88006376511E+03  0.88006376511E+03  0.00000000000E+00 0. -1.
         -2   -1    0    0    0  501 -0.00000000000E+00 -0.00000000000E+00 -0.57704253186E+03  0.57704253186E+03  0.00000000000E+00 0.  1.
         23    2    1    2    0    0  0.16398543620E+03  0.16918179542E+03  0.44791714423E+03  0.51427213527E+03  0.91281749744E+02 0.  0.
        254    2    1    2    0    0 -0.16398543620E+03 -0.16918179542E+03 -0.14489591098E+03  0.94283416169E+03  0.90134772882E+03 0.  0.
         23    2    4    4    0    0 -0.44984815557E+03  0.34072998385E+01  0.15545307819E+03  0.48456985222E+03  0.90924745813E+02 0.  0.
         23    2    4    4    0    0  0.28586271937E+03 -0.17258909526E+03 -0.30034898917E+03  0.45826430947E+03  0.91061363472E+02 0.  0.
          4    1    3    3  502    0  0.11389432656E+03  0.12966614967E+03  0.39614965810E+03  0.43211084180E+03  0.00000000000E+00 0. -1.
         -4    1    3    3    0  502  0.50091109645E+02  0.39515645749E+02  0.51767486131E+02  0.82161293470E+02  0.00000000000E+00 0.  1.
         11    1    5    5    0    0 -0.41099008692E+01 -0.12033104211E+02  0.69497110038E+01  0.14490871787E+02  0.00000000000E+00 0.  1.
        -11    1    5    5    0    0 -0.44573825470E+03  0.15440404049E+02  0.14850336718E+03  0.47007898043E+03  0.00000000000E+00 0. -1.
          1    1    6    6  503    0  0.26166760294E+03 -0.11951883525E+03 -0.25416739646E+03  0.38386944634E+03  0.00000000000E+00 0. -1.
         -1    1    6    6    0  503  0.24195116431E+02 -0.53070260009E+02 -0.46181592708E+02  0.74394863139E+02  0.00000000000E+00 0.  1.
<mgrwt>
<rscale>  0 0.14252498E+04</rscale>
<asrwt>0</asrwt>
<pdfrwt beam="1">  1        2 0.13539443E+00 0.14252498E+04</pdfrwt>
<pdfrwt beam="2">  1       -2 0.88775774E-01 0.14252498E+04</pdfrwt>
<totfact> 0.32068556E+01</totfact>
</mgrwt>
</event>
<event>
12    2  0.3623523E-008  0.1709500E+04  0.7818608E-02  0.8755965E-01
          1   -1    0    0  501    0  0.00000000000E+00  0.00000000000E+00  0.21289614932E+04  0.21289614932E+04  0.00000000000E+00 0. -1.
         -1   -1    0    0    0  501 -0.00000000000E+00 -0.00000000000E+00 -0.34317093675E+03  0.34317093675E+03  0.00000000000E+00 0.  1.
         23    2    1    2    0    0  0.24836909570E+03  0.16000594138E+03  0.14206372557E+04  0.14538638452E+04  0.90668402681E+02 0.  0.
        254    2    1    2    0    0 -0.24836909570E+03 -0.16000594138E+03  0.36515330078E+03  0.10182685847E+04  0.90346271014E+03 0.  0.
         23    2    4    4    0    0 -0.48108204040E+03 -0.37816500250E+03  0.24410483736E+03  0.66505767622E+03  0.90916678165E+02 0.  0.
         23    2    4    4    0    0  0.23271294470E+03  0.21815906112E+03  0.12104846342E+03  0.35321090851E+03  0.91414029643E+02 0.  0.
          4    1    3    3  502    0  0.21821329443E+03  0.16109136727E+03  0.13511866705E+04  0.13781410991E+04  0.00000000000E+00 0. -1.
         -4    1    3    3    0  502  0.30155801276E+02 -0.10854258860E+01  0.69450585208E+02  0.75722746158E+02  0.00000000000E+00 0.  1.
         11    1    5    5    0    0 -0.79009223987E+02 -0.23682694869E+02  0.37305053941E+02  0.90526209248E+02  0.00000000000E+00 0.  1.
        -11    1    5    5    0    0 -0.40207281642E+03 -0.35448230763E+03  0.20679978342E+03  0.57453146698E+03  0.00000000000E+00 0. -1.
          4    1    6    6  503    0  0.21924259487E+03  0.16220127326E+03  0.86632586353E+02  0.28614991433E+03  0.00000000000E+00 0. -1.
         -4    1    6    6    0  503  0.13470349831E+02  0.55957787854E+02  0.34415877064E+02  0.67060994178E+02  0.00000000000E+00 0.  1.
<mgrwt>
<rscale>  0 0.17095002E+04</rscale>
<asrwt>0</asrwt>
<pdfrwt beam="1">  1        1 0.32753253E+00 0.17095002E+04</pdfrwt>
<pdfrwt beam="2">  1       -1 0.52795530E-01 0.17095002E+04</pdfrwt>
<totfact> 0.83784392E+00</totfact>
</mgrwt>
</event>
<event>
12    2  0.3623523E-008  0.3417278E+04  0.7818608E-02  0.8133679E-01
          1   -1    0    0  501    0  0.00000000000E+00  0.00000000000E+00  0.22267848048E+04  0.22267848048E+04  0.00000000000E+00 0. -1.
         -1   -1    0    0    0  501 -0.00000000000E+00 -0.00000000000E+00 -0.13110592959E+04  0.13110592959E+04  0.00000000000E+00 0.  1.
         23    2    1    2    0    0 -0.65309319129E+03  0.91267463524E+03 -0.73792914244E+03  0.13464952599E+04  0.94891303119E+02 0.  0.
        254    2    1    2    0    0  0.65309319129E+03 -0.91267463524E+03  0.16536546514E+04  0.21913488408E+04  0.89884944762E+03 0.  0.
         23    2    4    4    0    0 -0.52732796422E+02  0.13461391917E+03  0.18402588864E+03  0.25148050057E+03  0.92061172178E+02 0.  0.
         23    2    4    4    0    0  0.70582598771E+03 -0.10472885544E+04  0.14696287628E+04  0.19398683402E+04  0.90977117185E+02 0.  0.
          4    1    3    3  502    0 -0.27002657939E+03  0.43522992365E+03 -0.37591596996E+03  0.63533633337E+03  0.00000000000E+00 0. -1.
         -4    1    3    3    0  502 -0.38306661189E+03  0.47744471159E+03 -0.36201317248E+03  0.71115892655E+03  0.00000000000E+00 0.  1.
         11    1    5    5    0    0  0.24515049050E+00  0.56278388725E+02  0.13211283654E+03  0.14360055263E+03  0.00000000000E+00 0. -1.
        -11    1    5    5    0    0 -0.52977946913E+02  0.78335530441E+02  0.51913052100E+02  0.10787994794E+03  0.00000000000E+00 0.  1.
          1    1    6    6  503    0  0.49744699675E+03 -0.69479697341E+03  0.93895527590E+03  0.12695799931E+04  0.00000000000E+00 0. -1.
         -1    1    6    6    0  503  0.20837899096E+03 -0.35249158100E+03  0.53067348688E+03  0.67028834708E+03  0.00000000000E+00 0.  1.
<mgrwt>
<rscale>  0 0.34172778E+04</rscale>
<asrwt>0</asrwt>
<pdfrwt beam="1">  1        1 0.34258228E+00 0.34172778E+04</pdfrwt>
<pdfrwt beam="2">  1       -1 0.20170143E+00 0.34172778E+04</pdfrwt>
<totfact> 0.25136795E-01</totfact>
</mgrwt>
</event>
<event>
12    2  0.3623523E-008  0.2071962E+04  0.7818608E-02  0.8573696E-01
          1   -1    0    0  501    0  0.00000000000E+00  0.00000000000E+00  0.11071053610E+04  0.11071053610E+04  0.00000000000E+00 0. -1.
         -1   -1    0    0    0  501 -0.00000000000E+00 -0.00000000000E+00 -0.96942590041E+03  0.96942590041E+03  0.00000000000E+00 0.  1.
         23    2    1    2    0    0  0.67355742590E+03 -0.33610961482E+03 -0.31870017737E+03  0.82246546771E+03  0.90721349996E+02 0.  0.
        254    2    1    2    0    0 -0.67355742590E+03  0.33610961482E+03  0.45637963791E+03  0.12540657937E+04  0.89316815984E+03 0.  0.
         23    2    4    4    0    0 -0.37320693276E+03  0.60588164654E+03  0.13649625648E+03  0.73050361708E+03  0.92888762765E+02 0.  0.
         23    2    4    4    0    0 -0.30035049314E+03 -0.26977203172E+03  0.31988338144E+03  0.52356217658E+03  0.93832868424E+02 0.  0.
          3    1    3    3  502    0  0.35509625674E+03 -0.19981836014E+03 -0.21596301446E+03  0.46115155016E+03  0.00000000000E+00 0. -1.
         -3    1    3    3    0  502  0.31846116917E+03 -0.13629125468E+03 -0.10273716290E+03  0.36131391755E+03  0.00000000000E+00 0.  1.
         11    1    5    5    0    0 -0.23173111127E+03  0.32698776587E+03  0.37702449499E+02  0.40254413629E+03  0.00000000000E+00 0. -1.
        -11    1    5    5    0    0 -0.14147582150E+03  0.27889388067E+03  0.98793806976E+02  0.32795948079E+03  0.00000000000E+00 0.  1.
          4    1    6    6  503    0 -0.19966925380E+03 -0.17503134395E+03  0.15153368879E+03  0.30572249037E+03  0.00000000000E+00 0. -1.
         -4    1    6    6    0  503 -0.10068123934E+03 -0.94740687765E+02  0.16834969265E+03  0.21783968621E+03  0.00000000000E+00 0.  1.
<mgrwt>
<rscale>  0 0.20719620E+04</rscale>
<asrwt>0</asrwt>
<pdfrwt beam="1">  1        1 0.17032390E+00 0.20719620E+04</pdfrwt>
<pdfrwt beam="2">  1       -1 0.14914245E+00 0.20719620E+04</pdfrwt>
<totfact> 0.40913450E+00</totfact>
</mgrwt>
</event>
<event>
12    2  0.3623523E-008  0.1947509E+04  0.7818608E-02  0.8631563E-01
          2   -1    0    0  501    0  0.00000000000E+00  0.00000000000E+00  0.12653781550E+04  0.12653781550E+04  0.00000000000E+00 0. -1.
         -2   -1    0    0    0  501 -0.00000000000E+00 -0.00000000000E+00 -0.74933985077E+03  0.74933985077E+03  0.00000000000E+00 0.  1.
         23    2    1    2    0    0 -0.57291800414E+03  0.97652484178E+01  0.72747277774E+03  0.93069992074E+03  0.93033867844E+02 0.  0.
        254    2    1    2    0    0  0.57291800414E+03 -0.97652484178E+01 -0.21143447354E+03  0.10840180850E+04  0.89557817773E+03 0.  0.
         23    2    4    4    0    0  0.29021670018E+02  0.33797110940E+03  0.95319150653E+02  0.36296392947E+03  0.87122588866E+02 0.  0.
         23    2    4    4    0    0  0.54389633412E+03 -0.34773635782E+03 -0.30675362420E+03  0.72105415552E+03  0.95275980252E+02 0.  0.
          1    1    3    3  502    0 -0.35585538003E+03 -0.25086629276E+02  0.39644535098E+03  0.53332101663E+03  0.00000000000E+00 0. -1.
         -1    1    3    3    0  502 -0.21706262411E+03  0.34851877694E+02  0.33102742676E+03  0.39737890411E+03  0.00000000000E+00 0.  1.
         11    1    5    5    0    0  0.11165152033E+02  0.31881846229E+03  0.10374010386E+03  0.33545771964E+03  0.00000000000E+00 0.  1.
        -11    1    5    5    0    0  0.17856517985E+02  0.19152647113E+02 -0.84209532110E+01  0.27506209825E+02  0.00000000000E+00 0. -1.
          1    1    6    6  503    0  0.13882395970E+03 -0.13813027822E+03 -0.10670503570E+03  0.22302024615E+03  0.00000000000E+00 0. -1.
         -1    1    6    6    0  503  0.40507237442E+03 -0.20960607960E+03 -0.20004858849E+03  0.49803390937E+03  0.00000000000E+00 0.  1.
<mgrwt>
<rscale>  0 0.19475095E+04</rscale>
<asrwt>0</asrwt>
<pdfrwt beam="1">  1        2 0.19467356E+00 0.19475095E+04</pdfrwt>
<pdfrwt beam="2">  1       -2 0.11528305E+00 0.19475095E+04</pdfrwt>
<totfact> 0.94743040E+00</totfact>
</mgrwt>
</event>
<event>
12    2  0.3623523E-008  0.1704007E+04  0.7818608E-02  0.8759082E-01
         -2   -1    0    0    0  501 -0.00000000000E+00  0.00000000000E+00  0.24252867411E+03  0.24252867411E+03  0.00000000000E+00 0.  1.
          2   -1    0    0  501    0  0.00000000000E+00 -0.00000000000E+00 -0.29930906562E+04  0.29930906562E+04  0.00000000000E+00 0. -1.
         23    2    1    2    0    0  0.41871595972E+03 -0.18567630699E+03 -0.22919752681E+03  0.52009291343E+03  0.90368060754E+02 0.  0.
        254    2    1    2    0    0 -0.41871595972E+03  0.18567630699E+03 -0.25213644553E+04  0.27155264169E+04  0.89833527067E+03 0.  0.
         23    2    4    4    0    0 -0.68562335852E+03  0.11292590461E+03 -0.15416509382E+04  0.16934188310E+04  0.90266673389E+02 0.  0.
         23    2    4    4    0    0  0.26690739880E+03  0.72750402379E+02 -0.97971351709E+03  0.10221075859E+04  0.91286148695E+02 0.  0.
          1    1    3    3  502    0  0.19676652753E+03 -0.38510304543E+02 -0.94293610634E+02  0.22156578012E+03  0.00000000000E+00 0. -1.
         -1    1    3    3    0  502  0.22194943219E+03 -0.14716600245E+03 -0.13490391617E+03  0.29852713331E+03  0.00000000000E+00 0.  1.
         11    1    5    5    0    0 -0.29105154700E+03  0.90272207125E+02 -0.63258891291E+03  0.70216010078E+03  0.00000000000E+00 0.  1.
        -11    1    5    5    0    0 -0.39457181152E+03  0.22653697486E+02 -0.90906202530E+03  0.99125873026E+03  0.00000000000E+00 0. -1.
          2    1    6    6  503    0  0.25562575937E+03  0.69020170306E+02 -0.97315982673E+03  0.10085377341E+04  0.00000000000E+00 0. -1.
         -2    1    6    6    0  503  0.11281639422E+02  0.37302320728E+01 -0.65536903577E+01  0.13569851756E+02  0.00000000000E+00 0.  1.
<mgrwt>
<rscale>  0 0.17040074E+04</rscale>
<asrwt>0</asrwt>
<pdfrwt beam="1">  1        2 0.46047546E+00 0.17040074E+04</pdfrwt>
<pdfrwt beam="2">  1       -2 0.37312106E-01 0.17040074E+04</pdfrwt>
<totfact> 0.11383893E+01</totfact>
</mgrwt>
</event>
<event>
12    2  0.3623523E-008  0.1865088E+04  0.7818608E-02  0.8672432E-01
          2   -1    0    0  501    0  0.00000000000E+00  0.00000000000E+00  0.19652160837E+04  0.19652160837E+04  0.00000000000E+00 0. -1.
         -2   -1    0    0    0  501 -0.00000000000E+00 -0.00000000000E+00 -0.44251514803E+03  0.44251514803E+03  0.00000000000E+00 0.  1.
         23    2    1    2    0    0 -0.28143053428E+03  0.87639711787E+01  0.14088615269E+04  0.14396291515E+04  0.91440356508E+02 0.  0.
        254    2    1    2    0    0  0.28143053428E+03 -0.87639711787E+01  0.11383940868E+03  0.96810208024E+03  0.91922917380E+03 0.  0.
         23    2    4    4    0    0 -0.41532537448E+02 -0.39189249317E+03 -0.98475385611E+02  0.41659145969E+03  0.92446551306E+02 0.  0.
         23    2    4    4    0    0  0.32296307173E+03  0.38312852199E+03  0.21231479429E+03  0.55151062054E+03  0.89407956236E+02 0.  0.
          2    1    3    3  502    0 -0.62884311686E+02 -0.32946731249E+02  0.42819936001E+03  0.43404448582E+03  0.00000000000E+00 0. -1.
         -2    1    3    3    0  502 -0.21854622259E+03  0.41710702427E+02  0.98066216694E+03  0.10055846656E+04  0.00000000000E+00 0.  1.
         11    1    5    5    0    0 -0.32108431534E+01 -0.30660696349E+03 -0.48064818332E+02  0.31036811423E+03  0.00000000000E+00 0. -1.
        -11    1    5    5    0    0 -0.38321694294E+02 -0.85285529680E+02 -0.50410567279E+02  0.10622334546E+03  0.00000000000E+00 0.  1.
          3    1    6    6  503    0  0.31541787496E+03  0.38796857564E+03  0.20773424992E+03  0.54144396766E+03  0.00000000000E+00 0. -1.
         -3    1    6    6    0  503  0.75451967654E+01 -0.48400536480E+01  0.45805443724E+01  0.10066652884E+02  0.00000000000E+00 0.  1.
<mgrwt>
<rscale>  0 0.18650875E+04</rscale>
<asrwt>0</asrwt>
<pdfrwt beam="1">  1        2 0.30234093E+00 0.18650875E+04</pdfrwt>
<pdfrwt beam="2">  1       -2 0.68079255E-01 0.18650875E+04</pdfrwt>
<totfact> 0.12957656E+01</totfact>
</mgrwt>
</event>
<event>
12    2  0.3623523E-008  0.1908615E+04  0.7818608E-02  0.8650580E-01
         -2   -1    0    0    0  501 -0.00000000000E+00  0.00000000000E+00  0.17339629312E+04  0.17339629312E+04  0.00000000000E+00 0.  1.
          2   -1    0    0  501    0  0.00000000000E+00 -0.00000000000E+00 -0.52521476661E+03  0.52521476661E+03  0.00000000000E+00 0. -1.
         23    2    1    2    0    0  0.51600603916E+02  0.70883567643E+03  0.70577088260E+03  0.10062657685E+04  0.96683089042E+02 0.  0.
        254    2    1    2    0    0 -0.51600603916E+02 -0.70883567643E+03  0.50297728198E+03  0.12529119293E+04  0.90093924200E+03 0.  0.
         23    2    4    4    0    0 -0.37455394864E+03 -0.26916566911E+02  0.17902566753E+03  0.42648335397E+03  0.93929226309E+02 0.  0.
         23    2    4    4    0    0  0.32295334473E+03 -0.68191910952E+03  0.32395161445E+03  0.82642857529E+03  0.93418449733E+02 0.  0.
          2    1    3    3  502    0 -0.19072643078E+02  0.18837085456E+03  0.22664928517E+03  0.29532565590E+03  0.00000000000E+00 0. -1.
         -2    1    3    3    0  502  0.70673246994E+02  0.52046482187E+03  0.47912159743E+03  0.71094011265E+03  0.00000000000E+00 0.  1.
         11    1    5    5    0    0 -0.31574646727E+03  0.11172516202E+02  0.13391892729E+03  0.34315439061E+03  0.00000000000E+00 0.  1.
        -11    1    5    5    0    0 -0.58807481377E+02 -0.38089083112E+02  0.45106740241E+02  0.83328963352E+02  0.00000000000E+00 0. -1.
          4    1    6    6  503    0  0.17651599789E+03 -0.47268746670E+03  0.22659537400E+03  0.55311554145E+03  0.00000000000E+00 0.  1.
         -4    1    6    6    0  503  0.14643734684E+03 -0.20923164282E+03  0.97356240448E+02  0.27331303383E+03  0.00000000000E+00 0. -1.
<mgrwt>
<rscale>  0 0.19086151E+04</rscale>
<asrwt>0</asrwt>
<pdfrwt beam="1">  1        2 0.80802272E-01 0.19086151E+04</pdfrwt>
<pdfrwt beam="2">  1       -2 0.26676353E+00 0.19086151E+04</pdfrwt>
<totfact> 0.27606180E+00</totfact>
</mgrwt>
</event>
<event>
12    2  0.3623523E-008  0.1867865E+04  0.7818608E-02  0.8671020E-01
         -2   -1    0    0    0  501 -0.00000000000E+00  0.00000000000E+00  0.29766941111E+03  0.29766941111E+03  0.00000000000E+00 0.  1.
          2   -1    0    0  501    0  0.00000000000E+00 -0.00000000000E+00 -0.29301961339E+04  0.29301961339E+04  0.00000000000E+00 0. -1.
         23    2    1    2    0    0  0.58236432782E+03  0.32415861357E+02 -0.17280288122E+04  0.18261219242E+04  0.91862440286E+02 0.  0.
        254    2    1    2    0    0 -0.58236432782E+03 -0.32415861357E+02 -0.90449791063E+03  0.14017436208E+04  0.89809226131E+03 0.  0.
         23    2    4    4    0    0 -0.45883762667E+03 -0.39243122518E+03 -0.78079853441E+03  0.99118587834E+03  0.90933271799E+02 0.  0.
         23    2    4    4    0    0 -0.12352670115E+03  0.36001536383E+03 -0.12369937622E+03  0.41055774250E+03  0.91576286018E+02 0.  0.
          4    1    3    3  502    0  0.43434882289E+03 -0.13037122865E+02 -0.13210405860E+04  0.13906750506E+04  0.00000000000E+00 0. -1.
         -4    1    3    3    0  502  0.14801550493E+03  0.45452984223E+02 -0.40698822622E+03  0.43544687363E+03  0.00000000000E+00 0.  1.
         11    1    5    5    0    0 -0.37441729185E+03 -0.33048182201E+03 -0.69494672868E+03  0.85577888430E+03  0.00000000000E+00 0.  1.
        -11    1    5    5    0    0 -0.84420334827E+02 -0.61949403178E+02 -0.85851805735E+02  0.13540699404E+03  0.00000000000E+00 0. -1.
          2    1    6    6  503    0 -0.78363717920E+02  0.19376716265E+03 -0.11383492638E+03  0.23800205057E+03  0.00000000000E+00 0. -1.
         -2    1    6    6    0  503 -0.45162983230E+02  0.16624820117E+03 -0.98644498322E+01  0.17255569193E+03  0.00000000000E+00 0.  1.
<mgrwt>
<rscale>  0 0.18678648E+04</rscale>
<asrwt>0</asrwt>
<pdfrwt beam="1">  1        2 0.45079942E+00 0.18678648E+04</pdfrwt>
<pdfrwt beam="2">  1       -2 0.45795292E-01 0.18678648E+04</pdfrwt>
<totfact> 0.81944565E+00</totfact>
</mgrwt>
</event>
<event>
12    2  0.3623523E-008  0.2148126E+04  0.7818608E-02  0.8540335E-01
         -2   -1    0    0    0  501 -0.00000000000E+00  0.00000000000E+00  0.16387833891E+04  0.16387833891E+04  0.00000000000E+00 0.  1.
          2   -1    0    0  501    0  0.00000000000E+00 -0.00000000000E+00 -0.70394390033E+03  0.70394390033E+03  0.00000000000E+00 0. -1.
         23    2    1    2    0    0  0.86163976543E+02  0.19885008744E+03 -0.55768940397E+03  0.60492559052E+03  0.89173486198E+02 0.  0.
        254    2    1    2    0    0 -0.86163976543E+02 -0.19885008744E+03  0.14925288927E+04  0.17378016989E+04  0.86333461698E+03 0.  0.
         23    2    4    4    0    0 -0.12585829091E+03  0.32224391672E+03  0.55817494513E+03  0.66327486741E+03  0.93235342664E+02 0.  0.
         23    2    4    4    0    0  0.39694314363E+02 -0.52109400416E+03  0.93435394757E+03  0.10745268314E+04  0.92065261520E+02 0.  0.
          4    1    3    3  502    0  0.23740416114E+02  0.13824449107E+03 -0.41212673472E+03  0.43534307407E+03  0.00000000000E+00 0. -1.
         -4    1    3    3    0  502  0.62423560429E+02  0.60605596369E+02 -0.14556266925E+03  0.16958251646E+03  0.00000000000E+00 0.  1.
         11    1    5    5    0    0  0.12213845423E+02  0.80609808340E+01  0.30326682278E+02  0.33672913299E+02  0.00000000000E+00 0. -1.
        -11    1    5    5    0    0 -0.13807213633E+03  0.31418293589E+03  0.52784826285E+03  0.62960195411E+03  0.00000000000E+00 0.  1.
          2    1    6    6  503    0 -0.10216959466E+02 -0.80675916535E+02  0.92835593020E+02  0.12341570848E+03  0.00000000000E+00 0. -1.
         -2    1    6    6    0  503  0.49911273829E+02 -0.44041808763E+03  0.84151835455E+03  0.95111112295E+03  0.00000000000E+00 0.  1.
<mgrwt>
<rscale>  0 0.21481262E+04</rscale>
<asrwt>0</asrwt>
<pdfrwt beam="1">  1        2 0.10829906E+00 0.21481262E+04</pdfrwt>
<pdfrwt beam="2">  1       -2 0.25212052E+00 0.21481262E+04</pdfrwt>
<totfact> 0.23283153E+00</totfact>
</mgrwt>
</event>
<event>
12    2  0.3623523E-008  0.1617628E+04  0.7818608E-02  0.8809791E-01
          1   -1    0    0  501    0  0.00000000000E+00  0.00000000000E+00  0.71139402524E+03  0.71139402524E+03  0.00000000000E+00 0. -1.
         -1   -1    0    0    0  501 -0.00000000000E+00 -0.00000000000E+00 -0.91957452382E+03  0.91957452382E+03  0.00000000000E+00 0.  1.
         23    2    1    2    0    0  0.57334933806E+01 -0.53701697158E+03 -0.20991766325E+03  0.58374255745E+03  0.90938700919E+02 0.  0.
        254    2    1    2    0    0 -0.57334933806E+01  0.53701697158E+03  0.17371646631E+01  0.10472259916E+04  0.89903234594E+03 0.  0.
         23    2    4    4    0    0  0.14161053157E+03 -0.17055838402E+03 -0.17942563978E+03  0.29625506299E+03  0.80186015790E+02 0.  0.
         23    2    4    4    0    0 -0.14734402495E+03  0.70757535560E+03  0.18116280444E+03  0.75097092861E+03  0.93617457581E+02 0.  0.
          3    1    3    3  502    0 -0.51028675934E+01 -0.46247209044E+03 -0.14613521684E+03  0.48503811736E+03  0.00000000000E+00 0.  1.
         -3    1    3    3    0  502  0.10836360974E+02 -0.74544881144E+02 -0.63782446411E+02  0.98704440093E+02  0.00000000000E+00 0. -1.
         11    1    5    5    0    0  0.43162988631E+01 -0.27966137837E+02 -0.56653862708E+02  0.63327683213E+02  0.00000000000E+00 0.  1.
        -11    1    5    5    0    0  0.13729423271E+03 -0.14259224618E+03 -0.12277177707E+03  0.23292737978E+03  0.00000000000E+00 0. -1.
          4    1    6    6  503    0 -0.53778599778E+02  0.37652208095E+03  0.13634082343E+03  0.40404187329E+03  0.00000000000E+00 0.  1.
         -4    1    6    6    0  503 -0.93565425175E+02  0.33105327466E+03  0.44821981008E+02  0.34692905533E+03  0.00000000000E+00 0. -1.
<mgrwt>
<rscale>  0 0.16176277E+04</rscale>
<asrwt>0</asrwt>
<pdfrwt beam="1">  1        1 0.10944523E+00 0.16176277E+04</pdfrwt>
<pdfrwt beam="2">  1       -1 0.14147300E+00 0.16176277E+04</pdfrwt>
<totfact> 0.10387135E+01</totfact>
</mgrwt>
</event>
<event>
12    2  0.3623523E-008  0.1383111E+04  0.7818608E-02  0.8966135E-01
         -1   -1    0    0    0  501 -0.00000000000E+00  0.00000000000E+00  0.24598883633E+03  0.24598883633E+03  0.00000000000E+00 0.  1.
          1   -1    0    0  501    0  0.00000000000E+00 -0.00000000000E+00 -0.19441891340E+04  0.19441891340E+04  0.00000000000E+00 0. -1.
         23    2    1    2    0    0  0.39595061045E+03 -0.32215024085E+02 -0.55470970193E+03  0.68817568271E+03  0.89823288548E+02 0.  0.
        254    2    1    2    0    0 -0.39595061045E+03  0.32215024085E+02 -0.11434905957E+04  0.15020022876E+04  0.88917120723E+03 0.  0.
         23    2    4    4    0    0 -0.17606267835E+03 -0.29496059037E+03 -0.81354927843E+02  0.36544204976E+03  0.94495771679E+02 0.  0.
         23    2    4    4    0    0 -0.21988793210E+03  0.32717561446E+03 -0.10621356679E+04  0.11365602378E+04  0.90787729903E+02 0.  0.
          2    1    3    3  502    0  0.32420578082E+03 -0.55700335561E+02 -0.41700137659E+03  0.53113281181E+03  0.00000000000E+00 0.  1.
         -2    1    3    3    0  502  0.71744829627E+02  0.23485311476E+02 -0.13770832534E+03  0.15704287090E+03  0.00000000000E+00 0. -1.
         11    1    5    5    0    0 -0.32329791303E+02 -0.14202492584E+03 -0.44906552456E+02  0.15242340181E+03  0.00000000000E+00 0.  1.
        -11    1    5    5    0    0 -0.14373288705E+03 -0.15293566453E+03 -0.36448375388E+02  0.21301864795E+03  0.00000000000E+00 0. -1.
          4    1    6    6  503    0 -0.22507111038E+03  0.32892949846E+03 -0.10399287350E+04  0.11136890920E+04  0.00000000000E+00 0. -1.
         -4    1    6    6    0  503  0.51831782808E+01 -0.17538839985E+01 -0.22206932890E+02  0.22871145895E+02  0.00000000000E+00 0.  1.
<mgrwt>
<rscale>  0 0.13831107E+04</rscale>
<asrwt>0</asrwt>
<pdfrwt beam="1">  1        1 0.29910602E+00 0.13831107E+04</pdfrwt>
<pdfrwt beam="2">  1       -1 0.37844436E-01 0.13831107E+04</pdfrwt>
<totfact> 0.21409842E+01</totfact>
</mgrwt>
</event>
<event>
12    2  0.3623523E-008  0.1441208E+04  0.7818608E-02  0.8924519E-01
         -1   -1    0    0    0  501 -0.00000000000E+00  0.00000000000E+00  0.25192444967E+03  0.25192444967E+03  0.00000000000E+00 0.  1.
          1   -1    0    0  501    0  0.00000000000E+00 -0.00000000000E+00 -0.20612138668E+04  0.20612138668E+04  0.00000000000E+00 0. -1.
         23    2    1    2    0    0  0.41521609158E+03  0.30332531370E+02 -0.43862766855E+03  0.61164560867E+03  0.91605970468E+02 0.  0.
        254    2    1    2    0    0 -0.41521609158E+03 -0.30332531370E+02 -0.13706617486E+04  0.17014927078E+04  0.91817173801E+03 0.  0.
         23    2    4    4    0    0 -0.30039428753E+03 -0.30981776540E+02  0.75349854329E+01  0.31552388436E+03  0.91115021476E+02 0.  0.
         23    2    4    4    0    0 -0.11482180404E+03  0.64924516992E+00 -0.13781967340E+04  0.13859688234E+04  0.91098153984E+02 0.  0.
          1    1    3    3  502    0  0.42058232703E+02 -0.10266809432E+02 -0.87645509882E+02  0.97754988192E+02  0.00000000000E+00 0. -1.
         -1    1    3    3    0  502  0.37315785887E+03  0.40599340802E+02 -0.35098215867E+03  0.51389062048E+03  0.00000000000E+00 0.  1.
         11    1    5    5    0    0 -0.98926625988E+02 -0.36953173747E+02 -0.31545370799E+02  0.11021399547E+03  0.00000000000E+00 0. -1.
        -11    1    5    5    0    0 -0.20146766155E+03  0.59713972071E+01  0.39080356232E+02  0.20530988889E+03  0.00000000000E+00 0.  1.
          3    1    6    6  503    0  0.13699893124E+02  0.11043372065E+02 -0.17544180223E+03  0.17632206075E+03  0.00000000000E+00 0. -1.
         -3    1    6    6    0  503 -0.12852169717E+03 -0.10394126895E+02 -0.12027549318E+04  0.12096467627E+04  0.00000000000E+00 0.  1.
<mgrwt>
<rscale>  0 0.14412081E+04</rscale>
<asrwt>0</asrwt>
<pdfrwt beam="1">  1        1 0.31710984E+00 0.14412081E+04</pdfrwt>
<pdfrwt beam="2">  1       -1 0.38757606E-01 0.14412081E+04</pdfrwt>
<totfact> 0.16999510E+01</totfact>
</mgrwt>
</event>
<event>
12    2  0.3623523E-008  0.1379790E+04  0.7818608E-02  0.8968579E-01
          1   -1    0    0  501    0  0.00000000000E+00  0.00000000000E+00  0.95719806434E+03  0.95719806434E+03  0.00000000000E+00 0. -1.
         -1   -1    0    0    0  501 -0.00000000000E+00 -0.00000000000E+00 -0.49723787653E+03  0.49723787653E+03  0.00000000000E+00 0.  1.
         23    2    1    2    0    0 -0.71746645901E+02 -0.24355151059E+03  0.45566240116E+03  0.52950526420E+03  0.91009238416E+02 0.  0.
        254    2    1    2    0    0  0.71746645901E+02  0.24355151059E+03  0.42977866514E+01  0.92493067668E+03  0.88938932205E+03 0.  0.
         23    2    4    4    0    0 -0.35194593886E+02  0.43274623087E+03  0.30786183349E+03  0.54049131173E+03  0.94042489132E+02 0.  0.
         23    2    4    4    0    0  0.10694123979E+03 -0.18919472029E+03 -0.30356404684E+03  0.38443936495E+03  0.91713814880E+02 0.  0.
          4    1    3    3  502    0  0.12175643767E+02 -0.11500375991E+03  0.21270167146E+03  0.24210764576E+03  0.00000000000E+00 0. -1.
         -4    1    3    3    0  502 -0.83922289668E+02 -0.12854775068E+03  0.24296072969E+03  0.28739761843E+03  0.00000000000E+00 0.  1.
         11    1    5    5    0    0 -0.30660563769E+02  0.35451663898E+03  0.20328484378E+03  0.40981318329E+03  0.00000000000E+00 0. -1.
        -11    1    5    5    0    0 -0.45340301167E+01  0.78229591889E+02  0.10457698971E+03  0.13067812844E+03  0.00000000000E+00 0.  1.
          2    1    6    6  503    0  0.85251023333E+02 -0.97158838691E+02 -0.11292431679E+03  0.17163763642E+03  0.00000000000E+00 0. -1.
         -2    1    6    6    0  503  0.21690216453E+02 -0.92035881597E+02 -0.19063973005E+03  0.21280172853E+03  0.00000000000E+00 0.  1.
<mgrwt>
<rscale>  0 0.13797900E+04</rscale>
<asrwt>0</asrwt>
<pdfrwt beam="1">  1        1 0.14726124E+00 0.13797900E+04</pdfrwt>
<pdfrwt beam="2">  1       -1 0.76498135E-01 0.13797900E+04</pdfrwt>
<totfact> 0.27404093E+01</totfact>
</mgrwt>
</event>
<event>
12    2  0.3623523E-008  0.3463332E+04  0.7818608E-02  0.8122535E-01
         -2   -1    0    0    0  501 -0.00000000000E+00  0.00000000000E+00  0.14003881858E+04  0.14003881858E+04  0.00000000000E+00 0.  1.
          2   -1    0    0  501    0  0.00000000000E+00 -0.00000000000E+00 -0.21413112616E+04  0.21413112616E+04  0.00000000000E+00 0. -1.
         23    2    1    2    0    0  0.27715305992E+03  0.10287442983E+04 -0.15841705892E+04  0.19117431093E+04  0.10018288456E+03 0.  0.
        254    2    1    2    0    0 -0.27715305992E+03 -0.10287442983E+04  0.84324751338E+03  0.16299563382E+04  0.90031252665E+03 0.  0.
         23    2    4    4    0    0  0.13025876467E+03 -0.73371973319E+03  0.14591002370E+03  0.76513212552E+03  0.93943822821E+02 0.  0.
         23    2    4    4    0    0 -0.40741182459E+03 -0.29502456508E+03  0.69733748968E+03  0.86482421263E+03  0.92830250642E+02 0.  0.
          2    1    3    3  502    0  0.26721176366E+03  0.92546904152E+03 -0.13831452009E+04  0.16855223880E+04  0.00000000000E+00 0. -1.
         -2    1    3    3    0  502  0.99412962647E+01  0.10327525674E+03 -0.20102538827E+03  0.22622072132E+03  0.00000000000E+00 0.  1.
         11    1    5    5    0    0  0.43553556130E+01 -0.12432298400E+02 -0.99809563191E+01  0.16527270043E+02  0.00000000000E+00 0.  1.
        -11    1    5    5    0    0  0.12590340906E+03 -0.72128743479E+03  0.15589098002E+03  0.74860485548E+03  0.00000000000E+00 0. -1.
          3    1    6    6  503    0 -0.34836546244E+03 -0.23833998241E+03  0.63248138049E+03  0.76039275332E+03  0.00000000000E+00 0. -1.
         -3    1    6    6    0  503 -0.59046362155E+02 -0.56684582664E+02  0.64856109184E+02  0.10443145931E+03  0.00000000000E+00 0.  1.
<mgrwt>
<rscale>  0 0.34633319E+04</rscale>
<asrwt>0</asrwt>
<pdfrwt beam="1">  1        2 0.32943250E+00 0.34633319E+04</pdfrwt>
<pdfrwt beam="2">  1       -2 0.21544434E+00 0.34633319E+04</pdfrwt>
<totfact> 0.48515487E-01</totfact>
</mgrwt>
</event>
<event>
12    2  0.3623523E-008  0.1903346E+04  0.7818608E-02  0.8653193E-01
         -1   -1    0    0    0  501 -0.00000000000E+00  0.00000000000E+00  0.69485760087E+03  0.69485760087E+03  0.00000000000E+00 0.  1.
          1   -1    0    0  501    0  0.00000000000E+00 -0.00000000000E+00 -0.13034053857E+04  0.13034053857E+04  0.00000000000E+00 0. -1.
         23    2    1    2    0    0  0.57121906959E+03  0.40923354063E+03 -0.13922809541E+02  0.70914930642E+03  0.94528185867E+02 0.  0.
        254    2    1    2    0    0 -0.57121906959E+03 -0.40923354063E+03 -0.59462497530E+03  0.12891136802E+04  0.90248097094E+03 0.  0.
         23    2    4    4    0    0 -0.46809307775E+03  0.87736407166E+02  0.22135236494E+02  0.48528084717E+03  0.90546813056E+02 0.  0.
         23    2    4    4    0    0 -0.10312599184E+03 -0.49696994780E+03 -0.61676021179E+03  0.80383283300E+03  0.90221756524E+02 0.  0.
          1    1    3    3  502    0  0.95482514522E+02  0.77123040816E+02 -0.37914383209E+02  0.12846156802E+03  0.00000000000E+00 0. -1.
         -1    1    3    3    0  502  0.47573655507E+03  0.33211049982E+03  0.23991573668E+02  0.58068773840E+03  0.00000000000E+00 0.  1.
         11    1    5    5    0    0 -0.31571033755E+03  0.89755813435E+02  0.44601259321E+02  0.33123767240E+03  0.00000000000E+00 0.  1.
        -11    1    5    5    0    0 -0.15238274020E+03 -0.20194062684E+01 -0.22466022827E+02  0.15404317477E+03  0.00000000000E+00 0. -1.
          1    1    6    6  503    0 -0.39479425325E+02 -0.51114187307E+02 -0.65511393762E+02  0.91994716592E+02  0.00000000000E+00 0. -1.
         -1    1    6    6    0  503 -0.63646566519E+02 -0.44585576049E+03 -0.55124881803E+03  0.71183811641E+03  0.00000000000E+00 0.  1.
<mgrwt>
<rscale>  0 0.19033456E+04</rscale>
<asrwt>0</asrwt>
<pdfrwt beam="1">  1        1 0.20052390E+00 0.19033456E+04</pdfrwt>
<pdfrwt beam="2">  1       -1 0.10690117E+00 0.19033456E+04</pdfrwt>
<totfact> 0.68687949E+00</totfact>
</mgrwt>
</event>
<event>
12    2  0.3623523E-008  0.1407164E+04  0.7818608E-02  0.8948649E-01
         -2   -1    0    0    0  501 -0.00000000000E+00  0.00000000000E+00  0.15688491750E+03  0.15688491750E+03  0.00000000000E+00 0.  1.
          2   -1    0    0  501    0  0.00000000000E+00 -0.00000000000E+00 -0.31553553305E+04  0.31553553305E+04  0.00000000000E+00 0. -1.
         23    2    1    2    0    0 -0.32874079654E+03 -0.10401316473E+03 -0.14029754064E+04  0.14475860856E+04  0.90973812039E+02 0.  0.
        254    2    1    2    0    0  0.32874079654E+03  0.10401316473E+03 -0.15954950065E+04  0.18646541624E+04  0.90135541245E+03 0.  0.
         23    2    4    4    0    0  0.35107804588E+03  0.19935407237E+03 -0.16647143746E+04  0.17155049160E+04  0.93195103619E+02 0.  0.
         23    2    4    4    0    0 -0.22337249343E+02 -0.95340907646E+02  0.69219368026E+02  0.14914924639E+03  0.88686726234E+02 0.  0.
          1    1    3    3  502    0 -0.29109791681E+03 -0.66102128519E+02 -0.12620892006E+04  0.12969104205E+04  0.00000000000E+00 0. -1.
         -1    1    3    3    0  502 -0.37642879735E+02 -0.37911036209E+02 -0.14088620581E+03  0.15067566509E+03  0.00000000000E+00 0.  1.
         11    1    5    5    0    0  0.23192981587E+03  0.12275347087E+03 -0.12506350443E+04  0.12778684863E+04  0.00000000000E+00 0.  1.
        -11    1    5    5    0    0  0.11914823001E+03  0.76600601499E+02 -0.41407933024E+03  0.43763642970E+03  0.00000000000E+00 0. -1.
          2    1    6    6  503    0 -0.30428357622E+02 -0.98403208358E+01 -0.87478716720E+01  0.33154820472E+02  0.00000000000E+00 0. -1.
         -2    1    6    6    0  503  0.80911082795E+01 -0.85500586810E+02  0.77967239698E+02  0.11599442592E+03  0.00000000000E+00 0.  1.
<mgrwt>
<rscale>  0 0.14071640E+04</rscale>
<asrwt>0</asrwt>
<pdfrwt beam="1">  1        2 0.48543926E+00 0.14071640E+04</pdfrwt>
<pdfrwt beam="2">  1       -2 0.24136142E-01 0.14071640E+04</pdfrwt>
<totfact> 0.20852949E+01</totfact>
</mgrwt>
</event>
<event>
12    2  0.3623523E-008  0.1475045E+04  0.7818608E-02  0.8901220E-01
         -1   -1    0    0    0  501 -0.00000000000E+00  0.00000000000E+00  0.73365915396E+03  0.73365915396E+03  0.00000000000E+00 0.  1.
          1   -1    0    0  501    0  0.00000000000E+00 -0.00000000000E+00 -0.74140599982E+03  0.74140599982E+03  0.00000000000E+00 0. -1.
         23    2    1    2    0    0 -0.23607746006E+03  0.23952387872E+03  0.30650569147E+03  0.46302182954E+03  0.85669248323E+02 0.  0.
        254    2    1    2    0    0  0.23607746006E+03 -0.23952387872E+03 -0.31425253733E+03  0.10120433242E+04  0.90131724564E+03 0.  0.
         23    2    4    4    0    0  0.18945708167E+03 -0.56471919961E+03 -0.29109108253E+03  0.66920179001E+03  0.91078302671E+02 0.  0.
         23    2    4    4    0    0  0.46620378393E+02  0.32519532089E+03 -0.23161454798E+02  0.34284153423E+03  0.95280681138E+02 0.  0.
          1    1    3    3  502    0 -0.33348243551E+02  0.41680815209E+02  0.12636492999E+02  0.54855051360E+02  0.00000000000E+00 0. -1.
         -1    1    3    3    0  502 -0.20272921651E+03  0.19784306351E+03  0.29386919847E+03  0.40816677818E+03  0.00000000000E+00 0.  1.
         11    1    5    5    0    0  0.14328081442E+03 -0.51192460476E+03 -0.24550497437E+03  0.58555007060E+03  0.00000000000E+00 0. -1.
        -11    1    5    5    0    0  0.46176267245E+02 -0.52794594844E+02 -0.45586108165E+02  0.83651719403E+02  0.00000000000E+00 0.  1.
          1    1    6    6  503    0  0.72962149210E+02  0.25324763459E+03 -0.27981784544E+01  0.26356340688E+03  0.00000000000E+00 0. -1.
         -1    1    6    6    0  503 -0.26341770817E+02  0.71947686296E+02 -0.20363276344E+02  0.79278127353E+02  0.00000000000E+00 0.  1.
<mgrwt>
<rscale>  0 0.14750448E+04</rscale>
<asrwt>0</asrwt>
<pdfrwt beam="1">  1        1 0.11406246E+00 0.14750448E+04</pdfrwt>
<pdfrwt beam="2">  1       -1 0.11287064E+00 0.14750448E+04</pdfrwt>
<totfact> 0.17357138E+01</totfact>
</mgrwt>
</event>
<event>
12    2  0.3623523E-008  0.1912192E+04  0.7818608E-02  0.8648812E-01
          2   -1    0    0  501    0  0.00000000000E+00  0.00000000000E+00  0.33858046712E+04  0.33858046712E+04  0.00000000000E+00 0. -1.
         -2   -1    0    0    0  501 -0.00000000000E+00 -0.00000000000E+00 -0.26998579186E+03  0.26998579186E+03  0.00000000000E+00 0.  1.
         23    2    1    2    0    0 -0.43369928780E+03  0.11616788569E+02  0.23621612844E+04  0.24034497382E+04  0.92383379381E+02 0.  0.
        254    2    1    2    0    0  0.43369928780E+03 -0.11616788569E+02  0.75365759493E+03  0.12523407248E+04  0.90118116855E+03 0.  0.
         23    2    4    4    0    0 -0.90517280578E+02  0.32521054636E+03  0.14944502066E+03  0.37969065125E+03  0.88746261334E+02 0.  0.
         23    2    4    4    0    0  0.52421656838E+03 -0.33682733493E+03  0.60421257427E+03  0.87265007353E+03  0.90496694987E+02 0.  0.
          2    1    3    3  502    0 -0.43323669886E+03  0.21091874958E+02  0.23236867484E+04  0.23638229649E+04  0.00000000000E+00 0. -1.
         -2    1    3    3    0  502 -0.46258893866E+00 -0.94750863893E+01  0.38474535965E+02  0.39626773377E+02  0.00000000000E+00 0.  1.
         11    1    5    5    0    0 -0.13669216953E+02  0.71682532536E+00  0.14533252261E+02  0.19964387091E+02  0.00000000000E+00 0. -1.
        -11    1    5    5    0    0 -0.76848063625E+02  0.32449372104E+03  0.13491176840E+03  0.35972626416E+03  0.00000000000E+00 0.  1.
          4    1    6    6  503    0  0.17686198111E+03 -0.11113098280E+03  0.14538272530E+03  0.25449242134E+03  0.00000000000E+00 0. -1.
         -4    1    6    6    0  503  0.34735458726E+03 -0.22569635213E+03  0.45882984897E+03  0.61815765219E+03  0.00000000000E+00 0.  1.
<mgrwt>
<rscale>  0 0.19121916E+04</rscale>
<asrwt>0</asrwt>
<pdfrwt beam="1">  1        2 0.52089300E+00 0.19121916E+04</pdfrwt>
<pdfrwt beam="2">  1       -2 0.41536278E-01 0.19121916E+04</pdfrwt>
<totfact> 0.50379324E+00</totfact>
</mgrwt>
</event>
<event>
12    2  0.3623523E-008  0.1401088E+04  0.7818608E-02  0.8953032E-01
         -2   -1    0    0    0  501 -0.00000000000E+00  0.00000000000E+00  0.29862829824E+03  0.29862829824E+03  0.00000000000E+00 0.  1.
          2   -1    0    0  501    0  0.00000000000E+00 -0.00000000000E+00 -0.16433860668E+04  0.16433860668E+04  0.00000000000E+00 0. -1.
         23    2    1    2    0    0 -0.36171535044E+02 -0.10285518176E+03 -0.86072567184E+03  0.87209457594E+03  0.88389472537E+02 0.  0.
        254    2    1    2    0    0  0.36171535044E+02  0.10285518176E+03 -0.48403209676E+03  0.10699197891E+04  0.94792073304E+03 0.  0.
         23    2    4    4    0    0 -0.38457042364E+03  0.12666613877E+03  0.88538832043E+01  0.41503985469E+03  0.90779779065E+02 0.  0.
         23    2    4    4    0    0  0.42074195868E+03 -0.23810957009E+02 -0.49288597997E+03  0.65487993445E+03  0.91325690938E+02 0.  0.
          2    1    3    3  502    0 -0.39437084717E+02 -0.25648379285E+02 -0.54591620229E+03  0.54793943364E+03  0.00000000000E+00 0. -1.
         -2    1    3    3    0  502  0.32655496727E+01 -0.77206802473E+02 -0.31480946955E+03  0.32415514231E+03  0.00000000000E+00 0.  1.
         11    1    5    5    0    0 -0.38637084049E+03  0.12046607666E+03  0.16476433689E+02  0.40505058310E+03  0.00000000000E+00 0. -1.
        -11    1    5    5    0    0  0.18004168499E+01  0.62000621068E+01 -0.76225504851E+01  0.99892715881E+01  0.00000000000E+00 0.  1.
          1    1    6    6  503    0  0.24747913852E+03  0.28618225486E+01 -0.22349885325E+03  0.33347541354E+03  0.00000000000E+00 0. -1.
         -1    1    6    6    0  503  0.17326282016E+03 -0.26672779558E+02 -0.26938712672E+03  0.32140452091E+03  0.00000000000E+00 0.  1.
<mgrwt>
<rscale>  0 0.14010876E+04</rscale>
<asrwt>0</asrwt>
<pdfrwt beam="1">  1        2 0.25282863E+00 0.14010876E+04</pdfrwt>
<pdfrwt beam="2">  1       -2 0.45942815E-01 0.14010876E+04</pdfrwt>
<totfact> 0.46099755E+01</totfact>
</mgrwt>
</event>
<event>
12    2  0.3623523E-008  0.1732128E+04  0.7818608E-02  0.8743250E-01
         -2   -1    0    0    0  501 -0.00000000000E+00  0.00000000000E+00  0.34147371015E+03  0.34147371015E+03  0.00000000000E+00 0. -1.
          2   -1    0    0  501    0  0.00000000000E+00 -0.00000000000E+00 -0.21965586482E+04  0.21965586482E+04  0.00000000000E+00 0.  1.
         23    2    1    2    0    0  0.33594337413E+03  0.48354170120E+03 -0.35582892634E+03  0.69397322471E+03  0.91181601096E+02 0.  0.
        254    2    1    2    0    0 -0.33594337413E+03 -0.48354170120E+03 -0.14992560117E+04  0.18440591336E+04  0.89783905700E+03 0.  0.
         23    2    4    4    0    0  0.17496289173E+02 -0.44825379389E+03 -0.13873734296E+04  0.14606976202E+04  0.87148842620E+02 0.  0.
         23    2    4    4    0    0 -0.35343966330E+03 -0.35287907305E+02 -0.11188258208E+03  0.38336151337E+03  0.91013766880E+02 0.  0.
          3    1    3    3  502    0  0.33425146216E+03  0.45327677616E+03 -0.32279011120E+03  0.64913583451E+03  0.00000000000E+00 0. -1.
         -3    1    3    3    0  502  0.16919119675E+01  0.30264925035E+02 -0.33038815148E+02  0.44837390199E+02  0.00000000000E+00 0.  1.
         11    1    5    5    0    0  0.11284185394E+02 -0.45004075398E+03 -0.13734393925E+04  0.14453372541E+04  0.00000000000E+00 0. -1.
        -11    1    5    5    0    0  0.62121037789E+01  0.17869600898E+01 -0.13934037058E+02  0.15360366156E+02  0.00000000000E+00 0.  1.
          3    1    6    6  503    0 -0.31624185815E+03 -0.42853112635E+02 -0.69777127993E+02  0.32667131753E+03  0.00000000000E+00 0. -1.
         -3    1    6    6    0  503 -0.37197805154E+02  0.75652053295E+01 -0.42105454088E+02  0.56690195835E+02  0.00000000000E+00 0.  1.
<mgrwt>
<rscale>  0 0.17321282E+04</rscale>
<asrwt>0</asrwt>
<pdfrwt beam="1">  1        2 0.33793212E+00 0.17321282E+04</pdfrwt>
<pdfrwt beam="2">  1       -2 0.52534414E-01 0.17321282E+04</pdfrwt>
<totfact> 0.16839427E+01</totfact>
</mgrwt>
</event>
<event>
12    2  0.3623523E-008  0.2826166E+04  0.7818608E-02  0.8295191E-01
          1   -1    0    0  501    0  0.00000000000E+00  0.00000000000E+00  0.18331733233E+04  0.18331733233E+04  0.00000000000E+00 0. -1.
         -1   -1    0    0    0  501 -0.00000000000E+00 -0.00000000000E+00 -0.10892606608E+04  0.10892606608E+04  0.00000000000E+00 0.  1.
         23    2    1    2    0    0 -0.81255239041E+03 -0.58813821140E+03 -0.46132949884E+03  0.11107889689E+04  0.12198067071E+03 0.  0.
        254    2    1    2    0    0  0.81255239041E+03  0.58813821140E+03  0.12052421613E+04  0.18116450152E+04  0.90735938346E+03 0.  0.
         23    2    4    4    0    0  0.39863008379E+03 -0.13246908357E+03  0.73792353325E+03  0.85395114717E+03  0.90815301658E+02 0.  0.
         23    2    4    4    0    0  0.41392230662E+03  0.72060729497E+03  0.46731862808E+03  0.95769386803E+03  0.90467094757E+02 0.  0.
          3    1    3    3  502    0 -0.34466681896E+03 -0.31996448263E+03 -0.23803153173E+03  0.52709723613E+03  0.00000000000E+00 0. -1.
         -3    1    3    3    0  502 -0.46788557145E+03 -0.26817372877E+03 -0.22329796712E+03  0.58369173276E+03  0.00000000000E+00 0.  1.
         11    1    5    5    0    0  0.37610144036E+03 -0.12895952953E+03  0.64031410011E+03  0.75371413712E+03  0.00000000000E+00 0. -1.
        -11    1    5    5    0    0  0.22528643432E+02 -0.35095540361E+01  0.97609433143E+02  0.10023701005E+03  0.00000000000E+00 0.  1.
          2    1    6    6  503    0  0.31553114531E+03  0.48548309521E+03  0.35489537929E+03  0.67912036462E+03  0.00000000000E+00 0. -1.
         -2    1    6    6    0  503  0.98391161307E+02  0.23512419976E+03  0.11242324879E+03  0.27857350341E+03  0.00000000000E+00 0.  1.
<mgrwt>
<rscale>  0 0.28261660E+04</rscale>
<asrwt>0</asrwt>
<pdfrwt beam="1">  1        1 0.28202667E+00 0.28261660E+04</pdfrwt>
<pdfrwt beam="2">  1       -1 0.16757856E+00 0.28261660E+04</pdfrwt>
<totfact> 0.85666683E-01</totfact>
</mgrwt>
</event>
<event>
12    2  0.3623523E-008  0.1406893E+04  0.7818608E-02  0.8948844E-01
         -1   -1    0    0    0  501 -0.00000000000E+00  0.00000000000E+00  0.60837215469E+03  0.60837215469E+03  0.00000000000E+00 0.  1.
          1   -1    0    0  501    0  0.00000000000E+00 -0.00000000000E+00 -0.81337832621E+03  0.81337832621E+03  0.00000000000E+00 0. -1.
         23    2    1    2    0    0  0.14553417800E+03 -0.24927429868E+03 -0.34416759911E+03  0.45858884948E+03  0.92382485593E+02 0.  0.
        254    2    1    2    0    0 -0.14553417800E+03  0.24927429868E+03  0.13916142759E+03  0.96316163142E+03  0.90829320837E+03 0.  0.
         23    2    4    4    0    0 -0.42273500538E+03 -0.32596292635E+02 -0.15651882673E+03  0.46125349072E+03  0.92137052861E+02 0.  0.
         23    2    4    4    0    0  0.27720082739E+03  0.28187059132E+03  0.29568025432E+03  0.50190814070E+03  0.90518727122E+02 0.  0.
          4    1    3    3  502    0  0.57951395386E+02 -0.27049644637E+02 -0.80568761235E+02  0.10286579990E+03  0.00000000000E+00 0.  1.
         -4    1    3    3    0  502  0.87582782610E+02 -0.22222465404E+03 -0.26359883788E+03  0.35572304958E+03  0.00000000000E+00 0. -1.
         11    1    5    5    0    0 -0.11577288615E+03 -0.19235460200E+02 -0.20986526046E+01  0.11737873930E+03  0.00000000000E+00 0. -1.
        -11    1    5    5    0    0 -0.30696211923E+03 -0.13360832436E+02 -0.15442017412E+03  0.34387475141E+03  0.00000000000E+00 0.  1.
          3    1    6    6  503    0  0.25318047552E+03  0.21001312110E+03  0.25265970482E+03  0.41478041258E+03  0.00000000000E+00 0.  1.
         -3    1    6    6    0  503  0.24020351866E+02  0.71857470213E+02  0.43020549499E+02  0.87127728125E+02  0.00000000000E+00 0. -1.
<mgrwt>
<rscale>  0 0.14068926E+04</rscale>
<asrwt>0</asrwt>
<pdfrwt beam="1">  1        1 0.12513513E+00 0.14068926E+04</pdfrwt>
<pdfrwt beam="2">  1       -1 0.93595716E-01 0.14068926E+04</pdfrwt>
<totfact> 0.23234009E+01</totfact>
</mgrwt>
</event>
<event>
12    2  0.3623523E-008  0.2883149E+04  0.7818608E-02  0.8277909E-01
         -1   -1    0    0    0  501 -0.00000000000E+00  0.00000000000E+00  0.21663750219E+04  0.21663750219E+04  0.00000000000E+00 0.  1.
          1   -1    0    0  501    0  0.00000000000E+00 -0.00000000000E+00 -0.95926952505E+03  0.95926952505E+03  0.00000000000E+00 0. -1.
         23    2    1    2    0    0 -0.28695787403E+03  0.18149318941E+03  0.19088891790E+04  0.19409873058E+04  0.91045178066E+02 0.  0.
        254    2    1    2    0    0  0.28695787403E+03 -0.18149318941E+03 -0.70178368218E+03  0.11846572411E+04  0.89197973239E+03 0.  0.
         23    2    4    4    0    0  0.46833677502E+03  0.49262623734E+02 -0.73248537875E+03  0.87552097663E+03  0.90752462764E+02 0.  0.
         23    2    4    4    0    0 -0.18137890099E+03 -0.23075581314E+03  0.30701696573E+02  0.30913626445E+03  0.92065654847E+02 0.  0.
          1    1    3    3  502    0 -0.21045628872E+03  0.17464650280E+03  0.15540562285E+04  0.15779366311E+04  0.00000000000E+00 0. -1.
         -1    1    3    3    0  502 -0.76501585313E+02  0.68466866109E+01  0.35483295047E+03  0.36305067472E+03  0.00000000000E+00 0.  1.
         11    1    5    5    0    0  0.58112461556E+02 -0.22083886542E+02 -0.76939052386E+02  0.98915994738E+02  0.00000000000E+00 0. -1.
        -11    1    5    5    0    0  0.41022431347E+03  0.71346510277E+02 -0.65554632637E+03  0.77660498189E+03  0.00000000000E+00 0.  1.
          2    1    6    6  503    0 -0.18628332462E+02 -0.70167821643E+02  0.34691602290E+02  0.80461451850E+02  0.00000000000E+00 0. -1.
         -2    1    6    6    0  503 -0.16275056853E+03 -0.16058799150E+03 -0.39899057174E+01  0.22867481260E+03  0.00000000000E+00 0.  1.
<mgrwt>
<rscale>  0 0.28831493E+04</rscale>
<asrwt>0</asrwt>
<pdfrwt beam="1">  1        1 0.14757993E+00 0.28831493E+04</pdfrwt>
<pdfrwt beam="2">  1       -1 0.33328846E+00 0.28831493E+04</pdfrwt>
<totfact> 0.28052320E-01</totfact>
</mgrwt>
</event>
<event>
12    2  0.3623523E-008  0.2610584E+04  0.7818608E-02  0.8364615E-01
         -1   -1    0    0    0  501 -0.00000000000E+00  0.00000000000E+00  0.13694673445E+04  0.13694673445E+04  0.00000000000E+00 0.  1.
          1   -1    0    0  501    0  0.00000000000E+00 -0.00000000000E+00 -0.12441241937E+04  0.12441241937E+04  0.00000000000E+00 0. -1.
         23    2    1    2    0    0 -0.50759830973E+03  0.19577320229E+03 -0.95780899044E+03  0.11054975366E+04  0.93506954470E+02 0.  0.
        254    2    1    2    0    0  0.50759830973E+03 -0.19577320229E+03  0.10831521412E+04  0.15080940016E+04  0.89729915078E+03 0.  0.
         23    2    4    4    0    0  0.69594231696E+03 -0.32569481346E+03  0.96030348293E+03  0.12331628672E+04  0.89972538288E+02 0.  0.
         23    2    4    4    0    0 -0.18834400723E+03  0.12992161116E+03  0.12284865826E+03  0.27493113443E+03  0.90234393314E+02 0.  0.
          1    1    3    3  502    0 -0.43399476676E+03  0.18848702382E+03 -0.77140229569E+03  0.90495321289E+03  0.00000000000E+00 0. -1.
         -1    1    3    3    0  502 -0.73603542971E+02  0.72861784792E+01 -0.18640669475E+03  0.20054432373E+03  0.00000000000E+00 0.  1.
         11    1    5    5    0    0  0.18008809777E+03 -0.12567493911E+03  0.29781024275E+03  0.37002277493E+03  0.00000000000E+00 0. -1.
        -11    1    5    5    0    0  0.51585421919E+03 -0.20001987435E+03  0.66249324017E+03  0.86314009226E+03  0.00000000000E+00 0.  1.
          4    1    6    6  503    0 -0.45337779894E+02  0.18056100985E+02 -0.10178760137E+02  0.49851220912E+02  0.00000000000E+00 0. -1.
         -4    1    6    6    0  503 -0.14300622734E+03  0.11186551018E+03  0.13302741840E+03  0.22507991352E+03  0.00000000000E+00 0.  1.
<mgrwt>
<rscale>  0 0.26105842E+04</rscale>
<asrwt>0</asrwt>
<pdfrwt beam="1">  1        1 0.19140372E+00 0.26105842E+04</pdfrwt>
<pdfrwt beam="2">  1       -1 0.21068728E+00 0.26105842E+04</pdfrwt>
<totfact> 0.11106103E+00</totfact>
</mgrwt>
</event>
<event>
12    2  0.3623523E-008  0.1915809E+04  0.7818608E-02  0.8647027E-01
         -2   -1    0    0    0  501 -0.00000000000E+00  0.00000000000E+00  0.69593563820E+03  0.69593563820E+03  0.00000000000E+00 0.  1.
          2   -1    0    0  501    0  0.00000000000E+00 -0.00000000000E+00 -0.13184854241E+04  0.13184854241E+04  0.00000000000E+00 0. -1.
         23    2    1    2    0    0  0.58750256236E+03  0.45351006006E+03 -0.38880917321E+03  0.84277060233E+03  0.90879478527E+02 0.  0.
        254    2    1    2    0    0 -0.58750256236E+03 -0.45351006006E+03 -0.23374061274E+03  0.11716504600E+04  0.87595632942E+03 0.  0.
         23    2    4    4    0    0 -0.51502901795E+03 -0.37996072446E+03  0.23127436382E+03  0.68664078953E+03  0.91447804918E+02 0.  0.
         23    2    4    4    0    0 -0.72473544414E+02 -0.73549335603E+02 -0.46501497657E+03  0.48500967049E+03  0.91288184499E+02 0.  0.
          4    1    3    3  502    0  0.13552522312E+03  0.66844543527E+02 -0.55778741228E+02  0.16107931920E+03  0.00000000000E+00 0. -1.
         -4    1    3    3    0  502  0.45197733924E+03  0.38666551654E+03 -0.33303043198E+03  0.68169128313E+03  0.00000000000E+00 0.  1.
         11    1    5    5    0    0 -0.39471203533E+03 -0.33567431777E+03  0.17916848806E+03  0.54824828824E+03  0.00000000000E+00 0. -1.
        -11    1    5    5    0    0 -0.12031698262E+03 -0.44286406686E+02  0.52105875765E+02  0.13839250129E+03  0.00000000000E+00 0.  1.
          1    1    6    6  503    0 -0.65742597166E+02 -0.23245833405E+02 -0.37713554921E+03  0.38352793944E+03  0.00000000000E+00 0. -1.
         -1    1    6    6    0  503 -0.67309472481E+01 -0.50303502198E+02 -0.87879427354E+02  0.10148173105E+03  0.00000000000E+00 0.  1.
<mgrwt>
<rscale>  0 0.19158090E+04</rscale>
<asrwt>0</asrwt>
<pdfrwt beam="1">  1        2 0.20284391E+00 0.19158090E+04</pdfrwt>
<pdfrwt beam="2">  1       -2 0.10706702E+00 0.19158090E+04</pdfrwt>
<totfact> 0.10581685E+01</totfact>
</mgrwt>
</event>
<event>
12    2  0.3623523E-008  0.1985636E+04  0.7818608E-02  0.8613366E-01
          2   -1    0    0  501    0  0.00000000000E+00  0.00000000000E+00  0.17525206946E+04  0.17525206946E+04  0.00000000000E+00 0. -1.
         -2   -1    0    0    0  501 -0.00000000000E+00 -0.00000000000E+00 -0.56243995355E+03  0.56243995355E+03  0.00000000000E+00 0.  1.
         23    2    1    2    0    0 -0.33893734451E+03 -0.53927110489E+03  0.10119262154E+04  0.11990533248E+04  0.89679218434E+02 0.  0.
        254    2    1    2    0    0  0.33893734451E+03  0.53927110489E+03  0.17815452565E+03  0.11159073234E+04  0.89878711118E+03 0.  0.
         23    2    4    4    0    0  0.31022140019E+02  0.87889637807E+02  0.47156753333E+03  0.48936861876E+03  0.91753718912E+02 0.  0.
         23    2    4    4    0    0  0.30791520449E+03  0.45138146709E+03 -0.29341300768E+03  0.62653870459E+03  0.88896306422E+02 0.  0.
          2    1    3    3  502    0 -0.17421158260E+03 -0.29763222343E+03  0.62762275478E+03  0.71613192797E+03  0.00000000000E+00 0. -1.
         -2    1    3    3    0  502 -0.16472576191E+03 -0.24163888146E+03  0.38430346060E+03  0.48292139681E+03  0.00000000000E+00 0.  1.
         11    1    5    5    0    0  0.12180515483E+01 -0.86277354090E+01  0.19051727575E+03  0.19071642255E+03  0.00000000000E+00 0. -1.
        -11    1    5    5    0    0  0.29804088471E+02  0.96517373217E+02  0.28105025757E+03  0.29865219621E+03  0.00000000000E+00 0.  1.
          2    1    6    6  503    0  0.71738427021E+02  0.14380187386E+03 -0.12573338067E+03  0.20404475944E+03  0.00000000000E+00 0.  1.
         -2    1    6    6    0  503  0.23617677747E+03  0.30757959322E+03 -0.16767962700E+03  0.42249394516E+03  0.00000000000E+00 0. -1.
<mgrwt>
<rscale>  0 0.19856361E+04</rscale>
<asrwt>0</asrwt>
<pdfrwt beam="1">  1        2 0.26961857E+00 0.19856361E+04</pdfrwt>
<pdfrwt beam="2">  1       -2 0.86529225E-01 0.19856361E+04</pdfrwt>
<totfact> 0.98654850E+00</totfact>
</mgrwt>
</event>
<event>
12    2  0.3623523E-008  0.4112716E+04  0.7818608E-02  0.7982186E-01
         -2   -1    0    0    0  501 -0.00000000000E+00  0.00000000000E+00  0.19511292668E+04  0.19511292668E+04  0.00000000000E+00 0.  1.
          2   -1    0    0  501    0  0.00000000000E+00 -0.00000000000E+00 -0.21672615120E+04  0.21672615120E+04  0.00000000000E+00 0. -1.
         23    2    1    2    0    0  0.19188053872E+03 -0.12050427767E+04  0.14325259477E+04  0.18839562326E+04  0.90632559712E+02 0.  0.
        254    2    1    2    0    0 -0.19188053872E+03  0.12050427767E+04 -0.16486581929E+04  0.22344345461E+04  0.88638460571E+03 0.  0.
         23    2    4    4    0    0  0.20447301773E+03  0.30961214482E+03 -0.96217874062E+03  0.10351957986E+04  0.90407507375E+02 0.  0.
         23    2    4    4    0    0 -0.39635355645E+03  0.89543063191E+03 -0.68647945224E+03  0.11992387475E+04  0.89595630118E+02 0.  0.
          3    1    3    3  502    0 -0.69130966515E+01 -0.49097896675E+02  0.75021445186E+02  0.89925589245E+02  0.00000000000E+00 0. -1.
         -3    1    3    3    0  502  0.19879363537E+03 -0.11559448801E+04  0.13575045025E+04  0.17940306434E+04  0.00000000000E+00 0.  1.
         11    1    5    5    0    0  0.48458888361E+01  0.69123990462E+02 -0.18132164712E+03  0.19411117539E+03  0.00000000000E+00 0.  1.
        -11    1    5    5    0    0  0.19962712889E+03  0.24048815436E+03 -0.78085709350E+03  0.84108462323E+03  0.00000000000E+00 0. -1.
          2    1    6    6  503    0 -0.35744958966E+03  0.76206536458E+03 -0.55704821624E+03  0.10093644259E+04  0.00000000000E+00 0. -1.
         -2    1    6    6    0  503 -0.38903966794E+02  0.13336526733E+03 -0.12943123600E+03  0.18987432163E+03  0.00000000000E+00 0.  1.
<mgrwt>
<rscale>  0 0.41127156E+04</rscale>
<asrwt>0</asrwt>
<pdfrwt beam="1">  1        2 0.33342485E+00 0.41127156E+04</pdfrwt>
<pdfrwt beam="2">  1       -2 0.30017373E+00 0.41127156E+04</pdfrwt>
<totfact> 0.13353673E-01</totfact>
</mgrwt>
</event>
<event>
12    2  0.3623523E-008  0.1235177E+04  0.7818608E-02  0.9082611E-01
         -2   -1    0    0    0  501 -0.00000000000E+00  0.00000000000E+00  0.22114851147E+03  0.22114851147E+03  0.00000000000E+00 0.  1.
          2   -1    0    0  501    0  0.00000000000E+00 -0.00000000000E+00 -0.17247044437E+04  0.17247044437E+04  0.00000000000E+00 0. -1.
         23    2    1    2    0    0  0.24808604500E+03 -0.32054203286E+02 -0.16865462234E+03  0.31604356117E+03  0.94154093081E+02 0.  0.
        254    2    1    2    0    0 -0.24808604500E+03  0.32054203286E+02 -0.13349013099E+04  0.16298093940E+04  0.90096781074E+03 0.  0.
         23    2    4    4    0    0 -0.24798102720E+03 -0.39452433918E+03 -0.88276289094E+03  0.10022921270E+04  0.90416492527E+02 0.  0.
         23    2    4    4    0    0 -0.10501780264E+00  0.42657854246E+03 -0.45213841895E+03  0.62751726704E+03  0.85904054754E+02 0.  0.
          1    1    3    3  502    0  0.78699899763E+02  0.14047055766E+02 -0.98838586357E+02  0.12712222525E+03  0.00000000000E+00 0. -1.
         -1    1    3    3    0  502  0.16938614524E+03 -0.46101259052E+02 -0.69816035986E+02  0.18892133592E+03  0.00000000000E+00 0.  1.
         11    1    5    5    0    0 -0.24115559018E+03 -0.32460433452E+03 -0.74716237257E+03  0.84957377763E+03  0.00000000000E+00 0.  1.
        -11    1    5    5    0    0 -0.68254370144E+01 -0.69920004662E+02 -0.13560051837E+03  0.15271834934E+03  0.00000000000E+00 0. -1.
          1    1    6    6  503    0 -0.12861744614E+02  0.13606511378E+03 -0.92537244602E+02  0.16505235927E+03  0.00000000000E+00 0. -1.
         -1    1    6    6    0  503  0.12756726811E+02  0.29051342868E+03 -0.35960117435E+03  0.46246490777E+03  0.00000000000E+00 0.  1.
<mgrwt>
<rscale>  0 0.12351774E+04</rscale>
<asrwt>0</asrwt>
<pdfrwt beam="1">  1        2 0.26533914E+00 0.12351774E+04</pdfrwt>
<pdfrwt beam="2">  1       -2 0.34022849E-01 0.12351774E+04</pdfrwt>
<totfact> 0.75635360E+01</totfact>
</mgrwt>
</event>
<event>
12    2  0.3623523E-008  0.1640205E+04  0.7818608E-02  0.8796222E-01
         -1   -1    0    0    0  501 -0.00000000000E+00  0.00000000000E+00  0.68646704897E+03  0.68646704897E+03  0.00000000000E+00 0.  1.
          1   -1    0    0  501    0  0.00000000000E+00 -0.00000000000E+00 -0.97975340510E+03  0.97975340510E+03  0.00000000000E+00 0. -1.
         23    2    1    2    0    0  0.33277656809E+03 -0.42010050074E+03  0.15008014949E+03  0.56400265572E+03  0.91379808470E+02 0.  0.
        254    2    1    2    0    0 -0.33277656809E+03  0.42010050074E+03 -0.44336650563E+03  0.11022177984E+04  0.85503540377E+03 0.  0.
         23    2    4    4    0    0 -0.29702263400E+03  0.66979157056E+03 -0.35623723661E+03  0.82009103883E+03  0.93814445109E+02 0.  0.
         23    2    4    4    0    0 -0.35753934092E+02 -0.24969106982E+03 -0.87129269011E+02  0.28212675953E+03  0.91542475235E+02 0.  0.
          2    1    3    3  502    0  0.18321021185E+03 -0.19620479604E+03  0.33264057236E+02  0.27049732202E+03  0.00000000000E+00 0. -1.
         -2    1    3    3    0  502  0.14956635625E+03 -0.22389570470E+03  0.11681609226E+03  0.29350533371E+03  0.00000000000E+00 0.  1.
         11    1    5    5    0    0 -0.22725652600E+03  0.54546920567E+03 -0.32407272856E+03  0.67394756201E+03  0.00000000000E+00 0. -1.
        -11    1    5    5    0    0 -0.69766108005E+02  0.12432236489E+03 -0.32164508056E+02  0.14614347682E+03  0.00000000000E+00 0.  1.
          4    1    6    6  503    0 -0.49678237938E+02 -0.84416391608E+02 -0.77653002627E+01  0.98256574258E+02  0.00000000000E+00 0. -1.
         -4    1    6    6    0  503  0.13924303845E+02 -0.16527467821E+03 -0.79363968748E+02  0.18387018527E+03  0.00000000000E+00 0.  1.
<mgrwt>
<rscale>  0 0.16402054E+04</rscale>
<asrwt>0</asrwt>
<pdfrwt beam="1">  1        1 0.15073129E+00 0.16402054E+04</pdfrwt>
<pdfrwt beam="2">  1       -1 0.10561032E+00 0.16402054E+04</pdfrwt>
<totfact> 0.12610932E+01</totfact>
</mgrwt>
</event>
<event>
12    2  0.3623523E-008  0.2437339E+04  0.7818608E-02  0.8425655E-01
          2   -1    0    0  501    0  0.00000000000E+00  0.00000000000E+00  0.25676665427E+04  0.25676665427E+04  0.00000000000E+00 0. -1.
         -2   -1    0    0    0  501 -0.00000000000E+00 -0.00000000000E+00 -0.57840673944E+03  0.57840673944E+03  0.00000000000E+00 0.  1.
         23    2    1    2    0    0 -0.14349918059E+03 -0.95691194753E+02 -0.48114218428E+03  0.51914499905E+03  0.90911544707E+02 0.  0.
        254    2    1    2    0    0  0.14349918059E+03  0.95691194753E+02  0.24704019875E+04  0.26269282831E+04  0.87642307413E+03 0.  0.
         23    2    4    4    0    0 -0.19189242619E+03 -0.29818714634E+03  0.10591180160E+04  0.11209772103E+04  0.95502129391E+02 0.  0.
         23    2    4    4    0    0  0.33539160678E+03  0.39387834109E+03  0.14112839715E+04  0.15059510728E+04  0.92404046649E+02 0.  0.
          2    1    3    3  502    0 -0.35010772669E+02  0.12381444882E+02 -0.14644828219E+03  0.15108326756E+03  0.00000000000E+00 0. -1.
         -2    1    3    3    0  502 -0.10848840792E+03 -0.10807263963E+03 -0.33469390210E+03  0.36806173149E+03  0.00000000000E+00 0.  1.
         11    1    5    5    0    0 -0.19472862394E+03 -0.24425163294E+03  0.92829900261E+03  0.97944736225E+03  0.00000000000E+00 0. -1.
        -11    1    5    5    0    0  0.28361977523E+01 -0.53935513397E+02  0.13081901340E+03  0.14152984806E+03  0.00000000000E+00 0.  1.
          3    1    6    6  503    0  0.32082964544E+03  0.33098999461E+03  0.12370527184E+04  0.13201460018E+04  0.00000000000E+00 0. -1.
         -3    1    6    6    0  503  0.14561961338E+02  0.62888346485E+02  0.17423125312E+03  0.18580507099E+03  0.00000000000E+00 0.  1.
<mgrwt>
<rscale>  0 0.24373392E+04</rscale>
<asrwt>0</asrwt>
<pdfrwt beam="1">  1        2 0.39502562E+00 0.24373392E+04</pdfrwt>
<pdfrwt beam="2">  1       -2 0.88985654E-01 0.24373392E+04</pdfrwt>
<totfact> 0.30912886E+00</totfact>
</mgrwt>
</event>
<event>
12    2  0.3623523E-008  0.2207143E+04  0.7818608E-02  0.8515461E-01
          2   -1    0    0  501    0  0.00000000000E+00  0.00000000000E+00  0.18320940659E+04  0.18320940659E+04  0.00000000000E+00 0.  1.
         -2   -1    0    0    0  501 -0.00000000000E+00 -0.00000000000E+00 -0.66474209794E+03  0.66474209794E+03  0.00000000000E+00 0. -1.
         23    2    1    2    0    0  0.92034610845E+03  0.10173322272E+02  0.53690734704E+03  0.10694575008E+04  0.91265497195E+02 0.  0.
        254    2    1    2    0    0 -0.92034610845E+03 -0.10173322272E+02  0.63044462093E+03  0.14273786630E+04  0.89039820965E+03 0.  0.
         23    2    4    4    0    0 -0.49784692163E+03  0.31050091655E+03  0.66007721209E+03  0.88805831238E+03  0.93184031433E+02 0.  0.
         23    2    4    4    0    0 -0.42249918682E+03 -0.32067423883E+03 -0.29632591157E+02  0.53932035063E+03  0.93009783555E+02 0.  0.
          3    1    3    3  502    0  0.52390155020E+03  0.20023665161E+02  0.35495972733E+03  0.63314310349E+03  0.00000000000E+00 0. -1.
         -3    1    3    3    0  502  0.39644455825E+03 -0.98503428892E+01  0.18194761971E+03  0.43631439735E+03  0.00000000000E+00 0.  1.
         11    1    5    5    0    0 -0.23184371808E+03  0.12080136414E+03  0.35642760621E+03  0.44202388811E+03  0.00000000000E+00 0. -1.
        -11    1    5    5    0    0 -0.26600320355E+03  0.18969955241E+03  0.30364960588E+03  0.44603442427E+03  0.00000000000E+00 0.  1.
          1    1    6    6  503    0 -0.21655746746E+01 -0.37418389242E+01  0.10509520203E+02  0.11364026007E+02  0.00000000000E+00 0. -1.
         -1    1    6    6    0  503 -0.42033361214E+03 -0.31693239990E+03 -0.40142111360E+02  0.52795632462E+03  0.00000000000E+00 0.  1.
<mgrwt>
<rscale>  0 0.22071430E+04</rscale>
<asrwt>0</asrwt>
<pdfrwt beam="1">  1        2 0.28186062E+00 0.22071430E+04</pdfrwt>
<pdfrwt beam="2">  1       -2 0.10226802E+00 0.22071430E+04</pdfrwt>
<totfact> 0.59240308E+00</totfact>
</mgrwt>
</event>
<event>
12    2  0.3623523E-008  0.3089812E+04  0.7818608E-02  0.8218540E-01
          2   -1    0    0  501    0  0.00000000000E+00  0.00000000000E+00  0.16412866066E+04  0.16412866066E+04  0.00000000000E+00 0. -1.
         -2   -1    0    0    0  501 -0.00000000000E+00 -0.00000000000E+00 -0.14541848162E+04  0.14541848162E+04  0.00000000000E+00 0.  1.
         23    2    1    2    0    0 -0.55386872643E+03 -0.17919434945E+03 -0.12133964069E+04  0.13489207325E+04  0.91515688941E+02 0.  0.
        254    2    1    2    0    0  0.55386872643E+03  0.17919434945E+03  0.14004981973E+04  0.17465506902E+04  0.86611946735E+03 0.  0.
         23    2    4    4    0    0 -0.42470204928E+02  0.31671490693E+03  0.87122734060E+03  0.93264895431E+03  0.93193038250E+02 0.  0.
         23    2    4    4    0    0  0.59633893136E+03 -0.13752055748E+03  0.52927085673E+03  0.81390173589E+03  0.88183735044E+02 0.  0.
          4    1    3    3  502    0 -0.11559649420E+02 -0.14840836562E+02 -0.18107203128E+02  0.26110280153E+02  0.00000000000E+00 0. -1.
         -4    1    3    3    0  502 -0.54230907701E+03 -0.16435351289E+03 -0.11952892038E+04  0.13228104524E+04  0.00000000000E+00 0.  1.
         11    1    5    5    0    0 -0.34465534786E+02  0.31937507597E+03  0.86308275138E+03  0.92092352993E+03  0.00000000000E+00 0.  1.
        -11    1    5    5    0    0 -0.80046701417E+01 -0.26601690356E+01  0.81445892214E+01  0.11725424383E+02  0.00000000000E+00 0. -1.
          4    1    6    6  503    0  0.44700967585E+03 -0.76656712397E+02  0.35080871911E+03  0.57337654231E+03  0.00000000000E+00 0. -1.
         -4    1    6    6    0  503  0.14932925551E+03 -0.60863845087E+02  0.17846213762E+03  0.24052519359E+03  0.00000000000E+00 0.  1.
<mgrwt>
<rscale>  0 0.30898117E+04</rscale>
<asrwt>0</asrwt>
<pdfrwt beam="1">  1        2 0.25250563E+00 0.30898117E+04</pdfrwt>
<pdfrwt beam="2">  1       -2 0.22372074E+00 0.30898117E+04</pdfrwt>
<totfact> 0.84133508E-01</totfact>
</mgrwt>
</event>
<event>
12    2  0.3623523E-008  0.1573493E+04  0.7818608E-02  0.8837000E-01
          2   -1    0    0  501    0  0.00000000000E+00  0.00000000000E+00  0.53958872298E+03  0.53958872298E+03  0.00000000000E+00 0. -1.
         -2   -1    0    0    0  501 -0.00000000000E+00 -0.00000000000E+00 -0.11471145473E+04  0.11471145473E+04  0.00000000000E+00 0.  1.
         23    2    1    2    0    0 -0.25299558832E+03 -0.24191085436E+03 -0.61822896125E+03  0.71626003728E+03  0.91070101104E+02 0.  0.
        254    2    1    2    0    0  0.25299558832E+03  0.24191085436E+03  0.10703136948E+02  0.97044323299E+03  0.90505131465E+03 0.  0.
         23    2    4    4    0    0  0.25633030400E+03  0.72585144152E+02 -0.41602257220E+03  0.50220931957E+03  0.90363666289E+02 0.  0.
         23    2    4    4    0    0 -0.33347156818E+01  0.16932571020E+03  0.42672570915E+03  0.46823391341E+03  0.92010055739E+02 0.  0.
          2    1    3    3  502    0 -0.98337063824E+01  0.75303274300E+01 -0.13110380748E+02  0.18035789303E+02  0.00000000000E+00 0. -1.
         -2    1    3    3    0  502 -0.24316188194E+03 -0.24944118179E+03 -0.60511858050E+03  0.69822424798E+03  0.00000000000E+00 0.  1.
         11    1    5    5    0    0 -0.22288495115E+01 -0.83024337164E+01 -0.50331205439E+01  0.99614496018E+01  0.00000000000E+00 0. -1.
        -11    1    5    5    0    0  0.25855915351E+03  0.80887577868E+02 -0.41098945166E+03  0.49224786997E+03  0.00000000000E+00 0.  1.
          2    1    6    6  503    0  0.13955375781E+02  0.14741440616E+01  0.95275003195E+02  0.96302917130E+02  0.00000000000E+00 0. -1.
         -2    1    6    6    0  503 -0.17290091463E+02  0.16785156614E+03  0.33145070595E+03  0.37193099628E+03  0.00000000000E+00 0.  1.
<mgrwt>
<rscale>  0 0.15734930E+04</rscale>
<asrwt>0</asrwt>
<pdfrwt beam="1">  1        2 0.83013649E-01 0.15734930E+04</pdfrwt>
<pdfrwt beam="2">  1       -2 0.17647916E+00 0.15734930E+04</pdfrwt>
<totfact> 0.10369827E+01</totfact>
</mgrwt>
</event>
<event>
12    2  0.3623523E-008  0.2148421E+04  0.7818608E-02  0.8540209E-01
          1   -1    0    0  501    0  0.00000000000E+00  0.00000000000E+00  0.19060005740E+04  0.19060005740E+04  0.00000000000E+00 0. -1.
         -1   -1    0    0    0  501 -0.00000000000E+00 -0.00000000000E+00 -0.60541842182E+03  0.60541842182E+03  0.00000000000E+00 0.  1.
         23    2    1    2    0    0 -0.75010359566E+03  0.45174244811E+03  0.65514048479E+03  0.10973605352E+04  0.90908997147E+02 0.  0.
        254    2    1    2    0    0  0.75010359566E+03 -0.45174244811E+03  0.64544166741E+03  0.14140584606E+04  0.90345987208E+03 0.  0.
         23    2    4    4    0    0 -0.45542158851E+02 -0.43643726715E+03  0.15317274770E+03  0.47371379650E+03  0.91604006284E+02 0.  0.
         23    2    4    4    0    0  0.79564575451E+03 -0.15305180958E+02  0.49226891971E+03  0.94034466415E+03  0.92913846325E+02 0.  0.
          1    1    3    3  502    0 -0.64474294433E+03  0.39309913333E+03  0.52351082389E+03  0.91884926708E+03  0.00000000000E+00 0. -1.
         -1    1    3    3    0  502 -0.10536065133E+03  0.58643314779E+02  0.13162966090E+03  0.17851126812E+03  0.00000000000E+00 0.  1.
         11    1    5    5    0    0 -0.51922948616E+02 -0.13895890454E+03  0.74200634520E+02  0.16586531858E+03  0.00000000000E+00 0.  1.
        -11    1    5    5    0    0  0.63807897651E+01 -0.29747836261E+03  0.78972113181E+02  0.30784847792E+03  0.00000000000E+00 0. -1.
          2    1    6    6  503    0  0.56297261248E+01 -0.92040661995E+01  0.10173854913E+02  0.14829564209E+02  0.00000000000E+00 0. -1.
         -2    1    6    6    0  503  0.79001602839E+03 -0.61011147590E+01  0.48209506480E+03  0.92551509994E+03  0.00000000000E+00 0.  1.
<mgrwt>
<rscale>  0 0.21484207E+04</rscale>
<asrwt>0</asrwt>
<pdfrwt beam="1">  1        1 0.29323085E+00 0.21484207E+04</pdfrwt>
<pdfrwt beam="2">  1       -1 0.93141296E-01 0.21484207E+04</pdfrwt>
<totfact> 0.35375000E+00</totfact>
</mgrwt>
</event>
<event>
12    2  0.3623523E-008  0.1798854E+04  0.7818608E-02  0.8706909E-01
          1   -1    0    0  501    0  0.00000000000E+00  0.00000000000E+00  0.82807846685E+03  0.82807846685E+03  0.00000000000E+00 0. -1.
         -1   -1    0    0    0  501 -0.00000000000E+00 -0.00000000000E+00 -0.97692286175E+03  0.97692286175E+03  0.00000000000E+00 0.  1.
         23    2    1    2    0    0 -0.16586704030E+03 -0.32852966535E+02 -0.68705439803E+03  0.71303258151E+03  0.88207278434E+02 0.  0.
        254    2    1    2    0    0  0.16586704030E+03  0.32852966535E+02  0.53821000312E+03  0.10919687471E+04  0.93495162693E+03 0.  0.
         23    2    4    4    0    0 -0.84221752453E+02 -0.92230466186E+02  0.72645532710E+03  0.74266122440E+03  0.90601266410E+02 0.  0.
         23    2    4    4    0    0  0.25008879276E+03  0.12508343272E+03 -0.18824532398E+03  0.34930752269E+03  0.91592434211E+02 0.  0.
          2    1    3    3  502    0 -0.72008384620E+02 -0.43606589425E+00 -0.14430269378E+03  0.16127202188E+03  0.00000000000E+00 0. -1.
         -2    1    3    3    0  502 -0.93858655683E+02 -0.32416900641E+02 -0.54275170424E+03  0.55176055962E+03  0.00000000000E+00 0.  1.
         11    1    5    5    0    0  0.16080772424E+02 -0.13035225530E+01  0.43014893883E+02  0.45940956766E+02  0.00000000000E+00 0. -1.
        -11    1    5    5    0    0 -0.10030252488E+03 -0.90926943633E+02  0.68344043322E+03  0.69672026764E+03  0.00000000000E+00 0.  1.
          1    1    6    6  503    0  0.88271145918E+02  0.34419358707E+01 -0.82692664624E+02  0.12100297065E+03  0.00000000000E+00 0. -1.
         -1    1    6    6    0  503  0.16181764684E+03  0.12164149685E+03 -0.10555265936E+03  0.22830455204E+03  0.00000000000E+00 0.  1.
<mgrwt>
<rscale>  0 0.17988538E+04</rscale>
<asrwt>0</asrwt>
<pdfrwt beam="1">  1        1 0.12739669E+00 0.17988538E+04</pdfrwt>
<pdfrwt beam="2">  1       -1 0.15029582E+00 0.17988538E+04</pdfrwt>
<totfact> 0.68477564E+00</totfact>
</mgrwt>
</event>
<event>
12    2  0.3623523E-008  0.2278499E+04  0.7818608E-02  0.8486447E-01
         -2   -1    0    0    0  501 -0.00000000000E+00  0.00000000000E+00  0.14299306100E+04  0.14299306100E+04  0.00000000000E+00 0.  1.
          2   -1    0    0  501    0  0.00000000000E+00 -0.00000000000E+00 -0.90765934209E+03  0.90765934209E+03  0.00000000000E+00 0. -1.
         23    2    1    2    0    0 -0.87388945050E+03 -0.98169442374E+02  0.61591401860E+03  0.10775219837E+04  0.91561650980E+02 0.  0.
        254    2    1    2    0    0  0.87388945050E+03  0.98169442374E+02 -0.93642750682E+02  0.12600679684E+04  0.89759807773E+03 0.  0.
         23    2    4    4    0    0  0.10474709782E+04  0.98368470460E+02 -0.42840904246E+02  0.10571820347E+04  0.94481243050E+02 0.  0.
         23    2    4    4    0    0 -0.17358152771E+03 -0.19902808577E+00 -0.50801846436E+02  0.20288593369E+03  0.91930887713E+02 0.  0.
          4    1    3    3  502    0 -0.26042879107E+03  0.11481377769E+02  0.16947596872E+03  0.31092938302E+03  0.00000000000E+00 0. -1.
         -4    1    3    3    0  502 -0.61346065943E+03 -0.10965082014E+03  0.44643804988E+03  0.76659260068E+03  0.00000000000E+00 0.  1.
         11    1    5    5    0    0  0.86477842883E+03  0.11568484507E+03 -0.25520446820E+02  0.87285508967E+03  0.00000000000E+00 0.  1.
        -11    1    5    5    0    0  0.18269254937E+03 -0.17316374607E+02 -0.17320457426E+02  0.18432694505E+03  0.00000000000E+00 0. -1.
          4    1    6    6  503    0  0.48314465225E+01 -0.13459449382E+02 -0.14440601088E+02  0.20323154601E+02  0.00000000000E+00 0. -1.
         -4    1    6    6    0  503 -0.17841297423E+03  0.13260421296E+02 -0.36361245348E+02  0.18256277909E+03  0.00000000000E+00 0.  1.
<mgrwt>
<rscale>  0 0.22784994E+04</rscale>
<asrwt>0</asrwt>
<pdfrwt beam="1">  1        2 0.13963990E+00 0.22784994E+04</pdfrwt>
<pdfrwt beam="2">  1       -2 0.21998933E+00 0.22784994E+04</pdfrwt>
<totfact> 0.26004171E+00</totfact>
</mgrwt>
</event>
<event>
12    2  0.3623523E-008  0.1383761E+04  0.7818608E-02  0.8965658E-01
         -1   -1    0    0    0  501 -0.00000000000E+00  0.00000000000E+00  0.27420055429E+03  0.27420055429E+03  0.00000000000E+00 0.  1.
          1   -1    0    0  501    0  0.00000000000E+00 -0.00000000000E+00 -0.17457977702E+04  0.17457977702E+04  0.00000000000E+00 0. -1.
         23    2    1    2    0    0 -0.29836813778E+03  0.12373526518E+03 -0.57068541126E+03  0.66220226825E+03  0.92173987398E+02 0.  0.
        254    2    1    2    0    0  0.29836813778E+03 -0.12373526518E+03 -0.90091180467E+03  0.13577960563E+04  0.96313762731E+03 0.  0.
         23    2    4    4    0    0 -0.26247879002E+03  0.19339173079E+03 -0.16921117972E+03  0.37833712972E+03  0.90615029851E+02 0.  0.
         23    2    4    4    0    0  0.56084692780E+03 -0.31712699596E+03 -0.73170062495E+03  0.97945892655E+03  0.93995618302E+02 0.  0.
          1    1    3    3  502    0 -0.98991653592E+02  0.28207898608E+02 -0.27026284216E+03  0.28920068616E+03  0.00000000000E+00 0. -1.
         -1    1    3    3    0  502 -0.19937648419E+03  0.95527366568E+02 -0.30042256910E+03  0.37300158208E+03  0.00000000000E+00 0.  1.
         11    1    5    5    0    0 -0.25495035507E+03  0.16356597634E+03 -0.13299172441E+03  0.33081763999E+03  0.00000000000E+00 0.  1.
        -11    1    5    5    0    0 -0.75284349464E+01  0.29825754443E+02 -0.36219455310E+02  0.47519489726E+02  0.00000000000E+00 0. -1.
          4    1    6    6  503    0  0.20020806464E+02 -0.15976550101E+02 -0.64125365892E+02  0.69051758815E+02  0.00000000000E+00 0. -1.
         -4    1    6    6    0  503  0.54082612133E+03 -0.30115044586E+03 -0.66757525906E+03  0.91040716774E+03  0.00000000000E+00 0.  1.
<mgrwt>
<rscale>  0 0.13837611E+04</rscale>
<asrwt>0</asrwt>
<pdfrwt beam="1">  1        1 0.26858426E+00 0.13837611E+04</pdfrwt>
<pdfrwt beam="2">  1       -1 0.42184703E-01 0.13837611E+04</pdfrwt>
<totfact> 0.23919430E+01</totfact>
</mgrwt>
</event>
<event>
12    2  0.3623523E-008  0.1287266E+04  0.7818608E-02  0.9039725E-01
          2   -1    0    0  501    0  0.00000000000E+00  0.00000000000E+00  0.12063128517E+04  0.12063128517E+04  0.00000000000E+00 0. -1.
         -2   -1    0    0    0  501 -0.00000000000E+00 -0.00000000000E+00 -0.34341272713E+03  0.34341272713E+03  0.00000000000E+00 0.  1.
         23    2    1    2    0    0  0.49433744327E+02 -0.17345235284E+03 -0.10322736129E+03  0.22566796436E+03  0.87981408473E+02 0.  0.
        254    2    1    2    0    0 -0.49433744327E+02  0.17345235284E+03  0.96612748589E+03  0.13240576145E+04  0.88724113618E+03 0.  0.
         23    2    4    4    0    0  0.27418466193E+03 -0.20952192729E+03  0.22004968784E+03  0.42067561547E+03  0.97311055279E+02 0.  0.
         23    2    4    4    0    0 -0.32361840626E+03  0.38297428013E+03  0.74607779805E+03  0.90338199903E+03  0.89826406541E+02 0.  0.
          3    1    3    3  502    0  0.92530673653E+01 -0.65665449651E+02  0.65791540266E+01  0.66639746408E+02  0.00000000000E+00 0. -1.
         -3    1    3    3    0  502  0.40180676961E+02 -0.10778690319E+03 -0.10980651532E+03  0.15902821795E+03  0.00000000000E+00 0.  1.
         11    1    5    5    0    0  0.25977971145E+03 -0.21541236359E+03  0.22345193719E+03  0.40474529411E+03  0.00000000000E+00 0.  1.
        -11    1    5    5    0    0  0.14404950477E+02  0.58904362987E+01 -0.34022493493E+01  0.15930321361E+02  0.00000000000E+00 0. -1.
          3    1    6    6  503    0 -0.32329722934E+02  0.19435115610E+02  0.26213839247E+02  0.45935825581E+02  0.00000000000E+00 0. -1.
         -3    1    6    6    0  503 -0.29128868332E+03  0.36353916452E+03  0.71986395880E+03  0.85744617344E+03  0.00000000000E+00 0.  1.
<mgrwt>
<rscale>  0 0.12872656E+04</rscale>
<asrwt>0</asrwt>
<pdfrwt beam="1">  1        2 0.18558659E+00 0.12872656E+04</pdfrwt>
<pdfrwt beam="2">  1       -2 0.52832728E-01 0.12872656E+04</pdfrwt>
<totfact> 0.62237015E+01</totfact>
</mgrwt>
</event>
<event>
12    2  0.3623523E-008  0.1687106E+04  0.7818608E-02  0.8768753E-01
          2   -1    0    0  501    0  0.00000000000E+00  0.00000000000E+00  0.61736982388E+03  0.61736982388E+03  0.00000000000E+00 0. -1.
         -2   -1    0    0    0  501 -0.00000000000E+00 -0.00000000000E+00 -0.11526019624E+04  0.11526019624E+04  0.00000000000E+00 0.  1.
         23    2    1    2    0    0 -0.36722723738E+03 -0.14816871020E+03  0.27509030590E+03  0.49066089605E+03  0.90904499101E+02 0.  0.
        254    2    1    2    0    0  0.36722723738E+03  0.14816871020E+03 -0.81032244442E+03  0.12793108902E+04  0.90730594586E+03 0.  0.
         23    2    4    4    0    0  0.15511146069E+03  0.28477264063E+03 -0.92763345165E+03  0.98694342707E+03  0.91643251372E+02 0.  0.
         23    2    4    4    0    0  0.21211577669E+03 -0.13660393044E+03  0.11731100723E+03  0.29236746316E+03  0.89794902795E+02 0.  0.
          1    1    3    3  502    0 -0.29072697101E+03 -0.14435856254E+03  0.25114925994E+03  0.41041139972E+03  0.00000000000E+00 0. -1.
         -1    1    3    3    0  502 -0.76500266371E+02 -0.38101476560E+01  0.23941045967E+02  0.80249496334E+02  0.00000000000E+00 0.  1.
         11    1    5    5    0    0  0.12478129722E+03  0.23389098338E+03 -0.84255459588E+03  0.88327436920E+03  0.00000000000E+00 0.  1.
        -11    1    5    5    0    0  0.30330163466E+02  0.50881657253E+02 -0.85078855776E+02  0.10366905788E+03  0.00000000000E+00 0. -1.
          3    1    6    6  503    0  0.43796189895E+02 -0.77222654359E+02  0.47752174678E+02  0.10080533112E+03  0.00000000000E+00 0. -1.
         -3    1    6    6    0  503  0.16831958680E+03 -0.59381276077E+02  0.69558832553E+02  0.19156213205E+03  0.00000000000E+00 0.  1.
<mgrwt>
<rscale>  0 0.16871060E+04</rscale>
<asrwt>0</asrwt>
<pdfrwt beam="1">  1        2 0.94979973E-01 0.16871060E+04</pdfrwt>
<pdfrwt beam="2">  1       -2 0.17732338E+00 0.16871060E+04</pdfrwt>
<totfact> 0.86279273E+00</totfact>
</mgrwt>
</event>
<event>
12    2  0.3623523E-008  0.1654124E+04  0.7818608E-02  0.8787971E-01
         -1   -1    0    0    0  501 -0.00000000000E+00  0.00000000000E+00  0.60087975133E+03  0.60087975133E+03  0.00000000000E+00 0.  1.
          1   -1    0    0  501    0  0.00000000000E+00 -0.00000000000E+00 -0.11383828803E+04  0.11383828803E+04  0.00000000000E+00 0. -1.
         23    2    1    2    0    0 -0.13246017903E+03  0.43419146336E+02  0.39779395052E+03  0.43115563146E+03  0.90687541470E+02 0.  0.
        254    2    1    2    0    0  0.13246017903E+03 -0.43419146336E+02 -0.93529707946E+03  0.13081070001E+04  0.90384311453E+03 0.  0.
         23    2    4    4    0    0  0.48452670400E+03  0.13309107857E+03 -0.49873887050E+03  0.71353024335E+03  0.88913357486E+02 0.  0.
         23    2    4    4    0    0 -0.35206652497E+03 -0.17651022490E+03 -0.43655820896E+03  0.59457675679E+03  0.88497188722E+02 0.  0.
          4    1    3    3  502    0 -0.42925657465E+02  0.31436697072E+02  0.54457993784E+02  0.76135084413E+02  0.00000000000E+00 0. -1.
         -4    1    3    3    0  502 -0.89534521561E+02  0.11982449263E+02  0.34333595673E+03  0.35502054705E+03  0.00000000000E+00 0.  1.
         11    1    5    5    0    0  0.37123719683E+03  0.75542580422E+02 -0.33085303236E+03  0.50297859476E+03  0.00000000000E+00 0. -1.
        -11    1    5    5    0    0  0.11328950717E+03  0.57548498144E+02 -0.16788583814E+03  0.21055164859E+03  0.00000000000E+00 0.  1.
          3    1    6    6  503    0 -0.26807269771E+03 -0.17332599466E+03 -0.33489326688E+03  0.46266442686E+03  0.00000000000E+00 0. -1.
         -3    1    6    6    0  503 -0.83993827267E+02 -0.31842302401E+01 -0.10166494208E+03  0.13191232993E+03  0.00000000000E+00 0.  1.
<mgrwt>
<rscale>  0 0.16541236E+04</rscale>
<asrwt>0</asrwt>
<pdfrwt beam="1">  1        1 0.17513582E+00 0.16541236E+04</pdfrwt>
<pdfrwt beam="2">  1       -1 0.92443040E-01 0.16541236E+04</pdfrwt>
<totfact> 0.12903787E+01</totfact>
</mgrwt>
</event>
<event>
12    2  0.3623523E-008  0.1847629E+04  0.7818608E-02  0.8681373E-01
         -2   -1    0    0    0  501 -0.00000000000E+00  0.00000000000E+00  0.72234374547E+03  0.72234374547E+03  0.00000000000E+00 0.  1.
          2   -1    0    0  501    0  0.00000000000E+00 -0.00000000000E+00 -0.11814783691E+04  0.11814783691E+04  0.00000000000E+00 0. -1.
         23    2    1    2    0    0 -0.81856236131E+02  0.20640526031E+03  0.50679112677E+03  0.56124768565E+03  0.94117711356E+02 0.  0.
        254    2    1    2    0    0  0.81856236131E+02 -0.20640526031E+03 -0.96592575035E+03  0.13425744289E+04  0.90564339946E+03 0.  0.
         23    2    4    4    0    0  0.32275043242E+03 -0.38085350613E+02 -0.97621761433E+03  0.10330758883E+04  0.92879625784E+02 0.  0.
         23    2    4    4    0    0 -0.24089419629E+03 -0.16831990970E+03  0.10291863978E+02  0.30949854058E+03  0.96549564229E+02 0.  0.
          4    1    3    3  502    0 -0.40428321279E+02  0.68204552645E+02  0.88738868084E+02  0.11899956669E+03  0.00000000000E+00 0. -1.
         -4    1    3    3    0  502 -0.41427914852E+02  0.13820070766E+03  0.41805225869E+03  0.44224811896E+03  0.00000000000E+00 0.  1.
         11    1    5    5    0    0  0.16164146605E+03 -0.43281252146E+02 -0.37531808531E+03  0.41093174068E+03  0.00000000000E+00 0. -1.
        -11    1    5    5    0    0  0.16110896636E+03  0.51959015332E+01 -0.60089952902E+03  0.62214414761E+03  0.00000000000E+00 0.  1.
          2    1    6    6  503    0 -0.10338311990E+03 -0.81054998802E+02 -0.42854880497E+02  0.13818293344E+03  0.00000000000E+00 0. -1.
         -2    1    6    6    0  503 -0.13751107639E+03 -0.87264910893E+02  0.53146744475E+02  0.17131560714E+03  0.00000000000E+00 0.  1.
<mgrwt>
<rscale>  0 0.18476293E+04</rscale>
<asrwt>0</asrwt>
<pdfrwt beam="1">  1        2 0.18176590E+00 0.18476293E+04</pdfrwt>
<pdfrwt beam="2">  1       -2 0.11112981E+00 0.18476293E+04</pdfrwt>
<totfact> 0.11715267E+01</totfact>
</mgrwt>
</event>
<event>
12    2  0.3623523E-008  0.1848543E+04  0.7818608E-02  0.8680903E-01
         -2   -1    0    0    0  501 -0.00000000000E+00  0.00000000000E+00  0.67106596791E+03  0.67106596791E+03  0.00000000000E+00 0. -1.
          2   -1    0    0  501    0  0.00000000000E+00 -0.00000000000E+00 -0.12730155459E+04  0.12730155459E+04  0.00000000000E+00 0.  1.
         23    2    1    2    0    0  0.12247941357E+03 -0.68702326108E+03 -0.51796375522E+03  0.87354693191E+03  0.88292822530E+02 0.  0.
        254    2    1    2    0    0 -0.12247941357E+03  0.68702326108E+03 -0.83985822801E+02  0.10705345819E+04  0.80745805134E+03 0.  0.
         23    2    4    4    0    0 -0.45243661452E+03  0.31104435785E+03 -0.23678479695E+02  0.55738687047E+03  0.93123414140E+02 0.  0.
         23    2    4    4    0    0  0.32995720095E+03  0.37597890323E+03 -0.60307343106E+02  0.51314771147E+03  0.97219895214E+02 0.  0.
          3    1    3    3  502    0 -0.40341055884E+01 -0.18580905911E+03 -0.12087263510E+03  0.22170131793E+03  0.00000000000E+00 0. -1.
         -3    1    3    3    0  502  0.12651351916E+03 -0.50121420198E+03 -0.39709112012E+03  0.65184561399E+03  0.00000000000E+00 0.  1.
         11    1    5    5    0    0 -0.33786205375E+03  0.18390872380E+03 -0.32283415242E+02  0.38602513513E+03  0.00000000000E+00 0.  1.
        -11    1    5    5    0    0 -0.11457456077E+03  0.12713563406E+03  0.86049355464E+01  0.17136173534E+03  0.00000000000E+00 0. -1.
          1    1    6    6  503    0  0.23032940166E+03  0.32311766268E+03 -0.46663044975E+02  0.39954235942E+03  0.00000000000E+00 0.  1.
         -1    1    6    6    0  503  0.99627799284E+02  0.52861240548E+02 -0.13644298131E+02  0.11360535205E+03  0.00000000000E+00 0. -1.
<mgrwt>
<rscale>  0 0.18485426E+04</rscale>
<asrwt>0</asrwt>
<pdfrwt beam="1">  1        2 0.19584854E+00 0.18485426E+04</pdfrwt>
<pdfrwt beam="2">  1       -2 0.10324092E+00 0.18485426E+04</pdfrwt>
<totfact> 0.12343659E+01</totfact>
</mgrwt>
</event>
<event>
12    2  0.3623523E-008  0.2249338E+04  0.7818608E-02  0.8498169E-01
          2   -1    0    0  501    0  0.00000000000E+00  0.00000000000E+00  0.19220760178E+04  0.19220760178E+04  0.00000000000E+00 0. -1.
         -2   -1    0    0    0  501 -0.00000000000E+00 -0.00000000000E+00 -0.65808006501E+03  0.65808006501E+03  0.00000000000E+00 0.  1.
         23    2    1    2    0    0 -0.82848807666E+02  0.52557277542E+03 -0.36477364817E+03  0.65152316307E+03  0.91279518114E+02 0.  0.
        254    2    1    2    0    0  0.82848807666E+02 -0.52557277542E+03  0.16287696009E+04  0.19286329197E+04  0.88523661181E+03 0.  0.
         23    2    4    4    0    0 -0.24202795732E+03 -0.53347845303E+03  0.58949205152E+03  0.83624940305E+03  0.92926817006E+02 0.  0.
         23    2    4    4    0    0  0.32487676498E+03  0.79056776131E+01  0.10392775494E+04  0.10923835167E+04  0.87157963579E+02 0.  0.
          4    1    3    3  502    0 -0.74782096682E+01  0.10540845052E+02 -0.29941819828E+02  0.32612046989E+02  0.00000000000E+00 0. -1.
         -4    1    3    3    0  502 -0.75370597998E+02  0.51503193037E+03 -0.33483182834E+03  0.61891111608E+03  0.00000000000E+00 0.  1.
         11    1    5    5    0    0 -0.22724249025E+03 -0.41784465379E+03  0.45434370620E+03  0.65777010226E+03  0.00000000000E+00 0. -1.
        -11    1    5    5    0    0 -0.14785467069E+02 -0.11563379924E+03  0.13514834532E+03  0.17847930078E+03  0.00000000000E+00 0.  1.
          2    1    6    6  503    0  0.20655694753E+03  0.11315745315E+02  0.78672256886E+03  0.81346556106E+03  0.00000000000E+00 0. -1.
         -2    1    6    6    0  503  0.11831981745E+03 -0.34100677014E+01  0.25255498053E+03  0.27891795560E+03  0.00000000000E+00 0.  1.
<mgrwt>
<rscale>  0 0.22493376E+04</rscale>
<asrwt>0</asrwt>
<pdfrwt beam="1">  1        2 0.29570400E+00 0.22493376E+04</pdfrwt>
<pdfrwt beam="2">  1       -2 0.10124309E+00 0.22493376E+04</pdfrwt>
<totfact> 0.53900567E+00</totfact>
</mgrwt>
</event>
<event>
12    2  0.3623523E-008  0.2018155E+04  0.7818608E-02  0.8598179E-01
          2   -1    0    0  501    0  0.00000000000E+00  0.00000000000E+00  0.28811971402E+04  0.28811971402E+04  0.00000000000E+00 0. -1.
         -2   -1    0    0    0  501 -0.00000000000E+00 -0.00000000000E+00 -0.35340772920E+03  0.35340772920E+03  0.00000000000E+00 0.  1.
         23    2    1    2    0    0 -0.44638357972E+03 -0.63249063218E+03  0.67413951780E+03  0.10306408786E+04  0.91944717462E+02 0.  0.
        254    2    1    2    0    0  0.44638357972E+03  0.63249063218E+03  0.18536498933E+04  0.22039639909E+04  0.90671751186E+03 0.  0.
         23    2    4    4    0    0  0.51013315380E+03  0.80101100638E+03  0.12814734000E+04  0.15974878957E+04  0.89101261753E+02 0.  0.
         23    2    4    4    0    0 -0.63749574082E+02 -0.16852037420E+03  0.57217649323E+03  0.60647609523E+03  0.89242310378E+02 0.  0.
          4    1    3    3  502    0 -0.10310781987E+03 -0.21394017029E+03  0.18459342481E+03  0.30079287136E+03  0.00000000000E+00 0. -1.
         -4    1    3    3    0  502 -0.34327575985E+03 -0.41855046189E+03  0.48954609299E+03  0.72984800720E+03  0.00000000000E+00 0.  1.
         11    1    5    5    0    0  0.45838732502E+03  0.76059975519E+03  0.11996858239E+04  0.14926074512E+04  0.00000000000E+00 0. -1.
        -11    1    5    5    0    0  0.51745828781E+02  0.40411251186E+02  0.81787576098E+02  0.10488044442E+03  0.00000000000E+00 0.  1.
          3    1    6    6  503    0 -0.56853185947E+02 -0.98321735221E+02  0.22311695880E+03  0.25036099072E+03  0.00000000000E+00 0. -1.
         -3    1    6    6    0  503 -0.68963881350E+01 -0.70198638983E+02  0.34905953443E+03  0.35611510451E+03  0.00000000000E+00 0.  1.
<mgrwt>
<rscale>  0 0.20181549E+04</rscale>
<asrwt>0</asrwt>
<pdfrwt beam="1">  1        2 0.44326108E+00 0.20181549E+04</pdfrwt>
<pdfrwt beam="2">  1       -2 0.54370422E-01 0.20181549E+04</pdfrwt>
<totfact> 0.61056940E+00</totfact>
</mgrwt>
</event>
<event>
12    2  0.3623523E-008  0.1528128E+04  0.7818608E-02  0.8865961E-01
          2   -1    0    0  501    0  0.00000000000E+00  0.00000000000E+00  0.78084739636E+03  0.78084739636E+03  0.00000000000E+00 0. -1.
         -2   -1    0    0    0  501 -0.00000000000E+00 -0.00000000000E+00 -0.74764150908E+03  0.74764150908E+03  0.00000000000E+00 0.  1.
         23    2    1    2    0    0  0.49218334546E+02 -0.69110694625E+02  0.47515807218E+03  0.49122994253E+03  0.91284885455E+02 0.  0.
        254    2    1    2    0    0 -0.49218334546E+02  0.69110694625E+02 -0.44195218490E+03  0.10372589629E+04  0.93455106326E+03 0.  0.
         23    2    4    4    0    0 -0.43457495932E+03 -0.82763838982E+02 -0.41268211252E+03  0.61176813967E+03  0.90821156159E+02 0.  0.
         23    2    4    4    0    0  0.38535662478E+03  0.15187453361E+03 -0.29270072375E+02  0.42549082324E+03  0.92844500669E+02 0.  0.
          4    1    3    3  502    0  0.11780694535E+02 -0.74779901821E+02  0.20693148376E+03  0.22034395261E+03  0.00000000000E+00 0. -1.
         -4    1    3    3    0  502  0.37437640011E+02  0.56692071965E+01  0.26822658842E+03  0.27088598992E+03  0.00000000000E+00 0.  1.
         11    1    5    5    0    0 -0.14335372558E+03  0.10386384882E+02 -0.10498288508E+03  0.17798756639E+03  0.00000000000E+00 0. -1.
        -11    1    5    5    0    0 -0.29122123374E+03 -0.93150223863E+02 -0.30769922745E+03  0.43378057329E+03  0.00000000000E+00 0.  1.
          1    1    6    6  503    0  0.40546093115E+02 -0.12568223169E+02 -0.41099944854E+01  0.42647836465E+02  0.00000000000E+00 0. -1.
         -1    1    6    6    0  503  0.34481053166E+03  0.16444275678E+03 -0.25160077890E+02  0.38284298677E+03  0.00000000000E+00 0.  1.
<mgrwt>
<rscale>  0 0.15281282E+04</rscale>
<asrwt>0</asrwt>
<pdfrwt beam="1">  1        2 0.12013037E+00 0.15281282E+04</pdfrwt>
<pdfrwt beam="2">  1       -2 0.11502177E+00 0.15281282E+04</pdfrwt>
<totfact> 0.20213734E+01</totfact>
</mgrwt>
</event>
<event>
12    2  0.3623523E-008  0.1779236E+04  0.7818608E-02  0.8717420E-01
         -2   -1    0    0    0  501 -0.00000000000E+00  0.00000000000E+00  0.87132869644E+03  0.87132869644E+03  0.00000000000E+00 0.  1.
          2   -1    0    0  501    0  0.00000000000E+00 -0.00000000000E+00 -0.90829167846E+03  0.90829167846E+03  0.00000000000E+00 0. -1.
         23    2    1    2    0    0 -0.23383147859E+03  0.21366336786E+03 -0.59057495216E+03  0.67620934307E+03  0.90283477899E+02 0.  0.
        254    2    1    2    0    0  0.23383147859E+03 -0.21366336786E+03  0.55361197015E+03  0.11034110318E+04  0.90038908063E+03 0.  0.
         23    2    4    4    0    0  0.70706976927E+02 -0.55307840237E+03  0.29098852371E+03  0.63557015764E+03  0.91541840723E+02 0.  0.
         23    2    4    4    0    0  0.16312450166E+03  0.33941503451E+03  0.26262344644E+03  0.46784087418E+03  0.89954656607E+02 0.  0.
          1    1    3    3  502    0 -0.18274959213E+03  0.12013281688E+03 -0.44453210886E+03  0.49541709995E+03  0.00000000000E+00 0. -1.
         -1    1    3    3    0  502 -0.51081886465E+02  0.93530550981E+02 -0.14604284330E+03  0.18079224312E+03  0.00000000000E+00 0.  1.
         11    1    5    5    0    0  0.68929485913E+02 -0.44300383817E+03  0.19271404929E+03  0.48799833960E+03  0.00000000000E+00 0.  1.
        -11    1    5    5    0    0  0.17774910141E+01 -0.11007456420E+03  0.98274474414E+02  0.14757181804E+03  0.00000000000E+00 0. -1.
          3    1    6    6  503    0  0.15516468478E+03  0.32527911648E+03  0.22000173838E+03  0.42223612815E+03  0.00000000000E+00 0. -1.
         -3    1    6    6    0  503  0.79598168873E+01  0.14135918023E+02  0.42621708059E+02  0.45604746037E+02  0.00000000000E+00 0.  1.
<mgrwt>
<rscale>  0 0.17792365E+04</rscale>
<asrwt>0</asrwt>
<pdfrwt beam="1">  1        2 0.13973718E+00 0.17792365E+04</pdfrwt>
<pdfrwt beam="2">  1       -2 0.13405057E+00 0.17792365E+04</pdfrwt>
<totfact> 0.10993790E+01</totfact>
</mgrwt>
</event>
<event>
12    2  0.3623523E-008  0.1475267E+04  0.7818608E-02  0.8901069E-01
         -2   -1    0    0    0  501 -0.00000000000E+00  0.00000000000E+00  0.88602387027E+03  0.88602387027E+03  0.00000000000E+00 0. -1.
          2   -1    0    0  501    0  0.00000000000E+00 -0.00000000000E+00 -0.61409553232E+03  0.61409553232E+03  0.00000000000E+00 0.  1.
         23    2    1    2    0    0  0.45041524591E+03  0.70659854863E+02  0.55154480051E+02  0.46799125392E+03  0.90039370489E+02 0.  0.
        254    2    1    2    0    0 -0.45041524591E+03 -0.70659854863E+02  0.21677385790E+03  0.10321281487E+04  0.90023935760E+03 0.  0.
         23    2    4    4    0    0 -0.65844523116E+03  0.16215565008E+03  0.15089511615E+03  0.70056763303E+03  0.90449406178E+02 0.  0.
         23    2    4    4    0    0  0.20802998525E+03 -0.23281550494E+03  0.65878741756E+02  0.33156051564E+03  0.90071265187E+02 0.  0.
          1    1    3    3  502    0  0.41876173668E+03  0.60769896888E+02  0.74414363647E+02  0.42964155990E+03  0.00000000000E+00 0. -1.
         -1    1    3    3    0  502  0.31653509227E+02  0.98899579754E+01 -0.19259883596E+02  0.38349694018E+02  0.00000000000E+00 0.  1.
         11    1    5    5    0    0 -0.58063769956E+03  0.11701872490E+03  0.11317688239E+03  0.60302779939E+03  0.00000000000E+00 0. -1.
        -11    1    5    5    0    0 -0.77807531595E+02  0.45136925176E+02  0.37718233762E+02  0.97539833634E+02  0.00000000000E+00 0.  1.
          3    1    6    6  503    0  0.15365221711E+03 -0.10707476451E+03  0.27482204012E+02  0.18928623974E+03  0.00000000000E+00 0. -1.
         -3    1    6    6    0  503  0.54377768138E+02 -0.12574074043E+03  0.38396537744E+02  0.14227427590E+03  0.00000000000E+00 0.  1.
<mgrwt>
<rscale>  0 0.14752672E+04</rscale>
<asrwt>0</asrwt>
<pdfrwt beam="1">  1        2 0.94476236E-01 0.14752672E+04</pdfrwt>
<pdfrwt beam="2">  1       -2 0.13631136E+00 0.14752672E+04</pdfrwt>
<totfact> 0.17953086E+01</totfact>
</mgrwt>
</event>
<event>
12    2  0.3623523E-008  0.2453591E+04  0.7818608E-02  0.8419708E-01
          1   -1    0    0  501    0  0.00000000000E+00  0.00000000000E+00  0.82905857900E+03  0.82905857900E+03  0.00000000000E+00 0. -1.
         -1   -1    0    0    0  501 -0.00000000000E+00 -0.00000000000E+00 -0.18153441185E+04  0.18153441185E+04  0.00000000000E+00 0.  1.
         23    2    1    2    0    0  0.61794747976E+03  0.53260853023E+03 -0.11510944094E+04  0.14137461135E+04  0.90159857440E+02 0.  0.
        254    2    1    2    0    0 -0.61794747976E+03 -0.53260853023E+03  0.16480886986E+03  0.12306565840E+04  0.90654438942E+03 0.  0.
         23    2    4    4    0    0 -0.31435944630E+02  0.19511424353E+03 -0.12038830961E+03  0.24913994223E+03  0.92301565960E+02 0.  0.
         23    2    4    4    0    0 -0.58651153513E+03 -0.72772277376E+03  0.28519717947E+03  0.98151664180E+03  0.91985165441E+02 0.  0.
          3    1    3    3  502    0  0.44018309084E+02  0.15893242588E+02 -0.46585071632E+02  0.66033140115E+02  0.00000000000E+00 0. -1.
         -3    1    3    3    0  502  0.57392917068E+03  0.51671528764E+03 -0.11045093377E+04  0.13477129734E+04  0.00000000000E+00 0.  1.
         11    1    5    5    0    0 -0.35377439611E+02  0.10555876731E+03 -0.11388711441E+03  0.15926233521E+03  0.00000000000E+00 0.  1.
        -11    1    5    5    0    0  0.39414949808E+01  0.89555476219E+02 -0.65011952053E+01  0.89877607014E+02  0.00000000000E+00 0. -1.
          3    1    6    6  503    0 -0.91293077071E+02 -0.65968033952E+02  0.34049126366E+02  0.11766711703E+03  0.00000000000E+00 0. -1.
         -3    1    6    6    0  503 -0.49521845806E+03 -0.66175473980E+03  0.25114805311E+03  0.86384952476E+03  0.00000000000E+00 0.  1.
<mgrwt>
<rscale>  0 0.24535905E+04</rscale>
<asrwt>0</asrwt>
<pdfrwt beam="1">  1        1 0.12754748E+00 0.24535905E+04</pdfrwt>
<pdfrwt beam="2">  1       -1 0.27928371E+00 0.24535905E+04</pdfrwt>
<totfact> 0.83729958E-01</totfact>
</mgrwt>
</event>
<event>
12    2  0.3623523E-008  0.1675773E+04  0.7818608E-02  0.8775304E-01
          2   -1    0    0  501    0  0.00000000000E+00  0.00000000000E+00  0.37898582766E+03  0.37898582766E+03  0.00000000000E+00 0. -1.
         -2   -1    0    0    0  501 -0.00000000000E+00 -0.00000000000E+00 -0.18524548980E+04  0.18524548980E+04  0.00000000000E+00 0.  1.
         23    2    1    2    0    0 -0.13172308405E+03 -0.66189714593E+02 -0.12991904104E+04  0.13106737679E+04  0.90763176291E+02 0.  0.
        254    2    1    2    0    0  0.13172308405E+03  0.66189714593E+02 -0.17427865992E+03  0.92076695775E+03  0.89202392905E+03 0.  0.
         23    2    4    4    0    0 -0.35716163148E+03 -0.56663477335E+02  0.18474011198E+02  0.37363458580E+03  0.92121300212E+02 0.  0.
         23    2    4    4    0    0  0.48888471553E+03  0.12285319193E+03 -0.19275267112E+03  0.54713237196E+03  0.89994824151E+02 0.  0.
          1    1    3    3  502    0 -0.24814425393E+02  0.87702650830E+01 -0.73911474281E+02  0.78457499881E+02  0.00000000000E+00 0. -1.
         -1    1    3    3    0  502 -0.10690865866E+03 -0.74959979676E+02 -0.12252789362E+04  0.12322162681E+04  0.00000000000E+00 0.  1.
         11    1    5    5    0    0 -0.30269176249E+03 -0.79618743913E+02  0.25913994950E+02  0.31405888396E+03  0.00000000000E+00 0. -1.
        -11    1    5    5    0    0 -0.54469868990E+02  0.22955266578E+02 -0.74399837518E+01  0.59575701839E+02  0.00000000000E+00 0.  1.
          1    1    6    6  503    0  0.30051888913E+03  0.37697595168E+02 -0.88075688374E+02  0.31542041514E+03  0.00000000000E+00 0. -1.
         -1    1    6    6    0  503  0.18836582640E+03  0.85155596759E+02 -0.10467698274E+03  0.23171195681E+03  0.00000000000E+00 0.  1.
<mgrwt>
<rscale>  0 0.16757734E+04</rscale>
<asrwt>0</asrwt>
<pdfrwt beam="1">  1        2 0.58305513E-01 0.16757734E+04</pdfrwt>
<pdfrwt beam="2">  1       -2 0.28499305E+00 0.16757734E+04</pdfrwt>
<totfact> 0.31681338E+00</totfact>
</mgrwt>
</event>
<event>
12    2  0.3623523E-008  0.2730732E+04  0.7818608E-02  0.8325102E-01
          2   -1    0    0  501    0  0.00000000000E+00  0.00000000000E+00  0.18761942642E+04  0.18761942642E+04  0.00000000000E+00 0. -1.
         -2   -1    0    0    0  501 -0.00000000000E+00 -0.00000000000E+00 -0.99362011624E+03  0.99362011624E+03  0.00000000000E+00 0.  1.
         23    2    1    2    0    0 -0.11039559715E+04 -0.47632850444E+03  0.21155667254E+03  0.12249081569E+04  0.10018051604E+03 0.  0.
        254    2    1    2    0    0  0.11039559715E+04  0.47632850444E+03  0.67101747539E+03  0.16449062236E+04  0.89991355182E+03 0.  0.
         23    2    4    4    0    0  0.35034833103E+03  0.17487584983E+03 -0.20070150365E+03  0.45001720101E+03  0.94386819709E+02 0.  0.
         23    2    4    4    0    0  0.75360764052E+03  0.30145265460E+03  0.87171897904E+03  0.11948890225E+04  0.95224046046E+02 0.  0.
          2    1    3    3  502    0 -0.33415825431E+02 -0.15795831416E+02  0.25131735013E+02  0.44695970558E+02  0.00000000000E+00 0. -1.
         -2    1    3    3    0  502 -0.10705401461E+04 -0.46053267302E+03  0.18642493752E+03  0.11802121863E+04  0.00000000000E+00 0.  1.
         11    1    5    5    0    0 -0.52320528220E+01  0.54328383724E+01 -0.96268534097E+01  0.12229734915E+02  0.00000000000E+00 0. -1.
        -11    1    5    5    0    0  0.35558038385E+03  0.16944301146E+03 -0.19107465024E+03  0.43778746610E+03  0.00000000000E+00 0.  1.
          3    1    6    6  503    0  0.14461720696E+03  0.87192690978E+02  0.22246183600E+03  0.27929548938E+03  0.00000000000E+00 0. -1.
         -3    1    6    6    0  503  0.60899043356E+03  0.21425996362E+03  0.64925714304E+03  0.91559353316E+03  0.00000000000E+00 0.  1.
<mgrwt>
<rscale>  0 0.27307320E+04</rscale>
<asrwt>0</asrwt>
<pdfrwt beam="1">  1        2 0.28864527E+00 0.27307320E+04</pdfrwt>
<pdfrwt beam="2">  1       -2 0.15286463E+00 0.27307320E+04</pdfrwt>
<totfact> 0.19519331E+00</totfact>
</mgrwt>
</event>
<event>
12    2  0.3623523E-008  0.1952426E+04  0.7818608E-02  0.8629192E-01
         -1   -1    0    0    0  501 -0.00000000000E+00  0.00000000000E+00  0.88285710125E+03  0.88285710125E+03  0.00000000000E+00 0. -1.
          1   -1    0    0  501    0  0.00000000000E+00 -0.00000000000E+00 -0.10794409170E+04  0.10794409170E+04  0.00000000000E+00 0.  1.
         23    2    1    2    0    0 -0.70789728482E+03  0.28364461380E+03 -0.11535002249E+03  0.77657901082E+03  0.90534521361E+02 0.  0.
        254    2    1    2    0    0  0.70789728482E+03 -0.28364461380E+03 -0.81233793284E+02  0.11857190075E+04  0.90429961997E+03 0.  0.
         23    2    4    4    0    0  0.65789552400E+03 -0.12983560152E+03 -0.42234751327E+03  0.79773859712E+03  0.91244964011E+02 0.  0.
         23    2    4    4    0    0  0.50001760825E+02 -0.15380901228E+03  0.34111371998E+03  0.38798041034E+03  0.89514470902E+02 0.  0.
          3    1    3    3  502    0 -0.55636217782E+03  0.23181781714E+03 -0.12715235912E+03  0.61599196073E+03  0.00000000000E+00 0. -1.
         -3    1    3    3    0  502 -0.15153510700E+03  0.51826796660E+02  0.11802336634E+02  0.16058705009E+03  0.00000000000E+00 0.  1.
         11    1    5    5    0    0  0.13014607007E+03  0.10624389670E+02 -0.85839284681E+02  0.15626663114E+03  0.00000000000E+00 0.  1.
        -11    1    5    5    0    0  0.52774945392E+03 -0.14045999119E+03 -0.33650822859E+03  0.64147196599E+03  0.00000000000E+00 0. -1.
          2    1    6    6  503    0  0.53808144321E+02 -0.14414364238E+03  0.34430045856E+03  0.37711471968E+03  0.00000000000E+00 0. -1.
         -2    1    6    6    0  503 -0.38063834959E+01 -0.96653698975E+01 -0.31867385822E+01  0.10865690653E+02  0.00000000000E+00 0.  1.
<mgrwt>
<rscale>  0 0.19524263E+04</rscale>
<asrwt>0</asrwt>
<pdfrwt beam="1">  1        1 0.16606783E+00 0.19524263E+04</pdfrwt>
<pdfrwt beam="2">  1       -1 0.13582417E+00 0.19524263E+04</pdfrwt>
<totfact> 0.55514398E+00</totfact>
</mgrwt>
</event>
<event>
12    2  0.3623523E-008  0.1936537E+04  0.7818608E-02  0.8636880E-01
         -1   -1    0    0    0  501 -0.00000000000E+00  0.00000000000E+00  0.70458424970E+03  0.70458424970E+03  0.00000000000E+00 0.  1.
          1   -1    0    0  501    0  0.00000000000E+00 -0.00000000000E+00 -0.13306340859E+04  0.13306340859E+04  0.00000000000E+00 0. -1.
         23    2    1    2    0    0  0.12745825996E+03 -0.22362680017E+03  0.50090871728E+03  0.57039413488E+03  0.90473047208E+02 0.  0.
        254    2    1    2    0    0 -0.12745825996E+03  0.22362680017E+03 -0.11269585535E+04  0.14648242007E+04  0.89967761112E+03 0.  0.
         23    2    4    4    0    0  0.21435859543E+03  0.34587635685E+03 -0.97505011602E+03  0.10606679775E+04  0.93347565703E+02 0.  0.
         23    2    4    4    0    0 -0.34181685539E+03 -0.12224955668E+03 -0.15190843747E+03  0.40415622325E+03  0.92099743075E+02 0.  0.
          3    1    3    3  502    0  0.87650816199E+02 -0.19974216176E+03  0.34907802557E+03  0.41162490777E+03  0.00000000000E+00 0.  1.
         -3    1    3    3    0  502  0.39807443765E+02 -0.23884638419E+02  0.15183069171E+03  0.15876922711E+03  0.00000000000E+00 0. -1.
         11    1    5    5    0    0  0.36790714928E+02  0.11413851640E+02 -0.79147280971E+02  0.88023433240E+02  0.00000000000E+00 0.  1.
        -11    1    5    5    0    0  0.17756788050E+03  0.33446250521E+03 -0.89590283505E+03  0.97264454424E+03  0.00000000000E+00 0. -1.
          3    1    6    6  503    0 -0.23253965049E+03 -0.12244967062E+03 -0.85906081506E+02  0.27649315674E+03  0.00000000000E+00 0. -1.
         -3    1    6    6    0  503 -0.10927720490E+03  0.20011393558E+00 -0.66002355966E+02  0.12766306651E+03  0.00000000000E+00 0.  1.
<mgrwt>
<rscale>  0 0.19365369E+04</rscale>
<asrwt>0</asrwt>
<pdfrwt beam="1">  1        1 0.20471293E+00 0.19365369E+04</pdfrwt>
<pdfrwt beam="2">  1       -1 0.10839758E+00 0.19365369E+04</pdfrwt>
<totfact> 0.63390749E+00</totfact>
</mgrwt>
</event>
<event>
12    2  0.3623523E-008  0.1809966E+04  0.7818608E-02  0.8701017E-01
          1   -1    0    0  501    0  0.00000000000E+00  0.00000000000E+00  0.31730927354E+04  0.31730927354E+04  0.00000000000E+00 0. -1.
         -1   -1    0    0    0  501 -0.00000000000E+00 -0.00000000000E+00 -0.25810612358E+03  0.25810612358E+03  0.00000000000E+00 0.  1.
         23    2    1    2    0    0  0.30666980648E+03  0.31573788980E+03  0.20670433656E+04  0.21152411841E+04  0.88544941477E+02 0.  0.
        254    2    1    2    0    0 -0.30666980648E+03 -0.31573788980E+03  0.84794324626E+03  0.13159576749E+04  0.90498622524E+03 0.  0.
         23    2    4    4    0    0 -0.58649263133E+03 -0.38640368632E+02  0.57920461943E+03  0.83021513597E+03  0.91172891453E+02 0.  0.
         23    2    4    4    0    0  0.27982282484E+03 -0.27709752117E+03  0.26873862683E+03  0.48574253889E+03  0.92959749304E+02 0.  0.
          2    1    3    3  502    0  0.14703827143E+03  0.16535534833E+03  0.12414348544E+04  0.12610008494E+04  0.00000000000E+00 0. -1.
         -2    1    3    3    0  502  0.15963153505E+03  0.15038254147E+03  0.82560851113E+03  0.85424033470E+03  0.00000000000E+00 0.  1.
         11    1    5    5    0    0 -0.51493599716E+03 -0.23788125729E+02  0.54279381551E+03  0.74856534936E+03  0.00000000000E+00 0.  1.
        -11    1    5    5    0    0 -0.71556634162E+02 -0.14852242903E+02  0.36410803920E+02  0.81649786613E+02  0.00000000000E+00 0. -1.
          2    1    6    6  503    0  0.11327173699E+03 -0.75688831660E+02  0.50628945523E+02  0.14533607867E+03  0.00000000000E+00 0. -1.
         -2    1    6    6    0  503  0.16655108785E+03 -0.20140868951E+03  0.21810968131E+03  0.34040646021E+03  0.00000000000E+00 0.  1.
<mgrwt>
<rscale>  0 0.18099665E+04</rscale>
<asrwt>0</asrwt>
<pdfrwt beam="1">  1        1 0.48816809E+00 0.18099665E+04</pdfrwt>
<pdfrwt beam="2">  1       -1 0.39708637E-01 0.18099665E+04</pdfrwt>
<totfact> 0.26020776E+00</totfact>
</mgrwt>
</event>
<event>
12    2  0.3623523E-008  0.1684357E+04  0.7818608E-02  0.8770337E-01
         -2   -1    0    0    0  501 -0.00000000000E+00  0.00000000000E+00  0.32347168379E+03  0.32347168379E+03  0.00000000000E+00 0.  1.
          2   -1    0    0  501    0  0.00000000000E+00 -0.00000000000E+00 -0.21926625909E+04  0.21926625909E+04  0.00000000000E+00 0. -1.
         23    2    1    2    0    0 -0.14320253343E+03 -0.10796996236E+03  0.18240483900E+03  0.26908976398E+03  0.83506271830E+02 0.  0.
        254    2    1    2    0    0  0.14320253343E+03  0.10796996236E+03 -0.20515957461E+04  0.22470445107E+04  0.89888789582E+03 0.  0.
         23    2    4    4    0    0 -0.12449326348E+03  0.39712648096E+03 -0.15208717286E+04  0.15792545049E+04  0.88238097182E+02 0.  0.
         23    2    4    4    0    0  0.26769579691E+03 -0.28915651860E+03 -0.53072401747E+03  0.66779000578E+03  0.94884019561E+02 0.  0.
          2    1    3    3  502    0 -0.72354197803E+02 -0.58967870791E+02  0.15076388446E+03  0.17731917150E+03  0.00000000000E+00 0. -1.
         -2    1    3    3    0  502 -0.70848335629E+02 -0.49002091565E+02  0.31640954544E+02  0.91770592477E+02  0.00000000000E+00 0.  1.
         11    1    5    5    0    0 -0.12345862195E+02  0.72753368163E+01 -0.20514484789E+02  0.25023887094E+02  0.00000000000E+00 0. -1.
        -11    1    5    5    0    0 -0.11214740129E+03  0.38985114414E+03 -0.15003572438E+04  0.15542306178E+04  0.00000000000E+00 0.  1.
          4    1    6    6  503    0  0.69485285756E+01  0.79550544710E+00 -0.41910725482E+02  0.42490278756E+02  0.00000000000E+00 0. -1.
         -4    1    6    6    0  503  0.26074726834E+03 -0.28995202405E+03 -0.48881329199E+03  0.62529972703E+03  0.00000000000E+00 0.  1.
<mgrwt>
<rscale>  0 0.16843566E+04</rscale>
<asrwt>0</asrwt>
<pdfrwt beam="1">  1        2 0.33733270E+00 0.16843566E+04</pdfrwt>
<pdfrwt beam="2">  1       -2 0.49764875E-01 0.16843566E+04</pdfrwt>
<totfact> 0.18986924E+01</totfact>
</mgrwt>
</event>
<event>
12    2  0.3623523E-008  0.1374642E+04  0.7818608E-02  0.8972382E-01
          1   -1    0    0  501    0  0.00000000000E+00  0.00000000000E+00  0.34891650243E+04  0.34891650243E+04  0.00000000000E+00 0. -1.
         -1   -1    0    0    0  501 -0.00000000000E+00 -0.00000000000E+00 -0.13539337558E+03  0.13539337558E+03  0.00000000000E+00 0.  1.
         23    2    1    2    0    0  0.25663670997E+03 -0.19422474540E+03  0.15624932629E+04  0.15976594475E+04  0.86861160227E+02 0.  0.
        254    2    1    2    0    0 -0.25663670997E+03  0.19422474540E+03  0.17912783859E+04  0.20268989524E+04  0.89221939836E+03 0.  0.
         23    2    4    4    0    0 -0.48587034695E+03  0.22379765204E+03  0.16563810996E+04  0.17430681408E+04  0.92373227969E+02 0.  0.
         23    2    4    4    0    0  0.22923363698E+03 -0.29572906634E+02  0.13489728627E+03  0.28383081157E+03  0.94551756325E+02 0.  0.
          4    1    3    3  502    0  0.15169340084E+03 -0.84622361064E+02  0.65877148474E+03  0.68128679788E+03  0.00000000000E+00 0. -1.
         -4    1    3    3    0  502  0.10494330914E+03 -0.10960238434E+03  0.90372177811E+03  0.91637264965E+03  0.00000000000E+00 0.  1.
         11    1    5    5    0    0 -0.27196735263E+03  0.16831051849E+03  0.10525513778E+04  0.11000723042E+04  0.00000000000E+00 0.  1.
        -11    1    5    5    0    0 -0.21390299432E+03  0.55487133547E+02  0.60382972183E+03  0.64299583664E+03  0.00000000000E+00 0. -1.
          2    1    6    6  503    0  0.10678172546E+03  0.33591289105E+02  0.60937820981E+02  0.12745246024E+03  0.00000000000E+00 0. -1.
         -2    1    6    6    0  503  0.12245191153E+03 -0.63164195740E+02  0.73959465290E+02  0.15637835133E+03  0.00000000000E+00 0.  1.
<mgrwt>
<rscale>  0 0.13746415E+04</rscale>
<asrwt>0</asrwt>
<pdfrwt beam="1">  1        1 0.53679455E+00 0.13746415E+04</pdfrwt>
<pdfrwt beam="2">  1       -1 0.20829753E-01 0.13746415E+04</pdfrwt>
<totfact> 0.48291795E+00</totfact>
</mgrwt>
</event>
<event>
12    2  0.3623523E-008  0.1398281E+04  0.7818608E-02  0.8955064E-01
          1   -1    0    0  501    0  0.00000000000E+00  0.00000000000E+00  0.53450907933E+03  0.53450907933E+03  0.00000000000E+00 0.  1.
         -1   -1    0    0    0  501 -0.00000000000E+00 -0.00000000000E+00 -0.91447895515E+03  0.91447895515E+03  0.00000000000E+00 0. -1.
         23    2    1    2    0    0 -0.26662482420E+03  0.45976982333E+02  0.19583346996E+03  0.34665904718E+03  0.92838931795E+02 0.  0.
        254    2    1    2    0    0  0.26662482420E+03 -0.45976982333E+02 -0.57580334578E+03  0.11023289873E+04  0.90020943311E+03 0.  0.
         23    2    4    4    0    0  0.56081589763E+03 -0.46658879099E+02 -0.17437186940E+03  0.59664800929E+03  0.94296214755E+02 0.  0.
         23    2    4    4    0    0 -0.29419107343E+03  0.68189676663E+00 -0.40143147638E+03  0.50568097801E+03  0.89538643195E+02 0.  0.
          1    1    3    3  502    0 -0.14220198436E+03  0.39525604562E+02  0.15854050580E+03  0.21660740927E+03  0.00000000000E+00 0. -1.
         -1    1    3    3    0  502 -0.12442283984E+03  0.64513777708E+01  0.37292964155E+02  0.13005163791E+03  0.00000000000E+00 0.  1.
         11    1    5    5    0    0  0.51341504986E+03 -0.54874709465E+02 -0.18292804004E+03  0.54778546438E+03  0.00000000000E+00 0.  1.
        -11    1    5    5    0    0  0.47400847775E+02  0.82158303655E+01  0.85561706459E+01  0.48862544904E+02  0.00000000000E+00 0. -1.
          1    1    6    6  503    0 -0.14866798190E+03 -0.43789611192E+02 -0.21488930635E+03  0.26494737756E+03  0.00000000000E+00 0. -1.
         -1    1    6    6    0  503 -0.14552309153E+03  0.44471507959E+02 -0.18654217003E+03  0.24073360045E+03  0.00000000000E+00 0.  1.
<mgrwt>
<rscale>  0 0.13982808E+04</rscale>
<asrwt>0</asrwt>
<pdfrwt beam="1">  1        1 0.82232168E-01 0.13982808E+04</pdfrwt>
<pdfrwt beam="2">  1       -1 0.14068907E+00 0.13982808E+04</pdfrwt>
<totfact> 0.16299458E+01</totfact>
</mgrwt>
</event>
<event>
12    2  0.3623523E-008  0.1717630E+04  0.7818608E-02  0.8751373E-01
         -1   -1    0    0    0  501 -0.00000000000E+00  0.00000000000E+00  0.70035807556E+03  0.70035807556E+03  0.00000000000E+00 0.  1.
          1   -1    0    0  501    0  0.00000000000E+00 -0.00000000000E+00 -0.10531226705E+04  0.10531226705E+04  0.00000000000E+00 0. -1.
         23    2    1    2    0    0  0.26727085507E+03  0.29108672009E+03  0.35284754294E+03  0.53734047149E+03  0.89823188346E+02 0.  0.
        254    2    1    2    0    0 -0.26727085507E+03 -0.29108672009E+03 -0.70561213786E+03  0.12161402745E+04  0.90826399780E+03 0.  0.
         23    2    4    4    0    0 -0.13458817840E+03  0.26628996274E+03 -0.12902833809E+02  0.31277518345E+03  0.92938206565E+02 0.  0.
         23    2    4    4    0    0 -0.13268267667E+03 -0.55737668283E+03 -0.69270930405E+03  0.90336509110E+03  0.89156315850E+02 0.  0.
          1    1    3    3  502    0  0.17892799845E+03  0.21254919492E+03  0.19196984580E+03  0.33770521256E+03  0.00000000000E+00 0. -1.
         -1    1    3    3    0  502  0.88342856620E+02  0.78537525172E+02  0.16087769713E+03  0.19963525894E+03  0.00000000000E+00 0.  1.
         11    1    5    5    0    0 -0.12483936457E+03  0.17383643282E+03  0.18083035765E+02  0.21478121078E+03  0.00000000000E+00 0. -1.
        -11    1    5    5    0    0 -0.97488138304E+01  0.92453529923E+02 -0.30985869574E+02  0.97993972669E+02  0.00000000000E+00 0.  1.
          4    1    6    6  503    0 -0.10936157571E+03 -0.42225609882E+03 -0.58093672714E+03  0.72646242034E+03  0.00000000000E+00 0. -1.
         -4    1    6    6    0  503 -0.23321100958E+02 -0.13512058400E+03 -0.11177257691E+03  0.17690267076E+03  0.00000000000E+00 0.  1.
<mgrwt>
<rscale>  0 0.17176297E+04</rscale>
<asrwt>0</asrwt>
<pdfrwt beam="1">  1        1 0.16201887E+00 0.17176297E+04</pdfrwt>
<pdfrwt beam="2">  1       -1 0.10774740E+00 0.17176297E+04</pdfrwt>
<totfact> 0.10482142E+01</totfact>
</mgrwt>
</event>
<event>
12    2  0.3623523E-008  0.1429802E+04  0.7818608E-02  0.8932525E-01
          1   -1    0    0  501    0  0.00000000000E+00  0.00000000000E+00  0.45774725180E+03  0.45774725180E+03  0.00000000000E+00 0. -1.
         -1   -1    0    0    0  501 -0.00000000000E+00 -0.00000000000E+00 -0.11165181783E+04  0.11165181783E+04  0.00000000000E+00 0.  1.
         23    2    1    2    0    0 -0.23214828969E+02  0.33612531804E+03 -0.47455655194E+03  0.58923634390E+03  0.92067313787E+02 0.  0.
        254    2    1    2    0    0  0.23214828969E+02 -0.33612531804E+03 -0.18421437457E+03  0.98502908622E+03  0.90709878579E+03 0.  0.
         23    2    4    4    0    0  0.26579489329E+03 -0.73860024871E+01  0.25383374519E+03  0.37906405913E+03  0.92501418344E+02 0.  0.
         23    2    4    4    0    0 -0.24258006432E+03 -0.32873931556E+03 -0.43804811976E+03  0.60596502709E+03  0.91612409841E+02 0.  0.
          2    1    3    3  502    0 -0.55244185773E+02  0.20189376309E+03 -0.25491837705E+03  0.32984297869E+03  0.00000000000E+00 0. -1.
         -2    1    3    3    0  502  0.32029356804E+02  0.13423155495E+03 -0.21963817489E+03  0.25939336521E+03  0.00000000000E+00 0.  1.
         11    1    5    5    0    0  0.20568332640E+02 -0.25626833930E+02  0.49134796103E+02  0.59110228497E+02  0.00000000000E+00 0.  1.
        -11    1    5    5    0    0  0.24522656065E+03  0.18240831443E+02  0.20469894908E+03  0.31995383063E+03  0.00000000000E+00 0. -1.
          1    1    6    6  503    0 -0.20264353151E+03 -0.20530755171E+03 -0.28834246934E+03  0.40786881626E+03  0.00000000000E+00 0. -1.
         -1    1    6    6    0  503 -0.39936532808E+02 -0.12343176384E+03 -0.14970565042E+03  0.19809621083E+03  0.00000000000E+00 0.  1.
<mgrwt>
<rscale>  0 0.14298016E+04</rscale>
<asrwt>0</asrwt>
<pdfrwt beam="1">  1        1 0.70422655E-01 0.14298016E+04</pdfrwt>
<pdfrwt beam="2">  1       -1 0.17177203E+00 0.14298016E+04</pdfrwt>
<totfact> 0.11620902E+01</totfact>
</mgrwt>
</event>
<event>
12    2  0.3623523E-008  0.1345892E+04  0.7818608E-02  0.8993944E-01
         -1   -1    0    0    0  501 -0.00000000000E+00  0.00000000000E+00  0.28071461331E+03  0.28071461331E+03  0.00000000000E+00 0.  1.
          1   -1    0    0  501    0  0.00000000000E+00 -0.00000000000E+00 -0.16132268277E+04  0.16132268277E+04  0.00000000000E+00 0. -1.
         23    2    1    2    0    0  0.15363549232E+03  0.33201628889E+03 -0.32605137766E+03  0.49571449918E+03  0.74730738224E+02 0.  0.
        254    2    1    2    0    0 -0.15363549232E+03 -0.33201628889E+03 -0.10064608368E+04  0.13982269419E+04  0.89901973528E+03 0.  0.
         23    2    4    4    0    0 -0.13677391257E+03 -0.52551741595E+03 -0.23868719534E+03  0.60003316744E+03  0.90512801216E+02 0.  0.
         23    2    4    4    0    0 -0.16861579744E+02  0.19350112706E+03 -0.76777364142E+03  0.79819377442E+03  0.99548671595E+02 0.  0.
          1    1    3    3  502    0  0.11161667401E+03  0.20561286974E+03 -0.16284664513E+03  0.28505080942E+03  0.00000000000E+00 0. -1.
         -1    1    3    3    0  502  0.42018818311E+02  0.12640341915E+03 -0.16320473253E+03  0.21066368976E+03  0.00000000000E+00 0.  1.
         11    1    5    5    0    0 -0.13573439786E+03 -0.52925453459E+03 -0.23844643259E+03  0.59614670205E+03  0.00000000000E+00 0. -1.
        -11    1    5    5    0    0 -0.10395147108E+01  0.37371186397E+01 -0.24076274925E+00  0.38864653945E+01  0.00000000000E+00 0.  1.
          2    1    6    6  503    0 -0.27653801778E+02  0.17967800691E+03 -0.75478812689E+03  0.77637235616E+03  0.00000000000E+00 0. -1.
         -2    1    6    6    0  503  0.10792222034E+02  0.13823120149E+02 -0.12985514531E+02  0.21821418256E+02  0.00000000000E+00 0.  1.
<mgrwt>
<rscale>  0 0.13458920E+04</rscale>
<asrwt>0</asrwt>
<pdfrwt beam="1">  1        1 0.24818875E+00 0.13458920E+04</pdfrwt>
<pdfrwt beam="2">  1       -1 0.43186862E-01 0.13458920E+04</pdfrwt>
<totfact> 0.28291786E+01</totfact>
</mgrwt>
</event>
<event>
12    2  0.3623523E-008  0.1735693E+04  0.7818608E-02  0.8741265E-01
         -2   -1    0    0    0  501 -0.00000000000E+00  0.00000000000E+00  0.42110910134E+03  0.42110910134E+03  0.00000000000E+00 0.  1.
          2   -1    0    0  501    0  0.00000000000E+00 -0.00000000000E+00 -0.17885085466E+04  0.17885085466E+04  0.00000000000E+00 0. -1.
         23    2    1    2    0    0  0.58480498733E+03  0.52024998420E+02 -0.77029156366E+03  0.97284712236E+03  0.91536641697E+02 0.  0.
        254    2    1    2    0    0 -0.58480498733E+03 -0.52024998420E+02 -0.59710788164E+03  0.12367705256E+04  0.91014286628E+03 0.  0.
         23    2    4    4    0    0 -0.10166832296E+03  0.38014940691E+03 -0.36109525377E+03  0.54110603972E+03  0.86924935790E+02 0.  0.
         23    2    4    4    0    0 -0.48313666437E+03 -0.43217440533E+03 -0.23601262788E+03  0.69566448590E+03  0.89729389483E+02 0.  0.
          1    1    3    3  502    0  0.24611906603E+02  0.21284819121E+02 -0.32699980077E+02  0.46131097631E+02  0.00000000000E+00 0.  1.
         -1    1    3    3    0  502  0.56019308073E+03  0.30740179299E+02 -0.73759158358E+03  0.92671602473E+03  0.00000000000E+00 0. -1.
         11    1    5    5    0    0 -0.33073008911E+02  0.78310932889E+02 -0.36291547220E+02  0.92431069062E+02  0.00000000000E+00 0.  1.
        -11    1    5    5    0    0 -0.68595314048E+02  0.30183847402E+03 -0.32480370655E+03  0.44867497066E+03  0.00000000000E+00 0. -1.
          2    1    6    6  503    0 -0.41740894174E+03 -0.35273604369E+03 -0.16641319962E+03  0.57126727035E+03  0.00000000000E+00 0. -1.
         -2    1    6    6    0  503 -0.65727722636E+02 -0.79438361633E+02 -0.69599428262E+02  0.12439721555E+03  0.00000000000E+00 0.  1.
<mgrwt>
<rscale>  0 0.17356926E+04</rscale>
<asrwt>0</asrwt>
<pdfrwt beam="1">  1        2 0.27515516E+00 0.17356926E+04</pdfrwt>
<pdfrwt beam="2">  1       -2 0.64786015E-01 0.17356926E+04</pdfrwt>
<totfact> 0.18267061E+01</totfact>
</mgrwt>
</event>
<event>
12    2  0.3623523E-008  0.2081186E+04  0.7818608E-02  0.8569577E-01
          1   -1    0    0  501    0  0.00000000000E+00  0.00000000000E+00  0.77609912966E+03  0.77609912966E+03  0.00000000000E+00 0. -1.
         -1   -1    0    0    0  501 -0.00000000000E+00 -0.00000000000E+00 -0.13952255806E+04  0.13952255806E+04  0.00000000000E+00 0.  1.
         23    2    1    2    0    0  0.53720468064E+03  0.40704479492E+03 -0.77688141967E+03  0.10323514986E+04  0.89053592742E+02 0.  0.
        254    2    1    2    0    0 -0.53720468064E+03 -0.40704479492E+03  0.15775496876E+03  0.11389732117E+04  0.90448826016E+03 0.  0.
         23    2    4    4    0    0 -0.65083262750E+03 -0.59288954696E+02  0.31380749730E+03  0.73035375212E+03  0.88561666103E+02 0.  0.
         23    2    4    4    0    0  0.11362794686E+03 -0.34775584023E+03 -0.15605252855E+03  0.40861945956E+03  0.93659149802E+02 0.  0.
          1    1    3    3  502    0  0.34881607291E+03  0.24638823453E+03 -0.42869569658E+03  0.60511140718E+03  0.00000000000E+00 0. -1.
         -1    1    3    3    0  502  0.18838860773E+03  0.16065656039E+03 -0.34818572309E+03  0.42724009138E+03  0.00000000000E+00 0.  1.
         11    1    5    5    0    0 -0.27913540662E+03 -0.59039313200E+02  0.10498103627E+03  0.30401189731E+03  0.00000000000E+00 0.  1.
        -11    1    5    5    0    0 -0.37169722088E+03 -0.24964149555E+00  0.20882646104E+03  0.42634185481E+03  0.00000000000E+00 0. -1.
          1    1    6    6  503    0  0.14973235539E+02 -0.17368506378E+03 -0.99371684751E+02  0.20066248003E+03  0.00000000000E+00 0. -1.
         -1    1    6    6    0  503  0.98654711321E+02 -0.17407077645E+03 -0.56680843798E+02  0.20795697953E+03  0.00000000000E+00 0.  1.
<mgrwt>
<rscale>  0 0.20811856E+04</rscale>
<asrwt>0</asrwt>
<pdfrwt beam="1">  1        1 0.11939987E+00 0.20811856E+04</pdfrwt>
<pdfrwt beam="2">  1       -1 0.21465009E+00 0.20811856E+04</pdfrwt>
<totfact> 0.25557493E+00</totfact>
</mgrwt>
</event>
<event>
12    2  0.3623523E-008  0.2503055E+04  0.7818608E-02  0.8401898E-01
          1   -1    0    0  501    0  0.00000000000E+00  0.00000000000E+00  0.36411695936E+04  0.36411695936E+04  0.00000000000E+00 0. -1.
         -1   -1    0    0    0  501 -0.00000000000E+00 -0.00000000000E+00 -0.43016985855E+03  0.43016985855E+03  0.00000000000E+00 0.  1.
         23    2    1    2    0    0 -0.93344620456E+03 -0.17162441160E+03  0.53870126632E+03  0.10953222182E+04  0.93567899662E+02 0.  0.
        254    2    1    2    0    0  0.93344620456E+03  0.17162441160E+03  0.26722984687E+04  0.29760172340E+04  0.90261991752E+03 0.  0.
         23    2    4    4    0    0 -0.86303592555E+02  0.24552432618E+03  0.70703554034E+03  0.75879574907E+03  0.90228757403E+02 0.  0.
         23    2    4    4    0    0  0.10197497971E+04 -0.73899914575E+02  0.19652629284E+04  0.22172214849E+04  0.91988528517E+02 0.  0.
          2    1    3    3  502    0 -0.31745654747E+03 -0.13558516325E+02  0.18028548992E+03  0.36532909927E+03  0.00000000000E+00 0. -1.
         -2    1    3    3    0  502 -0.61598965708E+03 -0.15806589528E+03  0.35841577641E+03  0.72999311891E+03  0.00000000000E+00 0.  1.
         11    1    5    5    0    0 -0.90406664180E+01  0.86118693482E+02  0.13886667264E+03  0.16365242371E+03  0.00000000000E+00 0.  1.
        -11    1    5    5    0    0 -0.77262926137E+02  0.15940563269E+03  0.56816886770E+03  0.59514332535E+03  0.00000000000E+00 0. -1.
          2    1    6    6  503    0  0.96152086141E+03 -0.69198672887E+02  0.17992162456E+04  0.20411981584E+04  0.00000000000E+00 0. -1.
         -2    1    6    6    0  503  0.58228935698E+02 -0.47012416876E+01  0.16604668277E+03  0.17602332654E+03  0.00000000000E+00 0.  1.
<mgrwt>
<rscale>  0 0.25030553E+04</rscale>
<asrwt>0</asrwt>
<pdfrwt beam="1">  1        1 0.56017992E+00 0.25030553E+04</pdfrwt>
<pdfrwt beam="2">  1       -1 0.66179981E-01 0.25030553E+04</pdfrwt>
<totfact> 0.39651583E-01</totfact>
</mgrwt>
</event>
<event>
12    2  0.3623523E-008  0.2197401E+04  0.7818608E-02  0.8519511E-01
          2   -1    0    0  501    0  0.00000000000E+00  0.00000000000E+00  0.10862775152E+04  0.10862775152E+04  0.00000000000E+00 0. -1.
         -2   -1    0    0    0  501 -0.00000000000E+00 -0.00000000000E+00 -0.11112652389E+04  0.11112652389E+04  0.00000000000E+00 0.  1.
         23    2    1    2    0    0 -0.28848871216E+03  0.65498225941E+03  0.55614127156E+03  0.91097375532E+03  0.91392405429E+02 0.  0.
        254    2    1    2    0    0  0.28848871216E+03 -0.65498225941E+03 -0.58112899531E+03  0.12865689988E+04  0.89739700376E+03 0.  0.
         23    2    4    4    0    0  0.11102519351E+03 -0.29196118553E+03  0.21465124261E+03  0.38930776632E+03  0.88980073713E+02 0.  0.
         23    2    4    4    0    0  0.17746351865E+03 -0.36302107388E+03 -0.79578023792E+03  0.89726123249E+03  0.92379281973E+02 0.  0.
          2    1    3    3  502    0 -0.27584745203E+03  0.64593773171E+03  0.52754240628E+03  0.87842379320E+03  0.00000000000E+00 0. -1.
         -2    1    3    3    0  502 -0.12641260135E+02  0.90445277036E+01  0.28598865277E+02  0.32549962125E+02  0.00000000000E+00 0.  1.
         11    1    5    5    0    0  0.10477080133E+03 -0.21821999656E+03  0.12305327917E+03  0.27154925377E+03  0.00000000000E+00 0. -1.
        -11    1    5    5    0    0  0.62543921759E+01 -0.73741188967E+02  0.91597963439E+02  0.11775851255E+03  0.00000000000E+00 0.  1.
          4    1    6    6  503    0  0.11006878160E+03 -0.27902918561E+03 -0.50738928745E+03  0.58942031872E+03  0.00000000000E+00 0. -1.
         -4    1    6    6    0  503  0.67394737051E+02 -0.83991888270E+02 -0.28839095047E+03  0.30784091377E+03  0.00000000000E+00 0.  1.
<mgrwt>
<rscale>  0 0.21974007E+04</rscale>
<asrwt>0</asrwt>
<pdfrwt beam="1">  1        2 0.16711962E+00 0.21974007E+04</pdfrwt>
<pdfrwt beam="2">  1       -2 0.17096388E+00 0.21974007E+04</pdfrwt>
<totfact> 0.42609392E+00</totfact>
</mgrwt>
</event>
<event>
12    2  0.3623523E-008  0.1389349E+04  0.7818608E-02  0.8961565E-01
          2   -1    0    0  501    0  0.00000000000E+00  0.00000000000E+00  0.15773706891E+04  0.15773706891E+04  0.00000000000E+00 0. -1.
         -2   -1    0    0    0  501 -0.00000000000E+00 -0.00000000000E+00 -0.30593486257E+03  0.30593486257E+03  0.00000000000E+00 0.  1.
         23    2    1    2    0    0  0.67077422414E+02  0.38751445510E+03  0.46336091337E+03  0.61377397024E+03  0.85722324948E+02 0.  0.
        254    2    1    2    0    0 -0.67077422414E+02 -0.38751445510E+03  0.80807491315E+03  0.12695315814E+04  0.89669311219E+03 0.  0.
         23    2    4    4    0    0  0.21329711972E+03 -0.57782290818E+03  0.58608995041E+03  0.85498532542E+03  0.90130473236E+02 0.  0.
         23    2    4    4    0    0 -0.28037454213E+03  0.19030845308E+03  0.22198496274E+03  0.41454625600E+03  0.88000474397E+02 0.  0.
          3    1    3    3  502    0  0.53954153658E+02  0.20803946102E+03  0.31068991939E+03  0.37778260157E+03  0.00000000000E+00 0. -1.
         -3    1    3    3    0  502  0.13123268757E+02  0.17947499409E+03  0.15267099398E+03  0.23599136867E+03  0.00000000000E+00 0.  1.
         11    1    5    5    0    0  0.11060240193E+03 -0.17958442389E+03  0.18587289785E+03  0.28112664543E+03  0.00000000000E+00 0.  1.
        -11    1    5    5    0    0  0.10269471779E+03 -0.39823848429E+03  0.40021705256E+03  0.57385867998E+03  0.00000000000E+00 0. -1.
          1    1    6    6  503    0 -0.17924974745E+03  0.10659492729E+03  0.86156933783E+02  0.22564566852E+03  0.00000000000E+00 0. -1.
         -1    1    6    6    0  503 -0.10112479468E+03  0.83713525795E+02  0.13582802896E+03  0.18890058748E+03  0.00000000000E+00 0.  1.
<mgrwt>
<rscale>  0 0.13893490E+04</rscale>
<asrwt>0</asrwt>
<pdfrwt beam="1">  1        2 0.24267241E+00 0.13893490E+04</pdfrwt>
<pdfrwt beam="2">  1       -2 0.47066903E-01 0.13893490E+04</pdfrwt>
<totfact> 0.47844099E+01</totfact>
</mgrwt>
</event>
<event>
12    2  0.3623523E-008  0.2041847E+04  0.7818608E-02  0.8587302E-01
         -2   -1    0    0    0  501 -0.00000000000E+00  0.00000000000E+00  0.46978688240E+03  0.46978688240E+03  0.00000000000E+00 0.  1.
          2   -1    0    0  501    0  0.00000000000E+00 -0.00000000000E+00 -0.22186326796E+04  0.22186326796E+04  0.00000000000E+00 0. -1.
         23    2    1    2    0    0 -0.33823076300E+03  0.35901078876E+03  0.13959333290E+03  0.52712679911E+03  0.12283146284E+03 0.  0.
        254    2    1    2    0    0  0.33823076300E+03 -0.35901078876E+03 -0.18884391301E+04  0.21612927629E+04  0.92827542427E+03 0.  0.
         23    2    4    4    0    0  0.56428235394E+03 -0.29371956712E+03 -0.17690426988E+04  0.18822260525E+04  0.92612543487E+02 0.  0.
         23    2    4    4    0    0 -0.22605159094E+03 -0.65291221637E+02 -0.11939643125E+03  0.27906671040E+03  0.90887048954E+02 0.  0.
          3    1    3    3  502    0 -0.20627719630E+03  0.27079890014E+03  0.14083760199E+03  0.36839863757E+03  0.00000000000E+00 0.  1.
         -3    1    3    3    0  502 -0.13195356670E+03  0.88211888616E+02 -0.12442690920E+01  0.15872816154E+03  0.00000000000E+00 0. -1.
         11    1    5    5    0    0  0.54591032767E+03 -0.28780942043E+03 -0.17476664539E+04  0.18534266596E+04  0.00000000000E+00 0. -1.
        -11    1    5    5    0    0  0.18372026277E+02 -0.59101466881E+01 -0.21376244929E+02  0.28799392887E+02  0.00000000000E+00 0.  1.
          4    1    6    6  503    0 -0.16700348179E+03 -0.87340058766E+02 -0.98574552507E+02  0.21268613307E+03  0.00000000000E+00 0. -1.
         -4    1    6    6    0  503 -0.59048109150E+02  0.22048837128E+02 -0.20821878739E+02  0.66380577333E+02  0.00000000000E+00 0.  1.
<mgrwt>
<rscale>  0 0.20418467E+04</rscale>
<asrwt>0</asrwt>
<pdfrwt beam="1">  1        2 0.34132811E+00 0.20418467E+04</pdfrwt>
<pdfrwt beam="2">  1       -2 0.72274904E-01 0.20418467E+04</pdfrwt>
<totfact> 0.80878551E+00</totfact>
</mgrwt>
</event>
<event>
12    2  0.3623523E-008  0.1715905E+04  0.7818608E-02  0.8752345E-01
          2   -1    0    0  501    0  0.00000000000E+00  0.00000000000E+00  0.13937018522E+04  0.13937018522E+04  0.00000000000E+00 0. -1.
         -2   -1    0    0    0  501 -0.00000000000E+00 -0.00000000000E+00 -0.52814902008E+03  0.52814902008E+03  0.00000000000E+00 0.  1.
         23    2    1    2    0    0  0.51106664455E+03  0.16709383471E+03  0.64839479384E+03  0.84725402127E+03  0.91181703860E+02 0.  0.
        254    2    1    2    0    0 -0.51106664455E+03 -0.16709383471E+03  0.21715803832E+03  0.10745968510E+04  0.90470509774E+03 0.  0.
         23    2    4    4    0    0 -0.36508527713E+03  0.31678830938E+03 -0.52323506658E+02  0.49459545982E+03  0.90801029653E+02 0.  0.
         23    2    4    4    0    0 -0.14598136742E+03 -0.48388214408E+03  0.26948154498E+03  0.58000139122E+03  0.91262378528E+02 0.  0.
          2    1    3    3  502    0  0.49718414402E+03  0.17371144935E+03  0.64254028268E+03  0.83079826406E+03  0.00000000000E+00 0. -1.
         -2    1    3    3    0  502  0.13882500530E+02 -0.66176146432E+01  0.58545111582E+01  0.16455757212E+02  0.00000000000E+00 0.  1.
         11    1    5    5    0    0 -0.28676115254E+03  0.29031665311E+03 -0.55715035316E+02  0.41184934483E+03  0.00000000000E+00 0.  1.
        -11    1    5    5    0    0 -0.78324124592E+02  0.26471656273E+02  0.33915286584E+01  0.82746114988E+02  0.00000000000E+00 0. -1.
          3    1    6    6  503    0 -0.53759452332E+02 -0.14567112855E+03  0.37824481726E+02  0.15981504256E+03  0.00000000000E+00 0. -1.
         -3    1    6    6    0  503 -0.92221915089E+02 -0.33821101553E+03  0.23165706325E+03  0.42018634866E+03  0.00000000000E+00 0.  1.
<mgrwt>
<rscale>  0 0.17159047E+04</rscale>
<asrwt>0</asrwt>
<pdfrwt beam="1">  1        2 0.21441567E+00 0.17159047E+04</pdfrwt>
<pdfrwt beam="2">  1       -2 0.81253696E-01 0.17159047E+04</pdfrwt>
<totfact> 0.18508889E+01</totfact>
</mgrwt>
</event>
<event>
12    2  0.3623523E-008  0.2253684E+04  0.7818608E-02  0.8496410E-01
          1   -1    0    0  501    0  0.00000000000E+00  0.00000000000E+00  0.29144285003E+04  0.29144285003E+04  0.00000000000E+00 0. -1.
         -1   -1    0    0    0  501 -0.00000000000E+00 -0.00000000000E+00 -0.43568498318E+03  0.43568498318E+03  0.00000000000E+00 0.  1.
         23    2    1    2    0    0  0.25453435401E+02 -0.57104007018E+03 -0.75063776086E+02  0.58337861661E+03  0.89226681584E+02 0.  0.
        254    2    1    2    0    0 -0.25453435401E+02  0.57104007018E+03  0.25538072932E+04  0.27667348669E+04  0.89786162278E+03 0.  0.
         23    2    4    4    0    0  0.26043072809E+03  0.46303528048E+03  0.68888746398E+03  0.87470323603E+03  0.91181017682E+02 0.  0.
         23    2    4    4    0    0 -0.28588416350E+03  0.10800478970E+03  0.18649198293E+04  0.18920316309E+04  0.91994201832E+02 0.  0.
          2    1    3    3  502    0 -0.29813032598E+01 -0.18873539489E+00  0.54121178506E+01  0.61818128251E+01  0.00000000000E+00 0. -1.
         -2    1    3    3    0  502  0.28434738661E+02 -0.57085133479E+03 -0.80475893937E+02  0.57719680378E+03  0.00000000000E+00 0.  1.
         11    1    5    5    0    0  0.22797033888E+03  0.44910687132E+03  0.64636116705E+03  0.81942065848E+03  0.00000000000E+00 0.  1.
        -11    1    5    5    0    0  0.32460389217E+02  0.13928409162E+02  0.42526296929E+02  0.55282577549E+02  0.00000000000E+00 0. -1.
          2    1    6    6  503    0 -0.32382214594E+02  0.48068403606E+02  0.39049275234E+03  0.39477052686E+03  0.00000000000E+00 0. -1.
         -2    1    6    6    0  503 -0.25350194890E+03  0.59936386096E+02  0.14744270769E+04  0.14972611040E+04  0.00000000000E+00 0.  1.
<mgrwt>
<rscale>  0 0.22536839E+04</rscale>
<asrwt>0</asrwt>
<pdfrwt beam="1">  1        1 0.44837360E+00 0.22536839E+04</pdfrwt>
<pdfrwt beam="2">  1       -1 0.67028461E-01 0.22536839E+04</pdfrwt>
<totfact> 0.14120584E+00</totfact>
</mgrwt>
</event>
<event>
12    2  0.3623523E-008  0.1683442E+04  0.7818608E-02  0.8770865E-01
          1   -1    0    0  501    0  0.00000000000E+00  0.00000000000E+00  0.28576093030E+04  0.28576093030E+04  0.00000000000E+00 0. -1.
         -1   -1    0    0    0  501 -0.00000000000E+00 -0.00000000000E+00 -0.24793248207E+03  0.24793248207E+03  0.00000000000E+00 0.  1.
         23    2    1    2    0    0  0.53811268583E+03 -0.20562902253E+03  0.65688545468E+03  0.87835078202E+03  0.90294175560E+02 0.  0.
        254    2    1    2    0    0 -0.53811268583E+03  0.20562902253E+03  0.19527913663E+04  0.22271910031E+04  0.90284942623E+03 0.  0.
         23    2    4    4    0    0 -0.72992112645E+03  0.31439323338E+03  0.17084508089E+04  0.18864754184E+04  0.91418715197E+02 0.  0.
         23    2    4    4    0    0  0.19180844062E+03 -0.10876421085E+03  0.24434055737E+03  0.34071558474E+03  0.88117366381E+02 0.  0.
          1    1    3    3  502    0  0.13726616353E+03 -0.35478392207E+02  0.21830969256E+03  0.26030719896E+03  0.00000000000E+00 0. -1.
         -1    1    3    3    0  502  0.40084652230E+03 -0.17015063032E+03  0.43857576212E+03  0.61804358306E+03  0.00000000000E+00 0.  1.
         11    1    5    5    0    0 -0.72077930315E+03  0.29557099176E+03  0.16607601974E+04  0.18343962081E+04  0.00000000000E+00 0. -1.
        -11    1    5    5    0    0 -0.91418233054E+01  0.18822241620E+02  0.47690611521E+02  0.52079210249E+02  0.00000000000E+00 0.  1.
          1    1    6    6  503    0  0.17838876834E+03 -0.64074011515E+02  0.20922134830E+03  0.28231472544E+03  0.00000000000E+00 0. -1.
         -1    1    6    6    0  503  0.13419672283E+02 -0.44690199340E+02  0.35119209071E+02  0.58400859300E+02  0.00000000000E+00 0.  1.
<mgrwt>
<rscale>  0 0.16834419E+04</rscale>
<asrwt>0</asrwt>
<pdfrwt beam="1">  1        1 0.43963218E+00 0.16834419E+04</pdfrwt>
<pdfrwt beam="2">  1       -1 0.38143461E-01 0.16834419E+04</pdfrwt>
<totfact> 0.48136100E+00</totfact>
</mgrwt>
</event>
<event>
12    2  0.3623523E-008  0.1499650E+04  0.7818608E-02  0.8884685E-01
          2   -1    0    0  501    0  0.00000000000E+00  0.00000000000E+00  0.10881707397E+04  0.10881707397E+04  0.00000000000E+00 0. -1.
         -2   -1    0    0    0  501 -0.00000000000E+00 -0.00000000000E+00 -0.51668160231E+03  0.51668160231E+03  0.00000000000E+00 0.  1.
         23    2    1    2    0    0  0.30874691697E+03  0.36347300912E+03  0.19016804907E+03  0.52129588242E+03  0.90267508218E+02 0.  0.
        254    2    1    2    0    0 -0.30874691697E+03 -0.36347300912E+03  0.38132108828E+03  0.10835564596E+04  0.89512655060E+03 0.  0.
         23    2    4    4    0    0 -0.52677530520E+03 -0.46584982073E+03  0.41849479050E+03  0.82259868452E+03  0.83799931127E+02 0.  0.
         23    2    4    4    0    0  0.21802838823E+03  0.10237681161E+03 -0.37173702215E+02  0.26095777504E+03  0.93272110448E+02 0.  0.
          2    1    3    3  502    0  0.16278907564E+03  0.18654956986E+03  0.14690396134E+03  0.28789199194E+03  0.00000000000E+00 0. -1.
         -2    1    3    3    0  502  0.14595784133E+03  0.17692343925E+03  0.43264087732E+02  0.23340389048E+03  0.00000000000E+00 0.  1.
         11    1    5    5    0    0 -0.51926903384E+03 -0.46715017392E+03  0.41971940658E+03  0.81488281045E+03  0.00000000000E+00 0.  1.
        -11    1    5    5    0    0 -0.75062713568E+01  0.13003531929E+01 -0.12246160846E+01  0.77158740699E+01  0.00000000000E+00 0. -1.
          3    1    6    6  503    0  0.21027059980E+02  0.36167181168E+02  0.18585566150E+02  0.45778002514E+02  0.00000000000E+00 0. -1.
         -3    1    6    6    0  503  0.19700132825E+03  0.66209630445E+02 -0.55759268365E+02  0.21517977252E+03  0.00000000000E+00 0.  1.
<mgrwt>
<rscale>  0 0.14996504E+04</rscale>
<asrwt>0</asrwt>
<pdfrwt beam="1">  1        2 0.16741088E+00 0.14996504E+04</pdfrwt>
<pdfrwt beam="2">  1       -2 0.79489477E-01 0.14996504E+04</pdfrwt>
<totfact> 0.30027828E+01</totfact>
</mgrwt>
</event>
<event>
12    2  0.3623523E-008  0.1293036E+04  0.7818608E-02  0.9035106E-01
         -1   -1    0    0    0  501 -0.00000000000E+00  0.00000000000E+00  0.21172947257E+03  0.21172947257E+03  0.00000000000E+00 0.  1.
          1   -1    0    0  501    0  0.00000000000E+00 -0.00000000000E+00 -0.19741481655E+04  0.19741481655E+04  0.00000000000E+00 0. -1.
         23    2    1    2    0    0  0.26610082440E+03 -0.97089440484E+02 -0.74140423314E+03  0.79873365314E+03  0.89773066918E+02 0.  0.
        254    2    1    2    0    0 -0.26610082440E+03  0.97089440484E+02 -0.10210144598E+04  0.13871439849E+04  0.89524404473E+03 0.  0.
         23    2    4    4    0    0 -0.25185786661E+03 -0.35758731602E+03 -0.33049896032E+03  0.55531476041E+03  0.88565494415E+02 0.  0.
         23    2    4    4    0    0 -0.14242957784E+02  0.45467675650E+03 -0.69051549944E+03  0.83182922451E+03  0.90522864639E+02 0.  0.
          3    1    3    3  502    0  0.26756687932E+03 -0.10606489758E+03 -0.72358455914E+03  0.77872743089E+03  0.00000000000E+00 0. -1.
         -3    1    3    3    0  502 -0.14660549202E+01  0.89754570915E+01 -0.17819674006E+02  0.20006222250E+02  0.00000000000E+00 0.  1.
         11    1    5    5    0    0 -0.22776548252E+03 -0.26997992350E+03 -0.23978602905E+03  0.42692342855E+03  0.00000000000E+00 0. -1.
        -11    1    5    5    0    0 -0.24092384092E+02 -0.87607392519E+02 -0.90712931274E+02  0.12839133186E+03  0.00000000000E+00 0.  1.
          3    1    6    6  503    0  0.25236350846E+02  0.34911582695E+03 -0.54599162960E+03  0.64855654621E+03  0.00000000000E+00 0. -1.
         -3    1    6    6    0  503 -0.39479308630E+02  0.10556092955E+03 -0.14452386984E+03  0.18327267830E+03  0.00000000000E+00 0.  1.
<mgrwt>
<rscale>  0 0.12930357E+04</rscale>
<asrwt>0</asrwt>
<pdfrwt beam="1">  1        1 0.30371510E+00 0.12930357E+04</pdfrwt>
<pdfrwt beam="2">  1       -1 0.32573765E-01 0.12930357E+04</pdfrwt>
<totfact> 0.26942233E+01</totfact>
</mgrwt>
</event>
<event>
12    2  0.3623523E-008  0.1469560E+04  0.7818608E-02  0.8904951E-01
          1   -1    0    0  501    0  0.00000000000E+00  0.00000000000E+00  0.55527258812E+03  0.55527258812E+03  0.00000000000E+00 0. -1.
         -1   -1    0    0    0  501 -0.00000000000E+00 -0.00000000000E+00 -0.97231839659E+03  0.97231839659E+03  0.00000000000E+00 0.  1.
         23    2    1    2    0    0  0.27484212386E+03  0.33481414397E+03 -0.15721468657E+03  0.46955885729E+03  0.90168501937E+02 0.  0.
        254    2    1    2    0    0 -0.27484212386E+03 -0.33481414397E+03 -0.25983112191E+03  0.10580321274E+04  0.92966718060E+03 0.  0.
         23    2    4    4    0    0 -0.10410639233E+03 -0.53308446453E+03  0.14298659725E+03  0.56896426240E+03  0.90873415514E+02 0.  0.
         23    2    4    4    0    0 -0.17073573153E+03  0.19827032056E+03 -0.40281771916E+03  0.48906786502E+03  0.91997019986E+02 0.  0.
          3    1    3    3  502    0  0.97956104356E+00  0.13032718330E+02 -0.22568935218E+02  0.26080033048E+02  0.00000000000E+00 0. -1.
         -3    1    3    3    0  502  0.27386256281E+03  0.32178142564E+03 -0.13464575135E+03  0.44347882425E+03  0.00000000000E+00 0.  1.
         11    1    5    5    0    0 -0.20874140338E+02 -0.29807364125E+03  0.10531408005E+03  0.31681963449E+03  0.00000000000E+00 0. -1.
        -11    1    5    5    0    0 -0.83232251989E+02 -0.23501082328E+03  0.37672517198E+02  0.25214462791E+03  0.00000000000E+00 0.  1.
          3    1    6    6  503    0 -0.12371513168E+03  0.73964055895E+02 -0.19796160657E+03  0.24487734286E+03  0.00000000000E+00 0. -1.
         -3    1    6    6    0  503 -0.47020599853E+02  0.12430626466E+03 -0.20485611259E+03  0.24419052216E+03  0.00000000000E+00 0.  1.
<mgrwt>
<rscale>  0 0.14695601E+04</rscale>
<asrwt>0</asrwt>
<pdfrwt beam="1">  1        1 0.85426552E-01 0.14695601E+04</pdfrwt>
<pdfrwt beam="2">  1       -1 0.14958744E+00 0.14695601E+04</pdfrwt>
<totfact> 0.13045705E+01</totfact>
</mgrwt>
</event>
<event>
12    2  0.3623523E-008  0.2342001E+04  0.7818608E-02  0.8461543E-01
         -2   -1    0    0    0  501 -0.00000000000E+00  0.00000000000E+00  0.87699815749E+03  0.87699815749E+03  0.00000000000E+00 0.  1.
          2   -1    0    0  501    0  0.00000000000E+00 -0.00000000000E+00 -0.15635627426E+04  0.15635627426E+04  0.00000000000E+00 0. -1.
         23    2    1    2    0    0 -0.63046924134E+02 -0.19178943633E+03 -0.12972969304E+04  0.13159078286E+04  0.88746746960E+02 0.  0.
        254    2    1    2    0    0  0.63046924134E+02  0.19178943633E+03  0.61073234526E+03  0.11246530716E+04  0.92254670955E+03 0.  0.
         23    2    4    4    0    0  0.24241077457E+03  0.47774433311E+03  0.54345668472E+03  0.76827302280E+03  0.88857402344E+02 0.  0.
         23    2    4    4    0    0 -0.17936385044E+03 -0.28595489679E+03  0.67275660537E+02  0.35638004876E+03  0.92407417527E+02 0.  0.
          2    1    3    3  502    0 -0.50770809089E+01 -0.13712446893E+03 -0.70027098884E+03  0.71358836492E+03  0.00000000000E+00 0. -1.
         -2    1    3    3    0  502 -0.57969843225E+02 -0.54664967396E+02 -0.59702594157E+03  0.60231946365E+03  0.00000000000E+00 0.  1.
         11    1    5    5    0    0  0.60255531687E+02  0.81957490863E+02  0.62849273332E+02  0.11957336897E+03  0.00000000000E+00 0. -1.
        -11    1    5    5    0    0  0.18215524288E+03  0.39578684225E+03  0.48060741139E+03  0.64869965384E+03  0.00000000000E+00 0.  1.
          3    1    6    6  503    0 -0.19389787345E+02 -0.11146236982E+03  0.25939290788E+02  0.11607183356E+03  0.00000000000E+00 0. -1.
         -3    1    6    6    0  503 -0.15997406309E+03 -0.17449252697E+03  0.41336369750E+02  0.24030821520E+03  0.00000000000E+00 0.  1.
<mgrwt>
<rscale>  0 0.23420006E+04</rscale>
<asrwt>0</asrwt>
<pdfrwt beam="1">  1        2 0.24054811E+00 0.23420006E+04</pdfrwt>
<pdfrwt beam="2">  1       -2 0.13492279E+00 0.23420006E+04</pdfrwt>
<totfact> 0.41733730E+00</totfact>
</mgrwt>
</event>
<event>
12    2  0.3623523E-008  0.1268841E+04  0.7818608E-02  0.9054646E-01
         -1   -1    0    0    0  501 -0.00000000000E+00  0.00000000000E+00  0.28114350910E+03  0.28114350910E+03  0.00000000000E+00 0.  1.
          1   -1    0    0  501    0  0.00000000000E+00 -0.00000000000E+00 -0.14316148598E+04  0.14316148598E+04  0.00000000000E+00 0. -1.
         23    2    1    2    0    0 -0.14004385060E+03  0.26019080352E+03 -0.40701234249E+03  0.50744674136E+03  0.67317264168E+02 0.  0.
        254    2    1    2    0    0  0.14004385060E+03 -0.26019080352E+03 -0.74345900817E+03  0.12053116275E+04  0.90151721461E+03 0.  0.
         23    2    4    4    0    0  0.17683101692E+03  0.30687969116E+03 -0.21694950702E+03  0.42517630437E+03  0.90903508232E+02 0.  0.
         23    2    4    4    0    0 -0.36787166317E+02 -0.56707049468E+03 -0.52650950115E+03  0.78013532313E+03  0.92068594290E+02 0.  0.
          1    1    3    3  502    0 -0.82106496406E+02  0.21236156004E+03 -0.31469037271E+03  0.38841851090E+03  0.00000000000E+00 0. -1.
         -1    1    3    3    0  502 -0.57937354198E+02  0.47829243479E+02 -0.92321969780E+02  0.11902823046E+03  0.00000000000E+00 0.  1.
         11    1    5    5    0    0  0.78386190624E+02  0.15936007488E+03 -0.57459675696E+02  0.18665916178E+03  0.00000000000E+00 0.  1.
        -11    1    5    5    0    0  0.98444826297E+02  0.14751961628E+03 -0.15948983132E+03  0.23851714258E+03  0.00000000000E+00 0. -1.
          3    1    6    6  503    0 -0.14836737954E+02 -0.53258436800E+03 -0.47053843536E+03  0.71082533507E+03  0.00000000000E+00 0. -1.
         -3    1    6    6    0  503 -0.21950428363E+02 -0.34486126674E+02 -0.55971065795E+02  0.69309988058E+02  0.00000000000E+00 0.  1.
<mgrwt>
<rscale>  0 0.12688408E+04</rscale>
<asrwt>0</asrwt>
<pdfrwt beam="1">  1        1 0.22024844E+00 0.12688408E+04</pdfrwt>
<pdfrwt beam="2">  1       -1 0.43252847E-01 0.12688408E+04</pdfrwt>
<totfact> 0.37896999E+01</totfact>
</mgrwt>
</event>
<event>
12    2  0.3623523E-008  0.3088488E+04  0.7818608E-02  0.8218904E-01
         -1   -1    0    0    0  501 -0.00000000000E+00  0.00000000000E+00  0.36654508472E+04  0.36654508472E+04  0.00000000000E+00 0.  1.
          1   -1    0    0  501    0  0.00000000000E+00 -0.00000000000E+00 -0.65058576738E+03  0.65058576738E+03  0.00000000000E+00 0. -1.
         23    2    1    2    0    0  0.60109422316E+03 -0.10406822783E+04  0.23942552512E+04  0.26804739749E+04  0.90269890454E+02 0.  0.
        254    2    1    2    0    0 -0.60109422316E+03  0.10406822783E+04  0.62060982863E+03  0.16355626396E+04  0.91955136849E+03 0.  0.
         23    2    4    4    0    0  0.41273895454E+02  0.80778737375E+03  0.42913952665E+03  0.92024286161E+03  0.91990300490E+02 0.  0.
         23    2    4    4    0    0 -0.64236811862E+03  0.23289490454E+03  0.19147030198E+03  0.71531977801E+03  0.90247836006E+02 0.  0.
          4    1    3    3  502    0  0.98035961172E+02 -0.13674652172E+03  0.27913282556E+03  0.32592298966E+03  0.00000000000E+00 0. -1.
         -4    1    3    3    0  502  0.50305826199E+03 -0.90393575656E+03  0.21151224256E+04  0.23545509853E+04  0.00000000000E+00 0.  1.
         11    1    5    5    0    0  0.10823152517E+02  0.58930205522E+02  0.59994627144E+02  0.84789533785E+02  0.00000000000E+00 0. -1.
        -11    1    5    5    0    0  0.30450742938E+02  0.74885716822E+03  0.36914489950E+03  0.83545332783E+03  0.00000000000E+00 0.  1.
          3    1    6    6  503    0 -0.26803350051E+03  0.57124669236E+02  0.52423942682E+02  0.27902231989E+03  0.00000000000E+00 0. -1.
         -3    1    6    6    0  503 -0.37433461810E+03  0.17577023530E+03  0.13904635930E+03  0.43629745812E+03  0.00000000000E+00 0.  1.
<mgrwt>
<rscale>  0 0.30884884E+04</rscale>
<asrwt>0</asrwt>
<pdfrwt beam="1">  1        1 0.10009012E+00 0.30884884E+04</pdfrwt>
<pdfrwt beam="2">  1       -1 0.56391550E+00 0.30884884E+04</pdfrwt>
<totfact> 0.16245518E-02</totfact>
</mgrwt>
</event>
<event>
12    2  0.3623523E-008  0.1598815E+04  0.7818608E-02  0.8821277E-01
          3   -1    0    0  501    0  0.00000000000E+00  0.00000000000E+00  0.25707161384E+04  0.25707161384E+04  0.00000000000E+00 0. -1.
         -3   -1    0    0    0  501 -0.00000000000E+00 -0.00000000000E+00 -0.24858912485E+03  0.24858912485E+03  0.00000000000E+00 0.  1.
         23    2    1    2    0    0  0.41487837878E+03 -0.28349649240E+03  0.11398511985E+04  0.12484514587E+04  0.82921405924E+02 0.  0.
        254    2    1    2    0    0 -0.41487837878E+03  0.28349649240E+03  0.11822758150E+04  0.15708538046E+04  0.90405267662E+03 0.  0.
         23    2    4    4    0    0  0.21219970126E+03 -0.39348631603E+02  0.62122315267E+03  0.66519818299E+03  0.99966940642E+02 0.  0.
         23    2    4    4    0    0 -0.62707808004E+03  0.32284512400E+03  0.56105266237E+03  0.90565562157E+03  0.89309139342E+02 0.  0.
          2    1    3    3  502    0  0.23361122501E+03 -0.12767714411E+03  0.67832495748E+03  0.72869774634E+03  0.00000000000E+00 0. -1.
         -2    1    3    3    0  502  0.18126715376E+03 -0.15581934829E+03  0.46152624106E+03  0.51975371237E+03  0.00000000000E+00 0.  1.
         11    1    5    5    0    0  0.18669368683E+03 -0.30681240098E+02  0.40166906384E+03  0.44399764419E+03  0.00000000000E+00 0. -1.
        -11    1    5    5    0    0  0.25506014432E+02 -0.86673915051E+01  0.21955408883E+03  0.22120053881E+03  0.00000000000E+00 0.  1.
          1    1    6    6  503    0 -0.38396280074E+02  0.25360334579E+02  0.68235810951E+02  0.82301560068E+02  0.00000000000E+00 0. -1.
         -1    1    6    6    0  503 -0.58868179996E+03  0.29748478942E+03  0.49281685142E+03  0.82335406150E+03  0.00000000000E+00 0.  1.
<mgrwt>
<rscale>  0 0.15988147E+04</rscale>
<asrwt>0</asrwt>
<pdfrwt beam="1">  1        3 0.39549477E+00 0.15988147E+04</pdfrwt>
<pdfrwt beam="2">  1       -3 0.38244483E-01 0.15988147E+04</pdfrwt>
<totfact> 0.20209511E-01</totfact>
</mgrwt>
</event>
<event>
12    2  0.3623523E-008  0.2282692E+04  0.7818608E-02  0.8484777E-01
         -1   -1    0    0    0  501 -0.00000000000E+00  0.00000000000E+00  0.33468841376E+03  0.33468841376E+03  0.00000000000E+00 0.  1.
          1   -1    0    0  501    0  0.00000000000E+00 -0.00000000000E+00 -0.38921899517E+04  0.38921899517E+04  0.00000000000E+00 0. -1.
         23    2    1    2    0    0  0.55829681772E+02 -0.89335293273E+03 -0.21507458693E+04  0.23313396248E+04  0.90775747813E+02 0.  0.
        254    2    1    2    0    0 -0.55829681772E+02  0.89335293273E+03 -0.14067556687E+04  0.18955387406E+04  0.90161476808E+03 0.  0.
         23    2    4    4    0    0 -0.14113913589E+03  0.13045290203E+03  0.73329263111E+02  0.22591519198E+03  0.93393135791E+02 0.  0.
         23    2    4    4    0    0  0.85309454117E+02  0.76290003071E+03 -0.14800849318E+04  0.16696235486E+04  0.87733853395E+02 0.  0.
          3    1    3    3  502    0  0.44168839113E+02 -0.87292129497E+03 -0.20634673564E+04  0.22409462297E+04  0.00000000000E+00 0. -1.
         -3    1    3    3    0  502  0.11660842659E+02 -0.20431637766E+02 -0.87278512895E+02  0.90393395148E+02  0.00000000000E+00 0.  1.
         11    1    5    5    0    0 -0.13264925196E+02  0.66749332869E+02  0.70279410547E+01  0.68416545034E+02  0.00000000000E+00 0.  1.
        -11    1    5    5    0    0 -0.12787421069E+03  0.63703569158E+02  0.66301322056E+02  0.15749864695E+03  0.00000000000E+00 0. -1.
          2    1    6    6  503    0  0.92177253216E+02  0.61039779086E+03 -0.12390233955E+04  0.13842908234E+04  0.00000000000E+00 0. -1.
         -2    1    6    6    0  503 -0.68677990995E+01  0.15250223985E+03 -0.24106153628E+03  0.28533272525E+03  0.00000000000E+00 0.  1.
<mgrwt>
<rscale>  0 0.22826922E+04</rscale>
<asrwt>0</asrwt>
<pdfrwt beam="1">  1        1 0.59879847E+00 0.22826922E+04</pdfrwt>
<pdfrwt beam="2">  1       -1 0.51490524E-01 0.22826922E+04</pdfrwt>
<totfact> 0.41057933E-01</totfact>
</mgrwt>
</event>
<event>
12    2  0.3623523E-008  0.2219686E+04  0.7818608E-02  0.8510279E-01
          1   -1    0    0  501    0  0.00000000000E+00  0.00000000000E+00  0.23675228258E+04  0.23675228258E+04  0.00000000000E+00 0. -1.
         -1   -1    0    0    0  501 -0.00000000000E+00 -0.00000000000E+00 -0.52027018157E+03  0.52027018157E+03  0.00000000000E+00 0.  1.
         23    2    1    2    0    0 -0.42962056834E+03 -0.76871814502E+03  0.10788061660E+04  0.13956381697E+04  0.92096350117E+02 0.  0.
        254    2    1    2    0    0  0.42962056834E+03  0.76871814502E+03  0.76844647819E+03  0.14921548376E+04  0.92763928895E+03 0.  0.
         23    2    4    4    0    0  0.49578356798E+03  0.29604558847E+02  0.16475357038E+03  0.53114288930E+03  0.91056321699E+02 0.  0.
         23    2    4    4    0    0 -0.66162999633E+02  0.73911358617E+03  0.60369290781E+03  0.96101194833E+03  0.91828111778E+02 0.  0.
          2    1    3    3  502    0 -0.10725515549E+03 -0.18634158731E+03  0.32868647525E+03  0.39276157469E+03  0.00000000000E+00 0.  1.
         -2    1    3    3    0  502 -0.32236541285E+03 -0.58237655771E+03  0.75011969076E+03  0.10028765950E+04  0.00000000000E+00 0. -1.
         11    1    5    5    0    0  0.40086491824E+03  0.13479081341E+02  0.94823271557E+02  0.41214781467E+03  0.00000000000E+00 0.  1.
        -11    1    5    5    0    0  0.94918649739E+02  0.16125477506E+02  0.69930298823E+02  0.11899507463E+03  0.00000000000E+00 0. -1.
          3    1    6    6  503    0 -0.39195663318E+02  0.93399183112E+02  0.88731210019E+02  0.13465858703E+03  0.00000000000E+00 0. -1.
         -3    1    6    6    0  503 -0.26967336315E+02  0.64571440306E+03  0.51496169779E+03  0.82635336131E+03  0.00000000000E+00 0.  1.
<mgrwt>
<rscale>  0 0.22196860E+04</rscale>
<asrwt>0</asrwt>
<pdfrwt beam="1">  1        1 0.36423428E+00 0.22196860E+04</pdfrwt>
<pdfrwt beam="2">  1       -1 0.80041568E-01 0.22196860E+04</pdfrwt>
<totfact> 0.23719059E+00</totfact>
</mgrwt>
</event>
<event>
12    2  0.3623523E-008  0.2473538E+04  0.7818608E-02  0.8412474E-01
         -1   -1    0    0    0  501 -0.00000000000E+00  0.00000000000E+00  0.20886156397E+04  0.20886156397E+04  0.00000000000E+00 0.  1.
          1   -1    0    0  501    0  0.00000000000E+00 -0.00000000000E+00 -0.73235001630E+03  0.73235001630E+03  0.00000000000E+00 0. -1.
         23    2    1    2    0    0 -0.78954207903E+03 -0.52444214242E+03  0.11652070345E+04  0.15052455068E+04  0.98185270036E+02 0.  0.
        254    2    1    2    0    0  0.78954207903E+03  0.52444214242E+03  0.19105858890E+03  0.13157201492E+04  0.89230032569E+03 0.  0.
         23    2    4    4    0    0  0.30704149875E+02  0.50651062650E+03 -0.40363205736E+02  0.51688095734E+03  0.89671489945E+02 0.  0.
         23    2    4    4    0    0  0.75883792916E+03  0.17931515921E+02  0.23142179463E+03  0.79883919183E+03  0.91823011164E+02 0.  0.
          4    1    3    3  502    0 -0.41599991936E+03 -0.27232884892E+03  0.53363686353E+03  0.72937455191E+03  0.00000000000E+00 0. -1.
         -4    1    3    3    0  502 -0.37354215967E+03 -0.25211329350E+03  0.63157017096E+03  0.77587095491E+03  0.00000000000E+00 0.  1.
         11    1    5    5    0    0  0.45293199251E+02  0.18235010268E+03 -0.41366273577E+02  0.19239075455E+03  0.00000000000E+00 0. -1.
        -11    1    5    5    0    0 -0.14589049375E+02  0.32416052382E+03  0.10030678405E+01  0.32449020279E+03  0.00000000000E+00 0.  1.
          4    1    6    6  503    0  0.22844421588E+03  0.47463116909E+02  0.66614303157E+02  0.24264577602E+03  0.00000000000E+00 0. -1.
         -4    1    6    6    0  503  0.53039371328E+03 -0.29531600988E+02  0.16480749147E+03  0.55619341581E+03  0.00000000000E+00 0.  1.
<mgrwt>
<rscale>  0 0.24735381E+04</rscale>
<asrwt>0</asrwt>
<pdfrwt beam="1">  1        1 0.11266923E+00 0.24735381E+04</pdfrwt>
<pdfrwt beam="2">  1       -1 0.32132548E+00 0.24735381E+04</pdfrwt>
<totfact> 0.54313335E-01</totfact>
</mgrwt>
</event>
<event>
12    2  0.3623523E-008  0.1475294E+04  0.7818608E-02  0.8901050E-01
         -1   -1    0    0    0  501 -0.00000000000E+00  0.00000000000E+00  0.17929486049E+03  0.17929486049E+03  0.00000000000E+00 0.  1.
          1   -1    0    0  501    0  0.00000000000E+00 -0.00000000000E+00 -0.30347961946E+04  0.30347961946E+04  0.00000000000E+00 0. -1.
         23    2    1    2    0    0 -0.22606851721E+02  0.17004232596E+03 -0.18757201037E+04  0.18859230749E+04  0.94628085460E+02 0.  0.
        254    2    1    2    0    0  0.22606851721E+02 -0.17004232596E+03 -0.97978123032E+03  0.13281679801E+04  0.88013263876E+03 0.  0.
         23    2    4    4    0    0  0.30812436004E+03 -0.14070010706E+03 -0.96373101061E+03  0.10263237905E+04  0.99125782571E+02 0.  0.
         23    2    4    4    0    0 -0.28551750832E+03 -0.29342218905E+02 -0.16050219715E+02  0.30184418963E+03  0.92038534854E+02 0.  0.
          1    1    3    3  502    0 -0.28087280276E+02  0.14364579191E+03 -0.10951524347E+04  0.11048899782E+04  0.00000000000E+00 0. -1.
         -1    1    3    3    0  502  0.54804285552E+01  0.26396534051E+02 -0.78056766907E+03  0.78103309668E+03  0.00000000000E+00 0.  1.
         11    1    5    5    0    0  0.69541384666E+02 -0.81165514687E+02 -0.30606978112E+03  0.32419524344E+03  0.00000000000E+00 0.  1.
        -11    1    5    5    0    0  0.23858297537E+03 -0.59534592370E+02 -0.65766122948E+03  0.70212854706E+03  0.00000000000E+00 0. -1.
          1    1    6    6  503    0 -0.20277661882E+03 -0.10904397280E+01  0.26684603028E+02  0.20452778354E+03  0.00000000000E+00 0. -1.
         -1    1    6    6    0  503 -0.82740889493E+02 -0.28251779177E+02 -0.42734822743E+02  0.97316406097E+02  0.00000000000E+00 0.  1.
<mgrwt>
<rscale>  0 0.14752944E+04</rscale>
<asrwt>0</asrwt>
<pdfrwt beam="1">  1        1 0.46689174E+00 0.14752944E+04</pdfrwt>
<pdfrwt beam="2">  1       -1 0.27583824E-01 0.14752944E+04</pdfrwt>
<totfact> 0.65018954E+00</totfact>
</mgrwt>
</event>
<event>
12    2  0.3623523E-008  0.1127363E+04  0.7818608E-02  0.9178925E-01
          1   -1    0    0  501    0  0.00000000000E+00  0.00000000000E+00  0.91565594151E+03  0.91565594151E+03  0.00000000000E+00 0. -1.
         -1   -1    0    0    0  501 -0.00000000000E+00 -0.00000000000E+00 -0.34700432592E+03  0.34700432592E+03  0.00000000000E+00 0.  1.
         23    2    1    2    0    0  0.11660063677E+03 -0.48135554733E+02  0.26598424059E+03  0.30829690121E+03  0.91578506924E+02 0.  0.
        254    2    1    2    0    0 -0.11660063677E+03  0.48135554733E+02  0.30266737500E+03  0.95436336622E+03  0.89626399837E+03 0.  0.
         23    2    4    4    0    0 -0.62581882388E+02  0.18943993600E+03  0.58322997639E+03  0.62319313926E+03  0.91697884917E+02 0.  0.
         23    2    4    4    0    0 -0.54018754379E+02 -0.14130438127E+03 -0.28056260139E+03  0.33117022696E+03  0.89852055818E+02 0.  0.
          3    1    3    3  502    0  0.11343833754E+03 -0.69854074935E+02  0.23781115365E+03  0.27258391920E+03  0.00000000000E+00 0. -1.
         -3    1    3    3    0  502  0.31622992305E+01  0.21718520202E+02  0.28173086939E+02  0.35712982007E+02  0.00000000000E+00 0.  1.
         11    1    5    5    0    0 -0.50765358793E+02  0.51366497049E+02  0.12387188067E+03  0.14338717339E+03  0.00000000000E+00 0.  1.
        -11    1    5    5    0    0 -0.11816523594E+02  0.13807343895E+03  0.45935809572E+03  0.47980596586E+03  0.00000000000E+00 0. -1.
          2    1    6    6  503    0 -0.66676026730E+02 -0.50550827235E+02 -0.11980307840E+03  0.14612958725E+03  0.00000000000E+00 0. -1.
         -2    1    6    6    0  503  0.12657272351E+02 -0.90753554035E+02 -0.16075952299E+03  0.18504063972E+03  0.00000000000E+00 0.  1.
<mgrwt>
<rscale>  0 0.11273625E+04</rscale>
<asrwt>0</asrwt>
<pdfrwt beam="1">  1        1 0.14087014E+00 0.11273625E+04</pdfrwt>
<pdfrwt beam="2">  1       -1 0.53385281E-01 0.11273625E+04</pdfrwt>
<totfact> 0.62193989E+01</totfact>
</mgrwt>
</event>
<event>
12    2  0.3623523E-008  0.2158562E+04  0.7818608E-02  0.8535876E-01
          1   -1    0    0  501    0  0.00000000000E+00  0.00000000000E+00  0.19969635327E+04  0.19969635327E+04  0.00000000000E+00 0. -1.
         -1   -1    0    0    0  501 -0.00000000000E+00 -0.00000000000E+00 -0.58330960099E+03  0.58330960099E+03  0.00000000000E+00 0.  1.
         23    2    1    2    0    0 -0.12512736561E+03 -0.11939719789E+03  0.16194131017E+04  0.16311030490E+04  0.89921153865E+02 0.  0.
        254    2    1    2    0    0  0.12512736561E+03  0.11939719789E+03 -0.20575917004E+03  0.94917008466E+03  0.91031558543E+03 0.  0.
         23    2    4    4    0    0  0.31422427027E+03 -0.11209156972E+03 -0.43928349462E+03  0.55917574421E+03  0.91684852848E+02 0.  0.
         23    2    4    4    0    0 -0.18909690466E+03  0.23148876761E+03  0.23352432457E+03  0.38999434046E+03  0.90649250086E+02 0.  0.
          3    1    3    3  502    0 -0.82304959437E+02 -0.12414170235E+03  0.11252116667E+04  0.11350271202E+04  0.00000000000E+00 0. -1.
         -3    1    3    3    0  502 -0.42822406173E+02  0.47445044598E+01  0.49420143504E+03  0.49607592886E+03  0.00000000000E+00 0.  1.
         11    1    5    5    0    0  0.28011954375E+03 -0.10302144404E+03 -0.42864138800E+03  0.52231582039E+03  0.00000000000E+00 0.  1.
        -11    1    5    5    0    0  0.34104726517E+02 -0.90701256824E+01 -0.10642106615E+02  0.36859923818E+02  0.00000000000E+00 0. -1.
          4    1    6    6  503    0 -0.64640664107E+02  0.21577064659E+02  0.56347719249E+02  0.88425395900E+02  0.00000000000E+00 0. -1.
         -4    1    6    6    0  503 -0.12445624055E+03  0.20991170295E+03  0.17717660532E+03  0.30156894456E+03  0.00000000000E+00 0.  1.
<mgrwt>
<rscale>  0 0.21585625E+04</rscale>
<asrwt>0</asrwt>
<pdfrwt beam="1">  1        1 0.30722516E+00 0.21585625E+04</pdfrwt>
<pdfrwt beam="2">  1       -1 0.89739940E-01 0.21585625E+04</pdfrwt>
<totfact> 0.33301318E+00</totfact>
</mgrwt>
</event>
<event>
12    2  0.3623523E-008  0.1780675E+04  0.7818608E-02  0.8716644E-01
          2   -1    0    0  501    0  0.00000000000E+00  0.00000000000E+00  0.17434534137E+04  0.17434534137E+04  0.00000000000E+00 0. -1.
         -2   -1    0    0    0  501 -0.00000000000E+00 -0.00000000000E+00 -0.45467277947E+03  0.45467277947E+03  0.00000000000E+00 0.  1.
         23    2    1    2    0    0  0.22024700142E+03  0.76259441309E+02  0.12340873201E+04  0.12620302026E+04  0.12419530843E+03 0.  0.
        254    2    1    2    0    0 -0.22024700142E+03 -0.76259441309E+02  0.54693314174E+02  0.93609599061E+03  0.90496414349E+03 0.  0.
         23    2    4    4    0    0  0.17588800705E+03 -0.16568889033E+03  0.34303566250E+03  0.42951907568E+03  0.91781104927E+02 0.  0.
         23    2    4    4    0    0 -0.39613500847E+03  0.89429449021E+02 -0.28834234832E+03  0.50657691494E+03  0.92511024314E+02 0.  0.
          1    1    3    3  502    0  0.16726903996E+03  0.24667353691E+02  0.10519877224E+04  0.10654884224E+04  0.00000000000E+00 0. -1.
         -1    1    3    3    0  502  0.52977961465E+02  0.51592087618E+02  0.18209959766E+03  0.19654178022E+03  0.00000000000E+00 0.  1.
         11    1    5    5    0    0  0.14271640318E+03 -0.15501751845E+03  0.23322589978E+03  0.31431309723E+03  0.00000000000E+00 0.  1.
        -11    1    5    5    0    0  0.33171603872E+02 -0.10671371876E+02  0.10980976272E+03  0.11520597844E+03  0.00000000000E+00 0. -1.
          3    1    6    6  503    0 -0.15481394507E+03 -0.73365774390E+01 -0.87025939841E+02  0.17774897233E+03  0.00000000000E+00 0. -1.
         -3    1    6    6    0  503 -0.24132106340E+03  0.96766026460E+02 -0.20131640848E+03  0.32882794261E+03  0.00000000000E+00 0.  1.
<mgrwt>
<rscale>  0 0.17806749E+04</rscale>
<asrwt>0</asrwt>
<pdfrwt beam="1">  1        2 0.26822360E+00 0.17806749E+04</pdfrwt>
<pdfrwt beam="2">  1       -2 0.69949659E-01 0.17806749E+04</pdfrwt>
<totfact> 0.16327876E+01</totfact>
</mgrwt>
</event>
<event>
12    2  0.3623523E-008  0.2124276E+04  0.7818608E-02  0.8550625E-01
         -1   -1    0    0    0  501 -0.00000000000E+00  0.00000000000E+00  0.69617424407E+03  0.69617424407E+03  0.00000000000E+00 0.  1.
          1   -1    0    0  501    0  0.00000000000E+00 -0.00000000000E+00 -0.16204803963E+04  0.16204803963E+04  0.00000000000E+00 0. -1.
         23    2    1    2    0    0  0.42434669287E+03 -0.22462419426E+03  0.41126873739E+03  0.63682749875E+03  0.76688619894E+02 0.  0.
        254    2    1    2    0    0 -0.42434669287E+03  0.22462419426E+03 -0.13355748896E+04  0.16798271416E+04  0.89862828549E+03 0.  0.
         23    2    4    4    0    0 -0.40891671791E+03  0.47206594131E+02 -0.14058854220E+04  0.14677475746E+04  0.91256660579E+02 0.  0.
         23    2    4    4    0    0 -0.15429974957E+02  0.17741760012E+03  0.70310532431E+02  0.21207956700E+03  0.91209006183E+02 0.  0.
          2    1    3    3  502    0  0.26503417795E+03 -0.18115660188E+03  0.27590253045E+03  0.42330017269E+03  0.00000000000E+00 0.  1.
         -2    1    3    3    0  502  0.15931251491E+03 -0.43467592371E+02  0.13536620695E+03  0.21352732607E+03  0.00000000000E+00 0. -1.
         11    1    5    5    0    0  0.17919065480E+01  0.70874172637E+01 -0.11919199651E+02  0.13982479497E+02  0.00000000000E+00 0. -1.
        -11    1    5    5    0    0 -0.41070862446E+03  0.40119176867E+02 -0.13939662224E+04  0.14537650951E+04  0.00000000000E+00 0.  1.
          1    1    6    6  503    0  0.10710321352E+02  0.31928417869E+01 -0.13047090920E+02  0.17179400561E+02  0.00000000000E+00 0. -1.
         -1    1    6    6    0  503 -0.26140296309E+02  0.17422475834E+03  0.83357623351E+02  0.19490016644E+03  0.00000000000E+00 0.  1.
<mgrwt>
<rscale>  0 0.21242756E+04</rscale>
<asrwt>0</asrwt>
<pdfrwt beam="1">  1        1 0.24930467E+00 0.21242756E+04</pdfrwt>
<pdfrwt beam="2">  1       -1 0.10710373E+00 0.21242756E+04</pdfrwt>
<totfact> 0.40292141E+00</totfact>
</mgrwt>
</event>
<event>
12    2  0.3623523E-008  0.1477161E+04  0.7818608E-02  0.8899784E-01
          1   -1    0    0  501    0  0.00000000000E+00  0.00000000000E+00  0.10677087707E+04  0.10677087707E+04  0.00000000000E+00 0. -1.
         -1   -1    0    0    0  501 -0.00000000000E+00 -0.00000000000E+00 -0.51090812239E+03  0.51090812239E+03  0.00000000000E+00 0.  1.
         23    2    1    2    0    0  0.99231558775E+02 -0.45082696952E+03  0.18971790107E+03  0.50794029963E+03  0.94438378344E+02 0.  0.
        254    2    1    2    0    0 -0.99231558775E+02  0.45082696952E+03  0.36708274728E+03  0.10706765935E+04  0.89359205782E+03 0.  0.
         23    2    4    4    0    0 -0.13473297867E+03  0.61536216373E+03  0.52294285448E+03  0.82390771214E+03  0.92364067530E+02 0.  0.
         23    2    4    4    0    0  0.35501419891E+02 -0.16453519422E+03 -0.15586010721E+03  0.24676888136E+03  0.90941337345E+02 0.  0.
          2    1    3    3  502    0  0.30249563177E+02 -0.39592774430E+02 -0.10037494020E-01  0.49825936622E+02  0.00000000000E+00 0.  1.
         -2    1    3    3    0  502  0.68981995598E+02 -0.41123419509E+03  0.18972793856E+03  0.45811436301E+03  0.00000000000E+00 0. -1.
         11    1    5    5    0    0 -0.96894322885E+02  0.32857704192E+03  0.33370465253E+03  0.47823652872E+03  0.00000000000E+00 0.  1.
        -11    1    5    5    0    0 -0.37838655781E+02  0.28678512182E+03  0.18923820195E+03  0.34567118342E+03  0.00000000000E+00 0. -1.
          1    1    6    6  503    0  0.21694170069E+02 -0.14399099910E+02 -0.66716136037E+02  0.71617134130E+02  0.00000000000E+00 0. -1.
         -1    1    6    6    0  503  0.13807249822E+02 -0.15013609431E+03 -0.89143971168E+02  0.17515174723E+03  0.00000000000E+00 0.  1.
<mgrwt>
<rscale>  0 0.14771609E+04</rscale>
<asrwt>0</asrwt>
<pdfrwt beam="1">  1        1 0.16426289E+00 0.14771609E+04</pdfrwt>
<pdfrwt beam="2">  1       -1 0.78601250E-01 0.14771609E+04</pdfrwt>
<totfact> 0.21057991E+01</totfact>
</mgrwt>
</event>
<event>
12    2  0.3623523E-008  0.2076742E+04  0.7818608E-02  0.8571559E-01
          2   -1    0    0  501    0  0.00000000000E+00  0.00000000000E+00  0.19040796199E+04  0.19040796199E+04  0.00000000000E+00 0. -1.
         -2   -1    0    0    0  501 -0.00000000000E+00 -0.00000000000E+00 -0.56626510953E+03  0.56626510953E+03  0.00000000000E+00 0.  1.
         23    2    1    2    0    0 -0.64995909164E+03 -0.88277072337E+02 -0.72789883772E+02  0.67187097192E+03  0.12598640176E+03 0.  0.
        254    2    1    2    0    0  0.64995909164E+03  0.88277072337E+02  0.14106043941E+04  0.17984737575E+04  0.90247628079E+03 0.  0.
         23    2    4    4    0    0  0.85860604598E+03 -0.56168225515E+01  0.11846588985E+04  0.14659420609E+04  0.91288165986E+02 0.  0.
         23    2    4    4    0    0 -0.20864695435E+03  0.93893894888E+02  0.22594549568E+03  0.33253169664E+03  0.84713323596E+02 0.  0.
          1    1    3    3  502    0 -0.10489946994E+02 -0.21374045212E+02 -0.10098353286E+02  0.25862434838E+02  0.00000000000E+00 0. -1.
         -1    1    3    3    0  502 -0.63946914464E+03 -0.66903027125E+02 -0.62691530486E+02  0.64600853708E+03  0.00000000000E+00 0.  1.
         11    1    5    5    0    0  0.21010908943E+03 -0.78975168716E+01  0.22749510937E+03  0.30977770259E+03  0.00000000000E+00 0.  1.
        -11    1    5    5    0    0  0.64849695655E+03  0.22806943201E+01  0.95716378910E+03  0.11561643583E+04  0.00000000000E+00 0. -1.
          3    1    6    6  503    0 -0.28962172507E+02  0.18108825887E+02  0.12030216232E+00  0.34157744128E+02  0.00000000000E+00 0. -1.
         -3    1    6    6    0  503 -0.17968478184E+03  0.75785069002E+02  0.22582519352E+03  0.29837395251E+03  0.00000000000E+00 0.  1.
<mgrwt>
<rscale>  0 0.20767415E+04</rscale>
<asrwt>0</asrwt>
<pdfrwt beam="1">  1        2 0.29293532E+00 0.20767415E+04</pdfrwt>
<pdfrwt beam="2">  1       -2 0.87117710E-01 0.20767415E+04</pdfrwt>
<totfact> 0.79434242E+00</totfact>
</mgrwt>
</event>
<event>
12    2  0.3623523E-008  0.1771832E+04  0.7818608E-02  0.8721424E-01
          2   -1    0    0  501    0  0.00000000000E+00  0.00000000000E+00  0.69517694894E+03  0.69517694894E+03  0.00000000000E+00 0.  1.
         -2   -1    0    0    0  501 -0.00000000000E+00 -0.00000000000E+00 -0.11289894363E+04  0.11289894363E+04  0.00000000000E+00 0. -1.
         23    2    1    2    0    0  0.45275145381E+03 -0.41341181705E+03 -0.39937747113E+03  0.73739295570E+03  0.91393639138E+02 0.  0.
        254    2    1    2    0    0 -0.45275145381E+03  0.41341181705E+03 -0.34435016258E+02  0.10867734296E+04  0.89665908096E+03 0.  0.
         23    2    4    4    0    0 -0.33765900816E+03 -0.18697059979E+03 -0.20418918930E+03  0.44585259215E+03  0.90109366460E+02 0.  0.
         23    2    4    4    0    0 -0.11509244565E+03  0.60038241684E+03  0.16975417304E+03  0.64092083741E+03  0.90872014774E+02 0.  0.
          1    1    3    3  502    0  0.28853872911E+03 -0.21777674557E+03 -0.26914391134E+03  0.45068808961E+03  0.00000000000E+00 0. -1.
         -1    1    3    3    0  502  0.16421272470E+03 -0.19563507148E+03 -0.13023355979E+03  0.28670486609E+03  0.00000000000E+00 0.  1.
         11    1    5    5    0    0 -0.33970091220E+03 -0.18659021241E+03 -0.19023185863E+03  0.43174156292E+03  0.00000000000E+00 0.  1.
        -11    1    5    5    0    0  0.20419040360E+01 -0.38038738474E+00 -0.13957330668E+02  0.14111029234E+02  0.00000000000E+00 0. -1.
          4    1    6    6  503    0  0.14223069403E+01  0.70845377912E+02 -0.55628692170E+01  0.71077676119E+02  0.00000000000E+00 0. -1.
         -4    1    6    6    0  503 -0.11651475259E+03  0.52953703893E+03  0.17531704226E+03  0.56984316129E+03  0.00000000000E+00 0.  1.
<mgrwt>
<rscale>  0 0.17718323E+04</rscale>
<asrwt>0</asrwt>
<pdfrwt beam="1">  1        2 0.10695030E+00 0.17718323E+04</pdfrwt>
<pdfrwt beam="2">  1       -2 0.17369068E+00 0.17718323E+04</pdfrwt>
<totfact> 0.78433337E+00</totfact>
</mgrwt>
</event>
<event>
12    2  0.3623523E-008  0.1510841E+04  0.7818608E-02  0.8877276E-01
         -2   -1    0    0    0  501 -0.00000000000E+00  0.00000000000E+00  0.84310544225E+03  0.84310544225E+03  0.00000000000E+00 0.  1.
          2   -1    0    0  501    0  0.00000000000E+00 -0.00000000000E+00 -0.67685482913E+03  0.67685482913E+03  0.00000000000E+00 0. -1.
         23    2    1    2    0    0  0.34317087906E+01 -0.28652765164E+03  0.44331252700E+03  0.53576545736E+03  0.91699274402E+02 0.  0.
        254    2    1    2    0    0 -0.34317087906E+01  0.28652765164E+03 -0.27706191388E+03  0.98419481401E+03  0.89987013287E+03 0.  0.
         23    2    4    4    0    0 -0.20003765749E+03  0.50550980079E+03 -0.36775492753E+03  0.66260020798E+03  0.90775138568E+02 0.  0.
         23    2    4    4    0    0  0.19660594870E+03 -0.21898214915E+03  0.90693013643E+02  0.32159460604E+03  0.92686499545E+02 0.  0.
          1    1    3    3  502    0 -0.17429156791E+02 -0.30650783718E+02  0.19586835377E+02  0.40334726589E+02  0.00000000000E+00 0. -1.
         -1    1    3    3    0  502  0.20860865582E+02 -0.25587686793E+03  0.42372569163E+03  0.49543073077E+03  0.00000000000E+00 0.  1.
         11    1    5    5    0    0 -0.10700815547E+03  0.37836066229E+03 -0.25065147644E+03  0.46629786483E+03  0.00000000000E+00 0. -1.
        -11    1    5    5    0    0 -0.93029502024E+02  0.12714913850E+03 -0.11710345109E+03  0.19630234315E+03  0.00000000000E+00 0.  1.
          2    1    6    6  503    0 -0.81552261035E+00 -0.44581568376E+02  0.65914578945E+01  0.45073591305E+02  0.00000000000E+00 0. -1.
         -2    1    6    6    0  503  0.19742147131E+03 -0.17440058077E+03  0.84101555749E+02  0.27652101473E+03  0.00000000000E+00 0.  1.
<mgrwt>
<rscale>  0 0.15108408E+04</rscale>
<asrwt>0</asrwt>
<pdfrwt beam="1">  1        2 0.10413151E+00 0.15108408E+04</pdfrwt>
<pdfrwt beam="2">  1       -2 0.12970853E+00 0.15108408E+04</pdfrwt>
<totfact> 0.18020199E+01</totfact>
</mgrwt>
</event>
<event>
12    2  0.3623523E-008  0.1202028E+04  0.7818608E-02  0.9111083E-01
         -1   -1    0    0    0  501 -0.00000000000E+00  0.00000000000E+00  0.26418576345E+03  0.26418576345E+03  0.00000000000E+00 0.  1.
          1   -1    0    0  501    0  0.00000000000E+00 -0.00000000000E+00 -0.13672868067E+04  0.13672868067E+04  0.00000000000E+00 0. -1.
         23    2    1    2    0    0  0.15328476249E+03  0.18819411666E+03 -0.14198816432E+03  0.29529121628E+03  0.90127796205E+02 0.  0.
        254    2    1    2    0    0 -0.15328476249E+03 -0.18819411666E+03 -0.96111287893E+03  0.13361813539E+04  0.89595167304E+03 0.  0.
         23    2    4    4    0    0  0.18062120209E+03 -0.25511576642E+03 -0.92676943483E+03  0.98201214821E+03  0.87967044838E+02 0.  0.
         23    2    4    4    0    0 -0.33390596459E+03  0.66921649766E+02 -0.34343444105E+02  0.35416920566E+03  0.91020073029E+02 0.  0.
          3    1    3    3  502    0  0.13167519205E+03  0.15997775858E+03 -0.76667822282E+02  0.22092802994E+03  0.00000000000E+00 0. -1.
         -3    1    3    3    0  502  0.21609570445E+02  0.28216358074E+02 -0.65320342042E+02  0.74363186338E+02  0.00000000000E+00 0.  1.
         11    1    5    5    0    0  0.43696060313E+02 -0.51974906244E+02 -0.10976947201E+03  0.12907390733E+03  0.00000000000E+00 0.  1.
        -11    1    5    5    0    0  0.13692514178E+03 -0.20314086018E+03 -0.81699996281E+03  0.85293824088E+03  0.00000000000E+00 0. -1.
          3    1    6    6  503    0 -0.26056955884E+03  0.71647507877E+02  0.60558481204E+01  0.27030821977E+03  0.00000000000E+00 0. -1.
         -3    1    6    6    0  503 -0.73336405743E+02 -0.47258581117E+01 -0.40399292225E+02  0.83860985891E+02  0.00000000000E+00 0.  1.
<mgrwt>
<rscale>  0 0.12020278E+04</rscale>
<asrwt>0</asrwt>
<pdfrwt beam="1">  1        1 0.21035182E+00 0.12020278E+04</pdfrwt>
<pdfrwt beam="2">  1       -1 0.40643964E-01 0.12020278E+04</pdfrwt>
<totfact> 0.47404245E+01</totfact>
</mgrwt>
</event>
<event>
12    2  0.3623523E-008  0.5573959E+04  0.7818608E-02  0.7745594E-01
         -1   -1    0    0    0  501 -0.00000000000E+00  0.00000000000E+00  0.36814240334E+04  0.36814240334E+04  0.00000000000E+00 0.  1.
          1   -1    0    0  501    0  0.00000000000E+00 -0.00000000000E+00 -0.21098506584E+04  0.21098506584E+04  0.00000000000E+00 0. -1.
         23    2    1    2    0    0  0.19201029091E+03 -0.12107224686E+04 -0.17505183249E+04  0.21390184517E+04  0.91480506402E+02 0.  0.
        254    2    1    2    0    0 -0.19201029091E+03  0.12107224686E+04  0.33220916999E+04  0.36522562400E+04  0.89440792297E+03 0.  0.
         23    2    4    4    0    0  0.16561590213E+03 -0.55909360041E+02  0.47035599322E+03  0.51005838541E+03  0.91489412433E+02 0.  0.
         23    2    4    4    0    0 -0.35762619305E+03  0.12666318286E+04  0.28517357067E+04  0.31421978546E+04  0.93584901109E+02 0.  0.
          3    1    3    3  502    0  0.16713778676E+03 -0.95750764817E+03 -0.14440166705E+04  0.17406723071E+04  0.00000000000E+00 0. -1.
         -3    1    3    3    0  502  0.24872504153E+02 -0.25321482043E+03 -0.30650165444E+03  0.39834614461E+03  0.00000000000E+00 0.  1.
         11    1    5    5    0    0  0.14496568847E+03 -0.65484106727E+02  0.31337530219E+03  0.35143605263E+03  0.00000000000E+00 0.  1.
        -11    1    5    5    0    0  0.20650213661E+02  0.95747466861E+01  0.15698069104E+03  0.15862233278E+03  0.00000000000E+00 0. -1.
          1    1    6    6  503    0 -0.47430911321E+02  0.88724093975E+02  0.18994599064E+03  0.21494449414E+03  0.00000000000E+00 0. -1.
         -1    1    6    6    0  503 -0.31019528172E+03  0.11779077347E+04  0.26617897160E+04  0.29272533605E+04  0.00000000000E+00 0.  1.
<mgrwt>
<rscale>  0 0.55739591E+04</rscale>
<asrwt>0</asrwt>
<pdfrwt beam="1">  1        1 0.32459241E+00 0.55739591E+04</pdfrwt>
<pdfrwt beam="2">  1       -1 0.56637293E+00 0.55739591E+04</pdfrwt>
<totfact> 0.10900110E-03</totfact>
</mgrwt>
</event>
<event>
12    2  0.3623523E-008  0.2792019E+04  0.7818608E-02  0.8305750E-01
          2   -1    0    0  501    0  0.00000000000E+00  0.00000000000E+00  0.12795322930E+04  0.12795322930E+04  0.00000000000E+00 0.  1.
         -2   -1    0    0    0  501 -0.00000000000E+00 -0.00000000000E+00 -0.15230895108E+04  0.15230895108E+04  0.00000000000E+00 0. -1.
         23    2    1    2    0    0  0.57118410567E+03  0.55668415799E+03 -0.10753950653E+04  0.13415041686E+04  0.83727854078E+02 0.  0.
        254    2    1    2    0    0 -0.57118410567E+03 -0.55668415799E+03  0.83183784750E+03  0.14611176353E+04  0.89819931262E+03 0.  0.
         23    2    4    4    0    0  0.27773849439E+02 -0.44141822824E+03  0.69574429093E+03  0.82941514258E+03  0.90818067820E+02 0.  0.
         23    2    4    4    0    0 -0.59895795511E+03 -0.11526592975E+03  0.13609355657E+03  0.63170249267E+03  0.92139657915E+02 0.  0.
          3    1    3    3  502    0  0.48451147921E+03  0.46335448280E+03 -0.95030215923E+03  0.11629801993E+04  0.00000000000E+00 0. -1.
         -3    1    3    3    0  502  0.86672626460E+02  0.93329675194E+02 -0.12509290608E+03  0.17852396926E+03  0.00000000000E+00 0.  1.
         11    1    5    5    0    0  0.26026935959E+02 -0.32481965092E+02  0.49787738084E+02  0.64894516835E+02  0.00000000000E+00 0.  1.
        -11    1    5    5    0    0  0.17469134799E+01 -0.40893626315E+03  0.64595655285E+03  0.76452062575E+03  0.00000000000E+00 0. -1.
          3    1    6    6  503    0 -0.43934241898E+03 -0.97132255237E+02  0.59949485964E+02  0.45392772221E+03  0.00000000000E+00 0. -1.
         -3    1    6    6    0  503 -0.15961553613E+03 -0.18133674510E+02  0.76144070606E+02  0.17777477046E+03  0.00000000000E+00 0.  1.
<mgrwt>
<rscale>  0 0.27920188E+04</rscale>
<asrwt>0</asrwt>
<pdfrwt beam="1">  1        2 0.19685112E+00 0.27920188E+04</pdfrwt>
<pdfrwt beam="2">  1       -2 0.23432146E+00 0.27920188E+04</pdfrwt>
<totfact> 0.11888637E+00</totfact>
</mgrwt>
</event>
<event>
12    2  0.3623523E-008  0.1129160E+04  0.7818608E-02  0.9177228E-01
          1   -1    0    0  501    0  0.00000000000E+00  0.00000000000E+00  0.87536335376E+03  0.87536335376E+03  0.00000000000E+00 0. -1.
         -1   -1    0    0    0  501 -0.00000000000E+00 -0.00000000000E+00 -0.36413493039E+03  0.36413493039E+03  0.00000000000E+00 0.  1.
         23    2    1    2    0    0  0.20630993141E+03  0.84212010376E+02  0.23286527062E+03  0.33481724510E+03  0.90669194705E+02 0.  0.
        254    2    1    2    0    0 -0.20630993141E+03 -0.84212010376E+02  0.27836315276E+03  0.90468103906E+03  0.83144830695E+03 0.  0.
         23    2    4    4    0    0 -0.16850889201E+03  0.83888139629E+02  0.54020348153E+03  0.57823976436E+03  0.84314630828E+02 0.  0.
         23    2    4    4    0    0 -0.37801039399E+02 -0.16810015001E+03 -0.26184032878E+03  0.32644127470E+03  0.91197417953E+02 0.  0.
          2    1    3    3  502    0  0.89673246352E+02  0.68500432100E+02  0.16203698149E+03  0.19745780227E+03  0.00000000000E+00 0. -1.
         -2    1    3    3    0  502  0.11663668505E+03  0.15711578276E+02  0.70828289127E+02  0.13735944282E+03  0.00000000000E+00 0.  1.
         11    1    5    5    0    0 -0.17181560492E+03  0.81389796929E+02  0.45747028376E+03  0.49540282767E+03  0.00000000000E+00 0. -1.
        -11    1    5    5    0    0  0.33067129179E+01  0.24983427000E+01  0.82733197772E+02  0.82836936690E+02  0.00000000000E+00 0.  1.
          4    1    6    6  503    0 -0.11757666542E+02 -0.15933535406E+03 -0.24961115839E+03  0.29636418165E+03  0.00000000000E+00 0. -1.
         -4    1    6    6    0  503 -0.26043372857E+02 -0.87647959499E+01 -0.12229170392E+02  0.30077093049E+02  0.00000000000E+00 0.  1.
<mgrwt>
<rscale>  0 0.11291596E+04</rscale>
<asrwt>0</asrwt>
<pdfrwt beam="1">  1        1 0.13467128E+00 0.11291596E+04</pdfrwt>
<pdfrwt beam="2">  1       -1 0.56020759E-01 0.11291596E+04</pdfrwt>
<totfact> 0.61135611E+01</totfact>
</mgrwt>
</event>
<event>
12    2  0.3623523E-008  0.1532668E+04  0.7818608E-02  0.8863015E-01
         -1   -1    0    0    0  501 -0.00000000000E+00  0.00000000000E+00  0.24472227762E+03  0.24472227762E+03  0.00000000000E+00 0.  1.
          1   -1    0    0  501    0  0.00000000000E+00 -0.00000000000E+00 -0.23997315708E+04  0.23997315708E+04  0.00000000000E+00 0. -1.
         23    2    1    2    0    0  0.70444684430E+02  0.19101345585E+03 -0.14964613713E+04  0.15136615096E+04  0.10161661153E+03 0.  0.
        254    2    1    2    0    0 -0.70444684430E+02 -0.19101345585E+03 -0.65854792188E+03  0.11307923389E+04  0.89641360677E+03 0.  0.
         23    2    4    4    0    0 -0.27481112367E+03 -0.34575494668E+03 -0.72112394850E+03  0.85051130005E+03  0.91005964428E+02 0.  0.
         23    2    4    4    0    0  0.20436643924E+03  0.15474149083E+03  0.62576026623E+02  0.28028103884E+03  0.94504662074E+02 0.  0.
          3    1    3    3  502    0  0.65418075285E+02  0.40681007895E+02 -0.52696777099E+03  0.53256877550E+03  0.00000000000E+00 0. -1.
         -3    1    3    3    0  502  0.50266091447E+01  0.15033244796E+03 -0.96949360035E+03  0.98109273406E+03  0.00000000000E+00 0.  1.
         11    1    5    5    0    0 -0.60041939787E+02 -0.87074847697E+02 -0.25246084036E+03  0.27372164611E+03  0.00000000000E+00 0.  1.
        -11    1    5    5    0    0 -0.21476918388E+03 -0.25868009899E+03 -0.46866310814E+03  0.57678965394E+03  0.00000000000E+00 0. -1.
          4    1    6    6  503    0  0.17530024879E+03  0.16657131041E+03  0.56004444680E+02  0.24821900915E+03  0.00000000000E+00 0. -1.
         -4    1    6    6    0  503  0.29066190449E+02 -0.11829819585E+02  0.65715819436E+01  0.32062029690E+02  0.00000000000E+00 0.  1.
<mgrwt>
<rscale>  0 0.15326680E+04</rscale>
<asrwt>0</asrwt>
<pdfrwt beam="1">  1        1 0.36918948E+00 0.15326680E+04</pdfrwt>
<pdfrwt beam="2">  1       -1 0.37649580E-01 0.15326680E+04</pdfrwt>
<totfact> 0.10450654E+01</totfact>
</mgrwt>
</event>
<event>
12    2  0.3623523E-008  0.1728684E+04  0.7818608E-02  0.8745172E-01
         -2   -1    0    0    0  501 -0.00000000000E+00  0.00000000000E+00  0.84910313074E+03  0.84910313074E+03  0.00000000000E+00 0. -1.
          2   -1    0    0  501    0  0.00000000000E+00 -0.00000000000E+00 -0.87985460959E+03  0.87985460959E+03  0.00000000000E+00 0.  1.
         23    2    1    2    0    0  0.36971991697E+03 -0.50078081501E+03 -0.57645536918E+02  0.63193740137E+03  0.92453391676E+02 0.  0.
        254    2    1    2    0    0 -0.36971991697E+03  0.50078081501E+03  0.26894058072E+02  0.10970203390E+04  0.90291532940E+03 0.  0.
         23    2    4    4    0    0 -0.22893340837E+03  0.58645935481E+03  0.34762861941E+03  0.72526578015E+03  0.93913335160E+02 0.  0.
         23    2    4    4    0    0 -0.14078650860E+03 -0.85678539795E+02 -0.32073456133E+03  0.37175455882E+03  0.90383294817E+02 0.  0.
          4    1    3    3  502    0  0.27972283557E+03 -0.36534614619E+03 -0.82402483847E+02  0.46745357055E+03  0.00000000000E+00 0.  1.
         -4    1    3    3    0  502  0.89997081403E+02 -0.13543466882E+03  0.24756946929E+02  0.16448383082E+03  0.00000000000E+00 0. -1.
         11    1    5    5    0    0 -0.17058673046E+03  0.41292549243E+03  0.29272512731E+03  0.53413041017E+03  0.00000000000E+00 0. -1.
        -11    1    5    5    0    0 -0.58346677906E+02  0.17353386237E+03  0.54903492095E+02  0.19113536998E+03  0.00000000000E+00 0.  1.
          1    1    6    6  503    0 -0.10800240795E+03 -0.47964135974E+02 -0.28983639597E+03  0.31300194071E+03  0.00000000000E+00 0. -1.
         -1    1    6    6    0  503 -0.32784100655E+02 -0.37714403821E+02 -0.30898165368E+02  0.58752618108E+02  0.00000000000E+00 0.  1.
<mgrwt>
<rscale>  0 0.17286842E+04</rscale>
<asrwt>0</asrwt>
<pdfrwt beam="1">  1        2 0.13536225E+00 0.17286842E+04</pdfrwt>
<pdfrwt beam="2">  1       -2 0.13063125E+00 0.17286842E+04</pdfrwt>
<totfact> 0.12324912E+01</totfact>
</mgrwt>
</event>
<event>
12    2  0.3623523E-008  0.1236091E+04  0.7818608E-02  0.9081840E-01
          2   -1    0    0  501    0  0.00000000000E+00  0.00000000000E+00  0.14932124889E+04  0.14932124889E+04  0.00000000000E+00 0. -1.
         -2   -1    0    0    0  501 -0.00000000000E+00 -0.00000000000E+00 -0.25581116644E+03  0.25581116644E+03  0.00000000000E+00 0.  1.
         23    2    1    2    0    0 -0.12510625577E+03 -0.15438207174E+03  0.20485865472E+02  0.21974082878E+03  0.91547593312E+02 0.  0.
        254    2    1    2    0    0  0.12510625577E+03  0.15438207174E+03  0.12169154570E+04  0.15292828265E+04  0.90461999471E+03 0.  0.
         23    2    4    4    0    0 -0.19595370064E+03 -0.22211720149E+03  0.85381725028E+03  0.90816051938E+03  0.89541767369E+02 0.  0.
         23    2    4    4    0    0  0.32105995640E+03  0.37649927322E+03  0.36309820670E+03  0.62112230716E+03  0.95506096139E+02 0.  0.
          4    1    3    3  502    0 -0.81954311631E+02 -0.45152318682E+02 -0.19682177074E+02  0.95617096649E+02  0.00000000000E+00 0.  1.
         -4    1    3    3    0  502 -0.43151944137E+02 -0.10922975306E+03  0.40168042546E+02  0.12412373213E+03  0.00000000000E+00 0. -1.
         11    1    5    5    0    0 -0.73753149860E+02 -0.83280787918E+02  0.45717775761E+03  0.47051750106E+03  0.00000000000E+00 0.  1.
        -11    1    5    5    0    0 -0.12220055078E+03 -0.13883641357E+03  0.39663949267E+03  0.43764301832E+03  0.00000000000E+00 0. -1.
          3    1    6    6  503    0  0.36637824503E+02  0.64448310752E+01  0.27692555038E+02  0.46376110622E+02  0.00000000000E+00 0. -1.
         -3    1    6    6    0  503  0.28442213190E+03  0.37005444215E+03  0.33540565166E+03  0.57474619654E+03  0.00000000000E+00 0.  1.
<mgrwt>
<rscale>  0 0.12360913E+04</rscale>
<asrwt>0</asrwt>
<pdfrwt beam="1">  1        2 0.22972499E+00 0.12360913E+04</pdfrwt>
<pdfrwt beam="2">  1       -2 0.39355565E-01 0.12360913E+04</pdfrwt>
<totfact> 0.76930830E+01</totfact>
</mgrwt>
</event>
<event>
12    2  0.3623523E-008  0.2836260E+04  0.7818608E-02  0.8292099E-01
          2   -1    0    0  501    0  0.00000000000E+00  0.00000000000E+00  0.19555281425E+04  0.19555281425E+04  0.00000000000E+00 0. -1.
         -2   -1    0    0    0  501 -0.00000000000E+00 -0.00000000000E+00 -0.10284143464E+04  0.10284143464E+04  0.00000000000E+00 0.  1.
         23    2    1    2    0    0 -0.84254756976E+03 -0.49378389160E+03 -0.45208020937E+03  0.10802229411E+04  0.93787781363E+02 0.  0.
        254    2    1    2    0    0  0.84254756976E+03  0.49378389160E+03  0.13791940054E+04  0.19037195478E+04  0.87650617406E+03 0.  0.
         23    2    4    4    0    0  0.48010645865E+03  0.66490607096E+03  0.59210258227E+03  0.10157629946E+04  0.92664440144E+02 0.  0.
         23    2    4    4    0    0  0.36244111111E+03 -0.17112217936E+03  0.78709142313E+03  0.88795655316E+03  0.91145886621E+02 0.  0.
          3    1    3    3  502    0 -0.54329250957E+03 -0.33908170415E+03 -0.34070295449E+03  0.72541137035E+03  0.00000000000E+00 0. -1.
         -3    1    3    3    0  502 -0.29925506019E+03 -0.15470218745E+03 -0.11137725487E+03  0.35481157078E+03  0.00000000000E+00 0.  1.
         11    1    5    5    0    0  0.40091231514E+03  0.60255349642E+03  0.53400404486E+03  0.89942299304E+03  0.00000000000E+00 0.  1.
        -11    1    5    5    0    0  0.79194143515E+02  0.62352574542E+02  0.58098537404E+02  0.11634000158E+03  0.00000000000E+00 0. -1.
          1    1    6    6  503    0  0.22339966038E+03 -0.60229340454E+02  0.48590565269E+03  0.53818146105E+03  0.00000000000E+00 0. -1.
         -1    1    6    6    0  503  0.13904145073E+03 -0.11089283891E+03  0.30118577045E+03  0.34977509211E+03  0.00000000000E+00 0.  1.
<mgrwt>
<rscale>  0 0.28362604E+04</rscale>
<asrwt>0</asrwt>
<pdfrwt beam="1">  1        2 0.30085048E+00 0.28362604E+04</pdfrwt>
<pdfrwt beam="2">  1       -2 0.15821759E+00 0.28362604E+04</pdfrwt>
<totfact> 0.15936439E+00</totfact>
</mgrwt>
</event>
<event>
12    2  0.3623523E-008  0.1466809E+04  0.7818608E-02  0.8906830E-01
         -2   -1    0    0    0  501 -0.00000000000E+00  0.00000000000E+00  0.39877905183E+03  0.39877905183E+03  0.00000000000E+00 0.  1.
          2   -1    0    0  501    0  0.00000000000E+00 -0.00000000000E+00 -0.13488221594E+04  0.13488221594E+04  0.00000000000E+00 0. -1.
         23    2    1    2    0    0  0.38650107422E+03 -0.17037681598E+03 -0.48756128482E+03  0.65124611213E+03  0.89410023568E+02 0.  0.
        254    2    1    2    0    0 -0.38650107422E+03  0.17037681598E+03 -0.46248182272E+03  0.10963550991E+04  0.89982983232E+03 0.  0.
         23    2    4    4    0    0 -0.35435069904E+03 -0.32392809113E+03 -0.26369887553E+03  0.55519376910E+03  0.90604625503E+02 0.  0.
         23    2    4    4    0    0 -0.32150375180E+02  0.49430490711E+03 -0.19878294719E+03  0.54116132997E+03  0.89274504481E+02 0.  0.
          3    1    3    3  502    0  0.13705485029E+03 -0.69501878581E+02 -0.24373391065E+03  0.28813323709E+03  0.00000000000E+00 0. -1.
         -3    1    3    3    0  502  0.24944622392E+03 -0.10087493740E+03 -0.24382737417E+03  0.36311287504E+03  0.00000000000E+00 0.  1.
         11    1    5    5    0    0 -0.35119621659E+03 -0.31321498868E+03 -0.23835695094E+03  0.52750018743E+03  0.00000000000E+00 0.  1.
        -11    1    5    5    0    0 -0.31544824451E+01 -0.10713102452E+02 -0.25341924592E+02  0.27693581669E+02  0.00000000000E+00 0. -1.
          2    1    6    6  503    0 -0.51131551330E+02  0.15041249492E+03 -0.66233905129E+02  0.17211997083E+03  0.00000000000E+00 0. -1.
         -2    1    6    6    0  503  0.18981176150E+02  0.34389241218E+03 -0.13254904206E+03  0.36904135914E+03  0.00000000000E+00 0.  1.
<mgrwt>
<rscale>  0 0.14668088E+04</rscale>
<asrwt>0</asrwt>
<pdfrwt beam="1">  1        2 0.20751110E+00 0.14668088E+04</pdfrwt>
<pdfrwt beam="2">  1       -2 0.61350623E-01 0.14668088E+04</pdfrwt>
<totfact> 0.37052938E+01</totfact>
</mgrwt>
</event>
<event>
12    2  0.3623523E-008  0.1658212E+04  0.7818608E-02  0.8785563E-01
          3   -1    0    0  501    0  0.00000000000E+00  0.00000000000E+00  0.10867333733E+04  0.10867333733E+04  0.00000000000E+00 0. -1.
         -3   -1    0    0    0  501 -0.00000000000E+00 -0.00000000000E+00 -0.63255334006E+03  0.63255334006E+03  0.00000000000E+00 0.  1.
         23    2    1    2    0    0 -0.11282814802E+03 -0.21075538832E+03 -0.38897448843E+03  0.46539170169E+03  0.90223382034E+02 0.  0.
        254    2    1    2    0    0  0.11282814802E+03  0.21075538832E+03  0.84315452168E+03  0.12538950117E+04  0.89676927254E+03 0.  0.
         23    2    4    4    0    0  0.38058631790E+03  0.38092208578E+03  0.31165748104E+03  0.62824926949E+03  0.87287904787E+02 0.  0.
         23    2    4    4    0    0 -0.26775816988E+03 -0.17016669747E+03  0.53149704064E+03  0.62564574217E+03  0.91062330418E+02 0.  0.
          4    1    3    3  502    0 -0.68560283875E+01  0.58332884634E+01 -0.16600524569E+01  0.91535869312E+01  0.00000000000E+00 0. -1.
         -4    1    3    3    0  502 -0.10597211963E+03 -0.21658867678E+03 -0.38731443598E+03  0.45623811476E+03  0.00000000000E+00 0.  1.
         11    1    5    5    0    0  0.14145946426E+03  0.19166478726E+03  0.10810041324E+03  0.26159485860E+03  0.00000000000E+00 0.  1.
        -11    1    5    5    0    0  0.23912685364E+03  0.18925729852E+03  0.20355706780E+03  0.36665441089E+03  0.00000000000E+00 0. -1.
          4    1    6    6  503    0 -0.98384962346E+02 -0.16584372933E+02  0.13370237398E+03  0.16682615817E+03  0.00000000000E+00 0. -1.
         -4    1    6    6    0  503 -0.16937320754E+03 -0.15358232454E+03  0.39779466666E+03  0.45881958400E+03  0.00000000000E+00 0.  1.
<mgrwt>
<rscale>  0 0.16582121E+04</rscale>
<asrwt>0</asrwt>
<pdfrwt beam="1">  1        3 0.16718975E+00 0.16582121E+04</pdfrwt>
<pdfrwt beam="2">  1       -3 0.97315899E-01 0.16582121E+04</pdfrwt>
<totfact> 0.56522910E-01</totfact>
</mgrwt>
</event>
<event>
12    2  0.3623523E-008  0.2008116E+04  0.7818608E-02  0.8602835E-01
         -1   -1    0    0    0  501 -0.00000000000E+00  0.00000000000E+00  0.53526240756E+03  0.53526240756E+03  0.00000000000E+00 0.  1.
          1   -1    0    0  501    0  0.00000000000E+00 -0.00000000000E+00 -0.18834362494E+04  0.18834362494E+04  0.00000000000E+00 0. -1.
         23    2    1    2    0    0  0.57924266735E+03 -0.53449522878E+03 -0.55827775927E+03  0.97024320245E+03  0.92144441754E+02 0.  0.
        254    2    1    2    0    0 -0.57924266735E+03  0.53449522878E+03 -0.78989608257E+03  0.14484554545E+04  0.92351511365E+03 0.  0.
         23    2    4    4    0    0 -0.22980678159E+02  0.61692118362E+03 -0.54274097556E+03  0.82711367228E+03  0.91811774570E+02 0.  0.
         23    2    4    4    0    0 -0.55626198919E+03 -0.82425954841E+02 -0.24715510701E+03  0.62134178222E+03  0.93586990356E+02 0.  0.
          3    1    3    3  502    0  0.28255592012E+03 -0.22987437880E+03 -0.30664525153E+03  0.47614219337E+03  0.00000000000E+00 0. -1.
         -3    1    3    3    0  502  0.29668674723E+03 -0.30462084998E+03 -0.25163250774E+03  0.49410100909E+03  0.00000000000E+00 0.  1.
         11    1    5    5    0    0  0.55768767623E+01  0.21633461784E+03 -0.13642805241E+03  0.25582099585E+03  0.00000000000E+00 0. -1.
        -11    1    5    5    0    0 -0.28557554921E+02  0.40058656578E+03 -0.40631292316E+03  0.57129267643E+03  0.00000000000E+00 0.  1.
          1    1    6    6  503    0 -0.17267921919E+03  0.17832257712E+02 -0.74209227272E+02  0.18879383350E+03  0.00000000000E+00 0. -1.
         -1    1    6    6    0  503 -0.38358277001E+03 -0.10025821255E+03 -0.17294587974E+03  0.43254794873E+03  0.00000000000E+00 0.  1.
<mgrwt>
<rscale>  0 0.20081162E+04</rscale>
<asrwt>0</asrwt>
<pdfrwt beam="1">  1        1 0.28975942E+00 0.20081162E+04</pdfrwt>
<pdfrwt beam="2">  1       -1 0.82348064E-01 0.20081162E+04</pdfrwt>
<totfact> 0.48590987E+00</totfact>
</mgrwt>
</event>
<event>
12    2  0.3623523E-008  0.1355084E+04  0.7818608E-02  0.8986989E-01
         -2   -1    0    0    0  501 -0.00000000000E+00  0.00000000000E+00  0.23315291027E+03  0.23315291027E+03  0.00000000000E+00 0.  1.
          2   -1    0    0  501    0  0.00000000000E+00 -0.00000000000E+00 -0.19689359097E+04  0.19689359097E+04  0.00000000000E+00 0. -1.
         23    2    1    2    0    0  0.31966227799E+02 -0.50846089070E+02 -0.11059221577E+04  0.11115489706E+04  0.94181370650E+02 0.  0.
        254    2    1    2    0    0 -0.31966227799E+02  0.50846089070E+02 -0.62986084178E+03  0.10905398495E+04  0.88822593903E+03 0.  0.
         23    2    4    4    0    0  0.40154630716E+03  0.36160051494E+01 -0.45087343185E+03  0.61055958719E+03  0.90794524512E+02 0.  0.
         23    2    4    4    0    0 -0.43351253496E+03  0.47230083921E+02 -0.17898740993E+03  0.47998026227E+03  0.90447556413E+02 0.  0.
          1    1    3    3  502    0  0.53839352862E+02 -0.65938545773E+02 -0.84393943243E+03  0.84822186564E+03  0.00000000000E+00 0. -1.
         -1    1    3    3    0  502 -0.21873125063E+02  0.15092456702E+02 -0.26198272527E+03  0.26332710493E+03  0.00000000000E+00 0.  1.
         11    1    5    5    0    0  0.52573165170E+02  0.22528911969E+02 -0.10079782757E+03  0.11589517511E+03  0.00000000000E+00 0.  1.
        -11    1    5    5    0    0  0.34897314199E+03 -0.18912906820E+02 -0.35007560428E+03  0.49466441209E+03  0.00000000000E+00 0. -1.
          3    1    6    6  503    0 -0.32330052914E+03  0.73331475783E+02 -0.12256990636E+03  0.35344606297E+03  0.00000000000E+00 0. -1.
         -3    1    6    6    0  503 -0.11021200581E+03 -0.26101391863E+02 -0.56417503563E+02  0.12653419929E+03  0.00000000000E+00 0.  1.
<mgrwt>
<rscale>  0 0.13550840E+04</rscale>
<asrwt>0</asrwt>
<pdfrwt beam="1">  1        2 0.30291321E+00 0.13550840E+04</pdfrwt>
<pdfrwt beam="2">  1       -2 0.35869679E-01 0.13550840E+04</pdfrwt>
<totfact> 0.49641998E+01</totfact>
</mgrwt>
</event>
<event>
12    2  0.3623523E-008  0.1266108E+04  0.7818608E-02  0.9056882E-01
          3   -1    0    0  501    0  0.00000000000E+00  0.00000000000E+00  0.69426525424E+03  0.69426525424E+03  0.00000000000E+00 0. -1.
         -3   -1    0    0    0  501 -0.00000000000E+00 -0.00000000000E+00 -0.57723919595E+03  0.57723919595E+03  0.00000000000E+00 0.  1.
         23    2    1    2    0    0 -0.13672922924E+03 -0.24892762926E+03 -0.18328710761E+03  0.34994047862E+03  0.90577745745E+02 0.  0.
        254    2    1    2    0    0  0.13672922924E+03  0.24892762926E+03  0.30031316590E+03  0.92156397157E+03  0.82367002455E+03 0.  0.
         23    2    4    4    0    0  0.30780070829E+03  0.10770616754E+03 -0.18042889171E+03  0.38389153748E+03  0.92066459895E+02 0.  0.
         23    2    4    4    0    0 -0.17107147905E+03  0.14122146171E+03  0.48074205761E+03  0.53767243409E+03  0.93647040682E+02 0.  0.
          1    1    3    3  502    0 -0.65850617232E+02 -0.11271203189E+03 -0.32050419169E+02  0.13441553218E+03  0.00000000000E+00 0. -1.
         -1    1    3    3    0  502 -0.70878612007E+02 -0.13621559737E+03 -0.15123668845E+03  0.21552494644E+03  0.00000000000E+00 0.  1.
         11    1    5    5    0    0  0.22048716437E+03  0.34193093694E+02 -0.10153027532E+03  0.24513701090E+03  0.00000000000E+00 0. -1.
        -11    1    5    5    0    0  0.87313543924E+02  0.73513073849E+02 -0.78898616389E+02  0.13875452658E+03  0.00000000000E+00 0.  1.
          2    1    6    6  503    0 -0.17068771624E+03  0.96537356056E+02  0.39008301842E+03  0.43659880766E+03  0.00000000000E+00 0. -1.
         -2    1    6    6    0  503 -0.38376280972E+00  0.44684105658E+02  0.90659039189E+02  0.10107362643E+03  0.00000000000E+00 0.  1.
<mgrwt>
<rscale>  0 0.12661076E+04</rscale>
<asrwt>0</asrwt>
<pdfrwt beam="1">  1        3 0.10681004E+00 0.12661076E+04</pdfrwt>
<pdfrwt beam="2">  1       -3 0.88806030E-01 0.12661076E+04</pdfrwt>
<totfact> 0.22166661E+00</totfact>
</mgrwt>
</event>
<event>
12    2  0.3623523E-008  0.1282955E+04  0.7818608E-02  0.9043192E-01
         -1   -1    0    0    0  501 -0.00000000000E+00  0.00000000000E+00  0.99863890409E+03  0.99863890409E+03  0.00000000000E+00 0.  1.
          1   -1    0    0  501    0  0.00000000000E+00 -0.00000000000E+00 -0.41205407630E+03  0.41205407630E+03  0.00000000000E+00 0. -1.
         23    2    1    2    0    0 -0.12262537715E+03  0.27741613451E+03  0.18354048368E+03  0.36601770879E+03  0.91022849825E+02 0.  0.
        254    2    1    2    0    0  0.12262537715E+03 -0.27741613451E+03  0.40304434412E+03  0.10446752716E+04  0.91482511169E+03 0.  0.
         23    2    4    4    0    0  0.40237176842E+03  0.87372546060E+02  0.39020424246E+03  0.57654647760E+03  0.10300236975E+03 0.  0.
         23    2    4    4    0    0 -0.27974639126E+03 -0.36478868057E+03  0.12840101653E+02  0.46812879401E+03  0.87469278451E+02 0.  0.
          1    1    3    3  502    0  0.50621364030E+01  0.39239362941E+02  0.52331853033E+02  0.65604692445E+02  0.00000000000E+00 0. -1.
         -1    1    3    3    0  502 -0.12768751356E+03  0.23817677157E+03  0.13120863065E+03  0.30041301634E+03  0.00000000000E+00 0.  1.
         11    1    5    5    0    0  0.38531746819E+02  0.38797258129E+02  0.30485729621E+02  0.62604332612E+02  0.00000000000E+00 0. -1.
        -11    1    5    5    0    0  0.36384002160E+03  0.48575287931E+02  0.35971851284E+03  0.51394214499E+03  0.00000000000E+00 0.  1.
          2    1    6    6  503    0  0.33846584137E+01 -0.13070465447E+02  0.96559988973E+01  0.16599135348E+02  0.00000000000E+00 0. -1.
         -2    1    6    6    0  503 -0.28313104967E+03 -0.35171821512E+03  0.31841027561E+01  0.45152965866E+03  0.00000000000E+00 0.  1.
<mgrwt>
<rscale>  0 0.12829548E+04</rscale>
<asrwt>0</asrwt>
<pdfrwt beam="1">  1        1 0.63392935E-01 0.12829548E+04</pdfrwt>
<pdfrwt beam="2">  1       -1 0.15363675E+00 0.12829548E+04</pdfrwt>
<totfact> 0.18545920E+01</totfact>
</mgrwt>
</event>
<event>
12    2  0.3623523E-008  0.1777449E+04  0.7818608E-02  0.8718385E-01
          2   -1    0    0  501    0  0.00000000000E+00  0.00000000000E+00  0.80335317199E+03  0.80335317199E+03  0.00000000000E+00 0. -1.
         -2   -1    0    0    0  501 -0.00000000000E+00 -0.00000000000E+00 -0.98316812186E+03  0.98316812186E+03  0.00000000000E+00 0.  1.
         23    2    1    2    0    0  0.51608397170E+03 -0.40036096536E+03 -0.74559146105E+02  0.66383440355E+03  0.92116668631E+02 0.  0.
        254    2    1    2    0    0 -0.51608397170E+03  0.40036096536E+03 -0.10525580377E+03  0.11226868903E+04  0.90703665912E+03 0.  0.
         23    2    4    4    0    0 -0.66438829001E+03  0.55120973748E+03  0.28965319451E+01  0.86786774841E+03  0.89118259762E+02 0.  0.
         23    2    4    4    0    0  0.14830431831E+03 -0.15084877212E+03 -0.10815233572E+03  0.25481914189E+03  0.92121357298E+02 0.  0.
          2    1    3    3  502    0  0.51097264050E+03 -0.40168595929E+03 -0.81571705019E+02  0.65505617491E+03  0.00000000000E+00 0. -1.
         -2    1    3    3    0  502  0.51113312060E+01  0.13249939289E+01  0.70125589138E+01  0.87782286441E+01  0.00000000000E+00 0.  1.
         11    1    5    5    0    0 -0.27764270838E+03  0.23498409282E+03 -0.42642394042E+02  0.36622584721E+03  0.00000000000E+00 0.  1.
        -11    1    5    5    0    0 -0.38674558163E+03  0.31622564467E+03  0.45538925988E+02  0.50164190120E+03  0.00000000000E+00 0. -1.
          2    1    6    6  503    0  0.85996581591E+02 -0.33104466319E+02 -0.71558961553E+02  0.11667048776E+03  0.00000000000E+00 0. -1.
         -2    1    6    6    0  503  0.62307736720E+02 -0.11774430581E+03 -0.36593374165E+02  0.13814865413E+03  0.00000000000E+00 0.  1.
<mgrwt>
<rscale>  0 0.17774490E+04</rscale>
<asrwt>0</asrwt>
<pdfrwt beam="1">  1        2 0.12359280E+00 0.17774490E+04</pdfrwt>
<pdfrwt beam="2">  1       -2 0.15125663E+00 0.17774490E+04</pdfrwt>
<totfact> 0.94900492E+00</totfact>
</mgrwt>
</event>
<event>
12    2  0.3623523E-008  0.1269106E+04  0.7818608E-02  0.9054430E-01
         -2   -1    0    0    0  501 -0.00000000000E+00  0.00000000000E+00  0.99536100534E+03  0.99536100534E+03  0.00000000000E+00 0.  1.
          2   -1    0    0  501    0  0.00000000000E+00 -0.00000000000E+00 -0.40453406991E+03  0.40453406991E+03  0.00000000000E+00 0. -1.
         23    2    1    2    0    0 -0.23579814799E+03  0.20233445177E+02 -0.61898844352E+02  0.26079641170E+03  0.90405434159E+02 0.  0.
        254    2    1    2    0    0  0.23579814799E+03 -0.20233445177E+02  0.65272577978E+03  0.11390986636E+04  0.90304189428E+03 0.  0.
         23    2    4    4    0    0  0.32400185268E+03 -0.33320721098E+03  0.64652249768E+03  0.80143119538E+03  0.91084438429E+02 0.  0.
         23    2    4    4    0    0 -0.88203704690E+02  0.31297376580E+03  0.62032820938E+01  0.33766746818E+03  0.90820519474E+02 0.  0.
          2    1    3    3  502    0 -0.16127283849E+03 -0.29209155894E+02 -0.41296430284E+02  0.16901922487E+03  0.00000000000E+00 0. -1.
         -2    1    3    3    0  502 -0.74525309500E+02  0.49442601072E+02 -0.20602414068E+02  0.91777186829E+02  0.00000000000E+00 0.  1.
         11    1    5    5    0    0  0.27271800099E+03 -0.24327414195E+03  0.54682065633E+03  0.65770072707E+03  0.00000000000E+00 0. -1.
        -11    1    5    5    0    0  0.51283851688E+02 -0.89933069028E+02  0.99701841354E+02  0.14373046830E+03  0.00000000000E+00 0.  1.
          3    1    6    6  503    0 -0.55297088105E+02  0.28714571586E+03 -0.10533582160E+02  0.29261132316E+03  0.00000000000E+00 0. -1.
         -3    1    6    6    0  503 -0.32906616585E+02  0.25828049941E+02  0.16736864253E+02  0.45056145018E+02  0.00000000000E+00 0.  1.
<mgrwt>
<rscale>  0 0.12691059E+04</rscale>
<asrwt>0</asrwt>
<pdfrwt beam="1">  1        2 0.62236011E-01 0.12691059E+04</pdfrwt>
<pdfrwt beam="2">  1       -2 0.15313246E+00 0.12691059E+04</pdfrwt>
<totfact> 0.21845177E+01</totfact>
</mgrwt>
</event>
<event>
12    2  0.3623523E-008  0.1411394E+04  0.7818608E-02  0.8945612E-01
          2   -1    0    0  501    0  0.00000000000E+00  0.00000000000E+00  0.14993114471E+04  0.14993114471E+04  0.00000000000E+00 0. -1.
         -2   -1    0    0    0  501 -0.00000000000E+00 -0.00000000000E+00 -0.33215779534E+03  0.33215779534E+03  0.00000000000E+00 0.  1.
         23    2    1    2    0    0 -0.26608656509E+03 -0.19108393029E+03  0.69096639745E+03  0.77004422732E+03  0.90655507789E+02 0.  0.
        254    2    1    2    0    0  0.26608656509E+03  0.19108393029E+03  0.47618725431E+03  0.10614250151E+04  0.89025481352E+03 0.  0.
         23    2    4    4    0    0 -0.26762222215E+03 -0.12937941584E+03  0.93443499520E+02  0.32501479229E+03  0.92424242346E+02 0.  0.
         23    2    4    4    0    0  0.53370878724E+03  0.32046334614E+03  0.38274375479E+03  0.73641022282E+03  0.90914292884E+02 0.  0.
          4    1    3    3  502    0 -0.27122511653E+03 -0.19445591732E+03  0.67716472751E+03  0.75493591502E+03  0.00000000000E+00 0. -1.
         -4    1    3    3    0  502  0.51385514354E+01  0.33719870234E+01  0.13801669939E+02  0.15108312297E+02  0.00000000000E+00 0.  1.
         11    1    5    5    0    0 -0.26577260762E+03 -0.14003886993E+03  0.88969070458E+02  0.31330729253E+03  0.00000000000E+00 0. -1.
        -11    1    5    5    0    0 -0.18496145217E+01  0.10659454081E+02  0.44744290621E+01  0.11707499760E+02  0.00000000000E+00 0.  1.
          2    1    6    6  503    0  0.28900985467E+03  0.12405793059E+03  0.21072585303E+03  0.37857951790E+03  0.00000000000E+00 0.  1.
         -2    1    6    6    0  503  0.24469893257E+03  0.19640541555E+03  0.17201790175E+03  0.35783070492E+03  0.00000000000E+00 0. -1.
<mgrwt>
<rscale>  0 0.14113936E+04</rscale>
<asrwt>0</asrwt>
<pdfrwt beam="1">  1        2 0.23066329E+00 0.14113936E+04</pdfrwt>
<pdfrwt beam="2">  1       -2 0.51101200E-01 0.14113936E+04</pdfrwt>
<totfact> 0.44708479E+01</totfact>
</mgrwt>
</event>
<event>
12    2  0.3623523E-008  0.3196185E+04  0.7818608E-02  0.8189825E-01
          1   -1    0    0  501    0  0.00000000000E+00  0.00000000000E+00  0.24546906887E+04  0.24546906887E+04  0.00000000000E+00 0. -1.
         -1   -1    0    0    0  501 -0.00000000000E+00 -0.00000000000E+00 -0.10404160631E+04  0.10404160631E+04  0.00000000000E+00 0.  1.
         23    2    1    2    0    0 -0.43009975071E+03  0.13273028179E+04  0.15197873689E+03  0.14064131824E+04  0.90454060937E+02 0.  0.
        254    2    1    2    0    0  0.43009975071E+03 -0.13273028179E+04  0.12622958886E+04  0.20886935694E+04  0.90693514114E+03 0.  0.
         23    2    4    4    0    0  0.98374980031E+02 -0.12104851614E+04  0.66003551715E+03  0.13853171518E+04  0.92221279555E+02 0.  0.
         23    2    4    4    0    0  0.33172477068E+03 -0.11681765654E+03  0.60226037150E+03  0.70337641763E+03  0.91286041831E+02 0.  0.
          3    1    3    3  502    0 -0.10164741414E+03  0.20682263689E+03  0.18893344366E+02  0.23122447620E+03  0.00000000000E+00 0. -1.
         -3    1    3    3    0  502 -0.32845233657E+03  0.11204801810E+04  0.13308539252E+03  0.11751887062E+04  0.00000000000E+00 0.  1.
         11    1    5    5    0    0  0.10444662769E+03 -0.94309204397E+03  0.54429034118E+03  0.10938846726E+04  0.00000000000E+00 0.  1.
        -11    1    5    5    0    0 -0.60716476544E+01 -0.26739311742E+03  0.11574517597E+03  0.29143247916E+03  0.00000000000E+00 0. -1.
          4    1    6    6  503    0  0.30084584098E+03 -0.13217631181E+03  0.55248694307E+03  0.64282238581E+03  0.00000000000E+00 0. -1.
         -4    1    6    6    0  503  0.30878929701E+02  0.15358655275E+02  0.49773428428E+02  0.60554031813E+02  0.00000000000E+00 0.  1.
<mgrwt>
<rscale>  0 0.31961850E+04</rscale>
<asrwt>0</asrwt>
<pdfrwt beam="1">  1        1 0.37764472E+00 0.31961850E+04</pdfrwt>
<pdfrwt beam="2">  1       -1 0.16006401E+00 0.31961850E+04</pdfrwt>
<totfact> 0.35569818E-01</totfact>
</mgrwt>
</event>
<event>
12    2  0.3623523E-008  0.3801594E+04  0.7818608E-02  0.8045813E-01
          2   -1    0    0  501    0  0.00000000000E+00  0.00000000000E+00  0.23505795815E+04  0.23505795815E+04  0.00000000000E+00 0. -1.
         -2   -1    0    0    0  501 -0.00000000000E+00 -0.00000000000E+00 -0.15370798931E+04  0.15370798931E+04  0.00000000000E+00 0.  1.
         23    2    1    2    0    0  0.86165711066E+02 -0.94517986164E+03 -0.11676483614E+04  0.15080165110E+04  0.99607232992E+02 0.  0.
        254    2    1    2    0    0 -0.86165711066E+02  0.94517986164E+03  0.19811480498E+04  0.23796429636E+04  0.91485711356E+03 0.  0.
         23    2    4    4    0    0 -0.98083952419E+02 -0.84169787024E+02  0.77881137512E+01  0.15204227113E+03  0.79694307992E+02 0.  0.
         23    2    4    4    0    0  0.11918241353E+02  0.10293496487E+04  0.19733599360E+04  0.22276006924E+04  0.91392910364E+02 0.  0.
          1    1    3    3  502    0  0.23594327889E+02 -0.27593434335E+03 -0.27176400838E+03  0.38801047718E+03  0.00000000000E+00 0. -1.
         -1    1    3    3    0  502  0.62571383177E+02 -0.66924551829E+03 -0.89588435305E+03  0.11200060338E+04  0.00000000000E+00 0.  1.
         11    1    5    5    0    0 -0.49620006440E+02 -0.78026366797E+02 -0.21701048419E+02  0.94979968715E+02  0.00000000000E+00 0.  1.
        -11    1    5    5    0    0 -0.48463945979E+02 -0.61434202268E+01  0.29489162170E+02  0.57062302420E+02  0.00000000000E+00 0. -1.
          1    1    6    6  503    0  0.29862298114E+02  0.32494197727E+03  0.69870438644E+03  0.77114646149E+03  0.00000000000E+00 0. -1.
         -1    1    6    6    0  503 -0.17944056761E+02  0.70440767139E+03  0.12746555496E+04  0.14564542309E+04  0.00000000000E+00 0.  1.
<mgrwt>
<rscale>  0 0.38015937E+04</rscale>
<asrwt>0</asrwt>
<pdfrwt beam="1">  1        2 0.36162763E+00 0.38015937E+04</pdfrwt>
<pdfrwt beam="2">  1       -2 0.23647383E+00 0.38015937E+04</pdfrwt>
<totfact> 0.26500348E-01</totfact>
</mgrwt>
</event>
<event>
12    2  0.3623523E-008  0.1919131E+04  0.7818608E-02  0.8645392E-01
          1   -1    0    0  501    0  0.00000000000E+00  0.00000000000E+00  0.15903546851E+04  0.15903546851E+04  0.00000000000E+00 0. -1.
         -1   -1    0    0    0  501 -0.00000000000E+00 -0.00000000000E+00 -0.57896916292E+03  0.57896916292E+03  0.00000000000E+00 0.  1.
         23    2    1    2    0    0  0.57982352483E+03  0.25669348189E+03  0.77700988742E+03  0.10070745897E+04  0.91476775643E+02 0.  0.
        254    2    1    2    0    0 -0.57982352483E+03 -0.25669348189E+03  0.23437563477E+03  0.11622492583E+04  0.94541236332E+03 0.  0.
         23    2    4    4    0    0 -0.13549832380E+03  0.13441070272E+02  0.53178628509E+03  0.55640680149E+03  0.90837313990E+02 0.  0.
         23    2    4    4    0    0 -0.44432520103E+03 -0.27013455216E+03 -0.29741065032E+03  0.60584245683E+03  0.90523074570E+02 0.  0.
          2    1    3    3  502    0  0.50478423291E+03  0.25516642808E+03  0.68642645221E+03  0.88943707035E+03  0.00000000000E+00 0. -1.
         -2    1    3    3    0  502  0.75039291923E+02  0.15270538080E+01  0.90583435200E+02  0.11763751935E+03  0.00000000000E+00 0.  1.
         11    1    5    5    0    0  0.28334047240E+01 -0.14608668430E+02  0.12387616825E+03  0.12476676815E+03  0.00000000000E+00 0. -1.
        -11    1    5    5    0    0 -0.13833172852E+03  0.28049738701E+02  0.40791011685E+03  0.43164003334E+03  0.00000000000E+00 0.  1.
          4    1    6    6  503    0 -0.24619753716E+02 -0.41129330611E+02 -0.42259454048E+02  0.63903173364E+02  0.00000000000E+00 0.  1.
         -4    1    6    6    0  503 -0.41970544732E+03 -0.22900522155E+03 -0.25515119627E+03  0.54193928347E+03  0.00000000000E+00 0. -1.
<mgrwt>
<rscale>  0 0.19191314E+04</rscale>
<asrwt>0</asrwt>
<pdfrwt beam="1">  1        1 0.24466995E+00 0.19191314E+04</pdfrwt>
<pdfrwt beam="2">  1       -1 0.89072180E-01 0.19191314E+04</pdfrwt>
<totfact> 0.65405165E+00</totfact>
</mgrwt>
</event>
<event>
12    2  0.3623523E-008  0.1747553E+04  0.7818608E-02  0.8734698E-01
         -1   -1    0    0    0  501 -0.00000000000E+00  0.00000000000E+00  0.49505235270E+03  0.49505235270E+03  0.00000000000E+00 0.  1.
          1   -1    0    0  501    0  0.00000000000E+00 -0.00000000000E+00 -0.15422318627E+04  0.15422318627E+04  0.00000000000E+00 0. -1.
         23    2    1    2    0    0  0.49330521795E+02 -0.35627691309E+03  0.23028166332E+03  0.43655840887E+03  0.90481272701E+02 0.  0.
        254    2    1    2    0    0 -0.49330521795E+02  0.35627691309E+03 -0.12774611734E+04  0.16007258066E+04  0.89501358602E+03 0.  0.
         23    2    4    4    0    0  0.12371956315E+03  0.21305994961E+03  0.36039580101E+02  0.26518444009E+03  0.91229729232E+02 0.  0.
         23    2    4    4    0    0 -0.17305008494E+03  0.14321696348E+03 -0.13135007535E+04  0.13355413665E+04  0.89045391189E+02 0.  0.
          4    1    3    3  502    0  0.19085102406E+02 -0.12891585802E+03  0.34023445826E+02  0.13468902868E+03  0.00000000000E+00 0. -1.
         -4    1    3    3    0  502  0.30245419389E+02 -0.22736105508E+03  0.19625821750E+03  0.30186938019E+03  0.00000000000E+00 0.  1.
         11    1    5    5    0    0  0.51333960024E+02  0.95436722751E+02  0.61712397890E+02  0.12470671014E+03  0.00000000000E+00 0.  1.
        -11    1    5    5    0    0  0.72385603123E+02  0.11762322686E+03 -0.25672817790E+02  0.14047772995E+03  0.00000000000E+00 0. -1.
          1    1    6    6  503    0 -0.86743937891E+01  0.32595199798E+02 -0.36573321802E+03  0.36728528274E+03  0.00000000000E+00 0. -1.
         -1    1    6    6    0  503 -0.16437569115E+03  0.11062176368E+03 -0.94776753545E+03  0.96825608374E+03  0.00000000000E+00 0.  1.
<mgrwt>
<rscale>  0 0.17475532E+04</rscale>
<asrwt>0</asrwt>
<pdfrwt beam="1">  1        1 0.23726644E+00 0.17475532E+04</pdfrwt>
<pdfrwt beam="2">  1       -1 0.76161901E-01 0.17475532E+04</pdfrwt>
<totfact> 0.10034049E+01</totfact>
</mgrwt>
</event>
<event>
12    2  0.3623523E-008  0.1573439E+04  0.7818608E-02  0.8837034E-01
          1   -1    0    0  501    0  0.00000000000E+00  0.00000000000E+00  0.15130385245E+04  0.15130385245E+04  0.00000000000E+00 0. -1.
         -1   -1    0    0    0  501 -0.00000000000E+00 -0.00000000000E+00 -0.40906266873E+03  0.40906266873E+03  0.00000000000E+00 0.  1.
         23    2    1    2    0    0 -0.36206027845E+03 -0.28979650895E+03  0.64281584502E+03  0.79782288778E+03  0.90771624595E+02 0.  0.
        254    2    1    2    0    0  0.36206027845E+03  0.28979650895E+03  0.46116001078E+03  0.11242783055E+04  0.91447443417E+03 0.  0.
         23    2    4    4    0    0 -0.70580254377E+02  0.22151197145E+03  0.60445915124E+03  0.65398688831E+03  0.90988234177E+02 0.  0.
         23    2    4    4    0    0  0.43264053283E+03  0.68284537501E+02 -0.14329914047E+03  0.47029141715E+03  0.93801730668E+02 0.  0.
          2    1    3    3  502    0 -0.25232249939E+03 -0.18094407092E+03  0.35898828518E+03  0.47463669201E+03  0.00000000000E+00 0. -1.
         -2    1    3    3    0  502 -0.10973777906E+03 -0.10885243803E+03  0.28382755984E+03  0.32318619578E+03  0.00000000000E+00 0.  1.
         11    1    5    5    0    0 -0.71993421636E+02  0.20131026897E+03  0.59377040835E+03  0.63108808813E+03  0.00000000000E+00 0.  1.
        -11    1    5    5    0    0  0.14131672593E+01  0.20201702487E+02  0.10688742893E+02  0.22898800181E+02  0.00000000000E+00 0. -1.
          3    1    6    6  503    0  0.14684429891E+03  0.53157329961E+02 -0.15758665011E+02  0.15696268784E+03  0.00000000000E+00 0. -1.
         -3    1    6    6    0  503  0.28579623392E+03  0.15127207540E+02 -0.12754047546E+03  0.31332872931E+03  0.00000000000E+00 0.  1.
<mgrwt>
<rscale>  0 0.15734390E+04</rscale>
<asrwt>0</asrwt>
<pdfrwt beam="1">  1        1 0.23277515E+00 0.15734390E+04</pdfrwt>
<pdfrwt beam="2">  1       -1 0.62932719E-01 0.15734390E+04</pdfrwt>
<totfact> 0.15777050E+01</totfact>
</mgrwt>
</event>
<event>
12    2  0.3623523E-008  0.1551893E+04  0.7818608E-02  0.8850660E-01
         -2   -1    0    0    0  501 -0.00000000000E+00  0.00000000000E+00  0.33109102719E+03  0.33109102719E+03  0.00000000000E+00 0. -1.
          2   -1    0    0  501    0  0.00000000000E+00 -0.00000000000E+00 -0.18185118722E+04  0.18185118722E+04  0.00000000000E+00 0.  1.
         23    2    1    2    0    0  0.32279492194E+03  0.17415703329E+03 -0.99920079385E+03  0.10685421259E+04  0.94089396772E+02 0.  0.
        254    2    1    2    0    0 -0.32279492194E+03 -0.17415703329E+03 -0.48822005115E+03  0.10810607734E+04  0.89207978548E+03 0.  0.
         23    2    4    4    0    0 -0.45380661870E+03 -0.24402797628E+03  0.40262642496E+02  0.52453989278E+03  0.89615391271E+02 0.  0.
         23    2    4    4    0    0  0.13101169676E+03  0.69870942989E+02 -0.52848269364E+03  0.55652088066E+03  0.91517865860E+02 0.  0.
          2    1    3    3  502    0  0.26274947542E+03  0.17810832610E+03 -0.86729702870E+03  0.92356050080E+03  0.00000000000E+00 0.  1.
         -2    1    3    3    0  502  0.60045446522E+02 -0.39512928121E+01 -0.13190376515E+03  0.14498162513E+03  0.00000000000E+00 0. -1.
         11    1    5    5    0    0 -0.48122125171E+02 -0.60841681872E+02 -0.26595204617E+00  0.77572675050E+02  0.00000000000E+00 0.  1.
        -11    1    5    5    0    0 -0.40568449353E+03 -0.18318629441E+03  0.40528594542E+02  0.44696721773E+03  0.00000000000E+00 0. -1.
          4    1    6    6  503    0  0.12273265276E+03  0.89344148234E+02 -0.43680864335E+03  0.46243645161E+03  0.00000000000E+00 0. -1.
         -4    1    6    6    0  503  0.82790439989E+01 -0.19473205245E+02 -0.91674050293E+02  0.94084429048E+02  0.00000000000E+00 0.  1.
<mgrwt>
<rscale>  0 0.15518930E+04</rscale>
<asrwt>0</asrwt>
<pdfrwt beam="1">  1        2 0.27977106E+00 0.15518930E+04</pdfrwt>
<pdfrwt beam="2">  1       -2 0.50937080E-01 0.15518930E+04</pdfrwt>
<totfact> 0.29546581E+01</totfact>
</mgrwt>
</event>
<event>
12    2  0.3623523E-008  0.1443837E+04  0.7818608E-02  0.8922684E-01
         -1   -1    0    0    0  501 -0.00000000000E+00  0.00000000000E+00  0.30319073608E+03  0.30319073608E+03  0.00000000000E+00 0.  1.
          1   -1    0    0  501    0  0.00000000000E+00 -0.00000000000E+00 -0.17189395386E+04  0.17189395386E+04  0.00000000000E+00 0. -1.
         23    2    1    2    0    0  0.40603595784E+03  0.15085544399E+03 -0.59352679258E+03  0.74032568739E+03  0.90473785525E+02 0.  0.
        254    2    1    2    0    0 -0.40603595784E+03 -0.15085544399E+03 -0.82222200991E+03  0.12818045873E+04  0.88280881412E+03 0.  0.
         23    2    4    4    0    0  0.10651567461E+03  0.19082604893E+03 -0.55614408393E+03  0.60472223669E+03  0.92911633094E+02 0.  0.
         23    2    4    4    0    0 -0.51255163244E+03 -0.34168149293E+03 -0.26607792598E+03  0.67708235057E+03  0.90485513920E+02 0.  0.
          1    1    3    3  502    0  0.33190705235E+03  0.97979107102E+02 -0.41867644740E+03  0.54318704369E+03  0.00000000000E+00 0. -1.
         -1    1    3    3    0  502  0.74128905491E+02  0.52876336888E+02 -0.17485034517E+03  0.19713864370E+03  0.00000000000E+00 0.  1.
         11    1    5    5    0    0 -0.16107071892E+02  0.12343994433E+02 -0.36461914491E+02  0.41728685239E+02  0.00000000000E+00 0.  1.
        -11    1    5    5    0    0  0.12262274650E+03  0.17848205450E+03 -0.51968216944E+03  0.56299355145E+03  0.00000000000E+00 0. -1.
          3    1    6    6  503    0 -0.38367867054E+03 -0.20712612531E+03 -0.17710665008E+03  0.47061376894E+03  0.00000000000E+00 0. -1.
         -3    1    6    6    0  503 -0.12887296190E+03 -0.13455536762E+03 -0.88971275901E+02  0.20646858163E+03  0.00000000000E+00 0.  1.
<mgrwt>
<rscale>  0 0.14438373E+04</rscale>
<asrwt>0</asrwt>
<pdfrwt beam="1">  1        1 0.26445223E+00 0.14438373E+04</pdfrwt>
<pdfrwt beam="2">  1       -1 0.46644729E-01 0.14438373E+04</pdfrwt>
<totfact> 0.20584361E+01</totfact>
</mgrwt>
</event>
<event>
12    2  0.3623523E-008  0.1797140E+04  0.7818608E-02  0.8707822E-01
          2   -1    0    0  501    0  0.00000000000E+00  0.00000000000E+00  0.58996159502E+03  0.58996159502E+03  0.00000000000E+00 0. -1.
         -2   -1    0    0    0  501 -0.00000000000E+00 -0.00000000000E+00 -0.13686110729E+04  0.13686110729E+04  0.00000000000E+00 0.  1.
         23    2    1    2    0    0  0.22842827920E+02  0.42707897429E+03 -0.84798504927E+03  0.95421524152E+03  0.92357123682E+02 0.  0.
        254    2    1    2    0    0 -0.22842827920E+02 -0.42707897429E+03  0.69335571372E+02  0.10043574264E+04  0.90609501348E+03 0.  0.
         23    2    4    4    0    0 -0.15893289786E+03  0.21882025482E+03  0.16895798436E+03  0.33063746385E+03  0.87363390953E+02 0.  0.
         23    2    4    4    0    0  0.13609006994E+03 -0.64589922911E+03 -0.99622412993E+02  0.67371996256E+03  0.90926571876E+02 0.  0.
          1    1    3    3  502    0  0.21756736536E+02  0.43841439652E+02 -0.55965790339E+02  0.74347811695E+02  0.00000000000E+00 0. -1.
         -1    1    3    3    0  502  0.10860913835E+01  0.38323753464E+03 -0.79201925893E+03  0.87986742982E+03  0.00000000000E+00 0.  1.
         11    1    5    5    0    0 -0.78966489730E+02  0.17352879395E+03  0.13036604074E+03  0.23096158427E+03  0.00000000000E+00 0.  1.
        -11    1    5    5    0    0 -0.79966408134E+02  0.45291460867E+02  0.38591943625E+02  0.99675879581E+02  0.00000000000E+00 0. -1.
          3    1    6    6  503    0  0.83345118405E+02 -0.19947781364E+03 -0.19019680103E+02  0.21702431920E+03  0.00000000000E+00 0. -1.
         -3    1    6    6    0  503  0.52744951540E+02 -0.44642141548E+03 -0.80602732890E+02  0.45669564336E+03  0.00000000000E+00 0.  1.
<mgrwt>
<rscale>  0 0.17971399E+04</rscale>
<asrwt>0</asrwt>
<pdfrwt beam="1">  1        2 0.90763324E-01 0.17971399E+04</pdfrwt>
<pdfrwt beam="2">  1       -2 0.21055555E+00 0.17971399E+04</pdfrwt>
<totfact> 0.54242783E+00</totfact>
</mgrwt>
</event>
<event>
12    2  0.3623523E-008  0.2102872E+04  0.7818608E-02  0.8559979E-01
         -2   -1    0    0    0  501 -0.00000000000E+00  0.00000000000E+00  0.10027787587E+04  0.10027787587E+04  0.00000000000E+00 0.  1.
          2   -1    0    0  501    0  0.00000000000E+00 -0.00000000000E+00 -0.11024547105E+04  0.11024547105E+04  0.00000000000E+00 0. -1.
         23    2    1    2    0    0 -0.22926406889E+03 -0.68347893498E+03  0.41730446816E+03  0.83738215428E+03  0.85792688025E+02 0.  0.
        254    2    1    2    0    0  0.22926406889E+03  0.68347893498E+03 -0.51698041997E+03  0.12678513149E+04  0.90579949996E+03 0.  0.
         23    2    4    4    0    0 -0.90796153831E+00  0.45156844309E+03 -0.73328461209E+03  0.86590302372E+03  0.90370575782E+02 0.  0.
         23    2    4    4    0    0  0.23017203043E+03  0.23191049189E+03  0.21630419212E+03  0.40194829115E+03  0.89516955861E+02 0.  0.
          3    1    3    3  502    0 -0.85039095766E+02 -0.24522837162E+03  0.10362381796E+03  0.27947539731E+03  0.00000000000E+00 0. -1.
         -3    1    3    3    0  502 -0.14422497313E+03 -0.43825056336E+03  0.31368065021E+03  0.55790675697E+03  0.00000000000E+00 0.  1.
         11    1    5    5    0    0 -0.20566975702E+02  0.25534370895E+02 -0.37521457514E+02  0.49828348964E+02  0.00000000000E+00 0.  1.
        -11    1    5    5    0    0  0.19659014164E+02  0.42603407219E+03 -0.69576315458E+03  0.81607467475E+03  0.00000000000E+00 0. -1.
          4    1    6    6  503    0  0.11685751604E+03  0.15779422119E+03  0.16727146708E+03  0.25794270487E+03  0.00000000000E+00 0. -1.
         -4    1    6    6    0  503  0.11331451440E+03  0.74116270696E+02  0.49032725040E+02  0.14400558628E+03  0.00000000000E+00 0.  1.
<mgrwt>
<rscale>  0 0.21028725E+04</rscale>
<asrwt>0</asrwt>
<pdfrwt beam="1">  1        2 0.16960842E+00 0.21028725E+04</pdfrwt>
<pdfrwt beam="2">  1       -2 0.15427365E+00 0.21028725E+04</pdfrwt>
<totfact> 0.55606117E+00</totfact>
</mgrwt>
</event>
<event>
12    2  0.3623523E-008  0.1231408E+04  0.7818608E-02  0.9085801E-01
         -2   -1    0    0    0  501 -0.00000000000E+00  0.00000000000E+00  0.31704109429E+03  0.31704109429E+03  0.00000000000E+00 0.  1.
          2   -1    0    0  501    0  0.00000000000E+00 -0.00000000000E+00 -0.11957172749E+04  0.11957172749E+04  0.00000000000E+00 0. -1.
         23    2    1    2    0    0 -0.20411609865E+03  0.18302376881E+03 -0.16992186453E+03  0.33568896735E+03  0.93019143644E+02 0.  0.
        254    2    1    2    0    0  0.20411609865E+03 -0.18302376881E+03 -0.70875431606E+03  0.11770694018E+04  0.89888743147E+03 0.  0.
         23    2    4    4    0    0  0.26821032181E+03 -0.29161038995E+03  0.43787824032E+02  0.40852690308E+03  0.89462063215E+02 0.  0.
         23    2    4    4    0    0 -0.64094223164E+02  0.10858662115E+03 -0.75254214009E+03  0.76854249873E+03  0.91862810718E+02 0.  0.
          2    1    3    3  502    0 -0.17117042652E+03  0.10435886080E+03 -0.93637082349E+02  0.22126452480E+03  0.00000000000E+00 0.  1.
         -2    1    3    3    0  502 -0.32945672132E+02  0.78664908003E+02 -0.76284782177E+02  0.11442444256E+03  0.00000000000E+00 0. -1.
         11    1    5    5    0    0  0.11890249573E+03 -0.17796785993E+03 -0.69676618150E+01  0.21414693781E+03  0.00000000000E+00 0.  1.
        -11    1    5    5    0    0  0.14930782608E+03 -0.11364253002E+03  0.50755485847E+02  0.19437996528E+03  0.00000000000E+00 0. -1.
          1    1    6    6  503    0 -0.87965212837E+02  0.87751380417E+02 -0.60874181652E+03  0.62129283161E+03  0.00000000000E+00 0. -1.
         -1    1    6    6    0  503  0.23870989672E+02  0.20835240730E+02 -0.14380032357E+03  0.14724966711E+03  0.00000000000E+00 0.  1.
<mgrwt>
<rscale>  0 0.12314082E+04</rscale>
<asrwt>0</asrwt>
<pdfrwt beam="1">  1        2 0.18395650E+00 0.12314082E+04</pdfrwt>
<pdfrwt beam="2">  1       -2 0.48775553E-01 0.12314082E+04</pdfrwt>
<totfact> 0.74657078E+01</totfact>
</mgrwt>
</event>
<event>
12    2  0.3623523E-008  0.1345397E+04  0.7818608E-02  0.8994320E-01
          1   -1    0    0  501    0  0.00000000000E+00  0.00000000000E+00  0.36081929741E+03  0.36081929741E+03  0.00000000000E+00 0. -1.
         -1   -1    0    0    0  501 -0.00000000000E+00 -0.00000000000E+00 -0.12541539286E+04  0.12541539286E+04  0.00000000000E+00 0.  1.
         23    2    1    2    0    0 -0.12994517416E+03 -0.20156630173E+03  0.78042078980E+02  0.26657542032E+03  0.86354886049E+02 0.  0.
        254    2    1    2    0    0  0.12994517416E+03  0.20156630173E+03 -0.97137671014E+03  0.13483978056E+04  0.90392986840E+03 0.  0.
         23    2    4    4    0    0 -0.57233474211E+02  0.47104911298E+03 -0.86619586386E+03  0.99240096139E+03  0.96961106511E+02 0.  0.
         23    2    4    4    0    0  0.18717864838E+03 -0.26948281125E+03 -0.10518084627E+03  0.35599684426E+03  0.89520448691E+02 0.  0.
          4    1    3    3  502    0  0.18126873781E+01 -0.41064912366E+02  0.36142824590E+02  0.54734967183E+02  0.00000000000E+00 0.  1.
         -4    1    3    3    0  502 -0.13175786154E+03 -0.16050138937E+03  0.41899254390E+02  0.21184045314E+03  0.00000000000E+00 0. -1.
         11    1    5    5    0    0  0.19937142960E+02  0.33680995841E+02 -0.53780733440E+02  0.66515159472E+02  0.00000000000E+00 0. -1.
        -11    1    5    5    0    0 -0.77170617172E+02  0.43736811714E+03 -0.81241513042E+03  0.92588580191E+03  0.00000000000E+00 0.  1.
          4    1    6    6  503    0  0.58717741132E+01 -0.71136505035E+02 -0.22097204542E+02  0.74720589722E+02  0.00000000000E+00 0. -1.
         -4    1    6    6    0  503  0.18130687426E+03 -0.19834630621E+03 -0.83083641729E+02  0.28127625454E+03  0.00000000000E+00 0.  1.
<mgrwt>
<rscale>  0 0.13453965E+04</rscale>
<asrwt>0</asrwt>
<pdfrwt beam="1">  1        1 0.55510662E-01 0.13453965E+04</pdfrwt>
<pdfrwt beam="2">  1       -1 0.19294675E+00 0.13453965E+04</pdfrwt>
<totfact> 0.11349595E+01</totfact>
</mgrwt>
</event>
<event>
12    2  0.3623523E-008  0.1243099E+04  0.7818608E-02  0.9075947E-01
         -2   -1    0    0    0  501 -0.00000000000E+00  0.00000000000E+00  0.22627668633E+03  0.22627668633E+03  0.00000000000E+00 0.  1.
          2   -1    0    0  501    0  0.00000000000E+00 -0.00000000000E+00 -0.17073058526E+04  0.17073058526E+04  0.00000000000E+00 0. -1.
         23    2    1    2    0    0 -0.10908297041E+03  0.24181853453E+03 -0.52145468114E+03  0.59179502962E+03  0.89056580470E+02 0.  0.
        254    2    1    2    0    0  0.10908297041E+03 -0.24181853453E+03 -0.95957448509E+03  0.13417875093E+04  0.89957502718E+03 0.  0.
         23    2    4    4    0    0  0.21349121009E+03 -0.51444154723E+03 -0.36154883118E+03  0.67026133460E+03  0.91126818355E+02 0.  0.
         23    2    4    4    0    0 -0.10440823968E+03  0.27262301270E+03 -0.59802565391E+03  0.67152617468E+03  0.89935159802E+02 0.  0.
          2    1    3    3  502    0 -0.84791047916E+02  0.18155935655E+03 -0.46258017118E+03  0.50411678858E+03  0.00000000000E+00 0. -1.
         -2    1    3    3    0  502 -0.24291922497E+02  0.60259177978E+02 -0.58874509960E+02  0.87678241042E+02  0.00000000000E+00 0.  1.
         11    1    5    5    0    0  0.80453940942E+02 -0.12643494986E+03 -0.13485960423E+03  0.20160790166E+03  0.00000000000E+00 0. -1.
        -11    1    5    5    0    0  0.13303726915E+03 -0.38800659738E+03 -0.22668922695E+03  0.46865343294E+03  0.00000000000E+00 0.  1.
          2    1    6    6  503    0 -0.53208241695E+01 -0.68357869647E+01 -0.22542931904E+02  0.24150008947E+02  0.00000000000E+00 0. -1.
         -2    1    6    6    0  503 -0.99087415506E+02  0.27945879967E+03 -0.57548272201E+03  0.64737616573E+03  0.00000000000E+00 0.  1.
<mgrwt>
<rscale>  0 0.12430986E+04</rscale>
<asrwt>0</asrwt>
<pdfrwt beam="1">  1        2 0.26266243E+00 0.12430986E+04</pdfrwt>
<pdfrwt beam="2">  1       -2 0.34811799E-01 0.12430986E+04</pdfrwt>
<totfact> 0.73983399E+01</totfact>
</mgrwt>
</event>
<event>
12    2  0.3623523E-008  0.1648651E+04  0.7818608E-02  0.8791205E-01
          2   -1    0    0  501    0  0.00000000000E+00  0.00000000000E+00  0.14647002209E+04  0.14647002209E+04  0.00000000000E+00 0. -1.
         -2   -1    0    0    0  501 -0.00000000000E+00 -0.00000000000E+00 -0.46392605487E+03  0.46392605487E+03  0.00000000000E+00 0.  1.
         23    2    1    2    0    0  0.50620918972E+02 -0.35144502537E+03  0.88166576754E+03  0.95525218532E+03  0.95373626390E+02 0.  0.
        254    2    1    2    0    0 -0.50620918972E+02  0.35144502537E+03  0.11910839854E+03  0.97337409049E+03  0.89843988455E+03 0.  0.
         23    2    4    4    0    0  0.38123279081E+03  0.25848941960E+03  0.20585859968E+03  0.51334733865E+03  0.94828825826E+02 0.  0.
         23    2    4    4    0    0 -0.43185370978E+03  0.92955605765E+02 -0.86750201137E+02  0.46002675184E+03  0.94660676709E+02 0.  0.
          1    1    3    3  502    0  0.47037473879E+02 -0.34898218593E+03  0.88306328650E+03  0.95068494150E+03  0.00000000000E+00 0. -1.
         -1    1    3    3    0  502  0.35834450930E+01 -0.24628394330E+01 -0.13975189566E+01  0.45672438123E+01  0.00000000000E+00 0.  1.
         11    1    5    5    0    0  0.22607160701E+03  0.12856327061E+03  0.69094076847E+02  0.26909269314E+03  0.00000000000E+00 0. -1.
        -11    1    5    5    0    0  0.15516118380E+03  0.12992614899E+03  0.13676452283E+03  0.24425464551E+03  0.00000000000E+00 0.  1.
          3    1    6    6  503    0 -0.43720881285E+02  0.38689732819E+02 -0.24021342189E+02  0.63130307829E+02  0.00000000000E+00 0. -1.
         -3    1    6    6    0  503 -0.38813282850E+03  0.54265872946E+02 -0.62728858948E+02  0.39689644401E+03  0.00000000000E+00 0.  1.
<mgrwt>
<rscale>  0 0.16486511E+04</rscale>
<asrwt>0</asrwt>
<pdfrwt beam="1">  1        2 0.22533849E+00 0.16486511E+04</pdfrwt>
<pdfrwt beam="2">  1       -2 0.71373240E-01 0.16486511E+04</pdfrwt>
<totfact> 0.22620722E+01</totfact>
</mgrwt>
</event>
<event>
12    2  0.3623523E-008  0.2190665E+04  0.7818608E-02  0.8522324E-01
         -1   -1    0    0    0  501 -0.00000000000E+00  0.00000000000E+00  0.46178456132E+03  0.46178456132E+03  0.00000000000E+00 0.  1.
          1   -1    0    0  501    0  0.00000000000E+00 -0.00000000000E+00 -0.25980803296E+04  0.25980803296E+04  0.00000000000E+00 0. -1.
         23    2    1    2    0    0  0.27125110513E+03  0.62360814170E+03 -0.17159159404E+04  0.18480894809E+04  0.92752027168E+02 0.  0.
        254    2    1    2    0    0 -0.27125110513E+03 -0.62360814170E+03 -0.42037982785E+03  0.12117754100E+04  0.91061307267E+03 0.  0.
         23    2    4    4    0    0 -0.27239060133E+03  0.17090166382E+03 -0.87945705547E+02  0.34564683309E+03  0.91286733494E+02 0.  0.
         23    2    4    4    0    0  0.11394961952E+01 -0.79450980552E+03 -0.33243412231E+03  0.86612857688E+03  0.91755852665E+02 0.  0.
          1    1    3    3  502    0  0.76804830189E+02  0.17431929231E+03 -0.37516413747E+03  0.42075447431E+03  0.00000000000E+00 0. -1.
         -1    1    3    3    0  502  0.19444627494E+03  0.44928884939E+03 -0.13407518030E+04  0.14273350066E+04  0.00000000000E+00 0.  1.
         11    1    5    5    0    0 -0.17662194031E+03  0.72007202284E+02 -0.18996047925E+02  0.19167993326E+03  0.00000000000E+00 0.  1.
        -11    1    5    5    0    0 -0.95768661023E+02  0.98894461536E+02 -0.68949657622E+02  0.15396689983E+03  0.00000000000E+00 0. -1.
          1    1    6    6  503    0 -0.86787906542E+01 -0.57076456009E+03 -0.19428867517E+03  0.60298888361E+03  0.00000000000E+00 0. -1.
         -1    1    6    6    0  503  0.98182868494E+01 -0.22374524543E+03 -0.13814544713E+03  0.26313969327E+03  0.00000000000E+00 0.  1.
<mgrwt>
<rscale>  0 0.21906651E+04</rscale>
<asrwt>0</asrwt>
<pdfrwt beam="1">  1        1 0.39970467E+00 0.21906651E+04</pdfrwt>
<pdfrwt beam="2">  1       -1 0.71043779E-01 0.21906651E+04</pdfrwt>
<totfact> 0.21138635E+00</totfact>
</mgrwt>
</event>
<event>
12    2  0.3623523E-008  0.1818622E+04  0.7818608E-02  0.8696459E-01
          1   -1    0    0  501    0  0.00000000000E+00  0.00000000000E+00  0.14234719810E+04  0.14234719810E+04  0.00000000000E+00 0. -1.
         -1   -1    0    0    0  501 -0.00000000000E+00 -0.00000000000E+00 -0.58086581550E+03  0.58086581550E+03  0.00000000000E+00 0.  1.
         23    2    1    2    0    0 -0.41428845055E+03 -0.10892078872E+03  0.90972701614E+03  0.10097461540E+04  0.92116193268E+02 0.  0.
        254    2    1    2    0    0  0.41428845055E+03  0.10892078872E+03 -0.67120850686E+02  0.99459164249E+03  0.89510260207E+03 0.  0.
         23    2    4    4    0    0  0.14017963867E+02  0.30703460092E+03 -0.33548150495E+03  0.46526880305E+03  0.97264944649E+02 0.  0.
         23    2    4    4    0    0  0.40027048669E+03 -0.19811381220E+03  0.26836065426E+03  0.52932283944E+03  0.93272088509E+02 0.  0.
          1    1    3    3  502    0 -0.39729983660E+03 -0.11026011930E+03  0.81351717362E+03  0.91203873045E+03  0.00000000000E+00 0. -1.
         -1    1    3    3    0  502 -0.16988613954E+02  0.13393305839E+01  0.96209842520E+02  0.97707423506E+02  0.00000000000E+00 0.  1.
         11    1    5    5    0    0  0.28576370603E+01  0.15397492004E+03 -0.23793657126E+03  0.28342592336E+03  0.00000000000E+00 0. -1.
        -11    1    5    5    0    0  0.11160326807E+02  0.15305968088E+03 -0.97544933693E+02  0.18184287969E+03  0.00000000000E+00 0.  1.
          1    1    6    6  503    0  0.26671731360E+03 -0.81740112144E+02  0.17067862990E+03  0.32703327967E+03  0.00000000000E+00 0. -1.
         -1    1    6    6    0  503  0.13355317309E+03 -0.11637370006E+03  0.97682024366E+02  0.20228955977E+03  0.00000000000E+00 0.  1.
<mgrwt>
<rscale>  0 0.18186217E+04</rscale>
<asrwt>0</asrwt>
<pdfrwt beam="1">  1        1 0.21899569E+00 0.18186217E+04</pdfrwt>
<pdfrwt beam="2">  1       -1 0.89363972E-01 0.18186217E+04</pdfrwt>
<totfact> 0.85504644E+00</totfact>
</mgrwt>
</event>
<event>
12    2  0.3623523E-008  0.1431918E+04  0.7818608E-02  0.8931033E-01
         -2   -1    0    0    0  501 -0.00000000000E+00  0.00000000000E+00  0.50796843729E+03  0.50796843729E+03  0.00000000000E+00 0.  1.
          2   -1    0    0  501    0  0.00000000000E+00 -0.00000000000E+00 -0.10091123490E+04  0.10091123490E+04  0.00000000000E+00 0. -1.
         23    2    1    2    0    0 -0.37482499868E+02  0.45361945043E+02 -0.59431615503E+03  0.60415779419E+03  0.91281456438E+02 0.  0.
        254    2    1    2    0    0  0.37482499868E+02 -0.45361945043E+02  0.93172243344E+02  0.91292299208E+03  0.90624758134E+03 0.  0.
         23    2    4    4    0    0  0.20976823119E+03 -0.28725547927E+03 -0.25486666655E+03  0.44654727418E+03  0.89045096277E+02 0.  0.
         23    2    4    4    0    0 -0.17228573133E+03  0.24189353423E+03  0.34803890990E+03  0.46637571790E+03  0.90445410729E+02 0.  0.
          1    1    3    3  502    0 -0.58219651147E+01 -0.19112537506E+02 -0.31903108716E+03  0.31965609480E+03  0.00000000000E+00 0. -1.
         -1    1    3    3    0  502 -0.31660534754E+02  0.64474482549E+02 -0.27528506787E+03  0.28450169938E+03  0.00000000000E+00 0.  1.
         11    1    5    5    0    0  0.19644027251E+03 -0.24587092802E+03 -0.25165053818E+03  0.40295072562E+03  0.00000000000E+00 0.  1.
        -11    1    5    5    0    0  0.13327958684E+02 -0.41384551252E+02 -0.32161283697E+01  0.43596548564E+02  0.00000000000E+00 0. -1.
          4    1    6    6  503    0  0.24534791142E+01  0.50929216941E+02  0.68581530069E+02  0.85458943152E+02  0.00000000000E+00 0. -1.
         -4    1    6    6    0  503 -0.17473921044E+03  0.19096431729E+03  0.27945737983E+03  0.38091677474E+03  0.00000000000E+00 0.  1.
<mgrwt>
<rscale>  0 0.14319179E+04</rscale>
<asrwt>0</asrwt>
<pdfrwt beam="1">  1        2 0.15524805E+00 0.14319179E+04</pdfrwt>
<pdfrwt beam="2">  1       -2 0.78148991E-01 0.14319179E+04</pdfrwt>
<totfact> 0.35166781E+01</totfact>
</mgrwt>
</event>
<event>
12    2  0.3623523E-008  0.1863858E+04  0.7818608E-02  0.8673058E-01
          1   -1    0    0  501    0  0.00000000000E+00  0.00000000000E+00  0.21449873711E+04  0.21449873711E+04  0.00000000000E+00 0. -1.
         -1   -1    0    0    0  501 -0.00000000000E+00 -0.00000000000E+00 -0.40489375429E+03  0.40489375429E+03  0.00000000000E+00 0.  1.
         23    2    1    2    0    0 -0.48519652380E+03 -0.16457546354E+03  0.12540933282E+04  0.13578562637E+04  0.92319051423E+02 0.  0.
        254    2    1    2    0    0  0.48519652380E+03  0.16457546354E+03  0.48600028862E+03  0.11920248616E+04  0.96032611145E+03 0.  0.
         23    2    4    4    0    0  0.27798942853E+03  0.28457743715E+03  0.73026935810E+03  0.83659072234E+03  0.91259307531E+02 0.  0.
         23    2    4    4    0    0  0.20720709527E+03 -0.12000197361E+03 -0.24426906948E+03  0.35543413930E+03  0.96596040679E+02 0.  0.
          2    1    3    3  502    0 -0.25101070772E+02  0.99753934053E+01  0.91582692159E+02  0.95482782378E+02  0.00000000000E+00 0.  1.
         -2    1    3    3    0  502 -0.46009545303E+03 -0.17455085695E+03  0.11625106360E+04  0.12623734813E+04  0.00000000000E+00 0. -1.
         11    1    5    5    0    0  0.27258975412E+03  0.23996363793E+03  0.64558462813E+03  0.74072075282E+03  0.00000000000E+00 0. -1.
        -11    1    5    5    0    0  0.53996744041E+01  0.44613799230E+02  0.84684729966E+02  0.95869969515E+02  0.00000000000E+00 0.  1.
          3    1    6    6  503    0  0.14616350901E+03 -0.82166691453E+02 -0.22585546179E+03  0.28129313211E+03  0.00000000000E+00 0. -1.
         -3    1    6    6    0  503  0.61043586264E+02 -0.37835282159E+02 -0.18413607693E+02  0.74141007197E+02  0.00000000000E+00 0.  1.
<mgrwt>
<rscale>  0 0.18638584E+04</rscale>
<asrwt>0</asrwt>
<pdfrwt beam="1">  1        1 0.32999805E+00 0.18638584E+04</pdfrwt>
<pdfrwt beam="2">  1       -1 0.62291348E-01 0.18638584E+04</pdfrwt>
<totfact> 0.58274834E+00</totfact>
</mgrwt>
</event>
<event>
12    2  0.3623523E-008  0.2030173E+04  0.7818608E-02  0.8592642E-01
         -1   -1    0    0    0  501 -0.00000000000E+00  0.00000000000E+00  0.55290658831E+03  0.55290658831E+03  0.00000000000E+00 0.  1.
          1   -1    0    0  501    0  0.00000000000E+00 -0.00000000000E+00 -0.18636064449E+04  0.18636064449E+04  0.00000000000E+00 0. -1.
         23    2    1    2    0    0  0.24830114545E+03 -0.36473094048E+02 -0.14582042442E+04  0.14820476641E+04  0.84391441680E+02 0.  0.
        254    2    1    2    0    0 -0.24830114545E+03  0.36473094048E+02  0.14750438757E+03  0.93446536915E+03  0.88796634867E+03 0.  0.
         23    2    4    4    0    0 -0.15499763573E+03 -0.22724993809E+03 -0.28818042724E+03  0.40743613913E+03  0.85378260573E+02 0.  0.
         23    2    4    4    0    0 -0.93303509724E+02  0.26372303214E+03  0.43568481481E+03  0.52702923003E+03  0.98403093661E+02 0.  0.
          1    1    3    3  502    0  0.10077342045E+03  0.98260942386E+01 -0.77369050931E+03  0.78028766400E+03  0.00000000000E+00 0. -1.
         -1    1    3    3    0  502  0.14752772500E+03 -0.46299188286E+02 -0.68451373488E+03  0.70176000009E+03  0.00000000000E+00 0.  1.
         11    1    5    5    0    0 -0.83593454911E+02 -0.10358900163E+03 -0.81020341916E+02  0.15582953111E+03  0.00000000000E+00 0.  1.
        -11    1    5    5    0    0 -0.71404180815E+02 -0.12366093646E+03 -0.20716008532E+03  0.25160660801E+03  0.00000000000E+00 0. -1.
          3    1    6    6  503    0 -0.54449950701E+02  0.17165586120E+03  0.35696341945E+03  0.39981672631E+03  0.00000000000E+00 0. -1.
         -3    1    6    6    0  503 -0.38853559023E+02  0.92067170945E+02  0.78721395358E+02  0.12721250372E+03  0.00000000000E+00 0.  1.
<mgrwt>
<rscale>  0 0.20301727E+04</rscale>
<asrwt>0</asrwt>
<pdfrwt beam="1">  1        1 0.28670869E+00 0.20301727E+04</pdfrwt>
<pdfrwt beam="2">  1       -1 0.85062551E-01 0.20301727E+04</pdfrwt>
<totfact> 0.46638443E+00</totfact>
</mgrwt>
</event>
<event>
12    2  0.3623523E-008  0.1140948E+04  0.7818608E-02  0.9166176E-01
         -2   -1    0    0    0  501 -0.00000000000E+00  0.00000000000E+00  0.28408104186E+03  0.28408104186E+03  0.00000000000E+00 0.  1.
          2   -1    0    0  501    0  0.00000000000E+00 -0.00000000000E+00 -0.11455896450E+04  0.11455896450E+04  0.00000000000E+00 0. -1.
         23    2    1    2    0    0 -0.13700232808E+03  0.67157042947E+02 -0.31723518396E+03  0.36373646052E+03  0.91576986486E+02 0.  0.
        254    2    1    2    0    0  0.13700232808E+03 -0.67157042947E+02 -0.54427341917E+03  0.10659342263E+04  0.90371594748E+03 0.  0.
         23    2    4    4    0    0 -0.22801014060E+03 -0.24517100528E+03 -0.55035242099E+03  0.65041371612E+03  0.89737220728E+02 0.  0.
         23    2    4    4    0    0  0.36501246868E+03  0.17801396233E+03  0.60790018188E+01  0.41552051022E+03  0.87734070196E+02 0.  0.
          3    1    3    3  502    0 -0.13693025459E+03  0.43064342317E+02 -0.30414722785E+03  0.33631825464E+03  0.00000000000E+00 0. -1.
         -3    1    3    3    0  502 -0.72073490994E-01  0.24092700630E+02 -0.13087956112E+02  0.27418205875E+02  0.00000000000E+00 0.  1.
         11    1    5    5    0    0 -0.21203525924E+03 -0.19530798672E+03 -0.41512734704E+03  0.50540565400E+03  0.00000000000E+00 0.  1.
        -11    1    5    5    0    0 -0.15974881353E+02 -0.49863018559E+02 -0.13522507395E+03  0.14500806211E+03  0.00000000000E+00 0. -1.
          3    1    6    6  503    0  0.26820359420E+03  0.17044770631E+03  0.14026640002E+02  0.31809170872E+03  0.00000000000E+00 0. -1.
         -3    1    6    6    0  503  0.96808874479E+02  0.75662560182E+01 -0.79476381834E+01  0.97428801495E+02  0.00000000000E+00 0.  1.
<mgrwt>
<rscale>  0 0.11409475E+04</rscale>
<asrwt>0</asrwt>
<pdfrwt beam="1">  1        2 0.17624456E+00 0.11409475E+04</pdfrwt>
<pdfrwt beam="2">  1       -2 0.43704777E-01 0.11409475E+04</pdfrwt>
<totfact> 0.10038864E+02</totfact>
</mgrwt>
</event>
<event>
12    2  0.3623523E-008  0.1871300E+04  0.7818608E-02  0.8669275E-01
          2   -1    0    0  501    0  0.00000000000E+00  0.00000000000E+00  0.29253548328E+04  0.29253548328E+04  0.00000000000E+00 0. -1.
         -2   -1    0    0    0  501 -0.00000000000E+00 -0.00000000000E+00 -0.29925978790E+03  0.29925978790E+03  0.00000000000E+00 0.  1.
         23    2    1    2    0    0  0.33036417818E+03  0.29635709838E+03  0.19602892093E+04  0.20118199777E+04  0.87851117110E+02 0.  0.
        254    2    1    2    0    0 -0.33036417818E+03 -0.29635709838E+03  0.66580583561E+03  0.12127946430E+04  0.91137556214E+03 0.  0.
         23    2    4    4    0    0 -0.55021209718E+03  0.47563546898E+02  0.53811871609E+03  0.77645012004E+03  0.91144903443E+02 0.  0.
         23    2    4    4    0    0  0.21984791900E+03 -0.34392064527E+03  0.12768711952E+03  0.43634452292E+03  0.86475571425E+02 0.  0.
          4    1    3    3  502    0  0.10405217192E+03  0.11734745839E+03  0.53016800055E+03  0.55287918145E+03  0.00000000000E+00 0. -1.
         -4    1    3    3    0  502  0.22631200626E+03  0.17900963998E+03  0.14301212087E+04  0.14589407963E+04  0.00000000000E+00 0.  1.
         11    1    5    5    0    0 -0.30426063312E+03  0.27743255616E+02  0.23409889206E+03  0.38489805451E+03  0.00000000000E+00 0. -1.
        -11    1    5    5    0    0 -0.24595146407E+03  0.19820291282E+02  0.30401982403E+03  0.39155206553E+03  0.00000000000E+00 0.  1.
          4    1    6    6  503    0  0.11502508244E+03 -0.10926231846E+03  0.67342764072E+02  0.17234869219E+03  0.00000000000E+00 0. -1.
         -4    1    6    6    0  503  0.10482283656E+03 -0.23465832682E+03  0.60344355453E+02  0.26399583073E+03  0.00000000000E+00 0.  1.
<mgrwt>
<rscale>  0 0.18713002E+04</rscale>
<asrwt>0</asrwt>
<pdfrwt beam="1">  1        2 0.45005457E+00 0.18713002E+04</pdfrwt>
<pdfrwt beam="2">  1       -2 0.46039969E-01 0.18713002E+04</pdfrwt>
<totfact> 0.81606330E+00</totfact>
</mgrwt>
</event>
<event>
12    2  0.3623523E-008  0.2096730E+04  0.7818608E-02  0.8562685E-01
          2   -1    0    0  501    0  0.00000000000E+00  0.00000000000E+00  0.16327500300E+04  0.16327500300E+04  0.00000000000E+00 0. -1.
         -2   -1    0    0    0  501 -0.00000000000E+00 -0.00000000000E+00 -0.67313977241E+03  0.67313977241E+03  0.00000000000E+00 0.  1.
         23    2    1    2    0    0 -0.73324886627E+03 -0.24485079061E+03  0.78174321401E+03  0.11034395248E+04  0.94077216203E+02 0.  0.
        254    2    1    2    0    0  0.73324886627E+03  0.24485079061E+03  0.17786704358E+03  0.12024502776E+04  0.90368367001E+03 0.  0.
         23    2    4    4    0    0  0.25138126680E+02  0.33817755902E+03  0.31245318308E+03  0.47011323428E+03  0.91561316027E+02 0.  0.
         23    2    4    4    0    0  0.70811073959E+03 -0.93326768406E+02 -0.13458613951E+03  0.73233704335E+03  0.89852161335E+02 0.  0.
          2    1    3    3  502    0 -0.65738261807E+03 -0.21009189465E+03  0.73313458765E+03  0.10068648541E+04  0.00000000000E+00 0. -1.
         -2    1    3    3    0  502 -0.75866248195E+02 -0.34758895967E+02  0.48608626365E+02  0.96574670701E+02  0.00000000000E+00 0.  1.
         11    1    5    5    0    0  0.59437486140E+02  0.19707561088E+03  0.19098232722E+03  0.28079505066E+03  0.00000000000E+00 0. -1.
        -11    1    5    5    0    0 -0.34299359460E+02  0.14110194814E+03  0.12147085586E+03  0.18931818363E+03  0.00000000000E+00 0.  1.
          2    1    6    6  503    0  0.64028230956E+03 -0.11066520216E+03 -0.11826767453E+03  0.66045095635E+03  0.00000000000E+00 0. -1.
         -2    1    6    6    0  503  0.67828430032E+02  0.17338433756E+02 -0.16318464979E+02  0.71886087006E+02  0.00000000000E+00 0.  1.
<mgrwt>
<rscale>  0 0.20967298E+04</rscale>
<asrwt>0</asrwt>
<pdfrwt beam="1">  1        2 0.25119231E+00 0.20967298E+04</pdfrwt>
<pdfrwt beam="2">  1       -2 0.10355997E+00 0.20967298E+04</pdfrwt>
<totfact> 0.74890756E+00</totfact>
</mgrwt>
</event>
<event>
12    2  0.3623523E-008  0.2513510E+04  0.7818608E-02  0.8398188E-01
         -2   -1    0    0    0  501 -0.00000000000E+00  0.00000000000E+00  0.84370092750E+03  0.84370092750E+03  0.00000000000E+00 0.  1.
          2   -1    0    0  501    0  0.00000000000E+00 -0.00000000000E+00 -0.18720298129E+04  0.18720298129E+04  0.00000000000E+00 0. -1.
         23    2    1    2    0    0 -0.72656137548E+03 -0.91797987169E+02  0.43715690706E+03  0.85810946270E+03  0.94484844221E+02 0.  0.
        254    2    1    2    0    0  0.72656137548E+03  0.91797987169E+02 -0.14654857925E+04  0.18576212777E+04  0.87566540452E+03 0.  0.
         23    2    4    4    0    0  0.43125497227E+03  0.47072977453E+03 -0.93023374116E+03  0.11321078963E+04  0.93627474112E+02 0.  0.
         23    2    4    4    0    0  0.29530640322E+03 -0.37893178736E+03 -0.53525205132E+03  0.72551338143E+03  0.95287653654E+02 0.  0.
          4    1    3    3  502    0 -0.40103042204E+03 -0.82333780300E+01  0.26222460437E+03  0.47922325805E+03  0.00000000000E+00 0. -1.
         -4    1    3    3    0  502 -0.32553095344E+03 -0.83564609139E+02  0.17493230269E+03  0.37888620465E+03  0.00000000000E+00 0.  1.
         11    1    5    5    0    0 -0.26625338269E+01  0.47688549422E+01 -0.83336805529E+00  0.55249946747E+01  0.00000000000E+00 0. -1.
        -11    1    5    5    0    0  0.43391750609E+03  0.46596091959E+03 -0.92940037311E+03  0.11265829016E+04  0.00000000000E+00 0.  1.
          3    1    6    6  503    0  0.14796018525E+02 -0.55071644560E+02 -0.97684508467E+02  0.11311088097E+03  0.00000000000E+00 0. -1.
         -3    1    6    6    0  503  0.28051038469E+03 -0.32386014280E+03 -0.43756754285E+03  0.61240250046E+03  0.00000000000E+00 0.  1.
<mgrwt>
<rscale>  0 0.25135101E+04</rscale>
<asrwt>0</asrwt>
<pdfrwt beam="1">  1        2 0.28800458E+00 0.25135101E+04</pdfrwt>
<pdfrwt beam="2">  1       -2 0.12980014E+00 0.25135101E+04</pdfrwt>
<totfact> 0.30571009E+00</totfact>
</mgrwt>
</event>
<event>
12    2  0.3623523E-008  0.1498573E+04  0.7818608E-02  0.8885402E-01
          1   -1    0    0  501    0  0.00000000000E+00  0.00000000000E+00  0.29548647846E+04  0.29548647846E+04  0.00000000000E+00 0. -1.
         -1   -1    0    0    0  501 -0.00000000000E+00 -0.00000000000E+00 -0.19000198333E+03  0.19000198333E+03  0.00000000000E+00 0.  1.
         23    2    1    2    0    0 -0.11354195990E+03 -0.37425973014E+03  0.15449931633E+04  0.15961220820E+04  0.87405397597E+02 0.  0.
        254    2    1    2    0    0  0.11354195990E+03  0.37425973014E+03  0.12198696379E+04  0.15487446860E+04  0.87038270115E+03 0.  0.
         23    2    4    4    0    0  0.23921713355E+03 -0.21601568108E+03  0.33948823596E+03  0.47735685001E+03  0.93432801734E+02 0.  0.
         23    2    4    4    0    0 -0.12567517365E+03  0.59027541122E+03  0.88038140198E+03  0.10713878360E+04  0.92634614002E+02 0.  0.
          4    1    3    3  502    0 -0.77852765223E+02 -0.34490089309E+03  0.13989850042E+04  0.14429749551E+04  0.00000000000E+00 0. -1.
         -4    1    3    3    0  502 -0.35689194678E+02 -0.29358837058E+02  0.14600815911E+03  0.15314712683E+03  0.00000000000E+00 0.  1.
         11    1    5    5    0    0  0.15822416204E+03 -0.17127197053E+03  0.29099252611E+03  0.37288821863E+03  0.00000000000E+00 0.  1.
        -11    1    5    5    0    0  0.80992971515E+02 -0.44743710554E+02  0.48495709849E+02  0.10446863138E+03  0.00000000000E+00 0. -1.
          3    1    6    6  503    0  0.11165105478E+02  0.77858719363E+02  0.89725901235E+02  0.11932048070E+03  0.00000000000E+00 0. -1.
         -3    1    6    6    0  503 -0.13684027913E+03  0.51241669186E+03  0.79065550074E+03  0.95206735526E+03  0.00000000000E+00 0.  1.
<mgrwt>
<rscale>  0 0.14985729E+04</rscale>
<asrwt>0</asrwt>
<pdfrwt beam="1">  1        1 0.45459455E+00 0.14985729E+04</pdfrwt>
<pdfrwt beam="2">  1       -1 0.29231076E-01 0.14985729E+04</pdfrwt>
<totfact> 0.67007097E+00</totfact>
</mgrwt>
</event>
<event>
12    2  0.3623523E-008  0.1145167E+04  0.7818608E-02  0.9162254E-01
          1   -1    0    0  501    0  0.00000000000E+00  0.00000000000E+00  0.72360811304E+03  0.72360811304E+03  0.00000000000E+00 0. -1.
         -1   -1    0    0    0  501 -0.00000000000E+00 -0.00000000000E+00 -0.45307902702E+03  0.45307902702E+03  0.00000000000E+00 0.  1.
         23    2    1    2    0    0  0.19565551752E+03  0.27143541266E+02  0.95704582872E+02  0.23740335811E+03  0.90460675934E+02 0.  0.
        254    2    1    2    0    0 -0.19565551752E+03 -0.27143541266E+02  0.17482450315E+03  0.93928378194E+03  0.90148353438E+03 0.  0.
         23    2    4    4    0    0 -0.40224665766E+03  0.23399554499E+03  0.31191900446E+03  0.56763969201E+03  0.91460734378E+02 0.  0.
         23    2    4    4    0    0  0.20659114014E+03 -0.26113908625E+03 -0.13709450131E+03  0.37164408993E+03  0.91928807997E+02 0.  0.
          3    1    3    3  502    0  0.29306997870E+02  0.27857789287E+02  0.51127431370E+02  0.65184129868E+02  0.00000000000E+00 0. -1.
         -3    1    3    3    0  502  0.16634851965E+03 -0.71424802059E+00  0.44577151502E+02  0.17221922824E+03  0.00000000000E+00 0.  1.
         11    1    5    5    0    0 -0.39933419780E+02  0.76006313023E+00  0.47594672645E+02  0.62132991039E+02  0.00000000000E+00 0. -1.
        -11    1    5    5    0    0 -0.36231323788E+03  0.23323548186E+03  0.26432433181E+03  0.50550670097E+03  0.00000000000E+00 0.  1.
          3    1    6    6  503    0  0.50977975510E+02 -0.15801352850E+02 -0.34421454371E+02  0.63508056655E+02  0.00000000000E+00 0. -1.
         -3    1    6    6    0  503  0.15561316463E+03 -0.24533773340E+03 -0.10267304694E+03  0.30813603328E+03  0.00000000000E+00 0.  1.
<mgrwt>
<rscale>  0 0.11451666E+04</rscale>
<asrwt>0</asrwt>
<pdfrwt beam="1">  1        1 0.11132433E+00 0.11451666E+04</pdfrwt>
<pdfrwt beam="2">  1       -1 0.69704466E-01 0.11451666E+04</pdfrwt>
<totfact> 0.53559681E+01</totfact>
</mgrwt>
</event>
<event>
12    2  0.3623523E-008  0.2293483E+04  0.7818608E-02  0.8480495E-01
          2   -1    0    0  501    0  0.00000000000E+00  0.00000000000E+00  0.34051589482E+04  0.34051589482E+04  0.00000000000E+00 0. -1.
         -2   -1    0    0    0  501 -0.00000000000E+00 -0.00000000000E+00 -0.38618343367E+03  0.38618343367E+03  0.00000000000E+00 0.  1.
         23    2    1    2    0    0 -0.52957793158E+03 -0.64070223234E+03  0.46643870780E+03  0.95769453308E+03  0.93067794771E+02 0.  0.
        254    2    1    2    0    0  0.52957793158E+03  0.64070223234E+03  0.25525368068E+04  0.28336478488E+04  0.90728377319E+03 0.  0.
         23    2    4    4    0    0  0.30260591084E+03  0.84453964735E+03  0.20342157251E+04  0.22251203840E+04  0.91156755533E+02 0.  0.
         23    2    4    4    0    0  0.22697202074E+03 -0.20383741500E+03  0.51832108167E+03  0.60852746477E+03  0.92644167232E+02 0.  0.
          4    1    3    3  502    0  0.37405795152E-01 -0.39803574817E+00  0.92778032515E+01  0.92864129148E+01  0.00000000000E+00 0. -1.
         -4    1    3    3    0  502 -0.52961533737E+03 -0.64030419659E+03  0.45716090455E+03  0.94840812017E+03  0.00000000000E+00 0.  1.
         11    1    5    5    0    0  0.19256233873E+03  0.65221083568E+03  0.15194072363E+04  0.16646493860E+04  0.00000000000E+00 0. -1.
        -11    1    5    5    0    0  0.11004357210E+03  0.19232881167E+03  0.51480848875E+03  0.56047099804E+03  0.00000000000E+00 0.  1.
          3    1    6    6  503    0  0.20637646166E+03 -0.15437740544E+03  0.37073492397E+03  0.45151745380E+03  0.00000000000E+00 0. -1.
         -3    1    6    6    0  503  0.20595559083E+02 -0.49460009568E+02  0.14758615769E+03  0.15701001096E+03  0.00000000000E+00 0.  1.
<mgrwt>
<rscale>  0 0.22934829E+04</rscale>
<asrwt>0</asrwt>
<pdfrwt beam="1">  1        2 0.52387059E+00 0.22934829E+04</pdfrwt>
<pdfrwt beam="2">  1       -2 0.59412838E-01 0.22934829E+04</pdfrwt>
<totfact> 0.22736211E+00</totfact>
</mgrwt>
</event>
<event>
12    2  0.3623523E-008  0.1686557E+04  0.7818608E-02  0.8769069E-01
          2   -1    0    0  501    0  0.00000000000E+00  0.00000000000E+00  0.41456705920E+03  0.41456705920E+03  0.00000000000E+00 0.  1.
         -2   -1    0    0    0  501 -0.00000000000E+00 -0.00000000000E+00 -0.17153282993E+04  0.17153282993E+04  0.00000000000E+00 0. -1.
         23    2    1    2    0    0 -0.27561177365E+02 -0.22155635311E+03 -0.11638215121E+04  0.11883280607E+04  0.88296273413E+02 0.  0.
        254    2    1    2    0    0  0.27561177365E+02  0.22155635311E+03 -0.13693972801E+03  0.94156729773E+03  0.90440568936E+03 0.  0.
         23    2    4    4    0    0 -0.89571567642E+02  0.11738426928E+03  0.36795450457E+03  0.40506600634E+03  0.82980839080E+02 0.  0.
         23    2    4    4    0    0  0.11713274501E+03  0.10417208383E+03 -0.50489423258E+03  0.53650129139E+03  0.91343015951E+02 0.  0.
          4    1    3    3  502    0 -0.52821464036E+02 -0.17787517702E+03 -0.81363070106E+03  0.83452058295E+03  0.00000000000E+00 0. -1.
         -4    1    3    3    0  502  0.25260286670E+02 -0.43681176087E+02 -0.35019081100E+03  0.35380747778E+03  0.00000000000E+00 0.  1.
         11    1    5    5    0    0 -0.71357792935E+01  0.14503733997E+02  0.22441336236E+01  0.16319123190E+02  0.00000000000E+00 0.  1.
        -11    1    5    5    0    0 -0.82435788349E+02  0.10288053529E+03  0.36571037095E+03  0.38874688315E+03  0.00000000000E+00 0. -1.
          2    1    6    6  503    0  0.47176229946E+02 -0.43367368668E+00 -0.22078506815E+03  0.22576942013E+03  0.00000000000E+00 0. -1.
         -2    1    6    6    0  503  0.69956515061E+02  0.10460575751E+03 -0.28410916443E+03  0.31073187126E+03  0.00000000000E+00 0.  1.
<mgrwt>
<rscale>  0 0.16865570E+04</rscale>
<asrwt>0</asrwt>
<pdfrwt beam="1">  1        2 0.63779548E-01 0.16865570E+04</pdfrwt>
<pdfrwt beam="2">  1       -2 0.26389666E+00 0.16865570E+04</pdfrwt>
<totfact> 0.38440489E+00</totfact>
</mgrwt>
</event>
<event>
12    2  0.3623523E-008  0.1958385E+04  0.7818608E-02  0.8626328E-01
         -1   -1    0    0    0  501 -0.00000000000E+00  0.00000000000E+00  0.44303450792E+03  0.44303450792E+03  0.00000000000E+00 0.  1.
          1   -1    0    0  501    0  0.00000000000E+00 -0.00000000000E+00 -0.21642057303E+04  0.21642057303E+04  0.00000000000E+00 0. -1.
         23    2    1    2    0    0 -0.10135513261E+03  0.50080122877E+03 -0.14448532734E+04  0.15353689277E+04  0.93177405593E+02 0.  0.
        254    2    1    2    0    0  0.10135513261E+03 -0.50080122877E+03 -0.27631794900E+03  0.10718713105E+04  0.90082282593E+03 0.  0.
         23    2    4    4    0    0 -0.74696359951E+02 -0.23242414931E+02 -0.49555653766E+03  0.51059481340E+03  0.94926421061E+02 0.  0.
         23    2    4    4    0    0  0.17605149256E+03 -0.47755881384E+03  0.21923858865E+03  0.56127649712E+03  0.88933676123E+02 0.  0.
          3    1    3    3  502    0 -0.77271472041E+02  0.47973487363E+03 -0.13240094333E+04  0.14103607372E+04  0.00000000000E+00 0. -1.
         -3    1    3    3    0  502 -0.24083660573E+02  0.21066355141E+02 -0.12084384004E+03  0.12500819054E+03  0.00000000000E+00 0.  1.
         11    1    5    5    0    0  0.85913860485E+01  0.24539573027E+02 -0.13439451031E+03  0.13688640166E+03  0.00000000000E+00 0.  1.
        -11    1    5    5    0    0 -0.83287745999E+02 -0.47781987958E+02 -0.36116202735E+03  0.37370841174E+03  0.00000000000E+00 0. -1.
          4    1    6    6  503    0  0.15000476344E+03 -0.39611100320E+03  0.21658243131E+03  0.47572398033E+03  0.00000000000E+00 0. -1.
         -4    1    6    6    0  503  0.26046729122E+02 -0.81447810642E+02  0.26561573437E+01  0.85552516784E+02  0.00000000000E+00 0.  1.
<mgrwt>
<rscale>  0 0.19583849E+04</rscale>
<asrwt>0</asrwt>
<pdfrwt beam="1">  1        1 0.33295472E+00 0.19583849E+04</pdfrwt>
<pdfrwt beam="2">  1       -1 0.68159156E-01 0.19583849E+04</pdfrwt>
<totfact> 0.46754322E+00</totfact>
</mgrwt>
</event>
<event>
12    2  0.3623523E-008  0.1490782E+04  0.7818608E-02  0.8890606E-01
         -1   -1    0    0    0  501 -0.00000000000E+00  0.00000000000E+00  0.29038901104E+03  0.29038901104E+03  0.00000000000E+00 0.  1.
          1   -1    0    0  501    0  0.00000000000E+00 -0.00000000000E+00 -0.19133224213E+04  0.19133224213E+04  0.00000000000E+00 0. -1.
         23    2    1    2    0    0  0.38234832788E+03 -0.46792552462E+02 -0.12181057744E+03  0.41396320363E+03  0.90265887143E+02 0.  0.
        254    2    1    2    0    0 -0.38234832788E+03  0.46792552462E+02 -0.15011228328E+04  0.17897482287E+04  0.89523693856E+03 0.  0.
         23    2    4    4    0    0 -0.66570913599E+03  0.40007408047E+02 -0.11139071015E+04  0.13014792109E+04  0.91048664589E+02 0.  0.
         23    2    4    4    0    0  0.28336080811E+03  0.67851444153E+01 -0.38721573136E+03  0.48826901779E+03  0.90173307401E+02 0.  0.
          2    1    3    3  502    0  0.15739004076E+03 -0.58904283553E+02 -0.30093782909E+02  0.17072485267E+03  0.00000000000E+00 0.  1.
         -2    1    3    3    0  502  0.22495828713E+03  0.12111731091E+02 -0.91716794534E+02  0.24323835096E+03  0.00000000000E+00 0. -1.
         11    1    5    5    0    0 -0.63515790987E+03  0.57145137103E+02 -0.10461413454E+04  0.12251950260E+04  0.00000000000E+00 0.  1.
        -11    1    5    5    0    0 -0.30551226122E+02 -0.17137729056E+02 -0.67765756093E+02  0.76284184951E+02  0.00000000000E+00 0. -1.
          4    1    6    6  503    0  0.10963581120E+03  0.10614971080E+02 -0.22517582992E+03  0.25067278091E+03  0.00000000000E+00 0. -1.
         -4    1    6    6    0  503  0.17372499691E+03 -0.38298266650E+01 -0.16203990144E+03  0.23759623689E+03  0.00000000000E+00 0.  1.
<mgrwt>
<rscale>  0 0.14907821E+04</rscale>
<asrwt>0</asrwt>
<pdfrwt beam="1">  1        1 0.29435731E+00 0.14907821E+04</pdfrwt>
<pdfrwt beam="2">  1       -1 0.44675231E-01 0.14907821E+04</pdfrwt>
<totfact> 0.16405615E+01</totfact>
</mgrwt>
</event>
<event>
12    2  0.3623523E-008  0.1880452E+04  0.7818608E-02  0.8664648E-01
          2   -1    0    0  501    0  0.00000000000E+00  0.00000000000E+00  0.76668388746E+03  0.76668388746E+03  0.00000000000E+00 0. -1.
         -2   -1    0    0    0  501 -0.00000000000E+00 -0.00000000000E+00 -0.11530503262E+04  0.11530503262E+04  0.00000000000E+00 0.  1.
         23    2    1    2    0    0  0.14159708119E+03  0.15768971474E+02  0.55578312560E+03  0.58100676477E+03  0.91518217606E+02 0.  0.
        254    2    1    2    0    0 -0.14159708119E+03 -0.15768971474E+02 -0.94214956438E+03  0.13387274489E+04  0.94034407905E+03 0.  0.
         23    2    4    4    0    0 -0.40188266358E+03 -0.14217623048E+03 -0.10754122304E+03  0.44939144782E+03  0.93079551565E+02 0.  0.
         23    2    4    4    0    0  0.26028558239E+03  0.12640725900E+03 -0.83460834134E+03  0.88933600112E+03  0.10305367495E+03 0.  0.
          3    1    3    3  502    0  0.97088578977E+02 -0.32653139222E+02  0.30492687587E+03  0.32167191250E+03  0.00000000000E+00 0. -1.
         -3    1    3    3    0  502  0.44508502213E+02  0.48422110696E+02  0.25085624973E+03  0.25933485227E+03  0.00000000000E+00 0.  1.
         11    1    5    5    0    0 -0.13557382388E+03 -0.62824816537E+02 -0.81733264873E+02  0.17031601769E+03  0.00000000000E+00 0. -1.
        -11    1    5    5    0    0 -0.26630883970E+03 -0.79351413939E+02 -0.25807958166E+02  0.27907543013E+03  0.00000000000E+00 0.  1.
          3    1    6    6  503    0  0.53844946061E+02 -0.15755906937E+02 -0.17093495466E+03  0.17990632436E+03  0.00000000000E+00 0. -1.
         -3    1    6    6    0  503  0.20644063633E+03  0.14216316594E+03 -0.66367338668E+03  0.70942967676E+03  0.00000000000E+00 0.  1.
<mgrwt>
<rscale>  0 0.18804522E+04</rscale>
<asrwt>0</asrwt>
<pdfrwt beam="1">  1        2 0.11795137E+00 0.18804522E+04</pdfrwt>
<pdfrwt beam="2">  1       -2 0.17739236E+00 0.18804522E+04</pdfrwt>
<totfact> 0.64579662E+00</totfact>
</mgrwt>
</event>
<event>
12    2  0.3623523E-008  0.2561998E+04  0.7818608E-02  0.8381226E-01
          1   -1    0    0  501    0  0.00000000000E+00  0.00000000000E+00  0.24875610293E+04  0.24875610293E+04  0.00000000000E+00 0. -1.
         -1   -1    0    0    0  501 -0.00000000000E+00 -0.00000000000E+00 -0.65966540262E+03  0.65966540262E+03  0.00000000000E+00 0.  1.
         23    2    1    2    0    0 -0.68970136405E+03 -0.49062951142E+03  0.16980453496E+04  0.18995815987E+04  0.92988988164E+02 0.  0.
        254    2    1    2    0    0  0.68970136405E+03  0.49062951142E+03  0.12985027715E+03  0.12476448332E+04  0.90738704332E+03 0.  0.
         23    2    4    4    0    0  0.11973645248E+03 -0.18980892008E+03  0.24890814765E+03  0.34745581419E+03  0.91684418815E+02 0.  0.
         23    2    4    4    0    0  0.56996491157E+03  0.68043843151E+03 -0.11905787050E+03  0.90018901905E+03  0.91153902770E+02 0.  0.
          1    1    3    3  502    0 -0.69197348455E+03 -0.48989899994E+03  0.16845662678E+04  0.18858928506E+04  0.00000000000E+00 0. -1.
         -1    1    3    3    0  502  0.22721205028E+01 -0.73051148641E+00  0.13479081764E+02  0.13688748073E+02  0.00000000000E+00 0.  1.
         11    1    5    5    0    0 -0.60469814632E+00 -0.58123066027E+02  0.31117215760E+02  0.65931309565E+02  0.00000000000E+00 0.  1.
        -11    1    5    5    0    0  0.12034115062E+03 -0.13168585406E+03  0.21779093189E+03  0.28152450462E+03  0.00000000000E+00 0. -1.
          3    1    6    6  503    0  0.53765531422E+03  0.65511266327E+03 -0.13071128186E+03  0.85751459328E+03  0.00000000000E+00 0. -1.
         -3    1    6    6    0  503  0.32309597357E+02  0.25325768243E+02  0.11653411368E+02  0.42674425772E+02  0.00000000000E+00 0.  1.
<mgrwt>
<rscale>  0 0.25619976E+04</rscale>
<asrwt>0</asrwt>
<pdfrwt beam="1">  1        1 0.38270169E+00 0.25619976E+04</pdfrwt>
<pdfrwt beam="2">  1       -1 0.10148699E+00 0.25619976E+04</pdfrwt>
<totfact> 0.11246297E+00</totfact>
</mgrwt>
</event>
<event>
12    2  0.3623523E-008  0.1182202E+04  0.7818608E-02  0.9128580E-01
         -1   -1    0    0    0  501 -0.00000000000E+00  0.00000000000E+00  0.81942313657E+02  0.81942313657E+02  0.00000000000E+00 0.  1.
          1   -1    0    0  501    0  0.00000000000E+00 -0.00000000000E+00 -0.42639778916E+04  0.42639778916E+04  0.00000000000E+00 0. -1.
         23    2    1    2    0    0 -0.37328799752E+02  0.15081680684E+03 -0.24566691920E+03  0.30436254728E+03  0.90250631456E+02 0.  0.
        254    2    1    2    0    0  0.37328799752E+02 -0.15081680684E+03 -0.39363686587E+04  0.40415576579E+04  0.90280171508E+03 0.  0.
         23    2    4    4    0    0 -0.22868890470E+03 -0.44257983482E+03 -0.23678909685E+04  0.24214208853E+04  0.90531428965E+02 0.  0.
         23    2    4    4    0    0  0.26601770445E+03  0.29176302799E+03 -0.15684776902E+04  0.16201367726E+04  0.93967089433E+02 0.  0.
          4    1    3    3  502    0  0.11548965012E+02  0.48925044986E+02 -0.14337946473E+03  0.15193653124E+03  0.00000000000E+00 0. -1.
         -4    1    3    3    0  502 -0.48877764764E+02  0.10189176185E+03 -0.10228745447E+03  0.15242601603E+03  0.00000000000E+00 0.  1.
         11    1    5    5    0    0 -0.20280094346E+03 -0.42847376591E+03 -0.22786173935E+04  0.23274052541E+04  0.00000000000E+00 0. -1.
        -11    1    5    5    0    0 -0.25887961234E+02 -0.14106068910E+02 -0.89273575044E+02  0.94015631243E+02  0.00000000000E+00 0.  1.
          2    1    6    6  503    0  0.22578498363E+03  0.28252406290E+03 -0.13393427766E+04  0.13873131507E+04  0.00000000000E+00 0. -1.
         -2    1    6    6    0  503  0.40232720815E+02  0.92389650864E+01 -0.22913491359E+03  0.23282362192E+03  0.00000000000E+00 0.  1.
<mgrwt>
<rscale>  0 0.11822017E+04</rscale>
<asrwt>0</asrwt>
<pdfrwt beam="1">  1        1 0.65599669E+00 0.11822017E+04</pdfrwt>
<pdfrwt beam="2">  1       -1 0.12606508E-01 0.11822017E+04</pdfrwt>
<totfact> 0.24851781E+00</totfact>
</mgrwt>
</event>
<event>
12    2  0.3623523E-008  0.2104225E+04  0.7818608E-02  0.8559385E-01
         -1   -1    0    0    0  501 -0.00000000000E+00  0.00000000000E+00  0.13992993465E+04  0.13992993465E+04  0.00000000000E+00 0. -1.
          1   -1    0    0  501    0  0.00000000000E+00 -0.00000000000E+00 -0.79106768416E+03  0.79106768416E+03  0.00000000000E+00 0.  1.
         23    2    1    2    0    0  0.12428512000E+03  0.61137126042E+03  0.86361673089E+03  0.10682125798E+04  0.77605725277E+02 0.  0.
        254    2    1    2    0    0 -0.12428512000E+03 -0.61137126042E+03 -0.25538506855E+03  0.11221544509E+04  0.89709947568E+03 0.  0.
         23    2    4    4    0    0  0.10921845040E+03  0.17955179486E+03  0.56132215824E+02  0.23541981983E+03  0.90023046879E+02 0.  0.
         23    2    4    4    0    0 -0.23350357039E+03 -0.79092305528E+03 -0.31151728437E+03  0.88673463105E+03  0.95771032540E+02 0.  0.
          2    1    3    3  502    0  0.11521460374E+03  0.60665460088E+03  0.84062808189E+03  0.10430531059E+04  0.00000000000E+00 0. -1.
         -2    1    3    3    0  502  0.90705162599E+01  0.47166595425E+01  0.22988649000E+02  0.25159473868E+02  0.00000000000E+00 0.  1.
         11    1    5    5    0    0  0.38823029774E+02  0.13604281417E+03  0.57346856328E+02  0.15265496015E+03  0.00000000000E+00 0. -1.
        -11    1    5    5    0    0  0.70395420622E+02  0.43508980688E+02 -0.12146405045E+01  0.82764859673E+02  0.00000000000E+00 0.  1.
          3    1    6    6  503    0 -0.16105551026E+03 -0.63293213999E+03 -0.21306445555E+03  0.68697775323E+03  0.00000000000E+00 0. -1.
         -3    1    6    6    0  503 -0.72448060132E+02 -0.15799091530E+03 -0.98452828820E+02  0.19975687782E+03  0.00000000000E+00 0.  1.
<mgrwt>
<rscale>  0 0.21042248E+04</rscale>
<asrwt>0</asrwt>
<pdfrwt beam="1">  1        1 0.12170272E+00 0.21042248E+04</pdfrwt>
<pdfrwt beam="2">  1       -1 0.21527682E+00 0.21042248E+04</pdfrwt>
<totfact> 0.24501646E+00</totfact>
</mgrwt>
</event>
<event>
12    2  0.3623523E-008  0.1205307E+04  0.7818608E-02  0.9108224E-01
          1   -1    0    0  501    0  0.00000000000E+00  0.00000000000E+00  0.25633168901E+04  0.25633168901E+04  0.00000000000E+00 0. -1.
         -1   -1    0    0    0  501 -0.00000000000E+00 -0.00000000000E+00 -0.14168804434E+03  0.14168804434E+03  0.00000000000E+00 0.  1.
         23    2    1    2    0    0 -0.68516499202E+02  0.80047397422E+02  0.10327549203E+04  0.10421171827E+04  0.91232673039E+02 0.  0.
        254    2    1    2    0    0  0.68516499202E+02 -0.80047397422E+02  0.13888739254E+04  0.16628877517E+04  0.90836270149E+03 0.  0.
         23    2    4    4    0    0  0.72543543252E+02  0.11483104573E+03 -0.77747161688E+02  0.18038246399E+03  0.89691010879E+02 0.  0.
         23    2    4    4    0    0 -0.40270440494E+01 -0.19487844315E+03  0.14666210871E+04  0.14825052877E+04  0.94078106820E+02 0.  0.
          1    1    3    3  502    0 -0.30838506297E+02  0.93665754427E+02  0.77953737835E+03  0.78574984013E+03  0.00000000000E+00 0. -1.
         -1    1    3    3    0  502 -0.37677992905E+02 -0.13618357005E+02  0.25321754197E+03  0.25636734261E+03  0.00000000000E+00 0.  1.
         11    1    5    5    0    0 -0.98680531755E+01 -0.62967475572E+01  0.42965042303E+01  0.12469460769E+02  0.00000000000E+00 0. -1.
        -11    1    5    5    0    0  0.82411596427E+02  0.12112779329E+03 -0.82043665919E+02  0.16791300322E+03  0.00000000000E+00 0.  1.
          3    1    6    6  503    0 -0.56809760482E+01 -0.12156511741E+03  0.56768031665E+03  0.58057841259E+03  0.00000000000E+00 0. -1.
         -3    1    6    6    0  503  0.16539319989E+01 -0.73313325742E+02  0.89894077047E+03  0.90192687510E+03  0.00000000000E+00 0.  1.
<mgrwt>
<rscale>  0 0.12053072E+04</rscale>
<asrwt>0</asrwt>
<pdfrwt beam="1">  1        1 0.39435641E+00 0.12053072E+04</pdfrwt>
<pdfrwt beam="2">  1       -1 0.21798163E-01 0.12053072E+04</pdfrwt>
<totfact> 0.21576564E+01</totfact>
</mgrwt>
</event>
<event>
12    2  0.3623523E-008  0.1315371E+04  0.7818608E-02  0.9017464E-01
          3   -1    0    0  501    0  0.00000000000E+00  0.00000000000E+00  0.41726730294E+03  0.41726730294E+03  0.00000000000E+00 0. -1.
         -3   -1    0    0    0  501 -0.00000000000E+00 -0.00000000000E+00 -0.10366260864E+04  0.10366260864E+04  0.00000000000E+00 0.  1.
         23    2    1    2    0    0  0.33297346699E+03 -0.53821678091E+01 -0.25566737255E+03  0.42964892203E+03  0.91280301101E+02 0.  0.
        254    2    1    2    0    0 -0.33297346699E+03  0.53821678091E+01 -0.36369141088E+03  0.10242444673E+04  0.89772211122E+03 0.  0.
         23    2    4    4    0    0  0.13993838412E+03 -0.30704349309E+03 -0.27285802374E+03  0.44309540306E+03  0.89574422106E+02 0.  0.
         23    2    4    4    0    0 -0.47291185111E+03  0.31242566090E+03 -0.90833387140E+02  0.58114906423E+03  0.90708974883E+02 0.  0.
          1    1    3    3  502    0  0.15724851848E+03  0.39453904977E+01 -0.17728953609E+03  0.23701105940E+03  0.00000000000E+00 0. -1.
         -1    1    3    3    0  502  0.17572494851E+03 -0.93275583068E+01 -0.78377836461E+02  0.19263786263E+03  0.00000000000E+00 0.  1.
         11    1    5    5    0    0  0.55905760057E+02 -0.21166190289E+03 -0.20030404910E+03  0.29672870981E+03  0.00000000000E+00 0. -1.
        -11    1    5    5    0    0  0.84032624062E+02 -0.95381590201E+02 -0.72553974644E+02  0.14636669325E+03  0.00000000000E+00 0.  1.
          2    1    6    6  503    0 -0.26984357249E+02  0.23774689628E+02  0.15921613969E+02  0.39330512257E+02  0.00000000000E+00 0. -1.
         -2    1    6    6    0  503 -0.44592749386E+03  0.28865097127E+03 -0.10675500111E+03  0.54181855197E+03  0.00000000000E+00 0.  1.
<mgrwt>
<rscale>  0 0.13153709E+04</rscale>
<asrwt>0</asrwt>
<pdfrwt beam="1">  1        3 0.64194971E-01 0.13153709E+04</pdfrwt>
<pdfrwt beam="2">  1       -3 0.15948093E+00 0.13153709E+04</pdfrwt>
<totfact> 0.16572426E+00</totfact>
</mgrwt>
</event>
<event>
12    2  0.3623523E-008  0.2110934E+04  0.7818608E-02  0.8556442E-01
         -2   -1    0    0    0  501 -0.00000000000E+00  0.00000000000E+00  0.12260532254E+04  0.12260532254E+04  0.00000000000E+00 0.  1.
          2   -1    0    0  501    0  0.00000000000E+00 -0.00000000000E+00 -0.90861518865E+03  0.90861518865E+03  0.00000000000E+00 0. -1.
         23    2    1    2    0    0 -0.56721500719E+03  0.44392075572E+03  0.58209261074E+03  0.92996410157E+03  0.84870024091E+02 0.  0.
        254    2    1    2    0    0  0.56721500719E+03 -0.44392075572E+03 -0.26465457401E+03  0.12047043125E+04  0.92869367134E+03 0.  0.
         23    2    4    4    0    0  0.52344348296E+03 -0.66275820706E+03 -0.38873942497E+03  0.93408601803E+03  0.90315157547E+02 0.  0.
         23    2    4    4    0    0  0.43771524229E+02  0.21883745134E+03  0.12408485096E+03  0.27061829444E+03  0.89618271592E+02 0.  0.
          3    1    3    3  502    0 -0.11929524804E+03  0.13124360082E+03  0.11642393361E+03  0.21215742099E+03  0.00000000000E+00 0. -1.
         -3    1    3    3    0  502 -0.44791975914E+03  0.31267715489E+03  0.46566867713E+03  0.71780668058E+03  0.00000000000E+00 0.  1.
         11    1    5    5    0    0  0.62601969795E+02 -0.54000464330E+02 -0.63199713712E+02  0.10406373328E+03  0.00000000000E+00 0. -1.
        -11    1    5    5    0    0  0.46084151316E+03 -0.60875774272E+03 -0.32553971126E+03  0.83002228475E+03  0.00000000000E+00 0.  1.
          4    1    6    6  503    0  0.18094910481E+02  0.83409859780E+02  0.98656847501E+02  0.13045230566E+03  0.00000000000E+00 0. -1.
         -4    1    6    6    0  503  0.25676613749E+02  0.13542759156E+03  0.25428003464E+02  0.14016598877E+03  0.00000000000E+00 0.  1.
<mgrwt>
<rscale>  0 0.21109340E+04</rscale>
<asrwt>0</asrwt>
<pdfrwt beam="1">  1        2 0.13978695E+00 0.21109340E+04</pdfrwt>
<pdfrwt beam="2">  1       -2 0.18862357E+00 0.21109340E+04</pdfrwt>
<totfact> 0.42163631E+00</totfact>
</mgrwt>
</event>
<event>
12    2  0.3623523E-008  0.1503194E+04  0.7818608E-02  0.8882332E-01
         -2   -1    0    0    0  501 -0.00000000000E+00  0.00000000000E+00  0.14245786487E+03  0.14245786487E+03  0.00000000000E+00 0.  1.
          2   -1    0    0  501    0  0.00000000000E+00 -0.00000000000E+00 -0.39653690421E+04  0.39653690421E+04  0.00000000000E+00 0. -1.
         23    2    1    2    0    0 -0.22152890842E+03  0.23601255217E+03 -0.22045527194E+04  0.22300502657E+04  0.91074216454E+02 0.  0.
        254    2    1    2    0    0  0.22152890842E+03 -0.23601255217E+03 -0.16183584578E+04  0.18777766413E+04  0.89564727121E+03 0.  0.
         23    2    4    4    0    0 -0.29701919485E+03 -0.11002872479E+03 -0.27872873242E+03  0.43298828916E+03  0.97275021907E+02 0.  0.
         23    2    4    4    0    0  0.51854810327E+03 -0.12598382737E+03 -0.13396297254E+04  0.14447883521E+04  0.89674528205E+02 0.  0.
          2    1    3    3  502    0 -0.84959328154E+02  0.97063628282E+02 -0.11891046498E+04  0.11960808098E+04  0.00000000000E+00 0. -1.
         -2    1    3    3    0  502 -0.13656958026E+03  0.13894892389E+03 -0.10154480695E+04  0.10339694559E+04  0.00000000000E+00 0.  1.
         11    1    5    5    0    0 -0.21187775678E+03 -0.75355229548E+02 -0.13474178157E+03  0.26215633149E+03  0.00000000000E+00 0. -1.
        -11    1    5    5    0    0 -0.85141438076E+02 -0.34673495246E+02 -0.14398695084E+03  0.17083195768E+03  0.00000000000E+00 0.  1.
          3    1    6    6  503    0  0.31950106785E+03 -0.11903314998E+03 -0.88720634982E+03  0.95046563869E+03  0.00000000000E+00 0. -1.
         -3    1    6    6    0  503  0.19904703542E+03 -0.69506773883E+01 -0.45242337559E+03  0.49432271342E+03  0.00000000000E+00 0.  1.
<mgrwt>
<rscale>  0 0.15031939E+04</rscale>
<asrwt>0</asrwt>
<pdfrwt beam="1">  1        2 0.61005667E+00 0.15031939E+04</pdfrwt>
<pdfrwt beam="2">  1       -2 0.21916598E-01 0.15031939E+04</pdfrwt>
<totfact> 0.65544321E+00</totfact>
</mgrwt>
</event>
<event>
12    2  0.3623523E-008  0.2773516E+04  0.7818608E-02  0.8311538E-01
         -2   -1    0    0    0  501 -0.00000000000E+00  0.00000000000E+00  0.11742774325E+04  0.11742774325E+04  0.00000000000E+00 0.  1.
          2   -1    0    0  501    0  0.00000000000E+00 -0.00000000000E+00 -0.16376861265E+04  0.16376861265E+04  0.00000000000E+00 0. -1.
         23    2    1    2    0    0 -0.41844637159E+03 -0.11493215283E+04 -0.15575109251E+02  0.12271111017E+04  0.97579355530E+02 0.  0.
        254    2    1    2    0    0  0.41844637159E+03  0.11493215283E+04 -0.44783358473E+03  0.15848524573E+04  0.90286491278E+03 0.  0.
         23    2    4    4    0    0 -0.13302550750E+03  0.88250678549E+03 -0.21244648302E+03  0.92231326629E+03  0.94943356568E+02 0.  0.
         23    2    4    4    0    0  0.55147187909E+03  0.26681474277E+03 -0.23538710171E+03  0.66253919105E+03  0.90773077756E+02 0.  0.
          1    1    3    3  502    0 -0.38015648980E+03 -0.10333599233E+04 -0.43162740225E+02  0.11019141119E+04  0.00000000000E+00 0. -1.
         -1    1    3    3    0  502 -0.38289881787E+02 -0.11596160493E+03  0.27587630974E+02  0.12519698978E+03  0.00000000000E+00 0.  1.
         11    1    5    5    0    0 -0.11271619774E+02  0.61216542496E+02 -0.40986214171E+02  0.74527741410E+02  0.00000000000E+00 0.  1.
        -11    1    5    5    0    0 -0.12175388773E+03  0.82129024299E+03 -0.17146026885E+03  0.84778552488E+03  0.00000000000E+00 0. -1.
          2    1    6    6  503    0  0.33592213774E+03  0.13811917436E+03 -0.97273674833E+02  0.37600898496E+03  0.00000000000E+00 0. -1.
         -2    1    6    6    0  503  0.21554974135E+03  0.12869556841E+03 -0.13811342688E+03  0.28653020610E+03  0.00000000000E+00 0.  1.
<mgrwt>
<rscale>  0 0.27735161E+04</rscale>
<asrwt>0</asrwt>
<pdfrwt beam="1">  1        2 0.25195171E+00 0.27735161E+04</pdfrwt>
<pdfrwt beam="2">  1       -2 0.18065807E+00 0.27735161E+04</pdfrwt>
<totfact> 0.16626321E+00</totfact>
</mgrwt>
</event>
<event>
12    2  0.3623523E-008  0.1589247E+04  0.7818608E-02  0.8827181E-01
         -2   -1    0    0    0  501 -0.00000000000E+00  0.00000000000E+00  0.45707274688E+03  0.45707274688E+03  0.00000000000E+00 0.  1.
          2   -1    0    0  501    0  0.00000000000E+00 -0.00000000000E+00 -0.13814571645E+04  0.13814571645E+04  0.00000000000E+00 0. -1.
         23    2    1    2    0    0  0.26152741105E+03 -0.18743455860E+03  0.18965869144E+03  0.38421406528E+03  0.90120631524E+02 0.  0.
        254    2    1    2    0    0 -0.26152741105E+03  0.18743455860E+03 -0.11140431090E+04  0.14543158461E+04  0.87773243696E+03 0.  0.
         23    2    4    4    0    0 -0.22430206640E+03 -0.14684462886E+03 -0.10654479863E+04  0.11024922463E+04  0.91842145824E+02 0.  0.
         23    2    4    4    0    0 -0.37225344655E+02  0.33427918745E+03 -0.48595122766E+02  0.35182359976E+03  0.91049755295E+02 0.  0.
          3    1    3    3  502    0  0.58486239647E+02 -0.33157439375E+02  0.13991391339E+01  0.67245918867E+02  0.00000000000E+00 0. -1.
         -3    1    3    3    0  502  0.20304117141E+03 -0.15427711922E+03  0.18825955231E+03  0.31696814641E+03  0.00000000000E+00 0.  1.
         11    1    5    5    0    0 -0.22781896033E+03 -0.15030145622E+03 -0.10619083173E+04  0.10964220359E+04  0.00000000000E+00 0. -1.
        -11    1    5    5    0    0  0.35168939279E+01  0.34568273643E+01 -0.35396689598E+01  0.60702104306E+01  0.00000000000E+00 0.  1.
          2    1    6    6  503    0 -0.30021575539E+02  0.33501157672E+03 -0.37312479338E+02  0.33841730548E+03  0.00000000000E+00 0. -1.
         -2    1    6    6    0  503 -0.72037691161E+01 -0.73238926552E+00 -0.11282643428E+02  0.13406294276E+02  0.00000000000E+00 0.  1.
<mgrwt>
<rscale>  0 0.15892469E+04</rscale>
<asrwt>0</asrwt>
<pdfrwt beam="1">  1        2 0.21253187E+00 0.15892469E+04</pdfrwt>
<pdfrwt beam="2">  1       -2 0.70318885E-01 0.15892469E+04</pdfrwt>
<totfact> 0.26194398E+01</totfact>
</mgrwt>
</event>
<event>
12    2  0.3623523E-008  0.1958191E+04  0.7818608E-02  0.8626421E-01
          1   -1    0    0  501    0  0.00000000000E+00  0.00000000000E+00  0.15436323687E+04  0.15436323687E+04  0.00000000000E+00 0.  1.
         -1   -1    0    0    0  501 -0.00000000000E+00 -0.00000000000E+00 -0.62102069892E+03  0.62102069892E+03  0.00000000000E+00 0. -1.
         23    2    1    2    0    0 -0.43464419891E+03 -0.48885040558E+03  0.81514115063E+03  0.10492335361E+04  0.92442518239E+02 0.  0.
        254    2    1    2    0    0  0.43464419891E+03  0.48885040558E+03  0.10747051915E+03  0.11154195315E+04  0.89706216068E+03 0.  0.
         23    2    4    4    0    0 -0.88353864779E+02 -0.18766324299E+03 -0.70226597308E+02  0.23729054594E+03  0.91384517452E+02 0.  0.
         23    2    4    4    0    0  0.52299806369E+03  0.67651364857E+03  0.17769711646E+03  0.87812898558E+03  0.91304757788E+02 0.  0.
          1    1    3    3  502    0 -0.54184753061E+02 -0.76948656026E+02  0.17131028950E+03  0.19545919886E+03  0.00000000000E+00 0. -1.
         -1    1    3    3    0  502 -0.38045944585E+03 -0.41190174955E+03  0.64383086113E+03  0.85377433726E+03  0.00000000000E+00 0.  1.
         11    1    5    5    0    0 -0.64018342710E+02 -0.17635806495E+03 -0.31603533999E+02  0.19026113275E+03  0.00000000000E+00 0. -1.
        -11    1    5    5    0    0 -0.24335522069E+02 -0.11305178044E+02 -0.38623063308E+02  0.47029413183E+02  0.00000000000E+00 0.  1.
          2    1    6    6  503    0  0.47963537619E+03  0.65080629838E+03  0.15659898948E+03  0.82348173970E+03  0.00000000000E+00 0. -1.
         -2    1    6    6    0  503  0.43362687496E+02  0.25707350185E+02  0.21098126973E+02  0.54647245879E+02  0.00000000000E+00 0.  1.
<mgrwt>
<rscale>  0 0.19581906E+04</rscale>
<asrwt>0</asrwt>
<pdfrwt beam="1">  1        1 0.23748190E+00 0.19581906E+04</pdfrwt>
<pdfrwt beam="2">  1       -1 0.95541646E-01 0.19581906E+04</pdfrwt>
<totfact> 0.60052450E+00</totfact>
</mgrwt>
</event>
<event>
12    2  0.3623523E-008  0.1862398E+04  0.7818608E-02  0.8673803E-01
          2   -1    0    0  501    0  0.00000000000E+00  0.00000000000E+00  0.36841223289E+04  0.36841223289E+04  0.00000000000E+00 0. -1.
         -2   -1    0    0    0  501 -0.00000000000E+00 -0.00000000000E+00 -0.23536991366E+03  0.23536991366E+03  0.00000000000E+00 0.  1.
         23    2    1    2    0    0  0.77417943825E+01 -0.70916222961E+03  0.13590526133E+04  0.15356913035E+04  0.91393492808E+02 0.  0.
        254    2    1    2    0    0 -0.77417943825E+01  0.70916222961E+03  0.20896998019E+04  0.23838009390E+04  0.90149356722E+03 0.  0.
         23    2    4    4    0    0  0.14247724991E+02  0.14818317959E+03  0.16641844110E+04  0.16732882570E+04  0.90678469581E+02 0.  0.
         23    2    4    4    0    0 -0.21989519373E+02  0.56097905002E+03  0.42551539090E+03  0.71051268206E+03  0.92649284664E+02 0.  0.
          1    1    3    3  502    0 -0.15635244222E+02 -0.19719825067E+02  0.44149506879E+02  0.50818415168E+02  0.00000000000E+00 0. -1.
         -1    1    3    3    0  502  0.23377038605E+02 -0.68944240454E+03  0.13149031064E+04  0.14848728883E+04  0.00000000000E+00 0.  1.
         11    1    5    5    0    0  0.55718223418E+01  0.15271854348E+02  0.34158858603E+02  0.37829913567E+02  0.00000000000E+00 0. -1.
        -11    1    5    5    0    0  0.86759026490E+01  0.13291132524E+03  0.16300255524E+04  0.16354583434E+04  0.00000000000E+00 0.  1.
          3    1    6    6  503    0  0.28041069748E+02  0.22774467852E+03  0.20586016606E+03  0.30827317132E+03  0.00000000000E+00 0. -1.
         -3    1    6    6    0  503 -0.50030589121E+02  0.33323437150E+03  0.21965522484E+03  0.40223951074E+03  0.00000000000E+00 0.  1.
<mgrwt>
<rscale>  0 0.18623980E+04</rscale>
<asrwt>0</asrwt>
<pdfrwt beam="1">  1        2 0.56678801E+00 0.18623980E+04</pdfrwt>
<pdfrwt beam="2">  1       -2 0.36210759E-01 0.18623980E+04</pdfrwt>
<totfact> 0.40800213E+00</totfact>
</mgrwt>
</event>
<event>
12    2  0.3623523E-008  0.3007672E+04  0.7818608E-02  0.8241544E-01
         -1   -1    0    0    0  501 -0.00000000000E+00  0.00000000000E+00  0.55828944327E+03  0.55828944327E+03  0.00000000000E+00 0.  1.
          1   -1    0    0  501    0  0.00000000000E+00 -0.00000000000E+00 -0.40508060388E+04  0.40508060388E+04  0.00000000000E+00 0. -1.
         23    2    1    2    0    0  0.88547724337E+03 -0.89656408113E+03 -0.24059850323E+04  0.27175737825E+04  0.92445591091E+02 0.  0.
        254    2    1    2    0    0 -0.88547724337E+03  0.89656408113E+03 -0.10865315632E+04  0.18915216996E+04  0.89967016294E+03 0.  0.
         23    2    4    4    0    0 -0.96281108275E+03  0.44345546305E+03 -0.87136033601E+03  0.13754718880E+04  0.94848040513E+02 0.  0.
         23    2    4    4    0    0  0.77333839374E+02  0.45310861807E+03 -0.21517122718E+03  0.51604981156E+03  0.93385269297E+02 0.  0.
          1    1    3    3  502    0  0.85643002251E+03 -0.86490746927E+03 -0.22814618221E+04  0.25858471261E+04  0.00000000000E+00 0. -1.
         -1    1    3    3    0  502  0.29047220860E+02 -0.31656611853E+02 -0.12452321024E+03  0.13172665638E+03  0.00000000000E+00 0.  1.
         11    1    5    5    0    0 -0.74896222944E+03  0.38713149255E+03 -0.69385799543E+03  0.10919039021E+04  0.00000000000E+00 0.  1.
        -11    1    5    5    0    0 -0.21384885330E+03  0.56323970506E+02 -0.17750234058E+03  0.28356798590E+03  0.00000000000E+00 0. -1.
          3    1    6    6  503    0  0.65733921644E+01  0.30296155260E+03 -0.14192537259E+03  0.33462176143E+03  0.00000000000E+00 0. -1.
         -3    1    6    6    0  503  0.70760447209E+02  0.15014706547E+03 -0.73245854590E+02  0.18142805013E+03  0.00000000000E+00 0.  1.
<mgrwt>
<rscale>  0 0.30076717E+04</rscale>
<asrwt>0</asrwt>
<pdfrwt beam="1">  1        1 0.62320093E+00 0.30076717E+04</pdfrwt>
<pdfrwt beam="2">  1       -1 0.85890683E-01 0.30076717E+04</pdfrwt>
<totfact> 0.98387926E-02</totfact>
</mgrwt>
</event>
<event>
12    2  0.3623523E-008  0.2052760E+04  0.7818608E-02  0.8582343E-01
          2   -1    0    0  501    0  0.00000000000E+00  0.00000000000E+00  0.26465061777E+04  0.26465061777E+04  0.00000000000E+00 0. -1.
         -2   -1    0    0    0  501 -0.00000000000E+00 -0.00000000000E+00 -0.39805536488E+03  0.39805536488E+03  0.00000000000E+00 0.  1.
         23    2    1    2    0    0 -0.13618651187E+03  0.77407448331E+03  0.11893024248E+04  0.14285841643E+04  0.93136378834E+02 0.  0.
        254    2    1    2    0    0  0.13618651187E+03 -0.77407448331E+03  0.10591483880E+04  0.16159773783E+04  0.93372881907E+03 0.  0.
         23    2    4    4    0    0 -0.14109830447E+03 -0.78815580477E+03  0.41031178462E+03  0.90420637510E+03  0.90194811672E+02 0.  0.
         23    2    4    4    0    0  0.27728481635E+03  0.14081321457E+02  0.64883660338E+03  0.71177100318E+03  0.92433057331E+02 0.  0.
          1    1    3    3  502    0 -0.78437709933E+02  0.37222270323E+03  0.65634885481E+03  0.75861454926E+03  0.00000000000E+00 0. -1.
         -1    1    3    3    0  502 -0.57748801940E+02  0.40185178009E+03  0.53295356996E+03  0.66996961500E+03  0.00000000000E+00 0.  1.
         11    1    5    5    0    0 -0.29064158241E+02 -0.32605392919E+03  0.20533657155E+03  0.38641816423E+03  0.00000000000E+00 0.  1.
        -11    1    5    5    0    0 -0.11203414623E+03 -0.46210187558E+03  0.20497521307E+03  0.51778821086E+03  0.00000000000E+00 0. -1.
          4    1    6    6  503    0  0.22346296970E+03  0.48537439069E+02  0.50192828959E+03  0.55156467409E+03  0.00000000000E+00 0.  1.
         -4    1    6    6    0  503  0.53821846647E+02 -0.34456117613E+02  0.14690831379E+03  0.16020632908E+03  0.00000000000E+00 0. -1.
<mgrwt>
<rscale>  0 0.20527601E+04</rscale>
<asrwt>0</asrwt>
<pdfrwt beam="1">  1        2 0.40715479E+00 0.20527601E+04</pdfrwt>
<pdfrwt beam="2">  1       -2 0.61239288E-01 0.20527601E+04</pdfrwt>
<totfact> 0.65598383E+00</totfact>
</mgrwt>
</event>
<event>
12    2  0.3623523E-008  0.1438142E+04  0.7818608E-02  0.8926663E-01
         -1   -1    0    0    0  501 -0.00000000000E+00  0.00000000000E+00  0.79471661138E+03  0.79471661138E+03  0.00000000000E+00 0.  1.
          1   -1    0    0  501    0  0.00000000000E+00 -0.00000000000E+00 -0.65062547658E+03  0.65062547658E+03  0.00000000000E+00 0. -1.
         23    2    1    2    0    0 -0.62700827225E+02  0.28335806259E+02  0.47438971179E+03  0.48784981384E+03  0.90650595985E+02 0.  0.
        254    2    1    2    0    0  0.62700827225E+02 -0.28335806259E+02 -0.33029857699E+03  0.95749227412E+03  0.89608034985E+03 0.  0.
         23    2    4    4    0    0  0.40995714491E+03 -0.13731944805E+03 -0.37599339480E+03  0.57979682474E+03  0.88723354184E+02 0.  0.
         23    2    4    4    0    0 -0.34725631768E+03  0.10898364179E+03  0.45694817801E+02  0.37769544938E+03  0.90008064970E+02 0.  0.
          3    1    3    3  502    0 -0.49187708320E+02  0.46145743145E+02  0.17376690367E+03  0.18639688053E+03  0.00000000000E+00 0. -1.
         -3    1    3    3    0  502 -0.13513118905E+02 -0.17809936886E+02  0.30062280812E+03  0.30145293330E+03  0.00000000000E+00 0.  1.
         11    1    5    5    0    0  0.10242744604E+03  0.41869869417E+01 -0.78258169094E+02  0.12896997167E+03  0.00000000000E+00 0.  1.
        -11    1    5    5    0    0  0.30752969886E+03 -0.14150643499E+03 -0.29773522570E+03  0.45082685307E+03  0.00000000000E+00 0. -1.
          2    1    6    6  503    0 -0.13080220017E+03  0.76372012017E+02 -0.10091472451E+02  0.15180163901E+03  0.00000000000E+00 0. -1.
         -2    1    6    6    0  503 -0.21645411751E+03  0.32611629772E+02  0.55786290252E+02  0.22589381037E+03  0.00000000000E+00 0.  1.
<mgrwt>
<rscale>  0 0.14381417E+04</rscale>
<asrwt>0</asrwt>
<pdfrwt beam="1">  1        1 0.10009623E+00 0.14381417E+04</pdfrwt>
<pdfrwt beam="2">  1       -1 0.12226409E+00 0.14381417E+04</pdfrwt>
<totfact> 0.17485906E+01</totfact>
</mgrwt>
</event>
<event>
12    2  0.3623523E-008  0.1678970E+04  0.7818608E-02  0.8773450E-01
          2   -1    0    0  501    0  0.00000000000E+00  0.00000000000E+00  0.10847000774E+04  0.10847000774E+04  0.00000000000E+00 0.  1.
         -2   -1    0    0    0  501 -0.00000000000E+00 -0.00000000000E+00 -0.64970503829E+03  0.64970503829E+03  0.00000000000E+00 0. -1.
         23    2    1    2    0    0  0.51766084452E+03  0.14002536310E+03 -0.12321876873E+03  0.55730538205E+03  0.88467913021E+02 0.  0.
        254    2    1    2    0    0 -0.51766084452E+03 -0.14002536310E+03  0.55821380782E+03  0.11770997336E+04  0.88678141353E+03 0.  0.
         23    2    4    4    0    0  0.10413235792E+03 -0.27083490166E+03  0.42284127169E+03  0.52089978825E+03  0.91360584676E+02 0.  0.
         23    2    4    4    0    0 -0.62179320244E+03  0.13080953855E+03  0.13537253613E+03  0.65619994538E+03  0.92383563428E+02 0.  0.
          1    1    3    3  502    0  0.47198591224E+03  0.15276572706E+03 -0.11286320700E+03  0.50876927208E+03  0.00000000000E+00 0. -1.
         -1    1    3    3    0  502  0.45674932286E+02 -0.12740363956E+02 -0.10355561727E+02  0.48536109977E+02  0.00000000000E+00 0.  1.
         11    1    5    5    0    0  0.20138653839E+02 -0.13829656701E+02  0.83561702391E+02  0.87059651328E+02  0.00000000000E+00 0. -1.
        -11    1    5    5    0    0  0.83993704081E+02 -0.25700524495E+03  0.33927956930E+03  0.43384013692E+03  0.00000000000E+00 0.  1.
          2    1    6    6  503    0 -0.31161235996E+03  0.22205357713E+02  0.47335445032E+02  0.31596832934E+03  0.00000000000E+00 0.  1.
         -2    1    6    6    0  503 -0.31018084248E+03  0.10860418084E+03  0.88037091103E+02  0.34023161603E+03  0.00000000000E+00 0. -1.
<mgrwt>
<rscale>  0 0.16789700E+04</rscale>
<asrwt>0</asrwt>
<pdfrwt beam="1">  1        2 0.16687693E+00 0.16789700E+04</pdfrwt>
<pdfrwt beam="2">  1       -2 0.99954622E-01 0.16789700E+04</pdfrwt>
<totfact> 0.17552637E+01</totfact>
</mgrwt>
</event>
<event>
12    2  0.3623523E-008  0.1577572E+04  0.7818608E-02  0.8834446E-01
         -1   -1    0    0    0  501 -0.00000000000E+00  0.00000000000E+00  0.16856479675E+03  0.16856479675E+03  0.00000000000E+00 0.  1.
          1   -1    0    0  501    0  0.00000000000E+00 -0.00000000000E+00 -0.36910648216E+04  0.36910648216E+04  0.00000000000E+00 0. -1.
         23    2    1    2    0    0 -0.14586698632E+02 -0.33351928516E+03 -0.21809447109E+04  0.22082032293E+04  0.90519526007E+02 0.  0.
        254    2    1    2    0    0  0.14586698632E+02  0.33351928516E+03 -0.13415553140E+04  0.16514263891E+04  0.90332196513E+03 0.  0.
         23    2    4    4    0    0  0.41054432168E+03  0.17920046899E+03 -0.37044606848E+03  0.58760232085E+03  0.85946202183E+02 0.  0.
         23    2    4    4    0    0 -0.39595762305E+03  0.15431881617E+03 -0.97110924550E+03  0.10638240682E+04  0.89842891393E+02 0.  0.
          3    1    3    3  502    0  0.22639779174E+02 -0.25828783837E+03 -0.15208118966E+04  0.15427553247E+04  0.00000000000E+00 0. -1.
         -3    1    3    3    0  502 -0.37226477806E+02 -0.75231446786E+02 -0.66013281425E+03  0.66544790456E+03  0.00000000000E+00 0.  1.
         11    1    5    5    0    0  0.39776412347E+03  0.15156674213E+03 -0.34464094792E+03  0.54769166346E+03  0.00000000000E+00 0.  1.
        -11    1    5    5    0    0  0.12780198211E+02  0.27633726861E+02 -0.25805120557E+02  0.39910657393E+02  0.00000000000E+00 0. -1.
          3    1    6    6  503    0 -0.54994885212E+02  0.47225123832E+02 -0.22791787841E+03  0.23916774243E+03  0.00000000000E+00 0. -1.
         -3    1    6    6    0  503 -0.34096273784E+03  0.10709369234E+03 -0.74319136709E+03  0.82465632578E+03  0.00000000000E+00 0.  1.
<mgrwt>
<rscale>  0 0.15775723E+04</rscale>
<asrwt>0</asrwt>
<pdfrwt beam="1">  1        1 0.56785608E+00 0.15775723E+04</pdfrwt>
<pdfrwt beam="2">  1       -1 0.25933048E-01 0.15775723E+04</pdfrwt>
<totfact> 0.22460236E+00</totfact>
</mgrwt>
</event>
<event>
12    2  0.3623523E-008  0.1457828E+04  0.7818608E-02  0.8912991E-01
         -2   -1    0    0    0  501 -0.00000000000E+00  0.00000000000E+00  0.40133154917E+03  0.40133154917E+03  0.00000000000E+00 0.  1.
          2   -1    0    0  501    0  0.00000000000E+00 -0.00000000000E+00 -0.13238828283E+04  0.13238828283E+04  0.00000000000E+00 0. -1.
         23    2    1    2    0    0 -0.23916704893E+03  0.32752560720E+03 -0.53937450114E+03  0.68096351215E+03  0.91173196362E+02 0.  0.
        254    2    1    2    0    0  0.23916704893E+03 -0.32752560720E+03 -0.38317677800E+03  0.10442508653E+04  0.88270126649E+03 0.  0.
         23    2    4    4    0    0  0.22156652598E+03 -0.28141699421E+03  0.22204454866E+03  0.43064246316E+03  0.88667352623E+02 0.  0.
         23    2    4    4    0    0  0.17600522945E+02 -0.46108612988E+02 -0.60522132666E+03  0.61360840216E+03  0.88241908177E+02 0.  0.
          4    1    3    3  502    0 -0.11866972586E+03  0.12163002617E+03 -0.16377491575E+03  0.23600548750E+03  0.00000000000E+00 0. -1.
         -4    1    3    3    0  502 -0.12049732307E+03  0.20589558103E+03 -0.37559958539E+03  0.44495802464E+03  0.00000000000E+00 0.  1.
         11    1    5    5    0    0  0.30205135971E+02 -0.10260379249E+03  0.59366890691E+02  0.12232872182E+03  0.00000000000E+00 0. -1.
        -11    1    5    5    0    0  0.19136139001E+03 -0.17881320173E+03  0.16267765797E+03  0.30831374134E+03  0.00000000000E+00 0.  1.
          4    1    6    6  503    0  0.17225574254E+02  0.20869427324E+02 -0.87952403252E+02  0.92021077168E+02  0.00000000000E+00 0. -1.
         -4    1    6    6    0  503  0.37494869062E+00 -0.66978040312E+02 -0.51726892341E+03  0.52158732499E+03  0.00000000000E+00 0.  1.
<mgrwt>
<rscale>  0 0.14578284E+04</rscale>
<asrwt>0</asrwt>
<pdfrwt beam="1">  1        2 0.20367428E+00 0.14578284E+04</pdfrwt>
<pdfrwt beam="2">  1       -2 0.61743316E-01 0.14578284E+04</pdfrwt>
<totfact> 0.37815944E+01</totfact>
</mgrwt>
</event>
<event>
12    2  0.3623523E-008  0.1238280E+04  0.7818608E-02  0.9079995E-01
          2   -1    0    0  501    0  0.00000000000E+00  0.00000000000E+00  0.63212940027E+03  0.63212940027E+03  0.00000000000E+00 0. -1.
         -2   -1    0    0    0  501 -0.00000000000E+00 -0.00000000000E+00 -0.60641705639E+03  0.60641705639E+03  0.00000000000E+00 0.  1.
         23    2    1    2    0    0 -0.19728581459E+03 -0.10013452808E+03  0.16839159031E+03  0.29357332253E+03  0.94238801232E+02 0.  0.
        254    2    1    2    0    0  0.19728581459E+03  0.10013452808E+03 -0.14267924644E+03  0.94497313413E+03  0.90756170066E+03 0.  0.
         23    2    4    4    0    0 -0.22045376262E+03 -0.94321136477E+02 -0.34523632083E+03  0.43242385190E+03  0.10151813744E+03 0.  0.
         23    2    4    4    0    0  0.41773957721E+03  0.19445566456E+03  0.20255707439E+03  0.51254928223E+03  0.96736955100E+02 0.  0.
          2    1    3    3  502    0 -0.53658853008E+02 -0.72870087055E+02  0.90258081208E+02  0.12781174953E+03  0.00000000000E+00 0. -1.
         -2    1    3    3    0  502 -0.14362696158E+03 -0.27264441024E+02  0.78133509107E+02  0.16576157300E+03  0.00000000000E+00 0.  1.
         11    1    5    5    0    0 -0.12001079095E+03 -0.10466708699E+03 -0.21889940702E+03  0.27069307239E+03  0.00000000000E+00 0. -1.
        -11    1    5    5    0    0 -0.10044297167E+03  0.10345950516E+02 -0.12633691381E+03  0.16173077951E+03  0.00000000000E+00 0.  1.
          3    1    6    6  503    0  0.91847433927E+02  0.41733256342E+01  0.56372558008E+02  0.10784819452E+03  0.00000000000E+00 0. -1.
         -3    1    6    6    0  503  0.32589214329E+03  0.19028233892E+03  0.14618451638E+03  0.40470108771E+03  0.00000000000E+00 0.  1.
<mgrwt>
<rscale>  0 0.12382795E+04</rscale>
<asrwt>0</asrwt>
<pdfrwt beam="1">  1        2 0.97250677E-01 0.12382795E+04</pdfrwt>
<pdfrwt beam="2">  1       -2 0.93294932E-01 0.12382795E+04</pdfrwt>
<totfact> 0.44550168E+01</totfact>
</mgrwt>
</event>
<event>
12    2  0.3623523E-008  0.3202660E+04  0.7818608E-02  0.8188115E-01
         -2   -1    0    0    0  501 -0.00000000000E+00  0.00000000000E+00  0.15555916446E+04  0.15555916446E+04  0.00000000000E+00 0.  1.
          2   -1    0    0  501    0  0.00000000000E+00 -0.00000000000E+00 -0.16484136568E+04  0.16484136568E+04  0.00000000000E+00 0. -1.
         23    2    1    2    0    0 -0.12203013471E+04 -0.25861252648E+03  0.74033395069E+03  0.14535084488E+04  0.92610126204E+02 0.  0.
        254    2    1    2    0    0  0.12203013471E+04  0.25861252648E+03 -0.83315596291E+03  0.17504968526E+04  0.90226080248E+03 0.  0.
         23    2    4    4    0    0  0.35519139616E+03 -0.15456461930E+03  0.99803477279E+02  0.40966173637E+03  0.88379040046E+02 0.  0.
         23    2    4    4    0    0  0.86510995096E+03  0.41317714578E+03 -0.93295944018E+03  0.13408351162E+04  0.91076400677E+02 0.  0.
          4    1    3    3  502    0 -0.19124986436E+03 -0.16603556099E+02  0.14218031515E+03  0.23888790406E+03  0.00000000000E+00 0. -1.
         -4    1    3    3    0  502 -0.10290514828E+04 -0.24200897038E+03  0.59815363554E+03  0.12146205447E+04  0.00000000000E+00 0.  1.
         11    1    5    5    0    0  0.26672445340E+03 -0.98614276640E+02  0.34915538857E+02  0.28650620316E+03  0.00000000000E+00 0. -1.
        -11    1    5    5    0    0  0.88466942762E+02 -0.55950342662E+02  0.64887938422E+02  0.12315553320E+03  0.00000000000E+00 0.  1.
          3    1    6    6  503    0  0.45843435095E+03  0.16962888922E+03 -0.46024232751E+03  0.67138589070E+03  0.00000000000E+00 0.  1.
         -3    1    6    6    0  503  0.40667560001E+03  0.24354825656E+03 -0.47271711267E+03  0.66944922551E+03  0.00000000000E+00 0. -1.
<mgrwt>
<rscale>  0 0.32026605E+04</rscale>
<asrwt>0</asrwt>
<pdfrwt beam="1">  1        2 0.25360210E+00 0.32026605E+04</pdfrwt>
<pdfrwt beam="2">  1       -2 0.23932179E+00 0.32026605E+04</pdfrwt>
<totfact> 0.65983612E-01</totfact>
</mgrwt>
</event>
<event>
12    2  0.3623523E-008  0.2072549E+04  0.7818608E-02  0.8573433E-01
          1   -1    0    0  501    0  0.00000000000E+00  0.00000000000E+00  0.69118935219E+03  0.69118935219E+03  0.00000000000E+00 0. -1.
         -1   -1    0    0    0  501 -0.00000000000E+00 -0.00000000000E+00 -0.15536481449E+04  0.15536481449E+04  0.00000000000E+00 0.  1.
         23    2    1    2    0    0 -0.73849114142E+03  0.25805106174E+03 -0.33022195932E+02  0.78828748688E+03  0.91362903470E+02 0.  0.
        254    2    1    2    0    0  0.73849114142E+03 -0.25805106174E+03 -0.82943659675E+03  0.14565500102E+04  0.90642889833E+03 0.  0.
         23    2    4    4    0    0  0.19571828851E+03 -0.46489787978E+03 -0.67711395111E+03  0.84921950540E+03  0.90855811568E+02 0.  0.
         23    2    4    4    0    0  0.54277285291E+03  0.20684681803E+03 -0.15232264564E+03  0.60733050478E+03  0.90885519617E+02 0.  0.
          1    1    3    3  502    0 -0.43261960803E+03  0.18262136927E+03 -0.53300771248E+02  0.47260053108E+03  0.00000000000E+00 0. -1.
         -1    1    3    3    0  502 -0.30587153339E+03  0.75429692477E+02  0.20278575316E+02  0.31568695580E+03  0.00000000000E+00 0.  1.
         11    1    5    5    0    0  0.11972921229E+03 -0.18117658157E+03 -0.32179664797E+03  0.38821787778E+03  0.00000000000E+00 0.  1.
        -11    1    5    5    0    0  0.75989076217E+02 -0.28372129821E+03 -0.35531730314E+03  0.46100162762E+03  0.00000000000E+00 0. -1.
          3    1    6    6  503    0  0.29317413591E+03  0.12999753003E+03 -0.12703772966E+03  0.34494784612E+03  0.00000000000E+00 0. -1.
         -3    1    6    6    0  503  0.24959871700E+03  0.76849288003E+02 -0.25284915986E+02  0.26238265867E+03  0.00000000000E+00 0.  1.
<mgrwt>
<rscale>  0 0.20725492E+04</rscale>
<asrwt>0</asrwt>
<pdfrwt beam="1">  1        1 0.10633682E+00 0.20725492E+04</pdfrwt>
<pdfrwt beam="2">  1       -1 0.23902279E+00 0.20725492E+04</pdfrwt>
<totfact> 0.21065683E+00</totfact>
</mgrwt>
</event>
