<event>
12    5  0.5428626E-008  0.2431348E+04  0.7818608E-02  0.8427860E-01
          1   -1    0    0  501    0  0.00000000000E+00  0.00000000000E+00  0.66878710311E+03  0.66878710311E+03  0.00000000000E+00 0. -1.
         -2   -1    0    0    0  501 -0.00000000000E+00 -0.00000000000E+00 -0.22097660791E+04  0.22097660791E+04  0.00000000000E+00 0.  1.
        -24    2    1    2    0    0 -0.10075678564E+04 -0.20519192662E+03 -0.89381445541E+03  0.13658508597E+04  0.96682874662E+02 0.  0.
        254    2    1    2    0    0  0.10075678564E+04  0.20519192662E+03 -0.64716452054E+03  0.15127023225E+04  0.90119347969E+03 0.  0.
         23    2    4    4    0    0  0.41987703335E+03  0.33799441039E+03  0.92528778938E+02  0.55436721409E+03  0.90688965893E+02 0.  0.
         23    2    4    4    0    0  0.58769082302E+03 -0.13280248378E+03 -0.73969329948E+03  0.95833510839E+03  0.90790966032E+02 0.  0.
          1    1    3    3  502    0 -0.67731838981E+02 -0.30672653803E+02 -0.91262923908E+02  0.11771718219E+03  0.00000000000E+00 0. -1.
         -2    1    3    3    0  502 -0.93983601739E+03 -0.17451927281E+03 -0.80255153150E+03  0.12481336775E+04  0.00000000000E+00 0.  1.
         13    1    5    5    0    0  0.42507549118E+02  0.47241699907E+02 -0.16510672662E+02  0.65660279118E+02  0.00000000000E+00 0. -1.
        -13    1    5    5    0    0  0.37736948423E+03  0.29075271049E+03  0.10903945160E+03  0.48870693497E+03  0.00000000000E+00 0.  1.
          3    1    6    6  503    0  0.38174149005E+03 -0.12176860038E+03 -0.52746471132E+03  0.66239956141E+03  0.00000000000E+00 0. -1.
         -3    1    6    6    0  503  0.20594933297E+03 -0.11033883393E+02 -0.21222858816E+03  0.29593554698E+03  0.00000000000E+00 0.  1.
<mgrwt>
<rscale>  0 0.24313478E+04</rscale>
<asrwt>0</asrwt>
<pdfrwt beam="1">  1        1 0.10289032E+00 0.24313478E+04</pdfrwt>
<pdfrwt beam="2">  1       -2 0.33996401E+00 0.24313478E+04</pdfrwt>
<totfact> 0.41155552E-01</totfact>
</mgrwt>
</event>
<event>
12    5  0.5428626E-008  0.2556048E+04  0.7818608E-02  0.8383286E-01
          1   -1    0    0  501    0  0.00000000000E+00  0.00000000000E+00  0.24000816518E+04  0.24000816518E+04  0.00000000000E+00 0. -1.
         -2   -1    0    0    0  501 -0.00000000000E+00 -0.00000000000E+00 -0.68053720043E+03  0.68053720043E+03  0.00000000000E+00 0.  1.
        -24    2    1    2    0    0  0.12187561738E+03  0.29513130165E+02 -0.58590872254E+03  0.60454696498E+03  0.80394718394E+02 0.  0.
        254    2    1    2    0    0 -0.12187561738E+03 -0.29513130165E+02  0.23054531739E+04  0.24760718873E+04  0.89447915728E+03 0.  0.
         23    2    4    4    0    0 -0.19859869298E+03  0.29667171545E+03  0.41969501529E+03  0.55860439970E+03  0.91866326289E+02 0.  0.
         23    2    4    4    0    0  0.76723075600E+02 -0.32618484561E+03  0.18857581586E+04  0.19174674876E+04  0.91185246553E+02 0.  0.
          3    1    3    3  502    0  0.79018128270E+01 -0.22190583410E+02 -0.10621811561E+03  0.10879866140E+03  0.00000000000E+00 0. -1.
         -4    1    3    3    0  502  0.11397380455E+03  0.51703713575E+02 -0.47969060694E+03  0.49574830358E+03  0.00000000000E+00 0.  1.
         13    1    5    5    0    0 -0.91409396343E+02  0.12154912641E+03  0.11276413027E+03  0.18932938744E+03  0.00000000000E+00 0.  1.
        -13    1    5    5    0    0 -0.10718929663E+03  0.17512258903E+03  0.30693088502E+03  0.36927501226E+03  0.00000000000E+00 0. -1.
          1    1    6    6  503    0  0.31966751016E+02 -0.21313278466E+03  0.96874164896E+03  0.99242523118E+03  0.00000000000E+00 0. -1.
         -1    1    6    6    0  503  0.44756324583E+02 -0.11305206096E+03  0.91701650969E+03  0.92504225639E+03  0.00000000000E+00 0.  1.
<mgrwt>
<rscale>  0 0.25560476E+04</rscale>
<asrwt>0</asrwt>
<pdfrwt beam="1">  1        1 0.36924333E+00 0.25560476E+04</pdfrwt>
<pdfrwt beam="2">  1       -2 0.10469803E+00 0.25560476E+04</pdfrwt>
<totfact> 0.91368185E-01</totfact>
</mgrwt>
</event>
<event>
12    5  0.5428626E-008  0.1799638E+04  0.7818608E-02  0.8706492E-01
          1   -1    0    0  501    0  0.00000000000E+00  0.00000000000E+00  0.20644722275E+04  0.20644722275E+04  0.00000000000E+00 0. -1.
         -2   -1    0    0    0  501 -0.00000000000E+00 -0.00000000000E+00 -0.39219441492E+03  0.39219441492E+03  0.00000000000E+00 0.  1.
        -24    2    1    2    0    0 -0.46029101227E+03  0.32053726379E+03  0.11420279085E+03  0.57640075974E+03  0.67702325973E+02 0.  0.
        254    2    1    2    0    0  0.46029101227E+03 -0.32053726379E+03  0.15580750218E+04  0.18802658827E+04  0.89061218428E+03 0.  0.
         23    2    4    4    0    0  0.49844729757E+03 -0.10394899291E+03  0.15553603622E+04  0.16391423317E+04  0.91578522525E+02 0.  0.
         23    2    4    4    0    0 -0.38156285307E+02 -0.21658827088E+03  0.27146596126E+01  0.24112355102E+03  0.98827204197E+02 0.  0.
          1    1    3    3  502    0 -0.13670127083E+03  0.98579290961E+02  0.30558837992E+01  0.16856586985E+03  0.00000000000E+00 0. -1.
         -2    1    3    3    0  502 -0.32358974143E+03  0.22195797283E+03  0.11114690705E+03  0.40783488989E+03  0.00000000000E+00 0.  1.
         13    1    5    5    0    0  0.29010485428E+03 -0.88599179375E+02  0.10311051026E+04  0.10747968988E+04  0.00000000000E+00 0.  1.
        -13    1    5    5    0    0  0.20834244330E+03 -0.15349813536E+02  0.52425525961E+03  0.56434543294E+03  0.00000000000E+00 0. -1.
          3    1    6    6  503    0 -0.52724149769E+02 -0.18504600767E+03  0.32773062205E+02  0.19518179866E+03  0.00000000000E+00 0. -1.
         -3    1    6    6    0  503  0.14567864461E+02 -0.31542263212E+02 -0.30058402592E+02  0.45941752360E+02  0.00000000000E+00 0.  1.
<mgrwt>
<rscale>  0 0.17996383E+04</rscale>
<asrwt>0</asrwt>
<pdfrwt beam="1">  1        1 0.31761111E+00 0.17996383E+04</pdfrwt>
<pdfrwt beam="2">  1       -2 0.60337604E-01 0.17996383E+04</pdfrwt>
<totfact> 0.57146897E+00</totfact>
</mgrwt>
</event>
<event>
12    5  0.5428626E-008  0.1895207E+04  0.7818608E-02  0.8657246E-01
          1   -1    0    0  501    0  0.00000000000E+00  0.00000000000E+00  0.84411988461E+03  0.84411988461E+03  0.00000000000E+00 0. -1.
         -2   -1    0    0    0  501 -0.00000000000E+00 -0.00000000000E+00 -0.10637733293E+04  0.10637733293E+04  0.00000000000E+00 0.  1.
        -24    2    1    2    0    0 -0.14274592490E+03  0.72722041133E+03 -0.10872344501E+03  0.75334492586E+03  0.80510024776E+02 0.  0.
        254    2    1    2    0    0  0.14274592490E+03 -0.72722041133E+03 -0.11092999972E+03  0.11545482881E+04  0.87832246867E+03 0.  0.
         23    2    4    4    0    0 -0.13846321286E+03  0.14708988447E+03  0.21107128688E+02  0.22233957169E+03  0.90453738613E+02 0.  0.
         23    2    4    4    0    0  0.28120913776E+03 -0.87431029580E+03 -0.13203712841E+03  0.93220871640E+03  0.89901141058E+02 0.  0.
          1    1    3    3  502    0 -0.13992369817E+03  0.67573197321E+03 -0.81015226573E+02  0.69480630961E+03  0.00000000000E+00 0. -1.
         -2    1    3    3    0  502 -0.28222267252E+01  0.51488438118E+02 -0.27708218440E+02  0.58538616251E+02  0.00000000000E+00 0.  1.
         13    1    5    5    0    0 -0.10250430146E+03  0.46734900385E+02 -0.43488898505E+01  0.11273950317E+03  0.00000000000E+00 0.  1.
        -13    1    5    5    0    0 -0.35958911395E+02  0.10035498408E+03  0.25456018538E+02  0.10960006852E+03  0.00000000000E+00 0. -1.
          2    1    6    6  503    0  0.18852844963E+03 -0.67722828677E+03 -0.74280581802E+02  0.70689372154E+03  0.00000000000E+00 0. -1.
         -2    1    6    6    0  503  0.92680688123E+02 -0.19708200903E+03 -0.57756546603E+02  0.22531499486E+03  0.00000000000E+00 0.  1.
<mgrwt>
<rscale>  0 0.18952068E+04</rscale>
<asrwt>0</asrwt>
<pdfrwt beam="1">  1        1 0.12986460E+00 0.18952068E+04</pdfrwt>
<pdfrwt beam="2">  1       -2 0.16365743E+00 0.18952068E+04</pdfrwt>
<totfact> 0.39326840E+00</totfact>
</mgrwt>
</event>
<event>
12    5  0.5428626E-008  0.1665269E+04  0.7818608E-02  0.8781425E-01
          1   -1    0    0  501    0  0.00000000000E+00  0.00000000000E+00  0.81209792805E+03  0.81209792805E+03  0.00000000000E+00 0. -1.
         -2   -1    0    0    0  501 -0.00000000000E+00 -0.00000000000E+00 -0.85369012520E+03  0.85369012520E+03  0.00000000000E+00 0.  1.
        -24    2    1    2    0    0 -0.28309824297E+03  0.34585528499E+03  0.37055651919E+03  0.58601962078E+03  0.79664099187E+02 0.  0.
        254    2    1    2    0    0  0.28309824297E+03 -0.34585528499E+03 -0.41214871634E+03  0.10797684325E+04  0.89234119597E+03 0.  0.
         23    2    4    4    0    0  0.38179809619E+03 -0.63166699279E+02  0.15919562408E+03  0.42818761113E+03  0.90783068057E+02 0.  0.
         23    2    4    4    0    0 -0.98699853223E+02 -0.28268858571E+03 -0.57134434042E+03  0.65158082133E+03  0.92025615386E+02 0.  0.
          1    1    3    3  502    0 -0.20781864625E+02  0.11846021715E+02  0.44749651698E+02  0.50741949656E+02  0.00000000000E+00 0. -1.
         -2    1    3    3    0  502 -0.26231637834E+03  0.33400926328E+03  0.32580686749E+03  0.53527767113E+03  0.00000000000E+00 0.  1.
         13    1    5    5    0    0 -0.47946230068E+01 -0.38801997092E+01  0.80507144579E+00  0.62203295406E+01  0.00000000000E+00 0. -1.
        -13    1    5    5    0    0  0.38659271920E+03 -0.59286499570E+02  0.15839055263E+03  0.42196728159E+03  0.00000000000E+00 0.  1.
          3    1    6    6  503    0  0.12567866687E+02 -0.16816266649E+02 -0.17911215323E+02  0.27596190523E+02  0.00000000000E+00 0. -1.
         -3    1    6    6    0  503 -0.11126771991E+03 -0.26587231906E+03 -0.55343312509E+03  0.62398463081E+03  0.00000000000E+00 0.  1.
<mgrwt>
<rscale>  0 0.16652687E+04</rscale>
<asrwt>0</asrwt>
<pdfrwt beam="1">  1        1 0.12493814E+00 0.16652687E+04</pdfrwt>
<pdfrwt beam="2">  1       -2 0.13133694E+00 0.16652687E+04</pdfrwt>
<totfact> 0.76332603E+00</totfact>
</mgrwt>
</event>
<event>
12    5  0.5428626E-008  0.1419761E+04  0.7818608E-02  0.8939637E-01
          1   -1    0    0  501    0  0.00000000000E+00  0.00000000000E+00  0.15200585690E+04  0.15200585690E+04  0.00000000000E+00 0. -1.
         -2   -1    0    0    0  501 -0.00000000000E+00 -0.00000000000E+00 -0.33152038999E+03  0.33152038999E+03  0.00000000000E+00 0.  1.
        -24    2    1    2    0    0  0.27023051301E+03 -0.64566742300E+02 -0.55530169440E+02  0.29435223500E+03  0.79788747084E+02 0.  0.
        254    2    1    2    0    0 -0.27023051301E+03  0.64566742300E+02  0.12440683484E+04  0.15572267240E+04  0.89445828294E+03 0.  0.
         23    2    4    4    0    0 -0.32444036138E+03 -0.30885076103E+03  0.33137037289E+03  0.56534108317E+03  0.95675888344E+02 0.  0.
         23    2    4    4    0    0  0.54209848370E+02  0.37341750333E+03  0.91269797553E+03  0.99188564079E+03  0.91870509027E+02 0.  0.
          3    1    3    3  502    0  0.21494525222E+03 -0.56827388421E+02 -0.10410851097E+02  0.22257403117E+03  0.00000000000E+00 0. -1.
         -4    1    3    3    0  502  0.55285260783E+02 -0.77393538787E+01 -0.45119318343E+02  0.71778203837E+02  0.00000000000E+00 0.  1.
         13    1    5    5    0    0 -0.19794035163E+03 -0.24900398492E+03  0.22857459694E+03  0.39170105141E+03  0.00000000000E+00 0. -1.
        -13    1    5    5    0    0 -0.12650000974E+03 -0.59846776114E+02  0.10279577596E+03  0.17364003177E+03  0.00000000000E+00 0.  1.
          3    1    6    6  503    0 -0.17347503068E+02  0.19890073691E+03  0.45915433084E+03  0.50068466976E+03  0.00000000000E+00 0. -1.
         -3    1    6    6    0  503  0.71557351438E+02  0.17451676642E+03  0.45354364469E+03  0.49120097103E+03  0.00000000000E+00 0.  1.
<mgrwt>
<rscale>  0 0.14197611E+04</rscale>
<asrwt>0</asrwt>
<pdfrwt beam="1">  1        1 0.23385516E+00 0.14197611E+04</pdfrwt>
<pdfrwt beam="2">  1       -2 0.51003138E-01 0.14197611E+04</pdfrwt>
<totfact> 0.19665049E+01</totfact>
</mgrwt>
</event>
<event>
12    5  0.5428626E-008  0.2697013E+04  0.7818608E-02  0.8335975E-01
         -2   -1    0    0    0  501 -0.00000000000E+00  0.00000000000E+00  0.11774113761E+04  0.11774113761E+04  0.00000000000E+00 0.  1.
          1   -1    0    0  501    0  0.00000000000E+00 -0.00000000000E+00 -0.15444640344E+04  0.15444640344E+04  0.00000000000E+00 0. -1.
        -24    2    1    2    0    0  0.82957363516E+03 -0.80742010352E+03 -0.48180487086E+03  0.12561417410E+04  0.75076629445E+02 0.  0.
        254    2    1    2    0    0 -0.82957363516E+03  0.80742010352E+03  0.11475221252E+03  0.14657336695E+04  0.89167677988E+03 0.  0.
         23    2    4    4    0    0 -0.91473984774E+03  0.90886744129E+03  0.67363022464E+02  0.12945113810E+04  0.91830952090E+02 0.  0.
         23    2    4    4    0    0  0.85166212585E+02 -0.10144733777E+03  0.47389190060E+02  0.17122228849E+03  0.97603742939E+02 0.  0.
          1    1    3    3  502    0  0.77713041244E+03 -0.74848307267E+03 -0.46783838057E+03  0.11760235280E+04  0.00000000000E+00 0. -1.
         -2    1    3    3    0  502  0.52443222715E+02 -0.58937030851E+02 -0.13966490290E+02  0.80118213068E+02  0.00000000000E+00 0.  1.
         13    1    5    5    0    0 -0.37939744912E+03  0.37153871743E+03  0.72865918773E+02  0.53599709427E+03  0.00000000000E+00 0.  1.
        -13    1    5    5    0    0 -0.53534239862E+03  0.53732872386E+03 -0.55028963084E+01  0.75851428669E+03  0.00000000000E+00 0. -1.
          1    1    6    6  503    0  0.62329043756E+02 -0.36778347607E+02 -0.19987727427E+02  0.75080395550E+02  0.00000000000E+00 0.  1.
         -1    1    6    6    0  503  0.22837168829E+02 -0.64668990163E+02  0.67376917487E+02  0.96141892944E+02  0.00000000000E+00 0. -1.
<mgrwt>
<rscale>  0 0.26970128E+04</rscale>
<asrwt>0</asrwt>
<pdfrwt beam="1">  1        1 0.23760985E+00 0.26970128E+04</pdfrwt>
<pdfrwt beam="2">  1       -2 0.18114021E+00 0.26970128E+04</pdfrwt>
<totfact> 0.83242588E-01</totfact>
</mgrwt>
</event>
<event>
12    5  0.5428626E-008  0.1904051E+04  0.7818608E-02  0.8652842E-01
          3   -1    0    0  501    0  0.00000000000E+00  0.00000000000E+00  0.18345220049E+04  0.18345220049E+04  0.00000000000E+00 0. -1.
         -4   -1    0    0    0  501 -0.00000000000E+00 -0.00000000000E+00 -0.49405404132E+03  0.49405404132E+03  0.00000000000E+00 0.  1.
        -24    2    1    2    0    0 -0.39433740194E+03 -0.58487889093E+03  0.26360639009E+03  0.75718652541E+03  0.79106268674E+02 0.  0.
        254    2    1    2    0    0  0.39433740194E+03  0.58487889093E+03  0.10768615735E+04  0.15713895208E+04  0.90113754445E+03 0.  0.
         23    2    4    4    0    0  0.26092664211E+03  0.66214074323E+03  0.11658570215E+04  0.13688314985E+04  0.89241247573E+02 0.  0.
         23    2    4    4    0    0  0.13341075983E+03 -0.77261852299E+02 -0.88995448066E+02  0.20255802227E+03  0.96652666558E+02 0.  0.
          3    1    3    3  502    0 -0.86325074232E+02 -0.19229643192E+03  0.74464486730E+02  0.22355065635E+03  0.00000000000E+00 0. -1.
         -4    1    3    3    0  502 -0.30801232771E+03 -0.39258245901E+03  0.18914190336E+03  0.53363586906E+03  0.00000000000E+00 0.  1.
         13    1    5    5    0    0  0.62323571759E+02  0.19420693915E+03  0.26442912537E+03  0.33395108198E+03  0.00000000000E+00 0. -1.
        -13    1    5    5    0    0  0.19860307035E+03  0.46793380407E+03  0.90142789616E+03  0.10348804165E+04  0.00000000000E+00 0.  1.
          2    1    6    6  503    0  0.11278896827E+03 -0.37850418093E+02 -0.20256551860E+02  0.12068278008E+03  0.00000000000E+00 0. -1.
         -2    1    6    6    0  503  0.20621791552E+02 -0.39411434206E+02 -0.68738896206E+02  0.81875242195E+02  0.00000000000E+00 0.  1.
<mgrwt>
<rscale>  0 0.19040515E+04</rscale>
<asrwt>0</asrwt>
<pdfrwt beam="1">  1        3 0.28223415E+00 0.19040515E+04</pdfrwt>
<pdfrwt beam="2">  1       -4 0.76008315E-01 0.19040515E+04</pdfrwt>
<totfact> 0.16248344E-01</totfact>
</mgrwt>
</event>
<event>
12    5  0.5428626E-008  0.2055612E+04  0.7818608E-02  0.8581053E-01
         -2   -1    0    0    0  501 -0.00000000000E+00  0.00000000000E+00  0.69648613249E+03  0.69648613249E+03  0.00000000000E+00 0.  1.
          1   -1    0    0  501    0  0.00000000000E+00 -0.00000000000E+00 -0.15167356644E+04  0.15167356644E+04  0.00000000000E+00 0. -1.
        -24    2    1    2    0    0  0.54980056028E+03 -0.61193178816E+03 -0.27904805469E+03  0.87235376367E+03  0.79950626808E+02 0.  0.
        254    2    1    2    0    0 -0.54980056028E+03  0.61193178816E+03 -0.54120147718E+03  0.13408680332E+04  0.91010267226E+03 0.  0.
         23    2    4    4    0    0  0.66262114966E+02  0.19757661543E+03 -0.54795158838E+03  0.59303059225E+03  0.89482698303E+02 0.  0.
         23    2    4    4    0    0 -0.61606267524E+03  0.41435517274E+03  0.67501111990E+01  0.74783744093E+03  0.89397119937E+02 0.  0.
          3    1    3    3  502    0  0.50930026375E+03 -0.56139065652E+03 -0.23337051652E+03  0.79310026217E+03  0.00000000000E+00 0. -1.
         -4    1    3    3    0  502  0.40500296525E+02 -0.50541131648E+02 -0.45677538171E+02  0.79253501501E+02  0.00000000000E+00 0.  1.
         13    1    5    5    0    0  0.81804831668E+02  0.16888000797E+03 -0.40439872327E+03  0.44581477651E+03  0.00000000000E+00 0.  1.
        -13    1    5    5    0    0 -0.15542716702E+02  0.28696607456E+02 -0.14355286511E+03  0.14721581574E+03  0.00000000000E+00 0. -1.
          4    1    6    6  503    0  0.29461345627E+01  0.32645637237E+01 -0.16869602899E+01  0.47098747528E+01  0.00000000000E+00 0. -1.
         -4    1    6    6    0  503 -0.61900880980E+03  0.41109060901E+03  0.84370714889E+01  0.74312756618E+03  0.00000000000E+00 0.  1.
<mgrwt>
<rscale>  0 0.20556122E+04</rscale>
<asrwt>0</asrwt>
<pdfrwt beam="1">  1        1 0.23334395E+00 0.20556122E+04</pdfrwt>
<pdfrwt beam="2">  1       -2 0.10715171E+00 0.20556122E+04</pdfrwt>
<totfact> 0.36133825E+00</totfact>
</mgrwt>
</event>
<event>
12    5  0.5428626E-008  0.1829134E+04  0.7818608E-02  0.8690958E-01
          1   -1    0    0  501    0  0.00000000000E+00  0.00000000000E+00  0.79506779047E+03  0.79506779047E+03  0.00000000000E+00 0. -1.
         -2   -1    0    0    0  501 -0.00000000000E+00 -0.00000000000E+00 -0.10520272356E+04  0.10520272356E+04  0.00000000000E+00 0.  1.
        -24    2    1    2    0    0  0.18970448654E+03 -0.30415751359E+03  0.49700196928E+03  0.61826028387E+03  0.82068482709E+02 0.  0.
        254    2    1    2    0    0 -0.18970448654E+03  0.30415751359E+03 -0.75396141437E+03  0.12288347422E+04  0.90170805912E+03 0.  0.
         23    2    4    4    0    0  0.32566469748E+03 -0.44935952738E+02 -0.27845336926E+03  0.44035734124E+03  0.91112974396E+02 0.  0.
         23    2    4    4    0    0 -0.51536918402E+03  0.34909346633E+03 -0.47550804512E+03  0.78847740091E+03  0.90094765155E+02 0.  0.
          1    1    3    3  502    0  0.13424583675E+03 -0.15026844496E+03  0.31089204777E+03  0.37048132963E+03  0.00000000000E+00 0. -1.
         -2    1    3    3    0  502  0.55458649784E+02 -0.15388906863E+03  0.18610992151E+03  0.24777895424E+03  0.00000000000E+00 0.  1.
         13    1    5    5    0    0 -0.34486226675E+01 -0.69520421283E+01 -0.28578881020E+00  0.77656656702E+01  0.00000000000E+00 0.  1.
        -13    1    5    5    0    0  0.32911332015E+03 -0.37983910610E+02 -0.27816758045E+03  0.43259167557E+03  0.00000000000E+00 0. -1.
          2    1    6    6  503    0 -0.22829348612E+03  0.15083349219E+03 -0.26552349364E+03  0.38127599432E+03  0.00000000000E+00 0. -1.
         -2    1    6    6    0  503 -0.28707569790E+03  0.19825997414E+03 -0.20998455148E+03  0.40720140659E+03  0.00000000000E+00 0.  1.
<mgrwt>
<rscale>  0 0.18291342E+04</rscale>
<asrwt>0</asrwt>
<pdfrwt beam="1">  1        1 0.12231812E+00 0.18291342E+04</pdfrwt>
<pdfrwt beam="2">  1       -2 0.16185034E+00 0.18291342E+04</pdfrwt>
<totfact> 0.44927619E+00</totfact>
</mgrwt>
</event>
<event>
12    5  0.5428626E-008  0.2046064E+04  0.7818608E-02  0.8585382E-01
          1   -1    0    0  501    0  0.00000000000E+00  0.00000000000E+00  0.92582786053E+03  0.92582786053E+03  0.00000000000E+00 0. -1.
         -2   -1    0    0    0  501 -0.00000000000E+00 -0.00000000000E+00 -0.11304419474E+04  0.11304419474E+04  0.00000000000E+00 0.  1.
        -24    2    1    2    0    0  0.64534358320E+03 -0.31666992404E+03  0.31334636300E+03  0.78899582072E+03  0.87064807696E+02 0.  0.
        254    2    1    2    0    0 -0.64534358320E+03  0.31666992404E+03 -0.51796044982E+03  0.12672739872E+04  0.90606409807E+03 0.  0.
         23    2    4    4    0    0 -0.94294008276E+02 -0.10236235206E+03 -0.54189671233E+03  0.56694466858E+03  0.91677692409E+02 0.  0.
         23    2    4    4    0    0 -0.55104957492E+03  0.41903227609E+03  0.23936262510E+02  0.70032931859E+03  0.10317231887E+03 0.  0.
          3    1    3    3  502    0  0.48042027448E+03 -0.26653211171E+03  0.26496640573E+03  0.60995918131E+03  0.00000000000E+00 0. -1.
         -4    1    3    3    0  502  0.16492330872E+03 -0.50137812324E+02  0.48379957276E+02  0.17903663940E+03  0.00000000000E+00 0.  1.
         13    1    5    5    0    0 -0.54717375380E+02 -0.11651114412E+02 -0.10494684504E+03  0.11892678386E+03  0.00000000000E+00 0. -1.
        -13    1    5    5    0    0 -0.39576632896E+02 -0.90711237644E+02 -0.43694986730E+03  0.44801788473E+03  0.00000000000E+00 0.  1.
          2    1    6    6  503    0 -0.55498880481E+03  0.41405748174E+03  0.27645098567E+02  0.69297938145E+03  0.00000000000E+00 0.  1.
         -2    1    6    6    0  503  0.39392298857E+01  0.49747943570E+01 -0.37088360576E+01  0.73499371350E+01  0.00000000000E+00 0. -1.
<mgrwt>
<rscale>  0 0.20460642E+04</rscale>
<asrwt>0</asrwt>
<pdfrwt beam="1">  1        1 0.14243506E+00 0.20460642E+04</pdfrwt>
<pdfrwt beam="2">  1       -2 0.17391415E+00 0.20460642E+04</pdfrwt>
<totfact> 0.28066237E+00</totfact>
</mgrwt>
</event>
<event>
12    5  0.5428626E-008  0.4043954E+04  0.7818608E-02  0.7995738E-01
         -2   -1    0    0    0  501 -0.00000000000E+00  0.00000000000E+00  0.15350560395E+04  0.15350560395E+04  0.00000000000E+00 0.  1.
          1   -1    0    0  501    0  0.00000000000E+00 -0.00000000000E+00 -0.26633493882E+04  0.26633493882E+04  0.00000000000E+00 0. -1.
        -24    2    1    2    0    0  0.35372312179E+03 -0.10684818698E+04 -0.21454132217E+04  0.24240387088E+04  0.79951342612E+02 0.  0.
        254    2    1    2    0    0 -0.35372312179E+03  0.10684818698E+04  0.10171198730E+04  0.17743667189E+04  0.92036452789E+03 0.  0.
         23    2    4    4    0    0 -0.30367258454E+03  0.55948326315E+03  0.10741038668E+04  0.12517952664E+04  0.89742476813E+02 0.  0.
         23    2    4    4    0    0 -0.50050537254E+02  0.50899860664E+03 -0.56983993774E+02  0.52257145247E+03  0.90824608718E+02 0.  0.
          1    1    3    3  502    0  0.30866713452E+03 -0.89829190012E+03 -0.18648364585E+04  0.20928016521E+04  0.00000000000E+00 0. -1.
         -2    1    3    3    0  502  0.45055987271E+02 -0.17018996967E+03 -0.28057676315E+03  0.33123705678E+03  0.00000000000E+00 0.  1.
         13    1    5    5    0    0 -0.30521058002E+03  0.55003718873E+03  0.10703627879E+04  0.12415195950E+04  0.00000000000E+00 0. -1.
        -13    1    5    5    0    0  0.15379954830E+01  0.94460744255E+01  0.37410789003E+01  0.10275671438E+02  0.00000000000E+00 0.  1.
          2    1    6    6  503    0 -0.62244248849E+02  0.27446925278E+03 -0.59739774520E+02  0.28770915504E+03  0.00000000000E+00 0. -1.
         -2    1    6    6    0  503  0.12193711595E+02  0.23452935386E+03  0.27557807461E+01  0.23486229743E+03  0.00000000000E+00 0.  1.
<mgrwt>
<rscale>  0 0.40439538E+04</rscale>
<asrwt>0</asrwt>
<pdfrwt beam="1">  1        1 0.40974606E+00 0.40439538E+04</pdfrwt>
<pdfrwt beam="2">  1       -2 0.23616247E+00 0.40439538E+04</pdfrwt>
<totfact> 0.55931038E-02</totfact>
</mgrwt>
</event>
<event>
12    5  0.5428626E-008  0.1710487E+04  0.7818608E-02  0.8755406E-01
         -2   -1    0    0    0  501 -0.00000000000E+00  0.00000000000E+00  0.10949723099E+04  0.10949723099E+04  0.00000000000E+00 0.  1.
          1   -1    0    0  501    0  0.00000000000E+00 -0.00000000000E+00 -0.66800016144E+03  0.66800016144E+03  0.00000000000E+00 0. -1.
        -24    2    1    2    0    0 -0.27888055258E+03 -0.54387461955E+03  0.55016172782E+02  0.61859593218E+03  0.77847181305E+02 0.  0.
        254    2    1    2    0    0  0.27888055258E+03  0.54387461955E+03  0.37195597571E+03  0.11443765392E+04  0.89312510388E+03 0.  0.
         23    2    4    4    0    0 -0.84764669604E+02  0.45414386479E+03  0.54590121445E+03  0.72068760362E+03  0.89167185318E+02 0.  0.
         23    2    4    4    0    0  0.36364522219E+03  0.89730754759E+02 -0.17394523874E+03  0.42368893557E+03  0.94688500211E+02 0.  0.
          1    1    3    3  502    0 -0.13278988779E+03 -0.31921498879E+03  0.58185245780E+02  0.35059504587E+03  0.00000000000E+00 0. -1.
         -2    1    3    3    0  502 -0.14609066479E+03 -0.22465963076E+03 -0.31690729978E+01  0.26800088630E+03  0.00000000000E+00 0.  1.
         13    1    5    5    0    0 -0.60517757608E+01  0.24659506117E+03  0.31927245427E+03  0.40346083855E+03  0.00000000000E+00 0. -1.
        -13    1    5    5    0    0 -0.78712893843E+02  0.20754880362E+03  0.22662876018E+03  0.31722676508E+03  0.00000000000E+00 0.  1.
          3    1    6    6  503    0  0.64155215831E+02  0.30676919774E+02  0.24064901725E+01  0.71153048565E+02  0.00000000000E+00 0. -1.
         -3    1    6    6    0  503  0.29949000636E+03  0.59053834985E+02 -0.17635172891E+03  0.35253588700E+03  0.00000000000E+00 0.  1.
<mgrwt>
<rscale>  0 0.17104873E+04</rscale>
<asrwt>0</asrwt>
<pdfrwt beam="1">  1        1 0.10276926E+00 0.17104873E+04</pdfrwt>
<pdfrwt beam="2">  1       -2 0.16845728E+00 0.17104873E+04</pdfrwt>
<totfact> 0.53173466E+00</totfact>
</mgrwt>
</event>
<event>
12    5  0.5428626E-008  0.1464108E+04  0.7818608E-02  0.8908678E-01
          1   -1    0    0  501    0  0.00000000000E+00  0.00000000000E+00  0.96009672844E+03  0.96009672844E+03  0.00000000000E+00 0. -1.
         -2   -1    0    0    0  501 -0.00000000000E+00 -0.00000000000E+00 -0.55817607656E+03  0.55817607656E+03  0.00000000000E+00 0.  1.
        -24    2    1    2    0    0  0.23403719234E+03 -0.66215333197E+02  0.51872373778E+03  0.57865880716E+03  0.81325403274E+02 0.  0.
        254    2    1    2    0    0 -0.23403719234E+03  0.66215333197E+02 -0.11680308590E+03  0.93961399785E+03  0.90004090258E+03 0.  0.
         23    2    4    4    0    0  0.12536508229E+03 -0.26606286301E+03  0.18312682540E+03  0.35845023678E+03  0.91898243369E+02 0.  0.
         23    2    4    4    0    0 -0.35940227464E+03  0.33227819621E+03 -0.29992991130E+03  0.58116376107E+03  0.90634269472E+02 0.  0.
          3    1    3    3  502    0  0.20787800874E+03 -0.58987936401E+02  0.50262057964E+03  0.54710171836E+03  0.00000000000E+00 0. -1.
         -4    1    3    3    0  502  0.26159183602E+02 -0.72273967956E+01  0.16103158138E+02  0.31557088795E+02  0.00000000000E+00 0.  1.
         13    1    5    5    0    0  0.12090705105E+03 -0.27018176387E+03  0.16402940780E+03  0.33841150564E+03  0.00000000000E+00 0. -1.
        -13    1    5    5    0    0  0.44580312383E+01  0.41189008629E+01  0.19097417598E+02  0.20038731141E+02  0.00000000000E+00 0.  1.
          1    1    6    6  503    0 -0.34400142859E+03  0.28090380214E+03 -0.26549623680E+03  0.51742843049E+03  0.00000000000E+00 0. -1.
         -1    1    6    6    0  503 -0.15400846052E+02  0.51374394064E+02 -0.34433674494E+02  0.63735330576E+02  0.00000000000E+00 0.  1.
<mgrwt>
<rscale>  0 0.14641080E+04</rscale>
<asrwt>0</asrwt>
<pdfrwt beam="1">  1        1 0.14770719E+00 0.14641080E+04</pdfrwt>
<pdfrwt beam="2">  1       -2 0.85873243E-01 0.14641080E+04</pdfrwt>
<totfact> 0.16287284E+01</totfact>
</mgrwt>
</event>
<event>
12    5  0.5428626E-008  0.1227193E+04  0.7818608E-02  0.9089382E-01
          3   -1    0    0  501    0  0.00000000000E+00  0.00000000000E+00  0.16057064854E+03  0.16057064854E+03  0.00000000000E+00 0. -1.
         -2   -1    0    0    0  501 -0.00000000000E+00 -0.00000000000E+00 -0.23447674820E+04  0.23447674820E+04  0.00000000000E+00 0.  1.
        -24    2    1    2    0    0  0.55686803657E+02  0.27226747284E+03 -0.59552636305E+03  0.66202346539E+03  0.79955129756E+02 0.  0.
        254    2    1    2    0    0 -0.55686803657E+02 -0.27226747284E+03 -0.15886704705E+04  0.18433146652E+04  0.89258304620E+03 0.  0.
         23    2    4    4    0    0 -0.28483549151E+03  0.14461986130E+03 -0.23839125794E+03  0.40900223416E+03  0.91685735971E+02 0.  0.
         23    2    4    4    0    0  0.22914868785E+03 -0.41688733414E+03 -0.13502792125E+04  0.14343124310E+04  0.87715606117E+02 0.  0.
          3    1    3    3  502    0  0.56962913750E+01 -0.33575273815E+00 -0.63610701339E+00  0.57415239669E+01  0.00000000000E+00 0. -1.
         -4    1    3    3    0  502  0.49990512282E+02  0.27260322558E+03 -0.59489025604E+03  0.65628194142E+03  0.00000000000E+00 0.  1.
         13    1    5    5    0    0 -0.21956408798E+03  0.71222864102E+02 -0.19262423591E+03  0.30064128353E+03  0.00000000000E+00 0.  1.
        -13    1    5    5    0    0 -0.65271403530E+02  0.73396997199E+02 -0.45767022026E+02  0.10836095063E+03  0.00000000000E+00 0. -1.
          4    1    6    6  503    0  0.73025491919E+02 -0.16125408782E+03 -0.38761163234E+03  0.42612014835E+03  0.00000000000E+00 0. -1.
         -4    1    6    6    0  503  0.15612319593E+03 -0.25563324632E+03 -0.96266758018E+03  0.10081922827E+04  0.00000000000E+00 0.  1.
<mgrwt>
<rscale>  0 0.12271933E+04</rscale>
<asrwt>0</asrwt>
<pdfrwt beam="1">  1        3 0.24703178E-01 0.12271933E+04</pdfrwt>
<pdfrwt beam="2">  1       -2 0.36073344E+00 0.12271933E+04</pdfrwt>
<totfact> 0.88311760E-01</totfact>
</mgrwt>
</event>
<event>
12    5  0.5428626E-008  0.1030981E+04  0.7818608E-02  0.9275203E-01
          1   -1    0    0  501    0  0.00000000000E+00  0.00000000000E+00  0.16787781783E+04  0.16787781783E+04  0.00000000000E+00 0. -1.
         -2   -1    0    0    0  501 -0.00000000000E+00 -0.00000000000E+00 -0.15828802492E+03  0.15828802492E+03  0.00000000000E+00 0.  1.
        -24    2    1    2    0    0 -0.60659692214E+02  0.39609210142E+02  0.46544030322E+02  0.10845005663E+03  0.65928599544E+02 0.  0.
        254    2    1    2    0    0  0.60659692214E+02 -0.39609210142E+02  0.14739461231E+04  0.17286161466E+04  0.90019337966E+03 0.  0.
         23    2    4    4    0    0 -0.33278210595E+03  0.28566334004E+02  0.11657338655E+04  0.12160656399E+04  0.91215294619E+02 0.  0.
         23    2    4    4    0    0  0.39344179817E+03 -0.68175544145E+02  0.30821225754E+03  0.51255050664E+03  0.90933342580E+02 0.  0.
          1    1    3    3  502    0  0.11012625327E+02  0.28792162547E+01 -0.54176307200E+01  0.12606289123E+02  0.00000000000E+00 0. -1.
         -2    1    3    3    0  502 -0.71672317541E+02  0.36729993887E+02  0.51961661041E+02  0.95843767512E+02  0.00000000000E+00 0.  1.
         13    1    5    5    0    0 -0.17641566340E+03 -0.30417255002E+02  0.61728743356E+03  0.64272192379E+03  0.00000000000E+00 0.  1.
        -13    1    5    5    0    0 -0.15636644256E+03  0.58983589006E+02  0.54844643195E+03  0.57334371615E+03  0.00000000000E+00 0. -1.
          3    1    6    6  503    0  0.13811125699E+03 -0.51235338416E+02  0.70606959838E+02  0.16335581406E+03  0.00000000000E+00 0. -1.
         -3    1    6    6    0  503  0.25533054118E+03 -0.16940205729E+02  0.23760529770E+03  0.34919469257E+03  0.00000000000E+00 0.  1.
<mgrwt>
<rscale>  0 0.10309811E+04</rscale>
<asrwt>0</asrwt>
<pdfrwt beam="1">  1        1 0.25827355E+00 0.10309811E+04</pdfrwt>
<pdfrwt beam="2">  1       -2 0.24352005E-01 0.10309811E+04</pdfrwt>
<totfact> 0.65190934E+01</totfact>
</mgrwt>
</event>
<event>
12    5  0.5428626E-008  0.1647516E+04  0.7818608E-02  0.8791878E-01
         -2   -1    0    0    0  501 -0.00000000000E+00  0.00000000000E+00  0.32635742484E+03  0.32635742484E+03  0.00000000000E+00 0.  1.
          1   -1    0    0  501    0  0.00000000000E+00 -0.00000000000E+00 -0.20792445636E+04  0.20792445636E+04  0.00000000000E+00 0. -1.
        -24    2    1    2    0    0 -0.15619024512E+03 -0.50615469285E+03 -0.29023542222E+03  0.60878882794E+03  0.76152944491E+02 0.  0.
        254    2    1    2    0    0  0.15619024512E+03  0.50615469285E+03 -0.14626517166E+04  0.17968131605E+04  0.89922162123E+03 0.  0.
         23    2    4    4    0    0 -0.28081512864E+03 -0.59783152172E+02 -0.59715801416E+03  0.67041025150E+03  0.10208354263E+03 0.  0.
         23    2    4    4    0    0  0.43700537376E+03  0.56593784502E+03 -0.86549370241E+03  0.11264029090E+04  0.91895720450E+02 0.  0.
          1    1    3    3  502    0 -0.12198417581E+02 -0.35833642962E+02 -0.35570839938E+00  0.37854694397E+02  0.00000000000E+00 0. -1.
         -4    1    3    3    0  502 -0.14399182754E+03 -0.47032104989E+03 -0.28987971382E+03  0.57093413355E+03  0.00000000000E+00 0.  1.
         13    1    5    5    0    0 -0.23341099290E+03 -0.66479648680E+01 -0.45896937384E+03  0.51495414667E+03  0.00000000000E+00 0.  1.
        -13    1    5    5    0    0 -0.47404135739E+02 -0.53135187304E+02 -0.13818864032E+03  0.15545610483E+03  0.00000000000E+00 0. -1.
          3    1    6    6  503    0  0.41491636423E+02  0.91616114984E+02 -0.15779808731E+03  0.18712376860E+03  0.00000000000E+00 0. -1.
         -3    1    6    6    0  503  0.39551373734E+03  0.47432173004E+03 -0.70769561510E+03  0.93927914043E+03  0.00000000000E+00 0.  1.
<mgrwt>
<rscale>  0 0.16475156E+04</rscale>
<asrwt>0</asrwt>
<pdfrwt beam="1">  1        1 0.31988378E+00 0.16475156E+04</pdfrwt>
<pdfrwt beam="2">  1       -2 0.50208834E-01 0.16475156E+04</pdfrwt>
<totfact> 0.82935709E+00</totfact>
</mgrwt>
</event>
<event>
12    5  0.5428626E-008  0.2189592E+04  0.7818608E-02  0.8522773E-01
          1   -1    0    0  501    0  0.00000000000E+00  0.00000000000E+00  0.87507524425E+03  0.87507524425E+03  0.00000000000E+00 0. -1.
         -2   -1    0    0    0  501 -0.00000000000E+00 -0.00000000000E+00 -0.13696864200E+04  0.13696864200E+04  0.00000000000E+00 0.  1.
        -24    2    1    2    0    0 -0.76679112850E+03  0.33480419661E+03 -0.40575184328E+03  0.93328604461E+03  0.79534884994E+02 0.  0.
        254    2    1    2    0    0  0.76679112850E+03 -0.33480419661E+03 -0.88859332458E+02  0.13114756196E+04  0.10059869955E+04 0.  0.
         23    2    4    4    0    0  0.47945176617E+03  0.83839165518E+02  0.37237676112E+03  0.61940906717E+03  0.90000769546E+02 0.  0.
         23    2    4    4    0    0  0.28733936233E+03 -0.41864336212E+03 -0.46123609358E+03  0.69206655246E+03  0.91603521834E+02 0.  0.
          3    1    3    3  502    0 -0.74251776844E+03  0.31565458677E+03 -0.37513277427E+03  0.88977247256E+03  0.00000000000E+00 0. -1.
         -4    1    3    3    0  502 -0.24273360057E+02  0.19149609832E+02 -0.30619069009E+02  0.43513572046E+02  0.00000000000E+00 0.  1.
         13    1    5    5    0    0 -0.92265082153E+00 -0.55121975851E+01  0.99560126427E+00  0.56768678541E+01  0.00000000000E+00 0. -1.
        -13    1    5    5    0    0  0.48037441699E+03  0.89351363103E+02  0.37138115986E+03  0.61373219932E+03  0.00000000000E+00 0.  1.
          4    1    6    6  503    0  0.27591173087E+02 -0.10407065351E+03 -0.86212880346E+02  0.13792981727E+03  0.00000000000E+00 0. -1.
         -4    1    6    6    0  503  0.25974818924E+03 -0.31457270862E+03 -0.37502321323E+03  0.55413673519E+03  0.00000000000E+00 0.  1.
<mgrwt>
<rscale>  0 0.21895924E+04</rscale>
<asrwt>0</asrwt>
<pdfrwt beam="1">  1        1 0.13462696E+00 0.21895924E+04</pdfrwt>
<pdfrwt beam="2">  1       -2 0.21072099E+00 0.21895924E+04</pdfrwt>
<totfact> 0.17285951E+00</totfact>
</mgrwt>
</event>
<event>
12    5  0.5428626E-008  0.1530897E+04  0.7818608E-02  0.8864163E-01
         -2   -1    0    0    0  501 -0.00000000000E+00  0.00000000000E+00  0.94017217959E+03  0.94017217959E+03  0.00000000000E+00 0.  1.
          1   -1    0    0  501    0  0.00000000000E+00 -0.00000000000E+00 -0.62319608298E+03  0.62319608298E+03  0.00000000000E+00 0. -1.
        -24    2    1    2    0    0  0.10095255841E+03  0.68987714136E+02 -0.39558475779E+03  0.42414380514E+03  0.91977948947E+02 0.  0.
        254    2    1    2    0    0 -0.10095255841E+03 -0.68987714136E+02  0.71256085440E+03  0.11392244574E+04  0.88041959850E+03 0.  0.
         23    2    4    4    0    0 -0.36325845797E+03 -0.22024110956E+03  0.97723719021E+02  0.44789484079E+03  0.10294177731E+03 0.  0.
         23    2    4    4    0    0  0.26230589956E+03  0.15125339543E+03  0.61483713538E+03  0.69132961664E+03  0.90719133779E+02 0.  0.
          1    1    3    3  502    0  0.43059097354E+02  0.81317242115E+02 -0.27139866002E+03  0.28657252553E+03  0.00000000000E+00 0. -1.
         -2    1    3    3    0  502  0.57893461058E+02 -0.12329527980E+02 -0.12418609777E+03  0.13757127961E+03  0.00000000000E+00 0.  1.
         13    1    5    5    0    0 -0.63232413021E+02 -0.14057709198E+02  0.47671632858E+02  0.80427245531E+02  0.00000000000E+00 0. -1.
        -13    1    5    5    0    0 -0.30002604495E+03 -0.20618340037E+03  0.50052086163E+02  0.36746759526E+03  0.00000000000E+00 0.  1.
          3    1    6    6  503    0  0.14680034155E+02  0.24139662666E+01  0.36836938788E+01  0.15326455446E+02  0.00000000000E+00 0. -1.
         -3    1    6    6    0  503  0.24762586540E+03  0.14883942916E+03  0.61115344150E+03  0.67600316120E+03  0.00000000000E+00 0.  1.
<mgrwt>
<rscale>  0 0.15308973E+04</rscale>
<asrwt>0</asrwt>
<pdfrwt beam="1">  1        1 0.95876321E-01 0.15308973E+04</pdfrwt>
<pdfrwt beam="2">  1       -2 0.14464187E+00 0.15308973E+04</pdfrwt>
<totfact> 0.90216078E+00</totfact>
</mgrwt>
</event>
<event>
12    5  0.5428626E-008  0.1966130E+04  0.7818608E-02  0.8622622E-01
         -2   -1    0    0    0  501 -0.00000000000E+00  0.00000000000E+00  0.58166250712E+03  0.58166250712E+03  0.00000000000E+00 0.  1.
          1   -1    0    0  501    0  0.00000000000E+00 -0.00000000000E+00 -0.16614729149E+04  0.16614729149E+04  0.00000000000E+00 0. -1.
        -24    2    1    2    0    0  0.16378529836E+02 -0.31922572768E+03 -0.12303831719E+04  0.12739620162E+04  0.83445477472E+02 0.  0.
        254    2    1    2    0    0 -0.16378529836E+02  0.31922572768E+03  0.15057276404E+03  0.96917340584E+03  0.90246972906E+03 0.  0.
         23    2    4    4    0    0 -0.21572176237E+03  0.20069846078E+03 -0.31593944312E+03  0.44153507540E+03  0.91212609736E+02 0.  0.
         23    2    4    4    0    0  0.19934323253E+03  0.11852726690E+03  0.46651220716E+03  0.52763833044E+03  0.83559146503E+02 0.  0.
          3    1    3    3  502    0  0.33971016548E+02 -0.25952277859E+03 -0.10788208361E+04  0.11101173357E+04  0.00000000000E+00 0. -1.
         -4    1    3    3    0  502 -0.17592486712E+02 -0.59702949088E+02 -0.15156233575E+03  0.16384468052E+03  0.00000000000E+00 0.  1.
         13    1    5    5    0    0 -0.33956533298E+02  0.78769571005E+02 -0.59514009685E+02  0.10440119165E+03  0.00000000000E+00 0.  1.
        -13    1    5    5    0    0 -0.18176522907E+03  0.12192888978E+03 -0.25642543343E+03  0.33713388375E+03  0.00000000000E+00 0. -1.
          2    1    6    6  503    0  0.93324796637E+02  0.99119533294E+01  0.20032270903E+03  0.22121698000E+03  0.00000000000E+00 0. -1.
         -2    1    6    6    0  503  0.10601843589E+03  0.10861531357E+03  0.26618949813E+03  0.30642135044E+03  0.00000000000E+00 0.  1.
<mgrwt>
<rscale>  0 0.19661297E+04</rscale>
<asrwt>0</asrwt>
<pdfrwt beam="1">  1        1 0.25561122E+00 0.19661297E+04</pdfrwt>
<pdfrwt beam="2">  1       -2 0.89486539E-01 0.19661297E+04</pdfrwt>
<totfact> 0.44289048E+00</totfact>
</mgrwt>
</event>
<event>
12    5  0.5428626E-008  0.1400867E+04  0.7818608E-02  0.8953191E-01
         -2   -1    0    0    0  501 -0.00000000000E+00  0.00000000000E+00  0.81083918071E+03  0.81083918071E+03  0.00000000000E+00 0.  1.
          1   -1    0    0  501    0  0.00000000000E+00 -0.00000000000E+00 -0.60506122416E+03  0.60506122416E+03  0.00000000000E+00 0. -1.
        -24    2    1    2    0    0  0.23799469042E+02  0.17161793450E+03 -0.26699487619E+03  0.32772501987E+03  0.78091578068E+02 0.  0.
        254    2    1    2    0    0 -0.23799469042E+02 -0.17161793450E+03  0.47277283274E+03  0.10881753850E+04  0.96467216556E+03 0.  0.
         23    2    4    4    0    0  0.25671403447E+03  0.43703517311E+02  0.63168038177E+03  0.68932207414E+03  0.91283756855E+02 0.  0.
         23    2    4    4    0    0 -0.28051350351E+03 -0.21532145181E+03 -0.15890754903E+03  0.39885331087E+03  0.93708063662E+02 0.  0.
          1    1    3    3  502    0 -0.90006212129E+01  0.57232169452E+02 -0.15021064387E+03  0.16099617987E+03  0.00000000000E+00 0. -1.
         -2    1    3    3    0  502  0.32800090255E+02  0.11438576505E+03 -0.11678423232E+03  0.16672884000E+03  0.00000000000E+00 0.  1.
         13    1    5    5    0    0  0.24199028449E+03  0.15642574037E+02  0.53051570769E+03  0.58331029823E+03  0.00000000000E+00 0.  1.
        -13    1    5    5    0    0  0.14723749976E+02  0.28060943274E+02  0.10116467408E+03  0.10601177591E+03  0.00000000000E+00 0. -1.
          4    1    6    6  503    0 -0.26541452073E+02  0.73901719289E+01 -0.66978445182E+01  0.28353561336E+02  0.00000000000E+00 0. -1.
         -4    1    6    6    0  503 -0.25397205143E+03 -0.22271162374E+03 -0.15220970451E+03  0.37049974954E+03  0.00000000000E+00 0.  1.
<mgrwt>
<rscale>  0 0.14008674E+04</rscale>
<asrwt>0</asrwt>
<pdfrwt beam="1">  1        1 0.93086342E-01 0.14008674E+04</pdfrwt>
<pdfrwt beam="2">  1       -2 0.12474449E+00 0.14008674E+04</pdfrwt>
<totfact> 0.13908441E+01</totfact>
</mgrwt>
</event>
<event>
12    5  0.5428626E-008  0.2951409E+04  0.7818608E-02  0.8257744E-01
         -2   -1    0    0    0  501 -0.00000000000E+00  0.00000000000E+00  0.13682726368E+04  0.13682726368E+04  0.00000000000E+00 0.  1.
          1   -1    0    0  501    0  0.00000000000E+00 -0.00000000000E+00 -0.15915714764E+04  0.15915714764E+04  0.00000000000E+00 0. -1.
        -24    2    1    2    0    0 -0.95744967570E+03 -0.81993141116E+02  0.83631289604E+03  0.12764473646E+04  0.80410557183E+02 0.  0.
        254    2    1    2    0    0  0.95744967570E+03  0.81993141116E+02 -0.10596117356E+04  0.16833967487E+04  0.88747666256E+03 0.  0.
         23    2    4    4    0    0  0.67116219301E+03  0.17117510299E+03 -0.14001031689E+03  0.71229639932E+03  0.89463212756E+02 0.  0.
         23    2    4    4    0    0  0.28628748268E+03 -0.89181961877E+02 -0.91960141871E+03  0.97110034936E+03  0.86343350501E+02 0.  0.
          1    1    3    3  502    0 -0.19717381227E+03 -0.26921492292E+02  0.21578843767E+03  0.29354203928E+03  0.00000000000E+00 0. -1.
         -4    1    3    3    0  502 -0.76027586343E+03 -0.55071648824E+02  0.62052445837E+03  0.98290532528E+03  0.00000000000E+00 0.  1.
         13    1    5    5    0    0  0.36768899970E+03  0.49016809276E+02 -0.63607447835E+02  0.37635588944E+03  0.00000000000E+00 0.  1.
        -13    1    5    5    0    0  0.30347319331E+03  0.12215829372E+03 -0.76402869054E+02  0.33594050989E+03  0.00000000000E+00 0. -1.
          2    1    6    6  503    0  0.15073719544E+03 -0.89726636336E+02 -0.47854450934E+03  0.50968364578E+03  0.00000000000E+00 0. -1.
         -2    1    6    6    0  503  0.13555028724E+03  0.54467445951E+00 -0.44105690937E+03  0.46141670358E+03  0.00000000000E+00 0.  1.
<mgrwt>
<rscale>  0 0.29514090E+04</rscale>
<asrwt>0</asrwt>
<pdfrwt beam="1">  1        1 0.24485715E+00 0.29514090E+04</pdfrwt>
<pdfrwt beam="2">  1       -2 0.21050348E+00 0.29514090E+04</pdfrwt>
<totfact> 0.48253375E-01</totfact>
</mgrwt>
</event>
<event>
12    5  0.5428626E-008  0.1144586E+04  0.7818608E-02  0.9162792E-01
          1   -1    0    0  501    0  0.00000000000E+00  0.00000000000E+00  0.65282753355E+03  0.65282753355E+03  0.00000000000E+00 0. -1.
         -4   -1    0    0    0  501 -0.00000000000E+00 -0.00000000000E+00 -0.50169376011E+03  0.50169376011E+03  0.00000000000E+00 0.  1.
        -24    2    1    2    0    0 -0.11465378333E+03 -0.16822448794E+03  0.68988193061E+01  0.22166721824E+03  0.87428791367E+02 0.  0.
        254    2    1    2    0    0  0.11465378333E+03  0.16822448794E+03  0.14423495413E+03  0.93285407542E+03  0.89887042206E+03 0.  0.
         23    2    4    4    0    0  0.23195871144E+03 -0.29124172681E+03  0.22314162009E+03  0.44351576753E+03  0.91035521548E+02 0.  0.
         23    2    4    4    0    0 -0.11730492811E+03  0.45946621476E+03 -0.78906665959E+02  0.48933830789E+03  0.91411536315E+02 0.  0.
          3    1    3    3  502    0  0.64290340309E+01 -0.51855731747E+02  0.12156610429E+02  0.53648229894E+02  0.00000000000E+00 0. -1.
         -4    1    3    3    0  502 -0.12108281736E+03 -0.11636875620E+03 -0.52577911224E+01  0.16801898835E+03  0.00000000000E+00 0.  1.
         13    1    5    5    0    0  0.51911270412E+02 -0.94682847638E+02  0.10937544360E+03  0.15369648433E+03  0.00000000000E+00 0. -1.
        -13    1    5    5    0    0  0.18004744103E+03 -0.19655887918E+03  0.11376617649E+03  0.28981928320E+03  0.00000000000E+00 0.  1.
          4    1    6    6  503    0  0.12444891726E+02  0.21436012474E+02  0.37784058052E+01  0.25072979705E+02  0.00000000000E+00 0. -1.
         -4    1    6    6    0  503 -0.12974981984E+03  0.43803020228E+03 -0.82685071765E+02  0.46426532818E+03  0.00000000000E+00 0.  1.
<mgrwt>
<rscale>  0 0.11445864E+04</rscale>
<asrwt>0</asrwt>
<pdfrwt beam="1">  1        1 0.10043501E+00 0.11445864E+04</pdfrwt>
<pdfrwt beam="2">  1       -4 0.77183655E-01 0.11445864E+04</pdfrwt>
<totfact> 0.21854592E+01</totfact>
</mgrwt>
</event>
<event>
12    5  0.5428626E-008  0.2582205E+04  0.7818608E-02  0.8374271E-01
         -2   -1    0    0    0  501 -0.00000000000E+00  0.00000000000E+00  0.60967381344E+03  0.60967381344E+03  0.00000000000E+00 0.  1.
          1   -1    0    0  501    0  0.00000000000E+00 -0.00000000000E+00 -0.27341596448E+04  0.27341596448E+04  0.00000000000E+00 0. -1.
        -24    2    1    2    0    0 -0.60566105952E+03  0.93283679484E+03 -0.64511005125E+03  0.12886046511E+04  0.85587170900E+02 0.  0.
        254    2    1    2    0    0  0.60566105952E+03 -0.93283679484E+03 -0.14793757801E+04  0.20552288071E+04  0.89353396468E+03 0.  0.
         23    2    4    4    0    0  0.68419999220E+03 -0.99471296713E+03 -0.14873997705E+04  0.19179160473E+04  0.91980274218E+02 0.  0.
         23    2    4    4    0    0 -0.78538932687E+02  0.61876172289E+02  0.80239903791E+01  0.13731275985E+03  0.93773050234E+02 0.  0.
          1    1    3    3  502    0 -0.92708675845E+02  0.16778163462E+03 -0.78230524970E+02  0.20704006986E+03  0.00000000000E+00 0. -1.
         -2    1    3    3    0  502 -0.51295238367E+03  0.76505516022E+03 -0.56687952628E+03  0.10815645812E+04  0.00000000000E+00 0.  1.
         13    1    5    5    0    0  0.65412376253E+03 -0.94241986454E+03 -0.13783065996E+04  0.17932546334E+04  0.00000000000E+00 0.  1.
        -13    1    5    5    0    0  0.30076229679E+02 -0.52293102589E+02 -0.10909317090E+03  0.12466141387E+03  0.00000000000E+00 0. -1.
          4    1    6    6  503    0 -0.51583605870E+02 -0.16479863726E+02  0.52086178318E+01  0.54402058809E+02  0.00000000000E+00 0. -1.
         -4    1    6    6    0  503 -0.26955326817E+02  0.78356036015E+02  0.28153725473E+01  0.82910701036E+02  0.00000000000E+00 0.  1.
<mgrwt>
<rscale>  0 0.25822049E+04</rscale>
<asrwt>0</asrwt>
<pdfrwt beam="1">  1        1 0.42063996E+00 0.25822049E+04</pdfrwt>
<pdfrwt beam="2">  1       -2 0.93795969E-01 0.25822049E+04</pdfrwt>
<totfact> 0.69117481E-01</totfact>
</mgrwt>
</event>
<event>
12    5  0.5428626E-008  0.2173819E+04  0.7818608E-02  0.8529405E-01
          1   -1    0    0  501    0  0.00000000000E+00  0.00000000000E+00  0.10182410682E+04  0.10182410682E+04  0.00000000000E+00 0. -1.
         -2   -1    0    0    0  501 -0.00000000000E+00 -0.00000000000E+00 -0.11602084487E+04  0.11602084487E+04  0.00000000000E+00 0.  1.
        -24    2    1    2    0    0 -0.29195115705E+03 -0.83376524205E+03  0.11891951027E+03  0.89507331975E+03  0.81329212773E+02 0.  0.
        254    2    1    2    0    0  0.29195115705E+03  0.83376524205E+03 -0.26088689077E+03  0.12833761972E+04  0.89364004876E+03 0.  0.
         23    2    4    4    0    0  0.53579294502E+03  0.53912429160E+03  0.71306982847E+02  0.76839724136E+03  0.87295778819E+02 0.  0.
         23    2    4    4    0    0 -0.24384178797E+03  0.29464095045E+03 -0.33219387361E+03  0.51497895581E+03  0.92619911608E+02 0.  0.
          3    1    3    3  502    0 -0.21630981712E+03 -0.60819098726E+03  0.12296594666E+03  0.65712010927E+03  0.00000000000E+00 0. -1.
         -4    1    3    3    0  502 -0.75641339932E+02 -0.22557425479E+03 -0.40464363904E+01  0.23795321048E+03  0.00000000000E+00 0.  1.
         13    1    5    5    0    0  0.28658361809E+03  0.26719359224E+03 -0.44561673381E+01  0.39184492254E+03  0.00000000000E+00 0. -1.
        -13    1    5    5    0    0  0.24920932693E+03  0.27193069937E+03  0.75763150185E+02  0.37655231882E+03  0.00000000000E+00 0.  1.
          2    1    6    6  503    0 -0.31646720122E+02  0.31112064653E+01 -0.38453733712E+02  0.49898738827E+02  0.00000000000E+00 0. -1.
         -2    1    6    6    0  503 -0.21219506784E+03  0.29152974398E+03 -0.29374013990E+03  0.46508021699E+03  0.00000000000E+00 0.  1.
<mgrwt>
<rscale>  0 0.21738187E+04</rscale>
<asrwt>0</asrwt>
<pdfrwt beam="1">  1        1 0.15665247E+00 0.21738187E+04</pdfrwt>
<pdfrwt beam="2">  1       -2 0.17849361E+00 0.21738187E+04</pdfrwt>
<totfact> 0.21789624E+00</totfact>
</mgrwt>
</event>
<event>
12    5  0.5428626E-008  0.2522667E+04  0.7818608E-02  0.8394955E-01
         -2   -1    0    0    0  501 -0.00000000000E+00  0.00000000000E+00  0.12728964929E+04  0.12728964929E+04  0.00000000000E+00 0.  1.
          1   -1    0    0  501    0  0.00000000000E+00 -0.00000000000E+00 -0.12498753278E+04  0.12498753278E+04  0.00000000000E+00 0. -1.
        -24    2    1    2    0    0  0.13573339026E+02  0.27958951920E+03 -0.10513640146E+04  0.10911259703E+04  0.82674403557E+02 0.  0.
        254    2    1    2    0    0 -0.13573339026E+02 -0.27958951920E+03  0.10743851797E+04  0.14316458504E+04  0.90385385536E+03 0.  0.
         23    2    4    4    0    0 -0.29582832463E+02 -0.33090182015E+03  0.12115080387E+04  0.12593860977E+04  0.89053111977E+02 0.  0.
         23    2    4    4    0    0  0.16009493438E+02  0.51312300949E+02 -0.13712285896E+03  0.17225975272E+03  0.89339173091E+02 0.  0.
          1    1    3    3  502    0  0.66231832557E+00  0.25605974369E+03 -0.84273532820E+03  0.88077798815E+03  0.00000000000E+00 0. -1.
         -2    1    3    3    0  502  0.12911020700E+02  0.23529775506E+02 -0.20862868640E+03  0.21034798212E+03  0.00000000000E+00 0.  1.
         13    1    5    5    0    0  0.52163651871E+01 -0.84550864928E+01  0.74595193979E+01  0.12423501238E+02  0.00000000000E+00 0.  1.
        -13    1    5    5    0    0 -0.34799197650E+02 -0.32244673365E+03  0.12040485193E+04  0.12469625965E+04  0.00000000000E+00 0. -1.
          2    1    6    6  503    0  0.49994172064E+01  0.21413885106E+02 -0.13862972872E+03  0.14036292364E+03  0.00000000000E+00 0. -1.
         -2    1    6    6    0  503  0.11010076231E+02  0.29898415843E+02  0.15068697651E+01  0.31896829074E+02  0.00000000000E+00 0.  1.
<mgrwt>
<rscale>  0 0.25226668E+04</rscale>
<asrwt>0</asrwt>
<pdfrwt beam="1">  1        1 0.19228851E+00 0.25226668E+04</pdfrwt>
<pdfrwt beam="2">  1       -2 0.19583023E+00 0.25226668E+04</pdfrwt>
<totfact> 0.10837515E+00</totfact>
</mgrwt>
</event>
<event>
12    5  0.5428626E-008  0.1154240E+04  0.7818608E-02  0.9153880E-01
          1   -1    0    0  501    0  0.00000000000E+00  0.00000000000E+00  0.12425512910E+03  0.12425512910E+03  0.00000000000E+00 0. -1.
         -2   -1    0    0    0  501 -0.00000000000E+00 -0.00000000000E+00 -0.26805152195E+04  0.26805152195E+04  0.00000000000E+00 0.  1.
        -24    2    1    2    0    0 -0.11918852818E+03 -0.15351626018E+03 -0.76538009685E+03  0.79384102825E+03  0.81263387099E+02 0.  0.
        254    2    1    2    0    0  0.11918852818E+03  0.15351626018E+03 -0.17908799935E+04  0.20109293203E+04  0.89376307419E+03 0.  0.
         23    2    4    4    0    0 -0.35696223873E+03  0.18715882900E+03 -0.10109833429E+04  0.10921329823E+04  0.90645817520E+02 0.  0.
         23    2    4    4    0    0  0.47615076691E+03 -0.33642568826E+02 -0.77989665067E+03  0.91879633809E+03  0.89980830648E+02 0.  0.
          1    1    3    3  502    0 -0.65961054458E+01  0.86463125627E+00 -0.13438341710E+03  0.13454798024E+03  0.00000000000E+00 0. -1.
         -2    1    3    3    0  502 -0.11259242274E+03 -0.15438089143E+03 -0.63099667975E+03  0.65929304801E+03  0.00000000000E+00 0.  1.
         13    1    5    5    0    0 -0.75550911679E+02  0.84967752465E+02 -0.28398982321E+03  0.30590468924E+03  0.00000000000E+00 0.  1.
        -13    1    5    5    0    0 -0.28141132705E+03  0.10219107654E+03 -0.72699351965E+03  0.78622829301E+03  0.00000000000E+00 0. -1.
          3    1    6    6  503    0  0.45793765216E+03 -0.50328857046E+02 -0.73203586093E+03  0.86493721669E+03  0.00000000000E+00 0. -1.
         -3    1    6    6    0  503  0.18213114750E+02  0.16686288220E+02 -0.47860789740E+02  0.53859121400E+02  0.00000000000E+00 0.  1.
<mgrwt>
<rscale>  0 0.11542405E+04</rscale>
<asrwt>0</asrwt>
<pdfrwt beam="1">  1        1 0.19116175E-01 0.11542405E+04</pdfrwt>
<pdfrwt beam="2">  1       -2 0.41238693E+00 0.11542405E+04</pdfrwt>
<totfact> 0.15149984E+00</totfact>
</mgrwt>
</event>
<event>
12    5  0.5428626E-008  0.2936156E+04  0.7818608E-02  0.8262201E-01
         -2   -1    0    0    0  501 -0.00000000000E+00  0.00000000000E+00  0.85813210355E+03  0.85813210355E+03  0.00000000000E+00 0.  1.
          1   -1    0    0  501    0  0.00000000000E+00 -0.00000000000E+00 -0.25115635666E+04  0.25115635666E+04  0.00000000000E+00 0. -1.
        -24    2    1    2    0    0  0.47593653439E+03 -0.16801131218E+03 -0.21540266236E+04  0.22138506260E+04  0.80996993780E+02 0.  0.
        254    2    1    2    0    0 -0.47593653439E+03  0.16801131218E+03  0.50059516055E+03  0.11558450442E+04  0.91139391356E+03 0.  0.
         23    2    4    4    0    0 -0.19712175789E+02  0.15875982322E+03  0.64119175630E+03  0.66861823532E+03  0.10163771403E+03 0.  0.
         23    2    4    4    0    0 -0.45622435860E+03  0.92514889610E+01 -0.14059659576E+03  0.48722680888E+03  0.96934540454E+02 0.  0.
          3    1    3    3  502    0  0.36911810822E+03 -0.11617674563E+03 -0.17737033709E+04  0.18154252565E+04  0.00000000000E+00 0. -1.
         -4    1    3    3    0  502  0.10681842616E+03 -0.51834566548E+02 -0.38032325274E+03  0.39842536946E+03  0.00000000000E+00 0.  1.
         13    1    5    5    0    0 -0.56070513014E+01  0.10510676264E+03  0.56294618731E+03  0.57270173771E+03  0.00000000000E+00 0.  1.
        -13    1    5    5    0    0 -0.14105124487E+02  0.53653060577E+02  0.78245568998E+02  0.95916497611E+02  0.00000000000E+00 0. -1.
          4    1    6    6  503    0 -0.69622026851E+02  0.36498662434E+02 -0.30638642788E+02  0.84368865194E+02  0.00000000000E+00 0.  1.
         -4    1    6    6    0  503 -0.38660233175E+03 -0.27247173473E+02 -0.10995795297E+03  0.40285794369E+03  0.00000000000E+00 0. -1.
<mgrwt>
<rscale>  0 0.29361562E+04</rscale>
<asrwt>0</asrwt>
<pdfrwt beam="1">  1        1 0.38639439E+00 0.29361562E+04</pdfrwt>
<pdfrwt beam="2">  1       -2 0.13202032E+00 0.29361562E+04</pdfrwt>
<totfact> 0.41794926E-01</totfact>
</mgrwt>
</event>
<event>
12    5  0.5428626E-008  0.1732710E+04  0.7818608E-02  0.8742926E-01
         -2   -1    0    0    0  501 -0.00000000000E+00  0.00000000000E+00  0.93202376163E+03  0.93202376163E+03  0.00000000000E+00 0.  1.
          1   -1    0    0  501    0  0.00000000000E+00 -0.00000000000E+00 -0.80531271232E+03  0.80531271232E+03  0.00000000000E+00 0. -1.
        -24    2    1    2    0    0  0.29027679256E+03  0.17129989815E+03 -0.48661712198E+03  0.59809335133E+03  0.85528720902E+02 0.  0.
        254    2    1    2    0    0 -0.29027679256E+03 -0.17129989815E+03  0.61332817129E+03  0.11392431226E+04  0.89894336603E+03 0.  0.
         23    2    4    4    0    0  0.10699902094E+03 -0.17509528586E+03  0.68955474288E+03  0.72561420926E+03  0.94462096267E+02 0.  0.
         23    2    4    4    0    0 -0.39727581350E+03  0.37953877129E+01 -0.76226571590E+02  0.41362891336E+03  0.86231727320E+02 0.  0.
          3    1    3    3  502    0  0.22705321444E+03  0.16922250705E+03 -0.41661922279E+03  0.50374695620E+03  0.00000000000E+00 0. -1.
         -4    1    3    3    0  502  0.63223578115E+02  0.20773910971E+01 -0.69997899192E+02  0.94346395134E+02  0.00000000000E+00 0.  1.
         13    1    5    5    0    0  0.10640477457E+02 -0.90300117557E+02  0.37529345181E+03  0.38615088497E+03  0.00000000000E+00 0. -1.
        -13    1    5    5    0    0  0.96358543481E+02 -0.84795168304E+02  0.31426129107E+03  0.33946332428E+03  0.00000000000E+00 0.  1.
          1    1    6    6  503    0 -0.20894306200E+03 -0.17598284631E+02 -0.78982182930E+02  0.22406491916E+03  0.00000000000E+00 0. -1.
         -1    1    6    6    0  503 -0.18833275150E+03  0.21393672344E+02  0.27556113408E+01  0.18956399420E+03  0.00000000000E+00 0.  1.
<mgrwt>
<rscale>  0 0.17327095E+04</rscale>
<asrwt>0</asrwt>
<pdfrwt beam="1">  1        1 0.12389426E+00 0.17327095E+04</pdfrwt>
<pdfrwt beam="2">  1       -2 0.14338827E+00 0.17327095E+04</pdfrwt>
<totfact> 0.61343421E+00</totfact>
</mgrwt>
</event>
<event>
12    5  0.5428626E-008  0.1196093E+04  0.7818608E-02  0.9116283E-01
          1   -1    0    0  501    0  0.00000000000E+00  0.00000000000E+00  0.12567637942E+04  0.12567637942E+04  0.00000000000E+00 0. -1.
         -2   -1    0    0    0  501 -0.00000000000E+00 -0.00000000000E+00 -0.28458781367E+03  0.28458781367E+03  0.00000000000E+00 0.  1.
        -24    2    1    2    0    0 -0.70634271667E+02  0.10181494585E+03 -0.67070337817E+02  0.16295349517E+03  0.81853086924E+02 0.  0.
        254    2    1    2    0    0  0.70634271667E+02 -0.10181494585E+03  0.10392463184E+04  0.13783981127E+04  0.89699106093E+03 0.  0.
         23    2    4    4    0    0 -0.34454144793E+03 -0.14155881481E+03  0.80477554080E+03  0.89123200170E+03  0.88786836799E+02 0.  0.
         23    2    4    4    0    0  0.41517571960E+03  0.39743868963E+02  0.23447077758E+03  0.48716611104E+03  0.91672356478E+02 0.  0.
          1    1    3    3  502    0 -0.73208167014E+02  0.38349562644E+02 -0.23473579110E+02  0.85913523899E+02  0.00000000000E+00 0. -1.
         -2    1    3    3    0  502  0.25738953472E+01  0.63465383208E+02 -0.43596758707E+02  0.77039971266E+02  0.00000000000E+00 0.  1.
         13    1    5    5    0    0 -0.13508358096E+03 -0.18655547050E+02  0.35096824836E+03  0.37652930116E+03  0.00000000000E+00 0.  1.
        -13    1    5    5    0    0 -0.20945786697E+03 -0.12290326776E+03  0.45380729244E+03  0.51470270054E+03  0.00000000000E+00 0. -1.
          4    1    6    6  503    0  0.29280668291E+02  0.26786717178E+02  0.11590775189E+02  0.41342856967E+02  0.00000000000E+00 0. -1.
         -4    1    6    6    0  503  0.38589505131E+03  0.12957151785E+02  0.22288000239E+03  0.44582325407E+03  0.00000000000E+00 0.  1.
<mgrwt>
<rscale>  0 0.11960931E+04</rscale>
<asrwt>0</asrwt>
<pdfrwt beam="1">  1        1 0.19334827E+00 0.11960931E+04</pdfrwt>
<pdfrwt beam="2">  1       -2 0.43782741E-01 0.11960931E+04</pdfrwt>
<totfact> 0.41730254E+01</totfact>
</mgrwt>
</event>
<event>
12    5  0.5428626E-008  0.1194580E+04  0.7818608E-02  0.9117614E-01
          1   -1    0    0  501    0  0.00000000000E+00  0.00000000000E+00  0.14327413978E+04  0.14327413978E+04  0.00000000000E+00 0. -1.
         -2   -1    0    0    0  501 -0.00000000000E+00 -0.00000000000E+00 -0.24900175306E+03  0.24900175306E+03  0.00000000000E+00 0.  1.
        -24    2    1    2    0    0 -0.12494705960E+03 -0.34463228170E+02  0.56936252268E+03  0.58948942436E+03  0.80775103874E+02 0.  0.
        254    2    1    2    0    0  0.12494705960E+03  0.34463228170E+02  0.61437712203E+03  0.10922537265E+04  0.89373344635E+03 0.  0.
         23    2    4    4    0    0  0.29431819289E+03  0.36137287577E+03  0.51470496690E+03  0.70027420201E+03  0.90825112365E+02 0.  0.
         23    2    4    4    0    0 -0.16937113329E+03 -0.32690964760E+03  0.99672155129E+02  0.39197952447E+03  0.90315616617E+02 0.  0.
          3    1    3    3  502    0 -0.11778350491E+03 -0.55554810018E+02  0.47444591145E+03  0.49199411971E+03  0.00000000000E+00 0. -1.
         -4    1    3    3    0  502 -0.71635546871E+01  0.21091581848E+02  0.94916611235E+02  0.97495304651E+02  0.00000000000E+00 0.  1.
         13    1    5    5    0    0  0.14572542698E+03  0.17440994233E+03  0.31803330510E+03  0.39089629213E+03  0.00000000000E+00 0.  1.
        -13    1    5    5    0    0  0.14859276591E+03  0.18696293345E+03  0.19667166180E+03  0.30937790988E+03  0.00000000000E+00 0. -1.
          1    1    6    6  503    0 -0.34099868050E+02 -0.13290979063E+02  0.16140260311E+01  0.36634085296E+02  0.00000000000E+00 0.  1.
         -1    1    6    6    0  503 -0.13527126524E+03 -0.31361866854E+03  0.98058129098E+02  0.35534543917E+03  0.00000000000E+00 0. -1.
<mgrwt>
<rscale>  0 0.11945796E+04</rscale>
<asrwt>0</asrwt>
<pdfrwt beam="1">  1        1 0.22042175E+00 0.11945796E+04</pdfrwt>
<pdfrwt beam="2">  1       -2 0.38307963E-01 0.11945796E+04</pdfrwt>
<totfact> 0.40728477E+01</totfact>
</mgrwt>
</event>
<event>
12    5  0.5428626E-008  0.2858751E+04  0.7818608E-02  0.8285257E-01
         -4   -1    0    0    0  501 -0.00000000000E+00  0.00000000000E+00  0.61075000987E+03  0.61075000987E+03  0.00000000000E+00 0.  1.
          1   -1    0    0  501    0  0.00000000000E+00 -0.00000000000E+00 -0.33452539333E+04  0.33452539333E+04  0.00000000000E+00 0. -1.
        -24    2    1    2    0    0 -0.74936904065E+03  0.15609553626E+02  0.21566487492E+03  0.78401481428E+03  0.79813993091E+02 0.  0.
        254    2    1    2    0    0  0.74936904065E+03 -0.15609553626E+02 -0.29501687984E+04  0.31719891289E+04  0.89231243287E+03 0.  0.
         23    2    4    4    0    0  0.23803099767E+02 -0.26197838102E+03 -0.29134713107E+03  0.40342978030E+03  0.93129894041E+02 0.  0.
         23    2    4    4    0    0  0.72556594088E+03  0.24636882740E+03 -0.26588216673E+04  0.27685593486E+04  0.91894911006E+02 0.  0.
          1    1    3    3  502    0 -0.70459834594E+02 -0.21890703377E+02  0.18633296359E+02  0.76098560555E+02  0.00000000000E+00 0. -1.
         -2    1    3    3    0  502 -0.67890920605E+03  0.37500257003E+02  0.19703157856E+03  0.70791625372E+03  0.00000000000E+00 0.  1.
         13    1    5    5    0    0  0.28240499996E+02 -0.25714486100E+02 -0.18375123382E+02  0.42384027590E+02  0.00000000000E+00 0. -1.
        -13    1    5    5    0    0 -0.44374002293E+01 -0.23626389492E+03 -0.27297200769E+03  0.36104575271E+03  0.00000000000E+00 0.  1.
          2    1    6    6  503    0  0.28561197439E+03  0.58992172069E+02 -0.11032660431E+04  0.11411617931E+04  0.00000000000E+00 0. -1.
         -2    1    6    6    0  503  0.43995396649E+03  0.18737665533E+03 -0.15555556242E+04  0.16273975555E+04  0.00000000000E+00 0.  1.
<mgrwt>
<rscale>  0 0.28587507E+04</rscale>
<asrwt>0</asrwt>
<pdfrwt beam="1">  1        1 0.51465444E+00 0.28587507E+04</pdfrwt>
<pdfrwt beam="2">  1       -4 0.93961541E-01 0.28587507E+04</pdfrwt>
<totfact> 0.13476258E-01</totfact>
</mgrwt>
</event>
<event>
12    5  0.5428626E-008  0.2627075E+04  0.7818608E-02  0.8359062E-01
          1   -1    0    0  501    0  0.00000000000E+00  0.00000000000E+00  0.18658695337E+04  0.18658695337E+04  0.00000000000E+00 0. -1.
         -2   -1    0    0    0  501 -0.00000000000E+00 -0.00000000000E+00 -0.92470628742E+03  0.92470628742E+03  0.00000000000E+00 0.  1.
        -24    2    1    2    0    0  0.73717111385E+03 -0.69530076306E+03 -0.18192277420E+03  0.10326893941E+04  0.80542453456E+02 0.  0.
        254    2    1    2    0    0 -0.73717111385E+03  0.69530076306E+03  0.11230860205E+04  0.17578864270E+04  0.89553228783E+03 0.  0.
         23    2    4    4    0    0  0.95855512334E+02  0.43009551443E+03  0.54077662635E+03  0.70338137046E+03  0.90197349881E+02 0.  0.
         23    2    4    4    0    0 -0.83302662618E+03  0.26520524862E+03  0.58230939416E+03  0.10545050565E+04  0.92895101612E+02 0.  0.
          1    1    3    3  502    0  0.18937206422E+03 -0.20545248152E+03 -0.81017517217E+02  0.29092325271E+03  0.00000000000E+00 0. -1.
         -2    1    3    3    0  502  0.54779904963E+03 -0.48984828153E+03 -0.10090525699E+03  0.74176614143E+03  0.00000000000E+00 0.  1.
         13    1    5    5    0    0 -0.15005656898E+02  0.22166034310E+02  0.38517949479E+02  0.46905599325E+02  0.00000000000E+00 0.  1.
        -13    1    5    5    0    0  0.11086116923E+03  0.40792948012E+03  0.50225867687E+03  0.65647577113E+03  0.00000000000E+00 0. -1.
          4    1    6    6  503    0 -0.57316603536E+03  0.18834871300E+03  0.45174914764E+03  0.75370540278E+03  0.00000000000E+00 0. -1.
         -4    1    6    6    0  503 -0.25986059082E+03  0.76856535622E+02  0.13056024652E+03  0.30079965376E+03  0.00000000000E+00 0.  1.
<mgrwt>
<rscale>  0 0.26270754E+04</rscale>
<asrwt>0</asrwt>
<pdfrwt beam="1">  1        1 0.28705685E+00 0.26270754E+04</pdfrwt>
<pdfrwt beam="2">  1       -2 0.14226251E+00 0.26270754E+04</pdfrwt>
<totfact> 0.97743352E-01</totfact>
</mgrwt>
</event>
<event>
12    5  0.5428626E-008  0.9945489E+03  0.7818608E-02  0.9314544E-01
         -4   -1    0    0    0  501 -0.00000000000E+00  0.00000000000E+00  0.15825788669E+04  0.15825788669E+04  0.00000000000E+00 0.  1.
          3   -1    0    0  501    0  0.00000000000E+00 -0.00000000000E+00 -0.15625249151E+03  0.15625249151E+03  0.00000000000E+00 0. -1.
        -24    2    1    2    0    0  0.69455034743E+01 -0.32544601083E+02  0.10306713113E+03  0.13387551487E+03  0.78691987417E+02 0.  0.
        254    2    1    2    0    0 -0.69455034743E+01  0.32544601083E+02  0.13232592443E+04  0.16049558436E+04  0.90761271539E+03 0.  0.
         23    2    4    4    0    0  0.42734719905E+03 -0.69518103881E+02  0.53101226034E+03  0.69113572001E+03  0.90753333473E+02 0.  0.
         23    2    4    4    0    0 -0.43429270252E+03  0.10206270496E+03  0.79224698395E+03  0.91382012356E+03  0.91569577065E+02 0.  0.
          3    1    3    3  502    0  0.55710430100E+01 -0.36064474321E+02  0.62968859048E+01  0.37031521712E+02  0.00000000000E+00 0. -1.
         -4    1    3    3    0  502  0.13744604643E+01  0.35198732381E+01  0.96770245228E+02  0.96843993157E+02  0.00000000000E+00 0.  1.
         13    1    5    5    0    0  0.19271679936E+03  0.14203461285E+02  0.23473305630E+03  0.30404129783E+03  0.00000000000E+00 0.  1.
        -13    1    5    5    0    0  0.23463039969E+03 -0.83721565166E+02  0.29627920404E+03  0.38709442218E+03  0.00000000000E+00 0. -1.
          2    1    6    6  503    0 -0.36597469765E+03  0.89711575568E+02  0.59070244402E+03  0.70065328336E+03  0.00000000000E+00 0. -1.
         -2    1    6    6    0  503 -0.68318004867E+02  0.12351129396E+02  0.20154453992E+03  0.21316684019E+03  0.00000000000E+00 0.  1.
<mgrwt>
<rscale>  0 0.99454892E+03</rscale>
<asrwt>0</asrwt>
<pdfrwt beam="1">  1        3 0.24038846E-01 0.99454892E+03</pdfrwt>
<pdfrwt beam="2">  1       -4 0.24347366E+00 0.99454892E+03</pdfrwt>
<totfact> 0.26177084E+00</totfact>
</mgrwt>
</event>
<event>
12    5  0.5428626E-008  0.2240197E+04  0.7818608E-02  0.8501881E-01
          1   -1    0    0  501    0  0.00000000000E+00  0.00000000000E+00  0.13100981560E+04  0.13100981560E+04  0.00000000000E+00 0. -1.
         -2   -1    0    0    0  501 -0.00000000000E+00 -0.00000000000E+00 -0.95765366244E+03  0.95765366244E+03  0.00000000000E+00 0.  1.
        -24    2    1    2    0    0  0.95576364986E+03  0.15494222748E+01  0.16407868563E+03  0.97325610306E+03  0.82577672336E+02 0.  0.
        254    2    1    2    0    0 -0.95576364986E+03 -0.15494222748E+01  0.18836580790E+03  0.12944957153E+04  0.85249687645E+03 0.  0.
         23    2    4    4    0    0 -0.42594350303E+03 -0.20187434363E+03 -0.27855747264E+03  0.55489116121E+03  0.90159951381E+02 0.  0.
         23    2    4    4    0    0 -0.52982014683E+03  0.20032492135E+03  0.46692328054E+03  0.73960455414E+03  0.90322115155E+02 0.  0.
          3    1    3    3  502    0  0.87036090701E+03 -0.21835150085E+01  0.17272075683E+03  0.88733608967E+03  0.00000000000E+00 0. -1.
         -4    1    3    3    0  502  0.85402742851E+02  0.37329372833E+01 -0.86420711996E+01  0.85920013396E+02  0.00000000000E+00 0.  1.
         13    1    5    5    0    0 -0.35002651691E+03 -0.14492284461E+03 -0.18490337588E+03  0.42155717506E+03  0.00000000000E+00 0. -1.
        -13    1    5    5    0    0 -0.75916986115E+02 -0.56951499022E+02 -0.93654096765E+02  0.13333398615E+03  0.00000000000E+00 0.  1.
          3    1    6    6  503    0 -0.49296340527E+03  0.18748997687E+03  0.39926424676E+03  0.66149629561E+03  0.00000000000E+00 0. -1.
         -3    1    6    6    0  503 -0.36856741562E+02  0.12834944488E+02  0.67659033782E+02  0.78108258532E+02  0.00000000000E+00 0.  1.
<mgrwt>
<rscale>  0 0.22401967E+04</rscale>
<asrwt>0</asrwt>
<pdfrwt beam="1">  1        1 0.20155356E+00 0.22401967E+04</pdfrwt>
<pdfrwt beam="2">  1       -2 0.14733133E+00 0.22401967E+04</pdfrwt>
<totfact> 0.22287432E+00</totfact>
</mgrwt>
</event>
<event>
12    5  0.5428626E-008  0.1038965E+04  0.7818608E-02  0.9266812E-01
          1   -1    0    0  501    0  0.00000000000E+00  0.00000000000E+00  0.17055936664E+04  0.17055936664E+04  0.00000000000E+00 0. -1.
         -2   -1    0    0    0  501 -0.00000000000E+00 -0.00000000000E+00 -0.15822163331E+03  0.15822163331E+03  0.00000000000E+00 0.  1.
        -24    2    1    2    0    0 -0.47400308540E+02 -0.12505597997E+02  0.32773451713E+02  0.10015620943E+03  0.80956703976E+02 0.  0.
        254    2    1    2    0    0  0.47400308540E+02  0.12505597997E+02  0.15145985813E+04  0.17636590902E+04  0.90226456473E+03 0.  0.
         23    2    4    4    0    0  0.10520601474E+03 -0.39025302235E+03  0.40621349297E+03  0.58015263482E+03  0.90564622353E+02 0.  0.
         23    2    4    4    0    0 -0.57805706202E+02  0.40275862035E+03  0.11083850884E+04  0.11835064554E+04  0.81326625285E+02 0.  0.
          3    1    3    3  502    0 -0.38765984941E+02  0.23140919216E+02  0.42718569724E+02  0.62154484391E+02  0.00000000000E+00 0. -1.
         -4    1    3    3    0  502 -0.86343235993E+01 -0.35646517213E+02 -0.99451180115E+01  0.38001725036E+02  0.00000000000E+00 0.  1.
         13    1    5    5    0    0  0.80268514325E+02 -0.22229576553E+03  0.17887878341E+03  0.29640523092E+03  0.00000000000E+00 0.  1.
        -13    1    5    5    0    0  0.24937500417E+02 -0.16795725682E+03  0.22733470956E+03  0.28374740390E+03  0.00000000000E+00 0. -1.
          4    1    6    6  503    0 -0.59540884507E+02  0.39791862938E+03  0.11074583845E+04  0.11782819807E+04  0.00000000000E+00 0. -1.
         -4    1    6    6    0  503  0.17351783052E+01  0.48399909671E+01  0.92670383709E+00  0.52244747405E+01  0.00000000000E+00 0.  1.
<mgrwt>
<rscale>  0 0.10389645E+04</rscale>
<asrwt>0</asrwt>
<pdfrwt beam="1">  1        1 0.26239901E+00 0.10389645E+04</pdfrwt>
<pdfrwt beam="2">  1       -2 0.24341791E-01 0.10389645E+04</pdfrwt>
<totfact> 0.62524462E+01</totfact>
</mgrwt>
</event>
<event>
12    5  0.5428626E-008  0.1437538E+04  0.7818608E-02  0.8927086E-01
         -2   -1    0    0    0  501 -0.00000000000E+00  0.00000000000E+00  0.13355954460E+04  0.13355954460E+04  0.00000000000E+00 0.  1.
          1   -1    0    0  501    0  0.00000000000E+00 -0.00000000000E+00 -0.38681514415E+03  0.38681514415E+03  0.00000000000E+00 0. -1.
        -24    2    1    2    0    0  0.70251602379E+01  0.32781016455E+03 -0.44302788484E+02  0.34259313987E+03  0.88873311872E+02 0.  0.
        254    2    1    2    0    0 -0.70251602379E+01 -0.32781016455E+03  0.99308309030E+03  0.13798174502E+04  0.90009628089E+03 0.  0.
         23    2    4    4    0    0 -0.36375381916E+03 -0.43572747693E+03  0.57550780707E+03  0.81358479080E+03  0.92388856037E+02 0.  0.
         23    2    4    4    0    0  0.35672865892E+03  0.10791731238E+03  0.41757528323E+03  0.56623265943E+03  0.85725288190E+02 0.  0.
          1    1    3    3  502    0  0.47488542558E+02  0.15181788238E+03 -0.23982774236E+02  0.16086952647E+03  0.00000000000E+00 0. -1.
         -2    1    3    3    0  502 -0.40463382320E+02  0.17599228217E+03 -0.20320014247E+02  0.18172361341E+03  0.00000000000E+00 0.  1.
         13    1    5    5    0    0 -0.24456737557E+03 -0.32811141521E+03  0.36153062793E+03  0.54605374911E+03  0.00000000000E+00 0.  1.
        -13    1    5    5    0    0 -0.11918644360E+03 -0.10761606171E+03  0.21397717914E+03  0.26753104169E+03  0.00000000000E+00 0. -1.
          3    1    6    6  503    0  0.81610607008E+02  0.41402805872E+02  0.15583061183E+03  0.18071431347E+03  0.00000000000E+00 0. -1.
         -3    1    6    6    0  503  0.27511805192E+03  0.66514506504E+02  0.26174467140E+03  0.38551834596E+03  0.00000000000E+00 0.  1.
<mgrwt>
<rscale>  0 0.14375375E+04</rscale>
<asrwt>0</asrwt>
<pdfrwt beam="1">  1        1 0.59510023E-01 0.14375375E+04</pdfrwt>
<pdfrwt beam="2">  1       -2 0.20547622E+00 0.14375375E+04</pdfrwt>
<totfact> 0.65227271E+00</totfact>
</mgrwt>
</event>
<event>
12    5  0.5428626E-008  0.2609786E+04  0.7818608E-02  0.8364885E-01
          1   -1    0    0  501    0  0.00000000000E+00  0.00000000000E+00  0.19955030147E+04  0.19955030147E+04  0.00000000000E+00 0. -1.
         -2   -1    0    0    0  501 -0.00000000000E+00 -0.00000000000E+00 -0.85329126190E+03  0.85329126190E+03  0.00000000000E+00 0.  1.
        -24    2    1    2    0    0  0.33387710270E+03 -0.10822877135E+04  0.71971186651E+03  0.13443903674E+04  0.81115194244E+02 0.  0.
        254    2    1    2    0    0 -0.33387710270E+03  0.10822877135E+04  0.42249988627E+03  0.15044039092E+04  0.89549112426E+03 0.  0.
         23    2    4    4    0    0 -0.47007719331E+03  0.40292808184E+03 -0.97603454035E+02  0.63345855319E+03  0.91758910047E+02 0.  0.
         23    2    4    4    0    0  0.13620009061E+03  0.67935963164E+03  0.52010334031E+03  0.87094535599E+03  0.89209611236E+02 0.  0.
          1    1    3    3  502    0  0.24092987180E+02 -0.92042455735E+02  0.88264871814E+02  0.12978048114E+03  0.00000000000E+00 0. -1.
         -2    1    3    3    0  502  0.30978411552E+03 -0.99024525774E+03  0.63144699470E+03  0.12146098863E+04  0.00000000000E+00 0.  1.
         13    1    5    5    0    0 -0.26707849020E+03  0.26200639704E+03 -0.20941600159E+02  0.37472232738E+03  0.00000000000E+00 0. -1.
        -13    1    5    5    0    0 -0.20299870311E+03  0.14092168479E+03 -0.76661853876E+02  0.25873622582E+03  0.00000000000E+00 0.  1.
          3    1    6    6  503    0  0.11432264282E+03  0.61893413808E+03  0.43858145257E+03  0.76713937749E+03  0.00000000000E+00 0. -1.
         -3    1    6    6    0  503  0.21877447788E+02  0.60425493553E+02  0.81521887738E+02  0.10380597850E+03  0.00000000000E+00 0.  1.
<mgrwt>
<rscale>  0 0.26097857E+04</rscale>
<asrwt>0</asrwt>
<pdfrwt beam="1">  1        1 0.30700046E+00 0.26097857E+04</pdfrwt>
<pdfrwt beam="2">  1       -2 0.13127558E+00 0.26097857E+04</pdfrwt>
<totfact> 0.98329963E-01</totfact>
</mgrwt>
</event>
<event>
12    5  0.5428626E-008  0.2136361E+04  0.7818608E-02  0.8545393E-01
          1   -1    0    0  501    0  0.00000000000E+00  0.00000000000E+00  0.19483776540E+04  0.19483776540E+04  0.00000000000E+00 0. -1.
         -2   -1    0    0    0  501 -0.00000000000E+00 -0.00000000000E+00 -0.58562009445E+03  0.58562009445E+03  0.00000000000E+00 0.  1.
        -24    2    1    2    0    0 -0.80948278534E+03 -0.28372421038E+03  0.78072207637E+03  0.11625907554E+04  0.79551848595E+02 0.  0.
        254    2    1    2    0    0  0.80948278534E+03  0.28372421038E+03  0.58203548319E+03  0.13714069931E+04  0.89790312936E+03 0.  0.
         23    2    4    4    0    0  0.99725968014E+03  0.21573600396E+03  0.48794154282E+03  0.11346484642E+04  0.90946659965E+02 0.  0.
         23    2    4    4    0    0 -0.18777689480E+03  0.67988206423E+02  0.94093940368E+02  0.23675852894E+03  0.85547489618E+02 0.  0.
          3    1    3    3  502    0 -0.57712899438E+03 -0.20420248084E+03  0.60429403778E+03  0.86020219334E+03  0.00000000000E+00 0. -1.
         -4    1    3    3    0  502 -0.23235379096E+03 -0.79521729539E+02  0.17642803860E+03  0.30238856203E+03  0.00000000000E+00 0.  1.
         13    1    5    5    0    0  0.54853922337E+03  0.13333684420E+03  0.22216918123E+03  0.60665734866E+03  0.00000000000E+00 0. -1.
        -13    1    5    5    0    0  0.44872045677E+03  0.82399159754E+02  0.26577236159E+03  0.52799111550E+03  0.00000000000E+00 0.  1.
          3    1    6    6  503    0 -0.14683487465E+03  0.11361325877E+02  0.67263220267E+02  0.16190707501E+03  0.00000000000E+00 0. -1.
         -3    1    6    6    0  503 -0.40942020154E+02  0.56626880545E+02  0.26830720102E+02  0.74851453932E+02  0.00000000000E+00 0.  1.
<mgrwt>
<rscale>  0 0.21363606E+04</rscale>
<asrwt>0</asrwt>
<pdfrwt beam="1">  1        1 0.29975041E+00 0.21363606E+04</pdfrwt>
<pdfrwt beam="2">  1       -2 0.90095400E-01 0.21363606E+04</pdfrwt>
<totfact> 0.27421309E+00</totfact>
</mgrwt>
</event>
<event>
12    5  0.5428626E-008  0.1767572E+04  0.7818608E-02  0.8723737E-01
          1   -1    0    0  501    0  0.00000000000E+00  0.00000000000E+00  0.32928811002E+03  0.32928811002E+03  0.00000000000E+00 0. -1.
         -2   -1    0    0    0  501 -0.00000000000E+00 -0.00000000000E+00 -0.23720193965E+04  0.23720193965E+04  0.00000000000E+00 0.  1.
        -24    2    1    2    0    0 -0.12712334146E+03 -0.50189616923E+03 -0.13673363207E+04  0.14641044291E+04  0.77026337369E+02 0.  0.
        254    2    1    2    0    0  0.12712334146E+03  0.50189616923E+03 -0.67539496572E+03  0.12372030774E+04  0.89802727487E+03 0.  0.
         23    2    4    4    0    0  0.22638513444E+03  0.55018068855E+03 -0.83101246358E+03  0.10258643654E+04  0.88695898080E+02 0.  0.
         23    2    4    4    0    0 -0.99261792979E+02 -0.48284519325E+02  0.15561749786E+03  0.21133871205E+03  0.90900754777E+02 0.  0.
          3    1    3    3  502    0 -0.28379380112E+02 -0.91165125780E+02 -0.17827040437E+03  0.20222958845E+03  0.00000000000E+00 0. -1.
         -4    1    3    3    0  502 -0.98743961346E+02 -0.41073104345E+03 -0.11890659164E+04  0.12618748406E+04  0.00000000000E+00 0.  1.
         13    1    5    5    0    0  0.13591254775E+03  0.31623297791E+03 -0.40515228431E+03  0.53162382418E+03  0.00000000000E+00 0. -1.
        -13    1    5    5    0    0  0.90472586684E+02  0.23394771064E+03 -0.42586017927E+03  0.49424054118E+03  0.00000000000E+00 0.  1.
          2    1    6    6  503    0 -0.13849041263E+02 -0.52623987390E+02  0.40037626843E+02  0.67558060629E+02  0.00000000000E+00 0. -1.
         -2    1    6    6    0  503 -0.85412751717E+02  0.43394680650E+01  0.11557987102E+03  0.14378065142E+03  0.00000000000E+00 0.  1.
<mgrwt>
<rscale>  0 0.17675721E+04</rscale>
<asrwt>0</asrwt>
<pdfrwt beam="1">  1        1 0.50659710E-01 0.17675721E+04</pdfrwt>
<pdfrwt beam="2">  1       -2 0.36492606E+00 0.17675721E+04</pdfrwt>
<totfact> 0.80659935E-01</totfact>
</mgrwt>
</event>
<event>
12    5  0.5428626E-008  0.1558479E+04  0.7818608E-02  0.8846470E-01
          1   -1    0    0  501    0  0.00000000000E+00  0.00000000000E+00  0.14949418162E+04  0.14949418162E+04  0.00000000000E+00 0. -1.
         -2   -1    0    0    0  501 -0.00000000000E+00 -0.00000000000E+00 -0.40617905183E+03  0.40617905183E+03  0.00000000000E+00 0.  1.
        -24    2    1    2    0    0 -0.11253137216E+03 -0.34413026240E+02  0.96694408123E+03  0.97748889218E+03  0.81584998664E+02 0.  0.
        254    2    1    2    0    0  0.11253137216E+03  0.34413026240E+02  0.12181868309E+03  0.92363197580E+03  0.90796953092E+03 0.  0.
         23    2    4    4    0    0  0.68499979766E+02  0.36521078447E+03 -0.21660511564E+03  0.43968013546E+03  0.91267086467E+02 0.  0.
         23    2    4    4    0    0  0.44031392393E+02 -0.33079775823E+03  0.33842379873E+03  0.48395184034E+03  0.91174535117E+02 0.  0.
          1    1    3    3  502    0 -0.15764509959E+02  0.24996295857E+02  0.18599833028E+03  0.18833139263E+03  0.00000000000E+00 0. -1.
         -2    1    3    3    0  502 -0.96766862200E+02 -0.59409322097E+02  0.78094575095E+03  0.78915749955E+03  0.00000000000E+00 0.  1.
         13    1    5    5    0    0  0.23280803452E+02  0.14395485097E+02 -0.26566631278E+02  0.38144615584E+02  0.00000000000E+00 0.  1.
        -13    1    5    5    0    0  0.45219176314E+02  0.35081529938E+03 -0.19003848436E+03  0.40153551987E+03  0.00000000000E+00 0. -1.
          2    1    6    6  503    0  0.49400952879E+01 -0.20809802545E+03  0.26043802976E+03  0.33340239963E+03  0.00000000000E+00 0. -1.
         -2    1    6    6    0  503  0.39091297105E+02 -0.12269973279E+03  0.77985768971E+02  0.15054944071E+03  0.00000000000E+00 0.  1.
<mgrwt>
<rscale>  0 0.15584788E+04</rscale>
<asrwt>0</asrwt>
<pdfrwt beam="1">  1        1 0.22999105E+00 0.15584788E+04</pdfrwt>
<pdfrwt beam="2">  1       -2 0.62489085E-01 0.15584788E+04</pdfrwt>
<totfact> 0.13234655E+01</totfact>
</mgrwt>
</event>
<event>
12    5  0.5428626E-008  0.1308042E+04  0.7818608E-02  0.9023212E-01
          1   -1    0    0  501    0  0.00000000000E+00  0.00000000000E+00  0.84131050096E+03  0.84131050096E+03  0.00000000000E+00 0. -1.
         -2   -1    0    0    0  501 -0.00000000000E+00 -0.00000000000E+00 -0.50842490320E+03  0.50842490320E+03  0.00000000000E+00 0.  1.
        -24    2    1    2    0    0 -0.76374536379E+02  0.23004888331E+03  0.32605660588E+03  0.41453452220E+03  0.82282448551E+02 0.  0.
        254    2    1    2    0    0  0.76374536379E+02 -0.23004888331E+03  0.68289918851E+01  0.93520088195E+03  0.90321564200E+03 0.  0.
         23    2    4    4    0    0  0.22824553512E+03 -0.51125370915E+03  0.13075173271E+03  0.58160781207E+03  0.87722585675E+02 0.  0.
         23    2    4    4    0    0 -0.15187099874E+03  0.28120482583E+03 -0.12392274083E+03  0.35359306988E+03  0.86777065175E+02 0.  0.
          3    1    3    3  502    0 -0.78482803268E+02  0.10613989500E+03  0.17221750324E+03  0.21698870049E+03  0.00000000000E+00 0. -1.
         -4    1    3    3    0  502  0.21082668887E+01  0.12390898831E+03  0.15383910264E+03  0.19754582171E+03  0.00000000000E+00 0.  1.
         13    1    5    5    0    0  0.50357914989E+02 -0.85800518719E+02 -0.86265565157E+01  0.99860232785E+02  0.00000000000E+00 0.  1.
        -13    1    5    5    0    0  0.17788762013E+03 -0.42545319043E+03  0.13937828923E+03  0.48174757929E+03  0.00000000000E+00 0. -1.
          1    1    6    6  503    0 -0.15066031543E+03  0.28750578774E+03 -0.11993338476E+03  0.34603775143E+03  0.00000000000E+00 0. -1.
         -1    1    6    6    0  503 -0.12106833088E+01 -0.63009619100E+01 -0.39893560662E+01  0.75553184506E+01  0.00000000000E+00 0.  1.
<mgrwt>
<rscale>  0 0.13080416E+04</rscale>
<asrwt>0</asrwt>
<pdfrwt beam="1">  1        1 0.12943238E+00 0.13080416E+04</pdfrwt>
<pdfrwt beam="2">  1       -2 0.78219216E-01 0.13080416E+04</pdfrwt>
<totfact> 0.25487533E+01</totfact>
</mgrwt>
</event>
<event>
12    5  0.5428626E-008  0.1500247E+04  0.7818608E-02  0.8884289E-01
         -2   -1    0    0    0  501 -0.00000000000E+00  0.00000000000E+00  0.11914609311E+04  0.11914609311E+04  0.00000000000E+00 0.  1.
          1   -1    0    0  501    0  0.00000000000E+00 -0.00000000000E+00 -0.47226471681E+03  0.47226471681E+03  0.00000000000E+00 0. -1.
        -24    2    1    2    0    0  0.52936775311E+02  0.12508780366E+03  0.79590155183E+03  0.81139830276E+03  0.80365818039E+02 0.  0.
        254    2    1    2    0    0 -0.52936775311E+02 -0.12508780366E+03 -0.76705337587E+02  0.85232734510E+03  0.83793134180E+03 0.  0.
         23    2    4    4    0    0 -0.33281578082E+03 -0.32622292528E+02  0.23111517405E+03  0.41651329119E+03  0.90766404191E+02 0.  0.
         23    2    4    4    0    0  0.27987900551E+03 -0.92465511135E+02 -0.30782051164E+03  0.43581405390E+03  0.91094970852E+02 0.  0.
          1    1    3    3  502    0  0.30589373315E+02  0.11038983393E+02  0.84045391484E+02  0.90117682748E+02  0.00000000000E+00 0. -1.
         -2    1    3    3    0  502  0.22347401996E+02  0.11404882027E+03  0.71185616035E+03  0.72128062001E+03  0.00000000000E+00 0.  1.
         13    1    5    5    0    0 -0.22747187141E+02 -0.75524562329E+01  0.52715163147E+02  0.57908225181E+02  0.00000000000E+00 0.  1.
        -13    1    5    5    0    0 -0.31006859368E+03 -0.25069836295E+02  0.17840001091E+03  0.35860506601E+03  0.00000000000E+00 0. -1.
          1    1    6    6  503    0  0.22604910610E+03 -0.39594435944E+02 -0.25850883486E+03  0.34567721276E+03  0.00000000000E+00 0. -1.
         -1    1    6    6    0  503  0.53829899413E+02 -0.52871075192E+02 -0.49311676786E+02  0.90136841137E+02  0.00000000000E+00 0.  1.
<mgrwt>
<rscale>  0 0.15002466E+04</rscale>
<asrwt>0</asrwt>
<pdfrwt beam="1">  1        1 0.72656111E-01 0.15002466E+04</pdfrwt>
<pdfrwt beam="2">  1       -2 0.18330168E+00 0.15002466E+04</pdfrwt>
<totfact> 0.69716173E+00</totfact>
</mgrwt>
</event>
<event>
12    5  0.5428626E-008  0.2144782E+04  0.7818608E-02  0.8541769E-01
          1   -1    0    0  501    0  0.00000000000E+00  0.00000000000E+00  0.30638419318E+04  0.30638419318E+04  0.00000000000E+00 0. -1.
         -2   -1    0    0    0  501 -0.00000000000E+00 -0.00000000000E+00 -0.37535299400E+03  0.37535299400E+03  0.00000000000E+00 0.  1.
        -24    2    1    2    0    0 -0.15022649235E+03  0.67122549886E+03  0.22370301109E+03  0.72770201716E+03  0.79971990653E+02 0.  0.
        254    2    1    2    0    0  0.15022649235E+03 -0.67122549886E+03  0.24647859267E+04  0.27114929086E+04  0.89661165490E+03 0.  0.
         23    2    4    4    0    0 -0.29241734100E+03 -0.19957210592E+03  0.38119150956E+03  0.52799085426E+03  0.90168999321E+02 0.  0.
         23    2    4    4    0    0  0.44264383336E+03 -0.47165339294E+03  0.20835944172E+04  0.21835020544E+04  0.89022693600E+02 0.  0.
          1    1    3    3  502    0 -0.48825980155E+02  0.17507512585E+03  0.23967996446E+02  0.18332959631E+03  0.00000000000E+00 0. -1.
         -2    1    3    3    0  502 -0.10140051220E+03  0.49615037301E+03  0.19973501464E+03  0.54437242086E+03  0.00000000000E+00 0.  1.
         13    1    5    5    0    0 -0.29557251093E+03 -0.18122017228E+03  0.36106815274E+03  0.50057374180E+03  0.00000000000E+00 0. -1.
        -13    1    5    5    0    0  0.31551699283E+01 -0.18351933643E+02  0.20123356824E+02  0.27417112459E+02  0.00000000000E+00 0.  1.
          1    1    6    6  503    0  0.41402923353E+03 -0.41146767380E+03  0.19226668546E+04  0.20093216981E+04  0.00000000000E+00 0. -1.
         -1    1    6    6    0  503  0.28614599826E+02 -0.60185719136E+02  0.16092756257E+03  0.17418035625E+03  0.00000000000E+00 0.  1.
<mgrwt>
<rscale>  0 0.21447818E+04</rscale>
<asrwt>0</asrwt>
<pdfrwt beam="1">  1        1 0.47136028E+00 0.21447818E+04</pdfrwt>
<pdfrwt beam="2">  1       -2 0.57746616E-01 0.21447818E+04</pdfrwt>
<totfact> 0.12146699E+00</totfact>
</mgrwt>
</event>
<event>
12    5  0.5428626E-008  0.1130158E+04  0.7818608E-02  0.9176286E-01
         -2   -1    0    0    0  501 -0.00000000000E+00  0.00000000000E+00  0.59039251130E+03  0.59039251130E+03  0.00000000000E+00 0.  1.
          1   -1    0    0  501    0  0.00000000000E+00 -0.00000000000E+00 -0.54085117003E+03  0.54085117003E+03  0.00000000000E+00 0. -1.
        -24    2    1    2    0    0  0.12673343294E+03 -0.23011043240E+03 -0.82029232381E+02  0.28617912248E+03  0.78469873518E+02 0.  0.
        254    2    1    2    0    0 -0.12673343294E+03  0.23011043240E+03  0.13157057365E+03  0.84506455886E+03  0.79234532791E+03 0.  0.
         23    2    4    4    0    0 -0.23125162732E+03 -0.19222474824E+03 -0.11766608254E+03  0.33550990501E+03  0.91070963554E+02 0.  0.
         23    2    4    4    0    0  0.10451819438E+03  0.42233518064E+03  0.24923665620E+03  0.50955465385E+03  0.90752282123E+02 0.  0.
          3    1    3    3  502    0  0.39570223003E+02 -0.40495090416E+02  0.11026725451E+02  0.57682263916E+02  0.00000000000E+00 0. -1.
         -4    1    3    3    0  502  0.87163209940E+02 -0.18961534199E+03 -0.93055957832E+02  0.22849685856E+03  0.00000000000E+00 0.  1.
         13    1    5    5    0    0 -0.16030761504E+03 -0.18198184088E+03 -0.91030584312E+02  0.25904148149E+03  0.00000000000E+00 0.  1.
        -13    1    5    5    0    0 -0.70944012279E+02 -0.10242907355E+02 -0.26635498230E+02  0.76468423518E+02  0.00000000000E+00 0. -1.
          2    1    6    6  503    0  0.12936095618E+02  0.76126655588E+00  0.57322820899E+01  0.14169726693E+02  0.00000000000E+00 0. -1.
         -2    1    6    6    0  503  0.91582098760E+02  0.42157391408E+03  0.24350437411E+03  0.49538492716E+03  0.00000000000E+00 0.  1.
<mgrwt>
<rscale>  0 0.11301584E+04</rscale>
<asrwt>0</asrwt>
<pdfrwt beam="1">  1        1 0.83207872E-01 0.11301584E+04</pdfrwt>
<pdfrwt beam="2">  1       -2 0.90829618E-01 0.11301584E+04</pdfrwt>
<totfact> 0.35764506E+01</totfact>
</mgrwt>
</event>
<event>
12    5  0.5428626E-008  0.1200414E+04  0.7818608E-02  0.9112494E-01
         -2   -1    0    0    0  501 -0.00000000000E+00  0.00000000000E+00  0.96662999982E+03  0.96662999982E+03  0.00000000000E+00 0.  1.
          1   -1    0    0  501    0  0.00000000000E+00 -0.00000000000E+00 -0.37268522705E+03  0.37268522705E+03  0.00000000000E+00 0. -1.
        -24    2    1    2    0    0 -0.14283215689E+03 -0.15564208808E+03 -0.18930771645E+02  0.22734540930E+03  0.81866210315E+02 0.  0.
        254    2    1    2    0    0  0.14283215689E+03  0.15564208808E+03  0.61287554442E+03  0.11119698176E+04  0.90345722511E+03 0.  0.
         23    2    4    4    0    0 -0.10153003794E+03  0.45147289285E+03  0.52835619239E+03  0.70877713089E+03  0.95229373894E+02 0.  0.
         23    2    4    4    0    0  0.24436219483E+03 -0.29583080477E+03  0.84519352029E+02  0.40319268668E+03  0.90510079070E+02 0.  0.
          1    1    3    3  502    0 -0.14751470696E+03 -0.12523152538E+03 -0.27396464762E+02  0.19543308317E+03  0.00000000000E+00 0. -1.
         -2    1    3    3    0  502  0.46825500648E+01 -0.30410562706E+02  0.84656931167E+01  0.31912326132E+02  0.00000000000E+00 0.  1.
         13    1    5    5    0    0  0.15811291217E+01  0.13759224373E+03  0.20175508105E+03  0.24421146213E+03  0.00000000000E+00 0. -1.
        -13    1    5    5    0    0 -0.10311116706E+03  0.31388064912E+03  0.32660111134E+03  0.46456566876E+03  0.00000000000E+00 0.  1.
          3    1    6    6  503    0  0.26645823812E+02 -0.92244846934E+02  0.25303175236E+02  0.99294322041E+02  0.00000000000E+00 0. -1.
         -3    1    6    6    0  503  0.21771637102E+03 -0.20358595783E+03  0.59216176792E+02  0.30389836464E+03  0.00000000000E+00 0.  1.
<mgrwt>
<rscale>  0 0.12004145E+04</rscale>
<asrwt>0</asrwt>
<pdfrwt beam="1">  1        1 0.57336189E-01 0.12004145E+04</pdfrwt>
<pdfrwt beam="2">  1       -2 0.14871231E+00 0.12004145E+04</pdfrwt>
<totfact> 0.17448516E+01</totfact>
</mgrwt>
</event>
<event>
12    5  0.5428626E-008  0.1774474E+04  0.7818608E-02  0.8719993E-01
          1   -1    0    0  501    0  0.00000000000E+00  0.00000000000E+00  0.94846755498E+03  0.94846755498E+03  0.00000000000E+00 0. -1.
         -2   -1    0    0    0  501 -0.00000000000E+00 -0.00000000000E+00 -0.82995886009E+03  0.82995886009E+03  0.00000000000E+00 0.  1.
        -24    2    1    2    0    0  0.11120999205E+03 -0.62799380764E+03  0.21000637605E+03  0.67605864221E+03  0.78795462844E+02 0.  0.
        254    2    1    2    0    0 -0.11120999205E+03  0.62799380764E+03 -0.91497681156E+02  0.11023677729E+04  0.89448252985E+03 0.  0.
         23    2    4    4    0    0  0.33835378214E+03  0.11975323975E+03  0.11348625480E+03  0.38747442176E+03  0.91832331858E+02 0.  0.
         23    2    4    4    0    0 -0.44956377419E+03  0.50824056789E+03 -0.20498393596E+03  0.71489335109E+03  0.92940989479E+02 0.  0.
          3    1    3    3  502    0  0.58222680154E+02 -0.36003069288E+03  0.16047546929E+03  0.39845245204E+03  0.00000000000E+00 0. -1.
         -4    1    3    3    0  502  0.52987311900E+02 -0.26796311476E+03  0.49530906763E+02  0.27760619017E+03  0.00000000000E+00 0.  1.
         13    1    5    5    0    0  0.32348120914E+01 -0.92306731248E+01  0.95032928706E+01  0.13637518506E+02  0.00000000000E+00 0. -1.
        -13    1    5    5    0    0  0.33511897004E+03  0.12898391288E+03  0.10398296193E+03  0.37383690326E+03  0.00000000000E+00 0.  1.
          3    1    6    6  503    0 -0.31456507962E+03  0.39347198225E+03 -0.18468269306E+03  0.53654364896E+03  0.00000000000E+00 0. -1.
         -3    1    6    6    0  503 -0.13499869457E+03  0.11476858564E+03 -0.20301242901E+02  0.17834970213E+03  0.00000000000E+00 0.  1.
<mgrwt>
<rscale>  0 0.17744735E+04</rscale>
<asrwt>0</asrwt>
<pdfrwt beam="1">  1        1 0.14591808E+00 0.17744735E+04</pdfrwt>
<pdfrwt beam="2">  1       -2 0.12768598E+00 0.17744735E+04</pdfrwt>
<totfact> 0.62608594E+00</totfact>
</mgrwt>
</event>
<event>
12    5  0.5428626E-008  0.1052732E+04  0.7818608E-02  0.9252528E-01
          1   -1    0    0  501    0  0.00000000000E+00  0.00000000000E+00  0.14081893825E+04  0.14081893825E+04  0.00000000000E+00 0. -1.
         -2   -1    0    0    0  501 -0.00000000000E+00 -0.00000000000E+00 -0.19674995200E+03  0.19674995200E+03  0.00000000000E+00 0.  1.
        -24    2    1    2    0    0 -0.98624968808E+02  0.49807909496E+02  0.64741082551E+02  0.15123341799E+03  0.80451392943E+02 0.  0.
        254    2    1    2    0    0  0.98624968808E+02 -0.49807909496E+02  0.11466983480E+04  0.14537059165E+04  0.88664315155E+03 0.  0.
         23    2    4    4    0    0  0.18861004995E+03  0.35715879958E+03  0.81157377122E+03  0.91113959462E+03  0.91581743293E+02 0.  0.
         23    2    4    4    0    0 -0.89985081137E+02 -0.40696670908E+03  0.33512457676E+03  0.54256632191E+03  0.91381150106E+02 0.  0.
          1    1    3    3  502    0 -0.68735337938E+02  0.21965512543E+02  0.79901191945E+02  0.10766257891E+03  0.00000000000E+00 0. -1.
         -2    1    3    3    0  502 -0.29889630870E+02  0.27842396952E+02 -0.15160109394E+02  0.43570839084E+02  0.00000000000E+00 0.  1.
         13    1    5    5    0    0  0.18873161885E+03  0.32583498396E+03  0.69523713833E+03  0.79065968611E+03  0.00000000000E+00 0. -1.
        -13    1    5    5    0    0 -0.12156890308E+00  0.31323815621E+02  0.11633663289E+03  0.12047990851E+03  0.00000000000E+00 0.  1.
          3    1    6    6  503    0 -0.65084465814E+02 -0.37589971633E+03  0.27429885042E+03  0.46986853882E+03  0.00000000000E+00 0. -1.
         -3    1    6    6    0  503 -0.24900615323E+02 -0.31066992748E+02  0.60825726333E+02  0.72697783087E+02  0.00000000000E+00 0.  1.
<mgrwt>
<rscale>  0 0.10527321E+04</rscale>
<asrwt>0</asrwt>
<pdfrwt beam="1">  1        1 0.21664451E+00 0.10527321E+04</pdfrwt>
<pdfrwt beam="2">  1       -2 0.30269224E-01 0.10527321E+04</pdfrwt>
<totfact> 0.67025748E+01</totfact>
</mgrwt>
</event>
<event>
12    5  0.5428626E-008  0.2223769E+04  0.7818608E-02  0.8508600E-01
         -2   -1    0    0    0  501 -0.00000000000E+00  0.00000000000E+00  0.10895733220E+04  0.10895733220E+04  0.00000000000E+00 0.  1.
          1   -1    0    0  501    0  0.00000000000E+00 -0.00000000000E+00 -0.11346522637E+04  0.11346522637E+04  0.00000000000E+00 0. -1.
        -24    2    1    2    0    0 -0.84767056926E+02 -0.89762721706E+03 -0.23854927447E+03  0.93602053686E+03  0.79426785978E+02 0.  0.
        254    2    1    2    0    0  0.84767056926E+02  0.89762721706E+03  0.19347033269E+03  0.12882050488E+04  0.89951175839E+03 0.  0.
         23    2    4    4    0    0 -0.20897760409E+03  0.29645155821E+02 -0.18476675245E+03  0.29271845136E+03  0.83635307609E+02 0.  0.
         23    2    4    4    0    0  0.29374466102E+03  0.86798206124E+03  0.37823708515E+03  0.99548659748E+03  0.90837705158E+02 0.  0.
          3    1    3    3  502    0 -0.98092794770E+01 -0.22157557936E+03 -0.25568055715E+02  0.22326147184E+03  0.00000000000E+00 0. -1.
         -4    1    3    3    0  502 -0.74957777449E+02 -0.67605163770E+03 -0.21298121875E+03  0.71275906503E+03  0.00000000000E+00 0.  1.
         13    1    5    5    0    0  0.55150767971E+01 -0.37812611355E+01 -0.17301398371E+02  0.18548649370E+02  0.00000000000E+00 0. -1.
        -13    1    5    5    0    0 -0.21449268089E+03  0.33426416957E+02 -0.16746535408E+03  0.27416980199E+03  0.00000000000E+00 0.  1.
          1    1    6    6  503    0  0.59554275120E+02  0.25565656801E+03  0.73881390861E+02  0.27270029771E+03  0.00000000000E+00 0. -1.
         -1    1    6    6    0  503  0.23419038590E+03  0.61232549323E+03  0.30435569429E+03  0.72278629978E+03  0.00000000000E+00 0.  1.
<mgrwt>
<rscale>  0 0.22237687E+04</rscale>
<asrwt>0</asrwt>
<pdfrwt beam="1">  1        1 0.17456189E+00 0.22237687E+04</pdfrwt>
<pdfrwt beam="2">  1       -2 0.16762667E+00 0.22237687E+04</pdfrwt>
<totfact> 0.21121678E+00</totfact>
</mgrwt>
</event>
<event>
12    5  0.5428626E-008  0.2078188E+04  0.7818608E-02  0.8570913E-01
         -2   -1    0    0    0  501 -0.00000000000E+00  0.00000000000E+00  0.52050102412E+03  0.52050102412E+03  0.00000000000E+00 0.  1.
          1   -1    0    0  501    0  0.00000000000E+00 -0.00000000000E+00 -0.20743794989E+04  0.20743794989E+04  0.00000000000E+00 0. -1.
        -24    2    1    2    0    0 -0.74017074326E+03  0.35043764768E+03 -0.58824061694E+03  0.10115545325E+04  0.80970826671E+02 0.  0.
        254    2    1    2    0    0  0.74017074326E+03 -0.35043764768E+03 -0.96563785786E+03  0.15833259905E+04  0.95068682836E+03 0.  0.
         23    2    4    4    0    0 -0.39652619328E+02 -0.22470118801E+03  0.90318877522E+02  0.26157616088E+03  0.90562874243E+02 0.  0.
         23    2    4    4    0    0  0.77982336258E+03 -0.12573645967E+03 -0.10559567354E+04  0.13217498296E+04  0.89687518699E+02 0.  0.
          3    1    3    3  502    0 -0.24964335479E+02  0.13271308633E+02 -0.41592931317E+02  0.50292321624E+02  0.00000000000E+00 0. -1.
         -4    1    3    3    0  502 -0.71520640778E+03  0.33716633904E+03 -0.54664768563E+03  0.96126221090E+03  0.00000000000E+00 0.  1.
         13    1    5    5    0    0  0.60024201557E+01 -0.15880581556E+02 -0.15567443313E+02  0.23034044578E+02  0.00000000000E+00 0. -1.
        -13    1    5    5    0    0 -0.45655039484E+02 -0.20882060645E+03  0.10588632084E+03  0.23854211630E+03  0.00000000000E+00 0.  1.
          3    1    6    6  503    0  0.95949780171E+02 -0.66542680482E+01 -0.18005045722E+03  0.20412938726E+03  0.00000000000E+00 0. -1.
         -3    1    6    6    0  503  0.68387358241E+03 -0.11908219162E+03 -0.87590627817E+03  0.11176204424E+04  0.00000000000E+00 0.  1.
<mgrwt>
<rscale>  0 0.20781883E+04</rscale>
<asrwt>0</asrwt>
<pdfrwt beam="1">  1        1 0.31913531E+00 0.20781883E+04</pdfrwt>
<pdfrwt beam="2">  1       -2 0.80077080E-01 0.20781883E+04</pdfrwt>
<totfact> 0.29612104E+00</totfact>
</mgrwt>
</event>
<event>
12    5  0.5428626E-008  0.1784149E+04  0.7818608E-02  0.8714775E-01
         -2   -1    0    0    0  501 -0.00000000000E+00  0.00000000000E+00  0.73961148507E+03  0.73961148507E+03  0.00000000000E+00 0.  1.
          1   -1    0    0  501    0  0.00000000000E+00 -0.00000000000E+00 -0.10759661324E+04  0.10759661324E+04  0.00000000000E+00 0. -1.
        -24    2    1    2    0    0 -0.17296646488E+03  0.31746298636E+03 -0.66257365187E+03  0.75907276441E+03  0.80544843607E+02 0.  0.
        254    2    1    2    0    0  0.17296646488E+03 -0.31746298636E+03  0.32621900448E+03  0.10565048531E+04  0.93759453928E+03 0.  0.
         23    2    4    4    0    0 -0.35265523526E+01 -0.10815290134E+03 -0.31900594025E+03  0.34956577987E+03  0.93391423069E+02 0.  0.
         23    2    4    4    0    0  0.17649301724E+03 -0.20931008502E+03  0.64522494473E+03  0.70693907324E+03  0.92125605224E+02 0.  0.
          1    1    3    3  502    0 -0.17498465705E+03  0.26379542006E+03 -0.55930467347E+03  0.64267361204E+03  0.00000000000E+00 0. -1.
         -2    1    3    3    0  502  0.20181921686E+01  0.53667566294E+02 -0.10326897840E+03  0.11639915237E+03  0.00000000000E+00 0.  1.
         13    1    5    5    0    0  0.94182095820E+01 -0.50305687912E+02 -0.26327549876E+03  0.26820393948E+03  0.00000000000E+00 0.  1.
        -13    1    5    5    0    0 -0.12944761935E+02 -0.57847213425E+02 -0.55730441496E+02  0.81361840392E+02  0.00000000000E+00 0. -1.
          3    1    6    6  503    0  0.99477683049E+02 -0.65575148034E+02  0.20011396679E+03  0.23289806605E+03  0.00000000000E+00 0. -1.
         -3    1    6    6    0  503  0.77015334188E+02 -0.14373493699E+03  0.44511097795E+03  0.47404100719E+03  0.00000000000E+00 0.  1.
<mgrwt>
<rscale>  0 0.17841490E+04</rscale>
<asrwt>0</asrwt>
<pdfrwt beam="1">  1        1 0.16553325E+00 0.17841490E+04</pdfrwt>
<pdfrwt beam="2">  1       -2 0.11378638E+00 0.17841490E+04</pdfrwt>
<totfact> 0.66285361E+00</totfact>
</mgrwt>
</event>
<event>
12    5  0.5428626E-008  0.1490221E+04  0.7818608E-02  0.8890982E-01
          1   -1    0    0  501    0  0.00000000000E+00  0.00000000000E+00  0.10818479094E+04  0.10818479094E+04  0.00000000000E+00 0. -1.
         -2   -1    0    0    0  501 -0.00000000000E+00 -0.00000000000E+00 -0.51318654842E+03  0.51318654842E+03  0.00000000000E+00 0.  1.
        -24    2    1    2    0    0  0.30235455366E+02 -0.44108698234E+03  0.35070116663E+03  0.57001587083E+03  0.80342242756E+02 0.  0.
        254    2    1    2    0    0 -0.30235455366E+02  0.44108698234E+03  0.21796019430E+03  0.10250185869E+04  0.89871271746E+03 0.  0.
         23    2    4    4    0    0  0.34212362880E+03 -0.21745417525E+02 -0.66530230893E+02  0.36005046519E+03  0.87684806516E+02 0.  0.
         23    2    4    4    0    0 -0.37235908417E+03  0.46283239987E+03  0.28449042520E+03  0.66496812175E+03  0.91556993085E+02 0.  0.
          1    1    3    3  502    0  0.29163963038E+02 -0.41286611298E+03  0.34955032501E+03  0.54175122861E+03  0.00000000000E+00 0. -1.
         -2    1    3    3    0  502  0.10714923275E+01 -0.28220869363E+02  0.11508416193E+01  0.28264642220E+02  0.00000000000E+00 0.  1.
         13    1    5    5    0    0  0.24250741069E+03 -0.53992381882E+02 -0.57090170230E+02  0.25492020139E+03  0.00000000000E+00 0.  1.
        -13    1    5    5    0    0  0.99616218116E+02  0.32246964357E+02 -0.94400606634E+01  0.10513026380E+03  0.00000000000E+00 0. -1.
          1    1    6    6  503    0 -0.24041664122E+03  0.24093355939E+03  0.13154869677E+03  0.36490300223E+03  0.00000000000E+00 0. -1.
         -1    1    6    6    0  503 -0.13194244295E+03  0.22189884048E+03  0.15294172843E+03  0.30006511952E+03  0.00000000000E+00 0.  1.
<mgrwt>
<rscale>  0 0.14902212E+04</rscale>
<asrwt>0</asrwt>
<pdfrwt beam="1">  1        1 0.16643814E+00 0.14902212E+04</pdfrwt>
<pdfrwt beam="2">  1       -2 0.78951777E-01 0.14902212E+04</pdfrwt>
<totfact> 0.15817905E+01</totfact>
</mgrwt>
</event>
<event>
12    5  0.5428626E-008  0.1930340E+04  0.7818608E-02  0.8639900E-01
         -2   -1    0    0    0  501 -0.00000000000E+00  0.00000000000E+00  0.21228588760E+04  0.21228588760E+04  0.00000000000E+00 0.  1.
          1   -1    0    0  501    0  0.00000000000E+00 -0.00000000000E+00 -0.43882019366E+03  0.43882019366E+03  0.00000000000E+00 0. -1.
        -24    2    1    2    0    0 -0.54458076378E+03  0.42023838496E+03  0.10795736512E+04  0.12825696759E+04  0.79606511837E+02 0.  0.
        254    2    1    2    0    0  0.54458076378E+03 -0.42023838496E+03  0.60446503115E+03  0.12791093938E+04  0.89307018696E+03 0.  0.
         23    2    4    4    0    0  0.20666611918E+03 -0.29282629355E+03  0.78277407442E+03  0.86574649220E+03  0.91233843281E+02 0.  0.
         23    2    4    4    0    0  0.33791464459E+03 -0.12741209142E+03 -0.17830904326E+03  0.41336290156E+03  0.93030239202E+02 0.  0.
          3    1    3    3  502    0 -0.40634618097E+02  0.14066392615E+02  0.95264030074E+02  0.10451923754E+03  0.00000000000E+00 0. -1.
         -4    1    3    3    0  502 -0.50394614568E+03  0.40617199235E+03  0.98430962114E+03  0.11780504384E+04  0.00000000000E+00 0.  1.
         13    1    5    5    0    0  0.76152221438E+02 -0.15874662154E+03  0.29816529939E+03  0.34626896546E+03  0.00000000000E+00 0.  1.
        -13    1    5    5    0    0  0.13051389774E+03 -0.13407967200E+03  0.48460877502E+03  0.51947752673E+03  0.00000000000E+00 0. -1.
          3    1    6    6  503    0  0.70774480823E+02 -0.59865677013E+02 -0.74443681964E+02  0.11888981539E+03  0.00000000000E+00 0. -1.
         -3    1    6    6    0  503  0.26714016377E+03 -0.67546414402E+02 -0.10386536130E+03  0.29447308617E+03  0.00000000000E+00 0.  1.
<mgrwt>
<rscale>  0 0.19303402E+04</rscale>
<asrwt>0</asrwt>
<pdfrwt beam="1">  1        1 0.67510800E-01 0.19303402E+04</pdfrwt>
<pdfrwt beam="2">  1       -2 0.32659367E+00 0.19303402E+04</pdfrwt>
<totfact> 0.94484460E-01</totfact>
</mgrwt>
</event>
<event>
12    5  0.5428626E-008  0.1258465E+04  0.7818608E-02  0.9063167E-01
          1   -1    0    0  501    0  0.00000000000E+00  0.00000000000E+00  0.12500910551E+04  0.12500910551E+04  0.00000000000E+00 0. -1.
         -2   -1    0    0    0  501 -0.00000000000E+00 -0.00000000000E+00 -0.31672397956E+03  0.31672397956E+03  0.00000000000E+00 0.  1.
        -24    2    1    2    0    0 -0.21354294652E+03 -0.42132918336E+02 -0.23779910433E+02  0.23300525159E+03  0.79688081355E+02 0.  0.
        254    2    1    2    0    0  0.21354294652E+03  0.42132918336E+02  0.95714698592E+03  0.13338097830E+04  0.90307386841E+03 0.  0.
         23    2    4    4    0    0  0.13040699022E+03  0.24539566046E+03  0.10413680073E+04  0.10813582479E+04  0.87540393544E+02 0.  0.
         23    2    4    4    0    0  0.83135956304E+02 -0.20326274212E+03 -0.84221021339E+02  0.25245153511E+03  0.91712962972E+02 0.  0.
          1    1    3    3  502    0 -0.63555940117E+02 -0.32334724313E+02 -0.40108317026E+02  0.81814234796E+02  0.00000000000E+00 0. -1.
         -2    1    3    3    0  502 -0.14998700641E+03 -0.97981940230E+01  0.16328406593E+02  0.15119101679E+03  0.00000000000E+00 0.  1.
         13    1    5    5    0    0  0.15075792518E+02  0.11843628008E+03  0.45693925066E+03  0.47227948373E+03  0.00000000000E+00 0. -1.
        -13    1    5    5    0    0  0.11533119770E+03  0.12695938038E+03  0.58442875661E+03  0.60907876418E+03  0.00000000000E+00 0.  1.
          4    1    6    6  503    0  0.90431792867E+02 -0.10270722741E+03 -0.41974629173E+02  0.14313823115E+03  0.00000000000E+00 0. -1.
         -4    1    6    6    0  503 -0.72958365635E+01 -0.10055551472E+03 -0.42246392166E+02  0.10931330396E+03  0.00000000000E+00 0.  1.
<mgrwt>
<rscale>  0 0.12584654E+04</rscale>
<asrwt>0</asrwt>
<pdfrwt beam="1">  1        1 0.19232170E+00 0.12584654E+04</pdfrwt>
<pdfrwt beam="2">  1       -2 0.48726767E-01 0.12584654E+04</pdfrwt>
<totfact> 0.33871410E+01</totfact>
</mgrwt>
</event>
<event>
12    5  0.5428626E-008  0.2445406E+04  0.7818608E-02  0.8422697E-01
          1   -1    0    0  501    0  0.00000000000E+00  0.00000000000E+00  0.16030578432E+04  0.16030578432E+04  0.00000000000E+00 0. -1.
         -2   -1    0    0    0  501 -0.00000000000E+00 -0.00000000000E+00 -0.93259455095E+03  0.93259455095E+03  0.00000000000E+00 0.  1.
        -24    2    1    2    0    0 -0.44743593003E+03 -0.59153704773E+03 -0.49363751517E+03  0.89462159230E+03  0.80961760695E+02 0.  0.
        254    2    1    2    0    0  0.44743593003E+03  0.59153704773E+03  0.11641008074E+04  0.16410308018E+04  0.88754516080E+03 0.  0.
         23    2    4    4    0    0 -0.22619436849E+03  0.20326849407E+03  0.12877933679E+03  0.34298403247E+03  0.92584857953E+02 0.  0.
         23    2    4    4    0    0  0.67363029852E+03  0.38826855366E+03  0.10353214706E+04  0.12980467694E+04  0.92220491899E+02 0.  0.
          1    1    3    3  502    0 -0.99358327726E+02 -0.15095118750E+03 -0.82260140186E+02  0.19855747017E+03  0.00000000000E+00 0. -1.
         -2    1    3    3    0  502 -0.34807760230E+03 -0.44058586023E+03 -0.41137737499E+03  0.69606412213E+03  0.00000000000E+00 0.  1.
         13    1    5    5    0    0 -0.14168053434E+03  0.13951319173E+03  0.12918176519E+03  0.23711860521E+03  0.00000000000E+00 0.  1.
        -13    1    5    5    0    0 -0.84513834155E+02  0.63755302339E+02 -0.40242839938E+00  0.10586542726E+03  0.00000000000E+00 0. -1.
          4    1    6    6  503    0  0.14681079638E+03  0.12946158694E+03  0.24437331308E+03  0.31310066843E+03  0.00000000000E+00 0. -1.
         -4    1    6    6    0  503  0.52681950214E+03  0.25880696672E+03  0.79094815752E+03  0.98494610094E+03  0.00000000000E+00 0.  1.
<mgrwt>
<rscale>  0 0.24454063E+04</rscale>
<asrwt>0</asrwt>
<pdfrwt beam="1">  1        1 0.24662428E+00 0.24454063E+04</pdfrwt>
<pdfrwt beam="2">  1       -2 0.14347608E+00 0.24454063E+04</pdfrwt>
<totfact> 0.14665878E+00</totfact>
</mgrwt>
</event>
<event>
12    5  0.5428626E-008  0.1877246E+04  0.7818608E-02  0.8666266E-01
          1   -1    0    0  501    0  0.00000000000E+00  0.00000000000E+00  0.14278379824E+04  0.14278379824E+04  0.00000000000E+00 0. -1.
         -2   -1    0    0    0  501 -0.00000000000E+00 -0.00000000000E+00 -0.61702584859E+03  0.61702584859E+03  0.00000000000E+00 0.  1.
        -24    2    1    2    0    0 -0.39329465785E+03 -0.59346041702E+03  0.30957940634E+03  0.78088146190E+03  0.84026747195E+02 0.  0.
        254    2    1    2    0    0  0.39329465785E+03  0.59346041702E+03  0.50123272744E+03  0.12639823691E+04  0.91626482405E+03 0.  0.
         23    2    4    4    0    0 -0.49546656724E+02  0.68922884068E+03  0.26956298880E+03  0.74700514306E+03  0.88663480661E+02 0.  0.
         23    2    4    4    0    0  0.44284131457E+03 -0.95768423659E+02  0.23166973865E+03  0.51697722601E+03  0.91184228600E+02 0.  0.
          3    1    3    3  502    0 -0.21310540017E+03 -0.36356895417E+03  0.14533998968E+03  0.44578022457E+03  0.00000000000E+00 0. -1.
         -4    1    3    3    0  502 -0.18018925768E+03 -0.22989146286E+03  0.16423941666E+03  0.33510123733E+03  0.00000000000E+00 0.  1.
         13    1    5    5    0    0  0.10465138872E+02  0.97809045746E+01  0.27581662101E+01  0.14587416041E+02  0.00000000000E+00 0.  1.
        -13    1    5    5    0    0 -0.60011795595E+02  0.67944793611E+03  0.26680482259E+03  0.73241772702E+03  0.00000000000E+00 0. -1.
          3    1    6    6  503    0  0.42135629295E+03 -0.98096564295E+02  0.19528409000E+03  0.47465770545E+03  0.00000000000E+00 0. -1.
         -3    1    6    6    0  503  0.21485021622E+02  0.23281406360E+01  0.36385648649E+02  0.42319520561E+02  0.00000000000E+00 0.  1.
<mgrwt>
<rscale>  0 0.18772458E+04</rscale>
<asrwt>0</asrwt>
<pdfrwt beam="1">  1        1 0.21966738E+00 0.18772458E+04</pdfrwt>
<pdfrwt beam="2">  1       -2 0.94927054E-01 0.18772458E+04</pdfrwt>
<totfact> 0.56415245E+00</totfact>
</mgrwt>
</event>
<event>
12    5  0.5428626E-008  0.3975591E+04  0.7818608E-02  0.8009489E-01
         -2   -1    0    0    0  501 -0.00000000000E+00  0.00000000000E+00  0.14683524552E+04  0.14683524552E+04  0.00000000000E+00 0.  1.
          1   -1    0    0  501    0  0.00000000000E+00 -0.00000000000E+00 -0.26909968588E+04  0.26909968588E+04  0.00000000000E+00 0. -1.
        -24    2    1    2    0    0 -0.15063397973E+04 -0.10880272038E+04 -0.24518430125E+03  0.18760387038E+04  0.80889403151E+02 0.  0.
        254    2    1    2    0    0  0.15063397973E+04  0.10880272038E+04 -0.97746010234E+03  0.22833106101E+04  0.89733845871E+03 0.  0.
         23    2    4    4    0    0  0.10520844550E+04  0.77390132806E+03 -0.11005504858E+04  0.17103482066E+04  0.90965102631E+02 0.  0.
         23    2    4    4    0    0  0.45425534225E+03  0.31412587574E+03  0.12309038351E+03  0.57296240349E+03  0.90064929490E+02 0.  0.
          1    1    3    3  502    0 -0.22912235926E+03 -0.18306518637E+03 -0.64868432638E+02  0.30036283313E+03  0.00000000000E+00 0. -1.
         -2    1    3    3    0  502 -0.12772174380E+04 -0.90496201743E+03 -0.18031586861E+03  0.15756758707E+04  0.00000000000E+00 0.  1.
         13    1    5    5    0    0  0.91098969836E+02  0.72092513622E+02 -0.66450762904E+02  0.13383593208E+03  0.00000000000E+00 0. -1.
        -13    1    5    5    0    0  0.96098548519E+03  0.70180881444E+03 -0.10340997229E+04  0.15765122745E+04  0.00000000000E+00 0.  1.
          3    1    6    6  503    0  0.18112097282E+03  0.85843089026E+02  0.15243315242E+02  0.20101293836E+03  0.00000000000E+00 0. -1.
         -3    1    6    6    0  503  0.27313436944E+03  0.22828278672E+03  0.10784706827E+03  0.37194946513E+03  0.00000000000E+00 0.  1.
<mgrwt>
<rscale>  0 0.39755915E+04</rscale>
<asrwt>0</asrwt>
<pdfrwt beam="1">  1        1 0.41399951E+00 0.39755915E+04</pdfrwt>
<pdfrwt beam="2">  1       -2 0.22590038E+00 0.39755915E+04</pdfrwt>
<totfact> 0.62342320E-02</totfact>
</mgrwt>
</event>
<event>
12    5  0.5428626E-008  0.1833600E+04  0.7818608E-02  0.8688632E-01
          1   -1    0    0  501    0  0.00000000000E+00  0.00000000000E+00  0.32943626132E+04  0.32943626132E+04  0.00000000000E+00 0. -1.
         -2   -1    0    0    0  501 -0.00000000000E+00 -0.00000000000E+00 -0.25513967547E+03  0.25513967547E+03  0.00000000000E+00 0.  1.
        -24    2    1    2    0    0  0.54196699701E+03  0.27011741843E+03  0.48433206735E+03  0.77948453544E+03  0.79542089124E+02 0.  0.
        254    2    1    2    0    0 -0.54196699701E+03 -0.27011741843E+03  0.25548908703E+04  0.27700177532E+04  0.88251875227E+03 0.  0.
         23    2    4    4    0    0 -0.43647185550E+01 -0.42585469423E+03  0.16094519880E+04  0.16674810445E+04  0.93733990563E+02 0.  0.
         23    2    4    4    0    0 -0.53760227845E+03  0.15573727580E+03  0.94543888239E+03  0.11025367087E+04  0.91990242727E+02 0.  0.
          3    1    3    3  502    0  0.21487140233E+03  0.12438364188E+03  0.24479245811E+03  0.34866080573E+03  0.00000000000E+00 0. -1.
         -4    1    3    3    0  502  0.32709559468E+03  0.14573377655E+03  0.23953960925E+03  0.43082372971E+03  0.00000000000E+00 0.  1.
         13    1    5    5    0    0  0.16255609003E+02 -0.98119750804E+02  0.52745394125E+03  0.53674890821E+03  0.00000000000E+00 0.  1.
        -13    1    5    5    0    0 -0.20620327558E+02 -0.32773494343E+03  0.10819980467E+04  0.11307321363E+04  0.00000000000E+00 0. -1.
          3    1    6    6  503    0 -0.28527900737E+03  0.13022819386E+03  0.52555054665E+03  0.61200234608E+03  0.00000000000E+00 0. -1.
         -3    1    6    6    0  503 -0.25232327108E+03  0.25509081941E+02  0.41988833575E+03  0.49053436259E+03  0.00000000000E+00 0.  1.
<mgrwt>
<rscale>  0 0.18336004E+04</rscale>
<asrwt>0</asrwt>
<pdfrwt beam="1">  1        1 0.50682499E+00 0.18336004E+04</pdfrwt>
<pdfrwt beam="2">  1       -2 0.39252260E-01 0.18336004E+04</pdfrwt>
<totfact> 0.18378511E+00</totfact>
</mgrwt>
</event>
<event>
12    5  0.5428626E-008  0.1827637E+04  0.7818608E-02  0.8691739E-01
          1   -1    0    0  501    0  0.00000000000E+00  0.00000000000E+00  0.61015646074E+03  0.61015646074E+03  0.00000000000E+00 0. -1.
         -2   -1    0    0    0  501 -0.00000000000E+00 -0.00000000000E+00 -0.13686065347E+04  0.13686065347E+04  0.00000000000E+00 0.  1.
        -24    2    1    2    0    0  0.52385022334E+03 -0.20110774882E+03 -0.73719585753E+03  0.92984286854E+03  0.79288364104E+02 0.  0.
        254    2    1    2    0    0 -0.52385022334E+03  0.20110774882E+03 -0.21254216400E+02  0.10489201269E+04  0.88595615452E+03 0.  0.
         23    2    4    4    0    0 -0.43491481189E+03 -0.29469456496E+03  0.35757853825E+02  0.53354481068E+03  0.85998027149E+02 0.  0.
         23    2    4    4    0    0 -0.88935411450E+02  0.49580231379E+03 -0.57012070225E+02  0.51537531620E+03  0.92908011657E+02 0.  0.
          1    1    3    3  502    0  0.19174582518E+03 -0.80098146441E+02 -0.21269329630E+03  0.29735603715E+03  0.00000000000E+00 0. -1.
         -2    1    3    3    0  502  0.33210439815E+03 -0.12100960238E+03 -0.52450256123E+03  0.63248683138E+03  0.00000000000E+00 0.  1.
         13    1    5    5    0    0 -0.32390294252E+03 -0.26080035999E+03  0.36755267606E+02  0.41746963200E+03  0.00000000000E+00 0.  1.
        -13    1    5    5    0    0 -0.11101186937E+03 -0.33894204971E+02 -0.99741378162E+00  0.11607517868E+03  0.00000000000E+00 0. -1.
          1    1    6    6  503    0 -0.14852864577E+02  0.15184188748E+03  0.23679139452E+02  0.15439322532E+03  0.00000000000E+00 0. -1.
         -1    1    6    6    0  503 -0.74082546873E+02  0.34396042631E+03 -0.80691209677E+02  0.36098209088E+03  0.00000000000E+00 0.  1.
<mgrwt>
<rscale>  0 0.18276369E+04</rscale>
<asrwt>0</asrwt>
<pdfrwt beam="1">  1        1 0.93870226E-01 0.18276369E+04</pdfrwt>
<pdfrwt beam="2">  1       -2 0.21055485E+00 0.18276369E+04</pdfrwt>
<totfact> 0.31263100E+00</totfact>
</mgrwt>
</event>
<event>
12    5  0.5428626E-008  0.2398150E+04  0.7818608E-02  0.8440197E-01
          1   -1    0    0  501    0  0.00000000000E+00  0.00000000000E+00  0.92699983112E+03  0.92699983112E+03  0.00000000000E+00 0. -1.
         -2   -1    0    0    0  501 -0.00000000000E+00 -0.00000000000E+00 -0.15510038791E+04  0.15510038791E+04  0.00000000000E+00 0.  1.
        -24    2    1    2    0    0 -0.40797055449E+03  0.29047377296E+03  0.66094188894E+03  0.83302632081E+03  0.79206593742E+02 0.  0.
        254    2    1    2    0    0  0.40797055449E+03 -0.29047377296E+03 -0.12849459369E+04  0.16449773894E+04  0.89668810894E+03 0.  0.
         23    2    4    4    0    0  0.12096199619E+03 -0.58524168331E+03 -0.72221403312E+03  0.94176114713E+03  0.90450628495E+02 0.  0.
         23    2    4    4    0    0  0.28700855830E+03  0.29476791035E+03 -0.56273190377E+03  0.70321624225E+03  0.92649092441E+02 0.  0.
          3    1    3    3  502    0 -0.20989453409E+03  0.17167408393E+03  0.41404467643E+03  0.49493504687E+03  0.00000000000E+00 0. -1.
         -4    1    3    3    0  502 -0.19807602040E+03  0.11879968902E+03  0.24689721251E+03  0.33809127394E+03  0.00000000000E+00 0.  1.
         13    1    5    5    0    0  0.12182502304E+02 -0.63331299329E+02 -0.39793353575E+02  0.75781117871E+02  0.00000000000E+00 0. -1.
        -13    1    5    5    0    0  0.10877949389E+03 -0.52191038398E+03 -0.68242067955E+03  0.86598002926E+03  0.00000000000E+00 0.  1.
          2    1    6    6  503    0  0.29989534885E+02  0.35628347593E+02 -0.23731106151E+02  0.52267741045E+02  0.00000000000E+00 0. -1.
         -2    1    6    6    0  503  0.25701902341E+03  0.25913956276E+03 -0.53900079762E+03  0.65094850121E+03  0.00000000000E+00 0.  1.
<mgrwt>
<rscale>  0 0.23981496E+04</rscale>
<asrwt>0</asrwt>
<pdfrwt beam="1">  1        1 0.14261536E+00 0.23981496E+04</pdfrwt>
<pdfrwt beam="2">  1       -2 0.23861598E+00 0.23981496E+04</pdfrwt>
<totfact> 0.10268843E+00</totfact>
</mgrwt>
</event>
<event>
12    5  0.5428626E-008  0.2602545E+04  0.7818608E-02  0.8367337E-01
          1   -1    0    0  501    0  0.00000000000E+00  0.00000000000E+00  0.29811591899E+04  0.29811591899E+04  0.00000000000E+00 0. -1.
         -2   -1    0    0    0  501 -0.00000000000E+00 -0.00000000000E+00 -0.56800410651E+03  0.56800410651E+03  0.00000000000E+00 0.  1.
        -24    2    1    2    0    0  0.35133734196E+03  0.10562073740E+04  0.14034796908E+04  0.17930509975E+04  0.79149808129E+02 0.  0.
        254    2    1    2    0    0 -0.35133734196E+03 -0.10562073740E+04  0.10096753925E+04  0.17561122989E+04  0.90855603203E+03 0.  0.
         23    2    4    4    0    0 -0.64009217222E+03 -0.71675205439E+03  0.80424486522E+03  0.12566165189E+04  0.93934956180E+02 0.  0.
         23    2    4    4    0    0  0.28875483027E+03 -0.33945531964E+03  0.20543052731E+03  0.49949578000E+03  0.93193704991E+02 0.  0.
          1    1    3    3  502    0  0.33097897672E+03  0.91628185458E+03  0.12390002091E+04  0.15761475306E+04  0.00000000000E+00 0. -1.
         -2    1    3    3    0  502  0.20358365233E+02  0.13992551945E+03  0.16447948178E+03  0.21690346691E+03  0.00000000000E+00 0.  1.
         13    1    5    5    0    0 -0.27238537138E+03 -0.32453593662E+03  0.29659048275E+03  0.51718785674E+03  0.00000000000E+00 0. -1.
        -13    1    5    5    0    0 -0.36770680084E+03 -0.39221611777E+03  0.50765438246E+03  0.73942866218E+03  0.00000000000E+00 0.  1.
          4    1    6    6  503    0  0.14418113264E+03 -0.99634420792E+02  0.77435662999E+02  0.19160244967E+03  0.00000000000E+00 0. -1.
         -4    1    6    6    0  503  0.14457369763E+03 -0.23982089885E+03  0.12799486431E+03  0.30789333033E+03  0.00000000000E+00 0.  1.
<mgrwt>
<rscale>  0 0.26025454E+04</rscale>
<asrwt>0</asrwt>
<pdfrwt beam="1">  1        1 0.45863987E+00 0.26025454E+04</pdfrwt>
<pdfrwt beam="2">  1       -2 0.87385249E-01 0.26025454E+04</pdfrwt>
<totfact> 0.54025477E-01</totfact>
</mgrwt>
</event>
<event>
12    5  0.5428626E-008  0.2473438E+04  0.7818608E-02  0.8412510E-01
          1   -1    0    0  501    0  0.00000000000E+00  0.00000000000E+00  0.24655267851E+04  0.24655267851E+04  0.00000000000E+00 0. -1.
         -2   -1    0    0    0  501 -0.00000000000E+00 -0.00000000000E+00 -0.62034347856E+03  0.62034347856E+03  0.00000000000E+00 0.  1.
        -24    2    1    2    0    0  0.26844175970E+03 -0.44821599089E+03  0.19689302924E+04  0.20386214967E+04  0.79577369505E+02 0.  0.
        254    2    1    2    0    0 -0.26844175970E+03  0.44821599089E+03 -0.12374698583E+03  0.10472487670E+04  0.89914298673E+03 0.  0.
         23    2    4    4    0    0  0.48751053005E+02  0.55852822296E+03  0.16903403007E+03  0.59265363146E+03  0.91298316248E+02 0.  0.
         23    2    4    4    0    0 -0.31719281270E+03 -0.11031223207E+03 -0.29278101590E+03  0.45459513552E+03  0.90310270673E+02 0.  0.
          3    1    3    3  502    0  0.15417944669E+03 -0.32229440975E+03  0.13958766769E+04  0.14408735841E+04  0.00000000000E+00 0. -1.
         -4    1    3    3    0  502  0.11426231300E+03 -0.12592158113E+03  0.57305361552E+03  0.59774791261E+03  0.00000000000E+00 0.  1.
         13    1    5    5    0    0  0.67586565411E+02  0.51744051403E+03  0.14574083365E+03  0.54180533402E+03  0.00000000000E+00 0. -1.
        -13    1    5    5    0    0 -0.18835512406E+02  0.41087708929E+02  0.23293196421E+02  0.50848297436E+02  0.00000000000E+00 0.  1.
          2    1    6    6  503    0 -0.28639995851E+03 -0.10159004340E+03 -0.22022033570E+03  0.37528984720E+03  0.00000000000E+00 0. -1.
         -2    1    6    6    0  503 -0.30792854191E+02 -0.87221886670E+01 -0.72560680196E+02  0.79305288316E+02  0.00000000000E+00 0.  1.
<mgrwt>
<rscale>  0 0.24734377E+04</rscale>
<asrwt>0</asrwt>
<pdfrwt beam="1">  1        1 0.37931181E+00 0.24734377E+04</pdfrwt>
<pdfrwt beam="2">  1       -2 0.95437459E-01 0.24734377E+04</pdfrwt>
<totfact> 0.10329121E+00</totfact>
</mgrwt>
</event>
<event>
12    5  0.5428626E-008  0.1439488E+04  0.7818608E-02  0.8925721E-01
         -2   -1    0    0    0  501 -0.00000000000E+00  0.00000000000E+00  0.42082308814E+03  0.42082308814E+03  0.00000000000E+00 0.  1.
          1   -1    0    0  501    0  0.00000000000E+00 -0.00000000000E+00 -0.12309964633E+04  0.12309964633E+04  0.00000000000E+00 0. -1.
        -24    2    1    2    0    0 -0.42612752053E+03  0.54976432353E+02 -0.19550499517E+03  0.47894591477E+03  0.80993297673E+02 0.  0.
        254    2    1    2    0    0  0.42612752053E+03 -0.54976432353E+02 -0.61466837999E+03  0.11728736367E+04  0.90178061544E+03 0.  0.
         23    2    4    4    0    0 -0.15161903925E+03 -0.26421394941E+02 -0.55624178838E+03  0.58417515865E+03  0.90383990135E+02 0.  0.
         23    2    4    4    0    0  0.57774655978E+03 -0.28555037412E+02 -0.58426591609E+02  0.58869847803E+03  0.92443247051E+02 0.  0.
          3    1    3    3  502    0 -0.13327643000E+02  0.99684191558E+01 -0.25052082293E+02  0.30076606784E+02  0.00000000000E+00 0. -1.
         -4    1    3    3    0  502 -0.41279987753E+03  0.45008013197E+02 -0.17045291288E+03  0.44886930798E+03  0.00000000000E+00 0.  1.
         13    1    5    5    0    0 -0.93466655575E+02  0.12686309335E+02 -0.42556941907E+03  0.43589710781E+03  0.00000000000E+00 0. -1.
        -13    1    5    5    0    0 -0.58152383672E+02 -0.39107704275E+02 -0.13067236931E+03  0.14827805084E+03  0.00000000000E+00 0.  1.
          4    1    6    6  503    0  0.33610971965E+03 -0.62209003873E+02 -0.32945937919E+02  0.34340229852E+03  0.00000000000E+00 0. -1.
         -4    1    6    6    0  503  0.24163684013E+03  0.33653966461E+02 -0.25480653690E+02  0.24529617950E+03  0.00000000000E+00 0.  1.
<mgrwt>
<rscale>  0 0.14394884E+04</rscale>
<asrwt>0</asrwt>
<pdfrwt beam="1">  1        1 0.18938407E+00 0.14394884E+04</pdfrwt>
<pdfrwt beam="2">  1       -2 0.64742014E-01 0.14394884E+04</pdfrwt>
<totfact> 0.19042393E+01</totfact>
</mgrwt>
</event>
<event>
12    5  0.5428626E-008  0.1191400E+04  0.7818608E-02  0.9120417E-01
         -2   -1    0    0    0  501 -0.00000000000E+00  0.00000000000E+00  0.66835650177E+03  0.66835650177E+03  0.00000000000E+00 0.  1.
          1   -1    0    0  501    0  0.00000000000E+00 -0.00000000000E+00 -0.53094226899E+03  0.53094226899E+03  0.00000000000E+00 0. -1.
        -24    2    1    2    0    0  0.21270679485E+03  0.10572465317E+03 -0.13088918820E+02  0.25183278563E+03  0.82622934217E+02 0.  0.
        254    2    1    2    0    0 -0.21270679485E+03 -0.10572465317E+03  0.15050315160E+03  0.94746598513E+03  0.90477550336E+03 0.  0.
         23    2    4    4    0    0  0.17430588903E+03 -0.74262106876E+02 -0.28712035401E+03  0.35617313615E+03  0.92324437482E+02 0.  0.
         23    2    4    4    0    0 -0.38701268389E+03 -0.31462546294E+02  0.43762350562E+03  0.59129284898E+03  0.85698257162E+02 0.  0.
          1    1    3    3  502    0  0.11051349723E+03  0.44882147082E+02 -0.46927204101E+02  0.12817879186E+03  0.00000000000E+00 0. -1.
         -2    1    3    3    0  502  0.10219329762E+03  0.60842506089E+02  0.33838285281E+02  0.12365399377E+03  0.00000000000E+00 0.  1.
         13    1    5    5    0    0  0.15164197634E+03 -0.52855221880E+02 -0.28208530881E+03  0.32459372285E+03  0.00000000000E+00 0.  1.
        -13    1    5    5    0    0  0.22663912698E+02 -0.21406884996E+02 -0.50350452002E+01  0.31579413297E+02  0.00000000000E+00 0. -1.
          2    1    6    6  503    0 -0.10097245306E+03  0.29129955188E+02  0.12309507811E+03  0.16185298521E+03  0.00000000000E+00 0. -1.
         -2    1    6    6    0  503 -0.28604023083E+03 -0.60592501483E+02  0.31452842751E+03  0.42943986377E+03  0.00000000000E+00 0.  1.
<mgrwt>
<rscale>  0 0.11914004E+04</rscale>
<asrwt>0</asrwt>
<pdfrwt beam="1">  1        1 0.81683426E-01 0.11914004E+04</pdfrwt>
<pdfrwt beam="2">  1       -2 0.10282408E+00 0.11914004E+04</pdfrwt>
<totfact> 0.27297072E+01</totfact>
</mgrwt>
</event>
<event>
12    5  0.5428626E-008  0.1601332E+04  0.7818608E-02  0.8819730E-01
         -2   -1    0    0    0  501 -0.00000000000E+00  0.00000000000E+00  0.58440689689E+03  0.58440689689E+03  0.00000000000E+00 0.  1.
          1   -1    0    0  501    0  0.00000000000E+00 -0.00000000000E+00 -0.10969515257E+04  0.10969515257E+04  0.00000000000E+00 0. -1.
        -24    2    1    2    0    0  0.14446508480E+03  0.54809807048E+03 -0.19317922835E+03  0.60417933155E+03  0.80204705695E+02 0.  0.
        254    2    1    2    0    0 -0.14446508480E+03 -0.54809807048E+03 -0.31936540042E+03  0.10771790910E+04  0.85850968516E+03 0.  0.
         23    2    4    4    0    0  0.31370892071E+02 -0.36280510851E+03  0.24691916743E+03  0.44897835249E+03  0.89447225353E+02 0.  0.
         23    2    4    4    0    0 -0.17583597688E+03 -0.18529296197E+03 -0.56628456785E+03  0.62820073851E+03  0.93306932021E+02 0.  0.
          3    1    3    3  502    0 -0.41962717162E+01  0.10340844750E+03 -0.39056112306E+02  0.11061779070E+03  0.00000000000E+00 0. -1.
         -4    1    3    3    0  502  0.14866135652E+03  0.44468962298E+03 -0.15412311605E+03  0.49356154085E+03  0.00000000000E+00 0.  1.
         13    1    5    5    0    0 -0.12605696222E+02 -0.22919733826E+03  0.18706420682E+03  0.29611372969E+03  0.00000000000E+00 0. -1.
        -13    1    5    5    0    0  0.43976588293E+02 -0.13360777026E+03  0.59854960610E+02  0.15286462279E+03  0.00000000000E+00 0.  1.
          1    1    6    6  503    0 -0.17268932792E+03 -0.15630349399E+03 -0.54312500963E+03  0.59096291111E+03  0.00000000000E+00 0. -1.
         -1    1    6    6    0  503 -0.31466489512E+01 -0.28989467977E+02 -0.23159558219E+02  0.37237827409E+02  0.00000000000E+00 0.  1.
<mgrwt>
<rscale>  0 0.16013320E+04</rscale>
<asrwt>0</asrwt>
<pdfrwt beam="1">  1        1 0.16876177E+00 0.16013320E+04</pdfrwt>
<pdfrwt beam="2">  1       -2 0.89908753E-01 0.16013320E+04</pdfrwt>
<totfact> 0.11359328E+01</totfact>
</mgrwt>
</event>
<event>
12    5  0.5428626E-008  0.2481394E+04  0.7818608E-02  0.8409644E-01
         -2   -1    0    0    0  501 -0.00000000000E+00  0.00000000000E+00  0.11238723177E+04  0.11238723177E+04  0.00000000000E+00 0.  1.
          1   -1    0    0  501    0  0.00000000000E+00 -0.00000000000E+00 -0.13696657689E+04  0.13696657689E+04  0.00000000000E+00 0. -1.
        -24    2    1    2    0    0  0.12904017929E+03  0.69357463463E+03 -0.92256439775E+03  0.11645853565E+04  0.86237132328E+02 0.  0.
        254    2    1    2    0    0 -0.12904017929E+03 -0.69357463463E+03  0.67677094656E+03  0.13289527300E+04  0.90022180760E+03 0.  0.
         23    2    4    4    0    0  0.32911949626E+02  0.19255658852E+03  0.25307911225E+02  0.21280146545E+03  0.80515446439E+02 0.  0.
         23    2    4    4    0    0 -0.16195212892E+03 -0.88613122315E+03  0.65146303533E+03  0.11161512646E+04  0.99662040573E+02 0.  0.
          3    1    3    3  502    0  0.13931034747E+03  0.57200387125E+03 -0.76444207385E+03  0.96486656379E+03  0.00000000000E+00 0. -1.
         -4    1    3    3    0  502 -0.10270168178E+02  0.12157076339E+03 -0.15812232390E+03  0.19971879276E+03  0.00000000000E+00 0.  1.
         13    1    5    5    0    0  0.20195598336E+02  0.19082164976E+03  0.37020833365E+02  0.19542596120E+03  0.00000000000E+00 0. -1.
        -13    1    5    5    0    0  0.12716351290E+02  0.17349387588E+01 -0.11712922140E+02  0.17375504243E+02  0.00000000000E+00 0.  1.
          1    1    6    6  503    0 -0.12713613434E+03 -0.72642929858E+03  0.48381723324E+03  0.88201033876E+03  0.00000000000E+00 0. -1.
         -1    1    6    6    0  503 -0.34815994580E+02 -0.15970192457E+03  0.16764580209E+03  0.23414092583E+03  0.00000000000E+00 0.  1.
<mgrwt>
<rscale>  0 0.24813943E+04</rscale>
<asrwt>0</asrwt>
<pdfrwt beam="1">  1        1 0.21071781E+00 0.24813943E+04</pdfrwt>
<pdfrwt beam="2">  1       -2 0.17290343E+00 0.24813943E+04</pdfrwt>
<totfact> 0.12814672E+00</totfact>
</mgrwt>
</event>
<event>
12    5  0.5428626E-008  0.1864193E+04  0.7818608E-02  0.8672888E-01
          1   -1    0    0  501    0  0.00000000000E+00  0.00000000000E+00  0.12384392605E+04  0.12384392605E+04  0.00000000000E+00 0. -1.
         -2   -1    0    0    0  501 -0.00000000000E+00 -0.00000000000E+00 -0.70153141883E+03  0.70153141883E+03  0.00000000000E+00 0.  1.
        -24    2    1    2    0    0 -0.27177003696E+03 -0.11454470595E+03  0.88088380837E+03  0.93228844495E+03  0.78905120774E+02 0.  0.
        254    2    1    2    0    0  0.27177003696E+03  0.11454470595E+03 -0.34397596670E+03  0.10076822344E+04  0.90006920688E+03 0.  0.
         23    2    4    4    0    0  0.23781597066E+03  0.47111007690E+03 -0.55166112145E+02  0.53863854491E+03  0.92666292058E+02 0.  0.
         23    2    4    4    0    0  0.33954066306E+02 -0.35656537095E+03 -0.28880985455E+03  0.46904368947E+03  0.91099441083E+02 0.  0.
          3    1    3    3  502    0 -0.20647734449E+03 -0.55717209277E+02  0.68461745893E+03  0.71724358922E+03  0.00000000000E+00 0. -1.
         -4    1    3    3    0  502 -0.65292692477E+02 -0.58827496674E+02  0.19626634944E+03  0.21504485573E+03  0.00000000000E+00 0.  1.
         13    1    5    5    0    0  0.15867937198E+03  0.29806679904E+03 -0.79227973608E+02  0.34684294945E+03  0.00000000000E+00 0. -1.
        -13    1    5    5    0    0  0.79136598677E+02  0.17304327786E+03  0.24061861463E+02  0.19179559546E+03  0.00000000000E+00 0.  1.
          2    1    6    6  503    0  0.10569684243E+02 -0.25493260911E+03 -0.15192233649E+03  0.29695580435E+03  0.00000000000E+00 0. -1.
         -2    1    6    6    0  503  0.23384382063E+02 -0.10163276184E+03 -0.13688751806E+03  0.17208788512E+03  0.00000000000E+00 0.  1.
<mgrwt>
<rscale>  0 0.18641932E+04</rscale>
<asrwt>0</asrwt>
<pdfrwt beam="1">  1        1 0.19052912E+00 0.18641932E+04</pdfrwt>
<pdfrwt beam="2">  1       -2 0.10792791E+00 0.18641932E+04</pdfrwt>
<totfact> 0.56740289E+00</totfact>
</mgrwt>
</event>
<event>
12    5  0.5428626E-008  0.1796396E+04  0.7818608E-02  0.8708218E-01
         -2   -1    0    0    0  501 -0.00000000000E+00  0.00000000000E+00  0.61299207001E+03  0.61299207001E+03  0.00000000000E+00 0.  1.
          1   -1    0    0  501    0  0.00000000000E+00 -0.00000000000E+00 -0.13161014453E+04  0.13161014453E+04  0.00000000000E+00 0. -1.
        -24    2    1    2    0    0  0.29593189022E+03 -0.61860813668E+03 -0.34423923026E+03  0.77140556200E+03  0.79461833725E+02 0.  0.
        254    2    1    2    0    0 -0.29593189022E+03  0.61860813668E+03 -0.35887014501E+03  0.11576879533E+04  0.86093083683E+03 0.  0.
         23    2    4    4    0    0  0.25696234381E+03  0.19160601630E+03 -0.30411272750E+03  0.45098126534E+03  0.90316327634E+02 0.  0.
         23    2    4    4    0    0 -0.55289423403E+03  0.42700212038E+03 -0.54757417505E+02  0.70670668796E+03  0.91723078875E+02 0.  0.
          3    1    3    3  502    0  0.59311274443E+01  0.89179109375E+00 -0.93553073538E+00  0.60703197505E+01  0.00000000000E+00 0. -1.
         -4    1    3    3    0  502  0.29000076278E+03 -0.61949992778E+03 -0.34330369953E+03  0.76533524225E+03  0.00000000000E+00 0.  1.
         13    1    5    5    0    0  0.40267237146E+02  0.13157081515E+02 -0.84657161784E+02  0.94664640826E+02  0.00000000000E+00 0. -1.
        -13    1    5    5    0    0  0.21669510666E+03  0.17844893479E+03 -0.21945556572E+03  0.35631662451E+03  0.00000000000E+00 0.  1.
          2    1    6    6  503    0 -0.49238439905E+01  0.11256447175E+02 -0.12574113357E+02  0.17580107206E+02  0.00000000000E+00 0. -1.
         -2    1    6    6    0  503 -0.54797039004E+03  0.41574567320E+03 -0.42183304148E+02  0.68912658075E+03  0.00000000000E+00 0.  1.
<mgrwt>
<rscale>  0 0.17963961E+04</rscale>
<asrwt>0</asrwt>
<pdfrwt beam="1">  1        1 0.20247714E+00 0.17963961E+04</pdfrwt>
<pdfrwt beam="2">  1       -2 0.94306474E-01 0.17963961E+04</pdfrwt>
<totfact> 0.69164962E+00</totfact>
</mgrwt>
</event>
<event>
12    5  0.5428626E-008  0.3052170E+04  0.7818608E-02  0.8228988E-01
          1   -1    0    0  501    0  0.00000000000E+00  0.00000000000E+00  0.26415627552E+04  0.26415627552E+04  0.00000000000E+00 0. -1.
         -2   -1    0    0    0  501 -0.00000000000E+00 -0.00000000000E+00 -0.88165075437E+03  0.88165075437E+03  0.00000000000E+00 0.  1.
        -24    2    1    2    0    0  0.97153086023E+03  0.83493520154E+03  0.14336702095E+04  0.19243411852E+04  0.81790735793E+02 0.  0.
        254    2    1    2    0    0 -0.97153086023E+03 -0.83493520154E+03  0.32624179135E+03  0.15988723243E+04  0.89942759572E+03 0.  0.
         23    2    4    4    0    0  0.14700805150E+03 -0.81509351047E+02 -0.40737389315E+02  0.19788231855E+03  0.96139147041E+02 0.  0.
         23    2    4    4    0    0 -0.11185389117E+04 -0.75342585049E+03  0.36697918066E+03  0.14009900058E+04  0.96537391712E+02 0.  0.
          1    1    3    3  502    0  0.73133390637E+03  0.63965327918E+03  0.10348688332E+04  0.14194925509E+04  0.00000000000E+00 0. -1.
         -2    1    3    3    0  502  0.24019695386E+03  0.19528192237E+03  0.39880137629E+03  0.50484863432E+03  0.00000000000E+00 0.  1.
         13    1    5    5    0    0 -0.36841636599E+00  0.37250638357E+01  0.17540133510E+02  0.17935108440E+02  0.00000000000E+00 0. -1.
        -13    1    5    5    0    0  0.14737646787E+03 -0.85234414883E+02 -0.58277522825E+02  0.17994721011E+03  0.00000000000E+00 0.  1.
          3    1    6    6  503    0 -0.21938690694E+03 -0.18681953566E+03  0.10193884380E+03  0.30565287782E+03  0.00000000000E+00 0. -1.
         -3    1    6    6    0  503 -0.89915200479E+03 -0.56660631483E+03  0.26504033686E+03  0.10953371280E+04  0.00000000000E+00 0.  1.
<mgrwt>
<rscale>  0 0.30521702E+04</rscale>
<asrwt>0</asrwt>
<pdfrwt beam="1">  1        1 0.40639427E+00 0.30521702E+04</pdfrwt>
<pdfrwt beam="2">  1       -2 0.13563858E+00 0.30521702E+04</pdfrwt>
<totfact> 0.31340132E-01</totfact>
</mgrwt>
</event>
<event>
12    5  0.5428626E-008  0.2210427E+04  0.7818608E-02  0.8514101E-01
          1   -1    0    0  501    0  0.00000000000E+00  0.00000000000E+00  0.10978985624E+04  0.10978985624E+04  0.00000000000E+00 0. -1.
         -2   -1    0    0    0  501 -0.00000000000E+00 -0.00000000000E+00 -0.11125771640E+04  0.11125771640E+04  0.00000000000E+00 0.  1.
        -24    2    1    2    0    0 -0.69490234750E+03 -0.22707304885E+01 -0.60723296049E+03  0.92632305847E+03  0.80300134246E+02 0.  0.
        254    2    1    2    0    0  0.69490234750E+03  0.22707304885E+01  0.59255435894E+03  0.12841526680E+04  0.90279176867E+03 0.  0.
         23    2    4    4    0    0  0.85482447192E+03 -0.14638546509E+02  0.25183731850E+03  0.89589255601E+03  0.90897041091E+02 0.  0.
         23    2    4    4    0    0 -0.15992212442E+03  0.16909276998E+02  0.34071704044E+03  0.38826011196E+03  0.93791275556E+02 0.  0.
          3    1    3    3  502    0 -0.10526748900E+03 -0.29293619297E+02 -0.96571237928E+02  0.14582648719E+03  0.00000000000E+00 0. -1.
         -4    1    3    3    0  502 -0.58963485851E+03  0.27022888808E+02 -0.51066172256E+03  0.78049657128E+03  0.00000000000E+00 0.  1.
         13    1    5    5    0    0  0.33498475273E+03 -0.22606480424E+01  0.14508265041E+03  0.36506009169E+03  0.00000000000E+00 0. -1.
        -13    1    5    5    0    0  0.51983971919E+03 -0.12377898467E+02  0.10675466809E+03  0.53083246432E+03  0.00000000000E+00 0.  1.
          2    1    6    6  503    0 -0.52052874471E+02  0.10742500247E+02  0.34062446365E+02  0.63128070655E+02  0.00000000000E+00 0. -1.
         -2    1    6    6    0  503 -0.10786924995E+03  0.61667767505E+01  0.30665459407E+03  0.32513204131E+03  0.00000000000E+00 0.  1.
<mgrwt>
<rscale>  0 0.22104270E+04</rscale>
<asrwt>0</asrwt>
<pdfrwt beam="1">  1        1 0.16890747E+00 0.22104270E+04</pdfrwt>
<pdfrwt beam="2">  1       -2 0.17116572E+00 0.22104270E+04</pdfrwt>
<totfact> 0.21256364E+00</totfact>
</mgrwt>
</event>
<event>
12    5  0.5428626E-008  0.1865633E+04  0.7818608E-02  0.8672155E-01
          1   -1    0    0  501    0  0.00000000000E+00  0.00000000000E+00  0.73861724236E+03  0.73861724236E+03  0.00000000000E+00 0. -1.
         -2   -1    0    0    0  501 -0.00000000000E+00 -0.00000000000E+00 -0.11780747310E+04  0.11780747310E+04  0.00000000000E+00 0.  1.
        -24    2    1    2    0    0  0.39774286280E+03  0.14062400269E+03 -0.76639024350E+03  0.87839001384E+03  0.78996936848E+02 0.  0.
        254    2    1    2    0    0 -0.39774286280E+03 -0.14062400269E+03  0.32693275482E+03  0.10383019596E+04  0.89062418450E+03 0.  0.
         23    2    4    4    0    0 -0.44447748014E+03 -0.45121129111E+03  0.31044419267E+03  0.71101961819E+03  0.89562498358E+02 0.  0.
         23    2    4    4    0    0  0.46734617339E+02  0.31058728841E+03  0.16488562146E+02  0.32728234137E+03  0.90516684172E+02 0.  0.
          1    1    3    3  502    0  0.80735364750E+02  0.27553418954E+02 -0.97188171103E+02  0.12931717063E+03  0.00000000000E+00 0. -1.
         -2    1    3    3    0  502  0.31700749805E+03  0.11307058374E+03 -0.66920207240E+03  0.74907284321E+03  0.00000000000E+00 0.  1.
         13    1    5    5    0    0 -0.30350113929E+03 -0.28950995691E+03  0.15964011321E+03  0.44879162476E+03  0.00000000000E+00 0. -1.
        -13    1    5    5    0    0 -0.14097634084E+03 -0.16170133419E+03  0.15080407946E+03  0.26222799343E+03  0.00000000000E+00 0.  1.
          1    1    6    6  503    0  0.58847633944E+02  0.29476788746E+03  0.31648638118E+02  0.30224623702E+03  0.00000000000E+00 0. -1.
         -1    1    6    6    0  503 -0.12113016605E+02  0.15819400952E+02 -0.15160075973E+02  0.25036104354E+02  0.00000000000E+00 0.  1.
<mgrwt>
<rscale>  0 0.18656327E+04</rscale>
<asrwt>0</asrwt>
<pdfrwt beam="1">  1        1 0.11363342E+00 0.18656327E+04</pdfrwt>
<pdfrwt beam="2">  1       -2 0.18124227E+00 0.18656327E+04</pdfrwt>
<totfact> 0.36630496E+00</totfact>
</mgrwt>
</event>
<event>
12    5  0.5428626E-008  0.1635251E+04  0.7818608E-02  0.8799180E-01
          1   -1    0    0  501    0  0.00000000000E+00  0.00000000000E+00  0.16438428917E+04  0.16438428917E+04  0.00000000000E+00 0. -1.
         -2   -1    0    0    0  501 -0.00000000000E+00 -0.00000000000E+00 -0.40667579314E+03  0.40667579314E+03  0.00000000000E+00 0.  1.
        -24    2    1    2    0    0 -0.26680557632E+03 -0.47602530512E+03  0.61632083490E+03  0.82739665210E+03  0.83357913263E+02 0.  0.
        254    2    1    2    0    0  0.26680557632E+03  0.47602530512E+03  0.62084626369E+03  0.12231220328E+04  0.90154984180E+03 0.  0.
         23    2    4    4    0    0 -0.23524201494E+03  0.37266603649E+00  0.43133111581E+03  0.50003793349E+03  0.93018594872E+02 0.  0.
         23    2    4    4    0    0  0.50204759125E+03  0.47565263909E+03  0.18951514788E+03  0.72308409928E+03  0.92937647917E+02 0.  0.
          1    1    3    3  502    0 -0.72068003238E+02 -0.13111885203E+03  0.22801750919E+03  0.27272318373E+03  0.00000000000E+00 0. -1.
         -2    1    3    3    0  502 -0.19473757308E+03 -0.34490645309E+03  0.38830332571E+03  0.55467346837E+03  0.00000000000E+00 0.  1.
         13    1    5    5    0    0 -0.19108161899E+03  0.31101943282E+02  0.28874291885E+03  0.34763772693E+03  0.00000000000E+00 0.  1.
        -13    1    5    5    0    0 -0.44160395942E+02 -0.30729277245E+02  0.14258819696E+03  0.15240020657E+03  0.00000000000E+00 0. -1.
          1    1    6    6  503    0  0.15679116900E+03  0.19856107193E+03  0.42059669609E+02  0.25647414250E+03  0.00000000000E+00 0. -1.
         -1    1    6    6    0  503  0.34525642225E+03  0.27709156716E+03  0.14745547827E+03  0.46660995678E+03  0.00000000000E+00 0.  1.
<mgrwt>
<rscale>  0 0.16352506E+04</rscale>
<asrwt>0</asrwt>
<pdfrwt beam="1">  1        1 0.25289890E+00 0.16352506E+04</pdfrwt>
<pdfrwt beam="2">  1       -2 0.62565507E-01 0.16352506E+04</pdfrwt>
<totfact> 0.10358929E+01</totfact>
</mgrwt>
</event>
<event>
12    5  0.5428626E-008  0.1441885E+04  0.7818608E-02  0.8924046E-01
         -2   -1    0    0    0  501 -0.00000000000E+00  0.00000000000E+00  0.23189250599E+03  0.23189250599E+03  0.00000000000E+00 0.  1.
          1   -1    0    0  501    0  0.00000000000E+00 -0.00000000000E+00 -0.22413751613E+04  0.22413751613E+04  0.00000000000E+00 0. -1.
        -24    2    1    2    0    0 -0.89845182682E+02 -0.37491304455E+03 -0.25857308494E+03  0.47079617632E+03  0.78466881955E+02 0.  0.
        254    2    1    2    0    0  0.89845182682E+02  0.37491304455E+03 -0.17509095703E+04  0.20024714909E+04  0.89195055955E+03 0.  0.
         23    2    4    4    0    0 -0.38906726847E+03  0.12623950203E+03 -0.69164724627E+03  0.81011363913E+03  0.10294874334E+03 0.  0.
         23    2    4    4    0    0  0.47891245116E+03  0.24867354252E+03 -0.10592623241E+04  0.11923578518E+04  0.92113565518E+02 0.  0.
          3    1    3    3  502    0 -0.99227422489E+02 -0.36521389871E+03 -0.24113459686E+03  0.44874621668E+03  0.00000000000E+00 0. -1.
         -4    1    3    3    0  502  0.93822398070E+01 -0.96991458396E+01 -0.17438488075E+02  0.22049959640E+02  0.00000000000E+00 0.  1.
         13    1    5    5    0    0 -0.16349024042E+03  0.10306947743E+03 -0.28162544569E+03  0.34156297743E+03  0.00000000000E+00 0.  1.
        -13    1    5    5    0    0 -0.22557702805E+03  0.23170024596E+02 -0.41002180058E+03  0.46855066170E+03  0.00000000000E+00 0. -1.
          1    1    6    6  503    0  0.30982245877E+03  0.19978766562E+03 -0.65906910148E+03  0.75516696685E+03  0.00000000000E+00 0. -1.
         -1    1    6    6    0  503  0.16908999239E+03  0.48885876899E+02 -0.40019322259E+03  0.43719088496E+03  0.00000000000E+00 0.  1.
<mgrwt>
<rscale>  0 0.14418850E+04</rscale>
<asrwt>0</asrwt>
<pdfrwt beam="1">  1        1 0.34482696E+00 0.14418850E+04</pdfrwt>
<pdfrwt beam="2">  1       -2 0.35675769E-01 0.14418850E+04</pdfrwt>
<totfact> 0.12884962E+01</totfact>
</mgrwt>
</event>
<event>
12    5  0.5428626E-008  0.3430695E+04  0.7818608E-02  0.8130414E-01
         -2   -1    0    0    0  501 -0.00000000000E+00  0.00000000000E+00  0.18509177599E+04  0.18509177599E+04  0.00000000000E+00 0.  1.
          1   -1    0    0  501    0  0.00000000000E+00 -0.00000000000E+00 -0.15897066282E+04  0.15897066282E+04  0.00000000000E+00 0. -1.
        -24    2    1    2    0    0  0.91025710958E+03  0.39787046691E+02  0.14476246010E+04  0.17124023890E+04  0.80956420605E+02 0.  0.
        254    2    1    2    0    0 -0.91025710958E+03 -0.39787046691E+02 -0.11864134692E+04  0.17282219991E+04  0.86546134717E+03 0.  0.
         23    2    4    4    0    0 -0.99578367933E+03  0.15033801643E+03 -0.84729491028E+03  0.13194945064E+04  0.94712366278E+02 0.  0.
         23    2    4    4    0    0  0.85526569757E+02 -0.19012506312E+03 -0.33911855897E+03  0.40872749263E+03  0.92706161790E+02 0.  0.
          3    1    3    3  502    0  0.23681012865E+02 -0.15933389332E+01  0.18451009742E+02  0.30062748706E+02  0.00000000000E+00 0. -1.
         -4    1    3    3    0  502  0.88657609671E+03  0.41380385625E+02  0.14291735912E+04  0.16823396403E+04  0.00000000000E+00 0.  1.
         13    1    5    5    0    0 -0.66254177418E+03  0.68288824308E+02 -0.60039611446E+03  0.89671648826E+03  0.00000000000E+00 0.  1.
        -13    1    5    5    0    0 -0.33324190515E+03  0.82049192123E+02 -0.24689879582E+03  0.42277801818E+03  0.00000000000E+00 0. -1.
          4    1    6    6  503    0 -0.15291706751E+02 -0.35265684855E+01 -0.17891206475E+02  0.23798492595E+02  0.00000000000E+00 0. -1.
         -4    1    6    6    0  503  0.10081827651E+03 -0.18659849464E+03 -0.32122735249E+03  0.38492900004E+03  0.00000000000E+00 0.  1.
<mgrwt>
<rscale>  0 0.34306945E+04</rscale>
<asrwt>0</asrwt>
<pdfrwt beam="1">  1        1 0.24457025E+00 0.34306945E+04</pdfrwt>
<pdfrwt beam="2">  1       -2 0.28475658E+00 0.34306945E+04</pdfrwt>
<totfact> 0.16104337E-01</totfact>
</mgrwt>
</event>
<event>
12    5  0.5428626E-008  0.1824444E+04  0.7818608E-02  0.8693408E-01
          1   -1    0    0  501    0  0.00000000000E+00  0.00000000000E+00  0.10175355961E+04  0.10175355961E+04  0.00000000000E+00 0. -1.
         -2   -1    0    0    0  501 -0.00000000000E+00 -0.00000000000E+00 -0.81780789367E+03  0.81780789367E+03  0.00000000000E+00 0.  1.
        -24    2    1    2    0    0 -0.39601775401E+03 -0.34847544711E+03  0.53208254223E+03  0.75490688190E+03  0.92235404567E+02 0.  0.
        254    2    1    2    0    0  0.39601775401E+03  0.34847544711E+03 -0.33235483976E+03  0.10804366079E+04  0.88239352075E+03 0.  0.
         23    2    4    4    0    0 -0.22769210769E+03 -0.77704062792E+02 -0.20318521215E+02  0.25818584947E+03  0.91462961264E+02 0.  0.
         23    2    4    4    0    0  0.62370986170E+03  0.42617950990E+03 -0.31203631854E+03  0.82225075844E+03  0.89925966355E+02 0.  0.
          1    1    3    3  502    0 -0.11771843553E+03 -0.93904971691E+02  0.21310671658E+03  0.26094107845E+03  0.00000000000E+00 0. -1.
         -2    1    3    3    0  502 -0.27829931849E+03 -0.25457047542E+03  0.31897582565E+03  0.49396580345E+03  0.00000000000E+00 0.  1.
         13    1    5    5    0    0  0.38536944705E+01 -0.11673136897E+02  0.95457573695E+01  0.15563886721E+02  0.00000000000E+00 0.  1.
        -13    1    5    5    0    0 -0.23154580216E+03 -0.66030925894E+02 -0.29864278585E+02  0.24262196275E+03  0.00000000000E+00 0. -1.
          3    1    6    6  503    0  0.45833355656E+03  0.31815082884E+03 -0.18685167593E+03  0.58839030223E+03  0.00000000000E+00 0. -1.
         -3    1    6    6    0  503  0.16537630514E+03  0.10802868106E+03 -0.12518464261E+03  0.23386045621E+03  0.00000000000E+00 0.  1.
<mgrwt>
<rscale>  0 0.18244436E+04</rscale>
<asrwt>0</asrwt>
<pdfrwt beam="1">  1        1 0.15654394E+00 0.18244436E+04</pdfrwt>
<pdfrwt beam="2">  1       -2 0.12581660E+00 0.18244436E+04</pdfrwt>
<totfact> 0.57090635E+00</totfact>
</mgrwt>
</event>
<event>
12    5  0.5428626E-008  0.2158989E+04  0.7818608E-02  0.8535694E-01
          1   -1    0    0  501    0  0.00000000000E+00  0.00000000000E+00  0.25050885403E+04  0.25050885403E+04  0.00000000000E+00 0. -1.
         -2   -1    0    0    0  501 -0.00000000000E+00 -0.00000000000E+00 -0.46517634733E+03  0.46517634733E+03  0.00000000000E+00 0.  1.
        -24    2    1    2    0    0 -0.39875851973E+03 -0.64801059113E+02 -0.24414540099E+03  0.47897094627E+03  0.81232113292E+02 0.  0.
        254    2    1    2    0    0  0.39875851973E+03  0.64801059113E+02  0.22840575940E+04  0.24912939414E+04  0.90907583587E+03 0.  0.
         23    2    4    4    0    0  0.19545996505E+03 -0.37998834645E+03  0.65221743247E+03  0.78538976619E+03  0.94094443204E+02 0.  0.
         23    2    4    4    0    0  0.20329855468E+03  0.44478940556E+03  0.16318401615E+04  0.17059041752E+04  0.89659492203E+02 0.  0.
          1    1    3    3  502    0 -0.83526020982E+02 -0.46751590369E+02 -0.46003648926E+02  0.10620095620E+03  0.00000000000E+00 0. -1.
         -2    1    3    3    0  502 -0.31523249875E+03 -0.18049468744E+02 -0.19814175207E+03  0.37276999008E+03  0.00000000000E+00 0.  1.
         13    1    5    5    0    0  0.20423688934E+03 -0.36155424551E+03  0.60344416376E+03  0.73251555492E+03  0.00000000000E+00 0. -1.
        -13    1    5    5    0    0 -0.87769242871E+01 -0.18434100934E+02  0.48773268709E+02  0.52874211273E+02  0.00000000000E+00 0.  1.
          3    1    6    6  503    0  0.20317225750E+03  0.44810203017E+03  0.16012420248E+04  0.16751269855E+04  0.00000000000E+00 0. -1.
         -3    1    6    6    0  503  0.12629717617E+00 -0.33126246042E+01  0.30598136697E+02  0.30777189639E+02  0.00000000000E+00 0.  1.
<mgrwt>
<rscale>  0 0.21589886E+04</rscale>
<asrwt>0</asrwt>
<pdfrwt beam="1">  1        1 0.38539823E+00 0.21589886E+04</pdfrwt>
<pdfrwt beam="2">  1       -2 0.71565594E-01 0.21589886E+04</pdfrwt>
<totfact> 0.19135163E+00</totfact>
</mgrwt>
</event>
<event>
12    5  0.5428626E-008  0.1676314E+04  0.7818608E-02  0.8774990E-01
         -2   -1    0    0    0  501 -0.00000000000E+00  0.00000000000E+00  0.82234706711E+03  0.82234706711E+03  0.00000000000E+00 0.  1.
          1   -1    0    0  501    0  0.00000000000E+00 -0.00000000000E+00 -0.85427133061E+03  0.85427133061E+03  0.00000000000E+00 0. -1.
        -24    2    1    2    0    0  0.19365764085E+03  0.46498616428E+03  0.30204748143E+03  0.59262408610E+03  0.79089895433E+02 0.  0.
        254    2    1    2    0    0 -0.19365764085E+03 -0.46498616428E+03 -0.33397174493E+03  0.10839943116E+04  0.89988395162E+03 0.  0.
         23    2    4    4    0    0  0.27609908937E+03  0.17241358409E+02 -0.27726097473E+03  0.40208154423E+03  0.90928260256E+02 0.  0.
         23    2    4    4    0    0 -0.46975673022E+03 -0.48222752269E+03 -0.56710770202E+02  0.68191276739E+03  0.92596661112E+02 0.  0.
          3    1    3    3  502    0  0.47317835981E+02  0.18721191844E+03  0.85244147723E+02  0.21107781677E+03  0.00000000000E+00 0. -1.
         -4    1    3    3    0  502  0.14633980486E+03  0.27777424583E+03  0.21680333371E+03  0.38154626933E+03  0.00000000000E+00 0.  1.
         13    1    5    5    0    0  0.19034583671E+02  0.27380595886E+02 -0.40395324456E+02  0.52381243251E+02  0.00000000000E+00 0. -1.
        -13    1    5    5    0    0  0.25706450570E+03 -0.10139237476E+02 -0.23686565027E+03  0.34970030098E+03  0.00000000000E+00 0.  1.
          4    1    6    6  503    0 -0.50498400244E+02 -0.94516188941E+02  0.66039639728E+01  0.10736391731E+03  0.00000000000E+00 0. -1.
         -4    1    6    6    0  503 -0.41925832997E+03 -0.38771133374E+03 -0.63314734175E+02  0.57454885008E+03  0.00000000000E+00 0.  1.
<mgrwt>
<rscale>  0 0.16763144E+04</rscale>
<asrwt>0</asrwt>
<pdfrwt beam="1">  1        1 0.13142636E+00 0.16763144E+04</pdfrwt>
<pdfrwt beam="2">  1       -2 0.12651493E+00 0.16763144E+04</pdfrwt>
<totfact> 0.77176102E+00</totfact>
</mgrwt>
</event>
<event>
12    5  0.5428626E-008  0.3357437E+04  0.7818608E-02  0.8148432E-01
         -2   -1    0    0    0  501 -0.00000000000E+00  0.00000000000E+00  0.16808683049E+04  0.16808683049E+04  0.00000000000E+00 0.  1.
          1   -1    0    0  501    0  0.00000000000E+00 -0.00000000000E+00 -0.16765714692E+04  0.16765714692E+04  0.00000000000E+00 0. -1.
        -24    2    1    2    0    0 -0.37135794231E+03  0.14921498228E+04 -0.11209392973E+03  0.15438122118E+04  0.79832833110E+02 0.  0.
        254    2    1    2    0    0  0.37135794231E+03 -0.14921498228E+04  0.11639076538E+03  0.18136275623E+04  0.95461002995E+03 0.  0.
         23    2    4    4    0    0  0.49174938060E+02 -0.14347926288E+04  0.23201871859E+03  0.14573029439E+04  0.94080403574E+02 0.  0.
         23    2    4    4    0    0  0.32218300425E+03 -0.57357194054E+02 -0.11562795321E+03  0.35632461840E+03  0.80657759560E+02 0.  0.
          3    1    3    3  502    0 -0.18270216547E+03  0.61608908618E+03 -0.19593644675E+02  0.64290726726E+03  0.00000000000E+00 0. -1.
         -4    1    3    3    0  502 -0.18865577683E+03  0.87606073662E+03 -0.92500285050E+02  0.90090494455E+03  0.00000000000E+00 0.  1.
         13    1    5    5    0    0  0.54404980538E+02 -0.38264355648E+03  0.68257136357E+02  0.39247296707E+03  0.00000000000E+00 0. -1.
        -13    1    5    5    0    0 -0.52300424782E+01 -0.10521490723E+04  0.16376158223E+03  0.10648299768E+04  0.00000000000E+00 0.  1.
          4    1    6    6  503    0  0.11955497874E+02  0.28877113212E+01  0.10392021364E+02  0.16101767422E+02  0.00000000000E+00 0. -1.
         -4    1    6    6    0  503  0.31022750637E+03 -0.60244905375E+02 -0.12601997457E+03  0.34022285098E+03  0.00000000000E+00 0.  1.
<mgrwt>
<rscale>  0 0.33574370E+04</rscale>
<asrwt>0</asrwt>
<pdfrwt beam="1">  1        1 0.25793407E+00 0.33574370E+04</pdfrwt>
<pdfrwt beam="2">  1       -2 0.25859512E+00 0.33574370E+04</pdfrwt>
<totfact> 0.20415001E-01</totfact>
</mgrwt>
</event>
<event>
12    5  0.5428626E-008  0.1756483E+04  0.7818608E-02  0.8729790E-01
          1   -1    0    0  501    0  0.00000000000E+00  0.00000000000E+00  0.12340297867E+04  0.12340297867E+04  0.00000000000E+00 0. -1.
         -2   -1    0    0    0  501 -0.00000000000E+00 -0.00000000000E+00 -0.62503175095E+03  0.62503175095E+03  0.00000000000E+00 0.  1.
        -24    2    1    2    0    0  0.36041254784E+03 -0.51764614833E+03  0.10007785704E+03  0.64357407037E+03  0.79481237160E+02 0.  0.
        254    2    1    2    0    0 -0.36041254784E+03  0.51764614833E+03  0.50892017871E+03  0.12154874673E+04  0.90584507248E+03 0.  0.
         23    2    4    4    0    0 -0.26816316146E+03  0.60808085353E+02 -0.20779204098E+03  0.35550939019E+03  0.87179641051E+02 0.  0.
         23    2    4    4    0    0 -0.92249386379E+02  0.45683806297E+03  0.71671221969E+03  0.85997807710E+03  0.93139262263E+02 0.  0.
          1    1    3    3  502    0  0.20292929813E+03 -0.29191451684E+03  0.16401223861E+02  0.35589799849E+03  0.00000000000E+00 0. -1.
         -2    1    3    3    0  502  0.15748324971E+03 -0.22573163148E+03  0.83676633180E+02  0.28767607188E+03  0.00000000000E+00 0.  1.
         13    1    5    5    0    0 -0.99777059138E+02  0.65686473211E+02 -0.75510528361E+02  0.14132237681E+03  0.00000000000E+00 0. -1.
        -13    1    5    5    0    0 -0.16838610232E+03 -0.48783878579E+01 -0.13228151262E+03  0.21418701339E+03  0.00000000000E+00 0.  1.
          2    1    6    6  503    0  0.19262817464E+02  0.68491962274E+02  0.11324718349E+03  0.13374277401E+03  0.00000000000E+00 0. -1.
         -2    1    6    6    0  503 -0.11151220384E+03  0.38834610070E+03  0.60346503620E+03  0.72623530309E+03  0.00000000000E+00 0.  1.
<mgrwt>
<rscale>  0 0.17564826E+04</rscale>
<asrwt>0</asrwt>
<pdfrwt beam="1">  1        1 0.18985074E+00 0.17564826E+04</pdfrwt>
<pdfrwt beam="2">  1       -2 0.96158731E-01 0.17564826E+04</pdfrwt>
<totfact> 0.75956717E+00</totfact>
</mgrwt>
</event>
<event>
12    5  0.5428626E-008  0.1416118E+04  0.7818608E-02  0.8942234E-01
         -2   -1    0    0    0  501 -0.00000000000E+00  0.00000000000E+00  0.18989752950E+04  0.18989752950E+04  0.00000000000E+00 0.  1.
          1   -1    0    0  501    0  0.00000000000E+00 -0.00000000000E+00 -0.26400936901E+03  0.26400936901E+03  0.00000000000E+00 0. -1.
        -24    2    1    2    0    0 -0.26622117789E+03  0.15560021923E+03  0.28091057152E+02  0.31971790799E+03  0.79657324926E+02 0.  0.
        254    2    1    2    0    0  0.26622117789E+03 -0.15560021923E+03  0.16068748689E+04  0.18432667561E+04  0.84882291793E+03 0.  0.
         23    2    4    4    0    0  0.44843402205E+02  0.15494141925E+03 -0.35462252866E+01  0.18565900328E+03  0.91863570916E+02 0.  0.
         23    2    4    4    0    0  0.22137777569E+03 -0.31054163848E+03  0.16104210941E+04  0.16576077528E+04  0.93611606041E+02 0.  0.
          3    1    3    3  502    0 -0.17105145840E+03  0.13376626900E+03 -0.32488350742E+01  0.21716945243E+03  0.00000000000E+00 0. -1.
         -4    1    3    3    0  502 -0.95169719497E+02  0.21833950228E+02  0.31339892226E+02  0.10254845555E+03  0.00000000000E+00 0.  1.
         13    1    5    5    0    0  0.33353557367E+01  0.11577472404E+03  0.29755207187E+02  0.11958379355E+03  0.00000000000E+00 0. -1.
        -13    1    5    5    0    0  0.41508046468E+02  0.39166695210E+02 -0.33301432473E+02  0.66075209724E+02  0.00000000000E+00 0.  1.
          1    1    6    6  503    0  0.17028267583E+03 -0.29257558436E+03  0.13922430887E+04  0.14328075517E+04  0.00000000000E+00 0. -1.
         -1    1    6    6    0  503  0.51095099860E+02 -0.17966054119E+02  0.21817800544E+03  0.22480020104E+03  0.00000000000E+00 0.  1.
<mgrwt>
<rscale>  0 0.14161176E+04</rscale>
<asrwt>0</asrwt>
<pdfrwt beam="1">  1        1 0.40616827E-01 0.14161176E+04</pdfrwt>
<pdfrwt beam="2">  1       -2 0.29215004E+00 0.14161176E+04</pdfrwt>
<totfact> 0.31379691E+00</totfact>
</mgrwt>
</event>
<event>
12    5  0.5428626E-008  0.2235604E+04  0.7818608E-02  0.8503753E-01
          1   -1    0    0  501    0  0.00000000000E+00  0.00000000000E+00  0.14969916635E+04  0.14969916635E+04  0.00000000000E+00 0. -1.
         -2   -1    0    0    0  501 -0.00000000000E+00 -0.00000000000E+00 -0.83466152694E+03  0.83466152694E+03  0.00000000000E+00 0.  1.
        -24    2    1    2    0    0 -0.32942474968E+03 -0.17812571502E+03 -0.61456544775E+03  0.72404639839E+03  0.79391822009E+02 0.  0.
        254    2    1    2    0    0  0.32942474968E+03  0.17812571502E+03  0.12768955843E+04  0.16076067920E+04  0.90204646697E+03 0.  0.
         23    2    4    4    0    0  0.24051997632E+03 -0.84745390058E+02 -0.26752917243E+02  0.27173822726E+03  0.89968357913E+02 0.  0.
         23    2    4    4    0    0  0.88904773361E+02  0.26287110508E+03  0.13036485015E+04  0.13358685648E+04  0.89666773187E+02 0.  0.
          3    1    3    3  502    0 -0.59725730698E+02 -0.26684450747E+02 -0.17274329144E+03  0.18471455697E+03  0.00000000000E+00 0. -1.
         -4    1    3    3    0  502 -0.26969901899E+03 -0.15144126427E+03 -0.44182215631E+03  0.53933184142E+03  0.00000000000E+00 0.  1.
         13    1    5    5    0    0  0.28599260081E+02 -0.40885642966E+02  0.13330857236E+02  0.51645573214E+02  0.00000000000E+00 0. -1.
        -13    1    5    5    0    0  0.21192071624E+03 -0.43859747092E+02 -0.40083774480E+02  0.22009265404E+03  0.00000000000E+00 0.  1.
          3    1    6    6  503    0  0.32514109480E+02  0.20405119654E+03  0.83476160671E+03  0.85995406747E+03  0.00000000000E+00 0. -1.
         -3    1    6    6    0  503  0.56390663881E+02  0.58819908535E+02  0.46888689482E+03  0.47591449731E+03  0.00000000000E+00 0.  1.
<mgrwt>
<rscale>  0 0.22356040E+04</rscale>
<asrwt>0</asrwt>
<pdfrwt beam="1">  1        1 0.23030641E+00 0.22356040E+04</pdfrwt>
<pdfrwt beam="2">  1       -2 0.12840947E+00 0.22356040E+04</pdfrwt>
<totfact> 0.23500934E+00</totfact>
</mgrwt>
</event>
<event>
12    5  0.5428626E-008  0.1330004E+04  0.7818608E-02  0.9006105E-01
          1   -1    0    0  501    0  0.00000000000E+00  0.00000000000E+00  0.36217689240E+03  0.36217689240E+03  0.00000000000E+00 0. -1.
         -2   -1    0    0    0  501 -0.00000000000E+00 -0.00000000000E+00 -0.12210261749E+04  0.12210261749E+04  0.00000000000E+00 0.  1.
        -24    2    1    2    0    0 -0.30363842136E+03  0.12321841481E+03 -0.92646305412E+02  0.34989725735E+03  0.80409477812E+02 0.  0.
        254    2    1    2    0    0  0.30363842136E+03 -0.12321841481E+03 -0.76620297706E+03  0.12333058099E+04  0.90917388329E+03 0.  0.
         23    2    4    4    0    0  0.47806896941E+03 -0.30928169043E+03 -0.20859237604E+03  0.61303875805E+03  0.90003533186E+02 0.  0.
         23    2    4    4    0    0 -0.17443054805E+03  0.18606327562E+03 -0.55761060102E+03  0.62026705187E+03  0.93573899364E+02 0.  0.
          1    1    3    3  502    0 -0.28070889509E+03  0.10912907947E+03 -0.59149941582E+02  0.30692890929E+03  0.00000000000E+00 0. -1.
         -2    1    3    3    0  502 -0.22929526267E+02  0.14089335339E+02 -0.33496363830E+02  0.42968348060E+02  0.00000000000E+00 0.  1.
         13    1    5    5    0    0  0.16316828839E+03 -0.60987676399E+02 -0.44785755425E+02  0.17985869703E+03  0.00000000000E+00 0.  1.
        -13    1    5    5    0    0  0.31490068102E+03 -0.24829401403E+03 -0.16380662062E+03  0.43318006102E+03  0.00000000000E+00 0. -1.
          2    1    6    6  503    0 -0.12658090819E+03  0.72580424282E+02 -0.34453429274E+03  0.37415841990E+03  0.00000000000E+00 0. -1.
         -2    1    6    6    0  503 -0.47849639866E+02  0.11348285134E+03 -0.21307630827E+03  0.24610863197E+03  0.00000000000E+00 0.  1.
<mgrwt>
<rscale>  0 0.13300037E+04</rscale>
<asrwt>0</asrwt>
<pdfrwt beam="1">  1        1 0.55719523E-01 0.13300037E+04</pdfrwt>
<pdfrwt beam="2">  1       -2 0.18785018E+00 0.13300037E+04</pdfrwt>
<totfact> 0.93842945E+00</totfact>
</mgrwt>
</event>
<event>
12    5  0.5428626E-008  0.1294477E+04  0.7818608E-02  0.9033956E-01
          1   -1    0    0  501    0  0.00000000000E+00  0.00000000000E+00  0.48631048129E+03  0.48631048129E+03  0.00000000000E+00 0. -1.
         -2   -1    0    0    0  501 -0.00000000000E+00 -0.00000000000E+00 -0.86142062340E+03  0.86142062340E+03  0.00000000000E+00 0.  1.
        -24    2    1    2    0    0 -0.29545329539E+03  0.10282565764E+03 -0.22444851215E+03  0.39322104823E+03  0.79874229539E+02 0.  0.
        254    2    1    2    0    0  0.29545329539E+03 -0.10282565764E+03 -0.15066162997E+03  0.95451005646E+03  0.88911459076E+03 0.  0.
         23    2    4    4    0    0 -0.21106050484E+03  0.16050694627E+03  0.13200946913E+03  0.31106926178E+03  0.95018783307E+02 0.  0.
         23    2    4    4    0    0  0.50651380023E+03 -0.26333260391E+03 -0.28267109910E+03  0.64344079467E+03  0.90624587612E+02 0.  0.
          1    1    3    3  502    0 -0.18363824246E+03  0.49561148118E+02 -0.90020170511E+02  0.21043512681E+03  0.00000000000E+00 0. -1.
         -2    1    3    3    0  502 -0.11181505293E+03  0.53264509517E+02 -0.13442834164E+03  0.18278592142E+03  0.00000000000E+00 0.  1.
         13    1    5    5    0    0 -0.10000876854E+02  0.33244119306E+02 -0.71059516854E+01  0.35435625515E+02  0.00000000000E+00 0.  1.
        -13    1    5    5    0    0 -0.20105962799E+03  0.12726282696E+03  0.13911542082E+03  0.27563363627E+03  0.00000000000E+00 0. -1.
          4    1    6    6  503    0  0.13653581185E+03 -0.11628362307E+03 -0.10090899074E+03  0.20578273330E+03  0.00000000000E+00 0. -1.
         -4    1    6    6    0  503  0.36997798838E+03 -0.14704898084E+03 -0.18176210836E+03  0.43765806138E+03  0.00000000000E+00 0.  1.
<mgrwt>
<rscale>  0 0.12944773E+04</rscale>
<asrwt>0</asrwt>
<pdfrwt beam="1">  1        1 0.74816999E-01 0.12944773E+04</pdfrwt>
<pdfrwt beam="2">  1       -2 0.13252625E+00 0.12944773E+04</pdfrwt>
<totfact> 0.16360066E+01</totfact>
</mgrwt>
</event>
<event>
12    5  0.5428626E-008  0.1763201E+04  0.7818608E-02  0.8726117E-01
          1   -1    0    0  501    0  0.00000000000E+00  0.00000000000E+00  0.14237145862E+04  0.14237145862E+04  0.00000000000E+00 0. -1.
         -2   -1    0    0    0  501 -0.00000000000E+00 -0.00000000000E+00 -0.54590974214E+03  0.54590974214E+03  0.00000000000E+00 0.  1.
        -24    2    1    2    0    0 -0.40253522265E+03 -0.37557565335E+03  0.72405808378E+03  0.91310224416E+03  0.80024513389E+02 0.  0.
        254    2    1    2    0    0  0.40253522265E+03  0.37557565335E+03  0.15374676024E+03  0.10565220841E+04  0.88854328602E+03 0.  0.
         23    2    4    4    0    0  0.30340883730E+03 -0.24900638449E+03  0.17558628167E+02  0.40303785086E+03  0.89833744957E+02 0.  0.
         23    2    4    4    0    0  0.99126385355E+02  0.62458203785E+03  0.13618813208E+03  0.65348423328E+03  0.92550924143E+02 0.  0.
          1    1    3    3  502    0 -0.36981272982E+03 -0.36790498953E+03  0.66544622303E+03  0.84553782423E+03  0.00000000000E+00 0. -1.
         -2    1    3    3    0  502 -0.32722492830E+02 -0.76706638263E+01  0.58611860752E+02  0.67564419937E+02  0.00000000000E+00 0.  1.
         13    1    5    5    0    0  0.34467080945E+00  0.23031246474E+01 -0.81668070739E+01  0.84923447228E+01  0.00000000000E+00 0. -1.
        -13    1    5    5    0    0  0.30306416649E+03 -0.25130950914E+03  0.25725435240E+02  0.39454550614E+03  0.00000000000E+00 0.  1.
          1    1    6    6  503    0 -0.78416702958E+01  0.32031566939E+01  0.23001913081E+00  0.84737780614E+01  0.00000000000E+00 0. -1.
         -1    1    6    6    0  503  0.10696805565E+03  0.62137888115E+03  0.13595811294E+03  0.64501045522E+03  0.00000000000E+00 0.  1.
<mgrwt>
<rscale>  0 0.17632013E+04</rscale>
<asrwt>0</asrwt>
<pdfrwt beam="1">  1        1 0.21903301E+00 0.17632013E+04</pdfrwt>
<pdfrwt beam="2">  1       -2 0.83986115E-01 0.17632013E+04</pdfrwt>
<totfact> 0.76045005E+00</totfact>
</mgrwt>
</event>
<event>
12    5  0.5428626E-008  0.1673272E+04  0.7818608E-02  0.8776757E-01
          1   -1    0    0  501    0  0.00000000000E+00  0.00000000000E+00  0.14990184719E+04  0.14990184719E+04  0.00000000000E+00 0. -1.
         -2   -1    0    0    0  501 -0.00000000000E+00 -0.00000000000E+00 -0.46694562397E+03  0.46694562397E+03  0.00000000000E+00 0.  1.
        -24    2    1    2    0    0 -0.18757841813E+02  0.13978937401E+03  0.10475588515E+04  0.10602399755E+04  0.82682118603E+02 0.  0.
        254    2    1    2    0    0  0.18757841813E+02 -0.13978937401E+03 -0.15486003584E+02  0.90572412029E+03  0.89454091022E+03 0.  0.
         23    2    4    4    0    0 -0.41476551908E+03  0.30916130675E+02  0.44295328925E+02  0.42781118828E+03  0.89855960812E+02 0.  0.
         23    2    4    4    0    0  0.43352336090E+03 -0.17070550468E+03 -0.59781332509E+02  0.47791293201E+03  0.88000506223E+02 0.  0.
          3    1    3    3  502    0 -0.14220187309E+02  0.97642896526E+02  0.93096080037E+03  0.93617538997E+03  0.00000000000E+00 0. -1.
         -4    1    3    3    0  502 -0.45376545037E+01  0.42146477483E+02  0.11659805111E+03  0.12406458558E+03  0.00000000000E+00 0.  1.
         13    1    5    5    0    0 -0.37633160448E+03  0.26938258228E+02  0.66701925179E+02  0.38314526372E+03  0.00000000000E+00 0. -1.
        -13    1    5    5    0    0 -0.38433914600E+02  0.39778724475E+01 -0.22406596254E+02  0.44665924555E+02  0.00000000000E+00 0.  1.
          1    1    6    6  503    0  0.30555785055E+03 -0.99938578800E+02 -0.77268221910E+02  0.33064134298E+03  0.00000000000E+00 0. -1.
         -1    1    6    6    0  503  0.12796551034E+03 -0.70766925884E+02  0.17486889402E+02  0.14727158903E+03  0.00000000000E+00 0.  1.
<mgrwt>
<rscale>  0 0.16732724E+04</rscale>
<asrwt>0</asrwt>
<pdfrwt beam="1">  1        1 0.23061823E+00 0.16732724E+04</pdfrwt>
<pdfrwt beam="2">  1       -2 0.71837789E-01 0.16732724E+04</pdfrwt>
<totfact> 0.96300085E+00</totfact>
</mgrwt>
</event>
<event>
12    5  0.5428626E-008  0.2446340E+04  0.7818608E-02  0.8422355E-01
          1   -1    0    0  501    0  0.00000000000E+00  0.00000000000E+00  0.97067933144E+03  0.97067933144E+03  0.00000000000E+00 0. -1.
         -2   -1    0    0    0  501 -0.00000000000E+00 -0.00000000000E+00 -0.15413380156E+04  0.15413380156E+04  0.00000000000E+00 0.  1.
        -24    2    1    2    0    0  0.48196846732E+03 -0.92780575091E+03 -0.93436430438E+02  0.10527188288E+04  0.79808840436E+02 0.  0.
        254    2    1    2    0    0 -0.48196846732E+03  0.92780575091E+03 -0.47722225370E+03  0.14592985182E+04  0.89927413562E+03 0.  0.
         23    2    4    4    0    0  0.20355475062E+03  0.17653792331E+03 -0.31610703053E+03  0.42535253579E+03  0.91656696935E+02 0.  0.
         23    2    4    4    0    0 -0.68552321794E+03  0.75126782760E+03 -0.16111522317E+03  0.10339459824E+04  0.93491969415E+02 0.  0.
          1    1    3    3  502    0  0.30664450980E+03 -0.66322060989E+03 -0.79804362654E+02  0.73502460440E+03  0.00000000000E+00 0. -1.
         -2    1    3    3    0  502  0.17532395753E+03 -0.26458514102E+03 -0.13632067785E+02  0.31769422438E+03  0.00000000000E+00 0.  1.
         13    1    5    5    0    0  0.21071551782E+03  0.15536555069E+03 -0.29732101010E+03  0.39615560937E+03  0.00000000000E+00 0. -1.
        -13    1    5    5    0    0 -0.71607671985E+01  0.21172372613E+02 -0.18786020430E+02  0.29196926423E+02  0.00000000000E+00 0.  1.
          2    1    6    6  503    0 -0.11982106597E+03  0.18223496308E+03 -0.17358707964E+02  0.21878755532E+03  0.00000000000E+00 0. -1.
         -2    1    6    6    0  503 -0.56570215197E+03  0.56903286452E+03 -0.14375651521E+03  0.81515842712E+03  0.00000000000E+00 0.  1.
<mgrwt>
<rscale>  0 0.24463401E+04</rscale>
<asrwt>0</asrwt>
<pdfrwt beam="1">  1        1 0.14933528E+00 0.24463401E+04</pdfrwt>
<pdfrwt beam="2">  1       -2 0.23712893E+00 0.24463401E+04</pdfrwt>
<totfact> 0.96386362E-01</totfact>
</mgrwt>
</event>
<event>
12    5  0.5428626E-008  0.1078501E+04  0.7818608E-02  0.9226403E-01
         -2   -1    0    0    0  501 -0.00000000000E+00  0.00000000000E+00  0.43166369474E+03  0.43166369474E+03  0.00000000000E+00 0.  1.
          1   -1    0    0  501    0  0.00000000000E+00 -0.00000000000E+00 -0.67365240898E+03  0.67365240898E+03  0.00000000000E+00 0. -1.
        -24    2    1    2    0    0  0.46934892296E+02  0.70323557746E+02 -0.16346080253E+03  0.20053688467E+03  0.79670077572E+02 0.  0.
        254    2    1    2    0    0 -0.46934892296E+02 -0.70323557746E+02 -0.78527911701E+02  0.90477921904E+03  0.89739094903E+03 0.  0.
         23    2    4    4    0    0  0.11641541237E+00  0.36301439154E+03 -0.22412812754E+03  0.43637980328E+03  0.91730328352E+02 0.  0.
         23    2    4    4    0    0 -0.47051307709E+02 -0.43333794928E+03  0.14560021584E+03  0.46839941576E+03  0.90570337250E+02 0.  0.
          1    1    3    3  502    0  0.26537567833E+02  0.28996330869E+02 -0.14608931439E+03  0.15128488850E+03  0.00000000000E+00 0. -1.
         -2    1    3    3    0  502  0.20397324464E+02  0.41327226877E+02 -0.17371488148E+02  0.49251996174E+02  0.00000000000E+00 0.  1.
         13    1    5    5    0    0 -0.63514161798E+01  0.28805089977E+03 -0.21720331933E+03  0.36081982106E+03  0.00000000000E+00 0.  1.
        -13    1    5    5    0    0  0.64678315922E+01  0.74963491768E+02 -0.69248082113E+01  0.75559982215E+02  0.00000000000E+00 0. -1.
          3    1    6    6  503    0  0.12653199959E+02 -0.16831892514E+03  0.22995400186E+02  0.17035302304E+03  0.00000000000E+00 0. -1.
         -3    1    6    6    0  503 -0.59704507668E+02 -0.26501902414E+03  0.12260481565E+03  0.29804639272E+03  0.00000000000E+00 0.  1.
<mgrwt>
<rscale>  0 0.10785013E+04</rscale>
<asrwt>0</asrwt>
<pdfrwt beam="1">  1        1 0.10363883E+00 0.10785013E+04</pdfrwt>
<pdfrwt beam="2">  1       -2 0.66409799E-01 0.10785013E+04</pdfrwt>
<totfact> 0.52606587E+01</totfact>
</mgrwt>
</event>
<event>
12    5  0.5428626E-008  0.1124698E+04  0.7818608E-02  0.9181448E-01
         -2   -1    0    0    0  501 -0.00000000000E+00  0.00000000000E+00  0.21748070735E+03  0.21748070735E+03  0.00000000000E+00 0.  1.
          1   -1    0    0  501    0  0.00000000000E+00 -0.00000000000E+00 -0.14540898800E+04  0.14540898800E+04  0.00000000000E+00 0. -1.
        -24    2    1    2    0    0 -0.92310920134E+02 -0.13364362365E+03 -0.84007274084E+02  0.19941883912E+03  0.79553297737E+02 0.  0.
        254    2    1    2    0    0  0.92310920134E+02  0.13364362365E+03 -0.11526018985E+04  0.14721517482E+04  0.90130888662E+03 0.  0.
         23    2    4    4    0    0 -0.67483383311E+02 -0.12169891864E+03 -0.11453367317E+04  0.11573129215E+04  0.90621936739E+02 0.  0.
         23    2    4    4    0    0  0.15979430344E+03  0.25534254229E+03 -0.72651668014E+01  0.31483882669E+03  0.91305371289E+02 0.  0.
          3    1    3    3  502    0 -0.27599928495E+02 -0.92171553113E+01 -0.45451051496E+02  0.53967676317E+02  0.00000000000E+00 0. -1.
         -4    1    3    3    0  502 -0.64710991639E+02 -0.12442646834E+03 -0.38556222589E+02  0.14545116281E+03  0.00000000000E+00 0.  1.
         13    1    5    5    0    0  0.14540952841E+02 -0.64322772395E+02 -0.44673703854E+03  0.45157816595E+03  0.00000000000E+00 0. -1.
        -13    1    5    5    0    0 -0.82024336152E+02 -0.57376146243E+02 -0.69859969319E+03  0.70573475556E+03  0.00000000000E+00 0.  1.
          3    1    6    6  503    0  0.20928939161E+01  0.17656128764E+02  0.21784013106E+02  0.28118718229E+02  0.00000000000E+00 0. -1.
         -3    1    6    6    0  503  0.15770140953E+03  0.23768641352E+03 -0.29049179907E+02  0.28672010846E+03  0.00000000000E+00 0.  1.
<mgrwt>
<rscale>  0 0.11246982E+04</rscale>
<asrwt>0</asrwt>
<pdfrwt beam="1">  1        1 0.22370614E+00 0.11246982E+04</pdfrwt>
<pdfrwt beam="2">  1       -2 0.33458570E-01 0.11246982E+04</pdfrwt>
<totfact> 0.51300727E+01</totfact>
</mgrwt>
</event>
<event>
12    5  0.5428626E-008  0.1820140E+04  0.7818608E-02  0.8695662E-01
          1   -1    0    0  501    0  0.00000000000E+00  0.00000000000E+00  0.99243416890E+03  0.99243416890E+03  0.00000000000E+00 0. -1.
         -4   -1    0    0    0  501 -0.00000000000E+00 -0.00000000000E+00 -0.83454134626E+03  0.83454134626E+03  0.00000000000E+00 0.  1.
        -24    2    1    2    0    0  0.20133646572E+03 -0.64703794797E+03  0.16833719181E+03  0.70278247868E+03  0.79820571561E+02 0.  0.
        254    2    1    2    0    0 -0.20133646572E+03  0.64703794797E+03 -0.10444369166E+02  0.11241930365E+04  0.89694281863E+03 0.  0.
         23    2    4    4    0    0 -0.54696290435E+03  0.32898581318E+03 -0.27132065867E+02  0.64530400274E+03  0.91000126048E+02 0.  0.
         23    2    4    4    0    0  0.34562643863E+03  0.31805213479E+03  0.16687696701E+02  0.47888903375E+03  0.91877265404E+02 0.  0.
          1    1    3    3  502    0  0.15741955065E+03 -0.50421391882E+03  0.16476089214E+03  0.55331613245E+03  0.00000000000E+00 0. -1.
         -2    1    3    3    0  502  0.43916915077E+02 -0.14282402916E+03  0.35762996648E+01  0.14946634622E+03  0.00000000000E+00 0.  1.
         13    1    5    5    0    0 -0.28123020649E+02  0.30199303762E+02  0.17707835841E+02  0.44905118732E+02  0.00000000000E+00 0. -1.
        -13    1    5    5    0    0 -0.51883988370E+03  0.29878650942E+03 -0.44839901707E+02  0.60039888401E+03  0.00000000000E+00 0.  1.
          1    1    6    6  503    0  0.49853621103E+01  0.31775593982E+02  0.10666934261E+02  0.33886954641E+02  0.00000000000E+00 0. -1.
         -1    1    6    6    0  503  0.34064107652E+03  0.28627654081E+03  0.60207624402E+01  0.44500207911E+03  0.00000000000E+00 0.  1.
<mgrwt>
<rscale>  0 0.18201399E+04</rscale>
<asrwt>0</asrwt>
<pdfrwt beam="1">  1        1 0.15268218E+00 0.18201399E+04</pdfrwt>
<pdfrwt beam="2">  1       -4 0.12839098E+00 0.18201399E+04</pdfrwt>
<totfact> 0.31304189E+00</totfact>
</mgrwt>
</event>
<event>
12    5  0.5428626E-008  0.2140453E+04  0.7818608E-02  0.8543630E-01
         -2   -1    0    0    0  501 -0.00000000000E+00  0.00000000000E+00  0.25952055632E+03  0.25952055632E+03  0.00000000000E+00 0.  1.
          1   -1    0    0  501    0  0.00000000000E+00 -0.00000000000E+00 -0.44134641501E+04  0.44134641501E+04  0.00000000000E+00 0. -1.
        -24    2    1    2    0    0  0.27845702166E+02  0.74295806905E+03 -0.67027953659E+03  0.10040974510E+04  0.78580904449E+02 0.  0.
        254    2    1    2    0    0 -0.27845702166E+02 -0.74295806905E+03 -0.34836640572E+04  0.36688872553E+04  0.87866737383E+03 0.  0.
         23    2    4    4    0    0 -0.36001275448E+03 -0.12645162123E+03 -0.18146462476E+04  0.18565528264E+04  0.90819588336E+02 0.  0.
         23    2    4    4    0    0  0.33216705232E+03 -0.61650644782E+03 -0.16690178096E+04  0.18123344289E+04  0.92306460510E+02 0.  0.
          3    1    3    3  502    0  0.24205187560E+02  0.98885936158E+02 -0.11613357577E+03  0.15443874804E+03  0.00000000000E+00 0. -1.
         -4    1    3    3    0  502  0.36405146061E+01  0.64407213289E+03 -0.55414596082E+03  0.84965870301E+03  0.00000000000E+00 0.  1.
         13    1    5    5    0    0 -0.26424200125E+02  0.81630867101E+01 -0.22614348003E+03  0.22782832988E+03  0.00000000000E+00 0. -1.
        -13    1    5    5    0    0 -0.33358855436E+03 -0.13461470794E+03 -0.15885027675E+04  0.16287244966E+04  0.00000000000E+00 0.  1.
          1    1    6    6  503    0  0.78285254896E+02 -0.86176312494E+02 -0.32919123754E+03  0.34917303567E+03  0.00000000000E+00 0. -1.
         -1    1    6    6    0  503  0.25388179742E+03 -0.53033013533E+03 -0.13398265721E+04  0.14631613932E+04  0.00000000000E+00 0.  1.
<mgrwt>
<rscale>  0 0.21404529E+04</rscale>
<asrwt>0</asrwt>
<pdfrwt beam="1">  1        1 0.67899445E+00 0.21404529E+04</pdfrwt>
<pdfrwt beam="2">  1       -2 0.39926241E-01 0.21404529E+04</pdfrwt>
<totfact> 0.19025990E-01</totfact>
</mgrwt>
</event>
<event>
12    5  0.5428626E-008  0.1524370E+04  0.7818608E-02  0.8868407E-01
          1   -1    0    0  501    0  0.00000000000E+00  0.00000000000E+00  0.13595194138E+04  0.13595194138E+04  0.00000000000E+00 0. -1.
         -2   -1    0    0    0  501 -0.00000000000E+00 -0.00000000000E+00 -0.42730270453E+03  0.42730270453E+03  0.00000000000E+00 0.  1.
        -24    2    1    2    0    0 -0.39012901717E+03  0.20582481795E+03  0.53721193531E+02  0.45161029751E+03  0.80631187892E+02 0.  0.
        254    2    1    2    0    0  0.39012901717E+03 -0.20582481795E+03  0.87849551573E+03  0.13352118208E+04  0.90358825221E+03 0.  0.
         23    2    4    4    0    0  0.14867713950E+03  0.79554108815E+02 -0.14587401675E+03  0.24079808521E+03  0.90943614595E+02 0.  0.
         23    2    4    4    0    0  0.24145187767E+03 -0.28537892676E+03  0.10243695325E+04  0.10944137356E+04  0.93103944688E+02 0.  0.
          1    1    3    3  502    0 -0.16238218504E+03  0.91830937829E+02  0.62599648869E+02  0.19677299408E+03  0.00000000000E+00 0. -1.
         -2    1    3    3    0  502 -0.22774683213E+03  0.11399388012E+03 -0.88784553378E+01  0.25483730343E+03  0.00000000000E+00 0.  1.
         13    1    5    5    0    0  0.28739158539E+02  0.53557716616E+02 -0.83088424092E+02  0.10294685260E+03  0.00000000000E+00 0. -1.
        -13    1    5    5    0    0  0.11993798096E+03  0.25996392199E+02 -0.62785592661E+02  0.13785123260E+03  0.00000000000E+00 0.  1.
          3    1    6    6  503    0  0.53733860830E+01 -0.23281867406E+01  0.86803182606E+02  0.87000495642E+02  0.00000000000E+00 0. -1.
         -3    1    6    6    0  503  0.23607849159E+03 -0.28305074002E+03  0.93756634988E+03  0.10074132400E+04  0.00000000000E+00 0.  1.
<mgrwt>
<rscale>  0 0.15243705E+04</rscale>
<asrwt>0</asrwt>
<pdfrwt beam="1">  1        1 0.20915683E+00 0.15243705E+04</pdfrwt>
<pdfrwt beam="2">  1       -2 0.65738878E-01 0.15243705E+04</pdfrwt>
<totfact> 0.14806347E+01</totfact>
</mgrwt>
</event>
<event>
12    5  0.5428626E-008  0.1742639E+04  0.7818608E-02  0.8737412E-01
         -4   -1    0    0    0  501 -0.00000000000E+00  0.00000000000E+00  0.14597428858E+04  0.14597428858E+04  0.00000000000E+00 0.  1.
          3   -1    0    0  501    0  0.00000000000E+00 -0.00000000000E+00 -0.52009009390E+03  0.52009009390E+03  0.00000000000E+00 0. -1.
        -24    2    1    2    0    0  0.57019771178E+03 -0.74832113252E+02 -0.34298715634E+02  0.58137524319E+03  0.78073656268E+02 0.  0.
        254    2    1    2    0    0 -0.57019771178E+03  0.74832113252E+02  0.97395150751E+03  0.13984577365E+04  0.82242156225E+03 0.  0.
         23    2    4    4    0    0  0.17696402295E+03 -0.22595107259E+02  0.57335901152E+02  0.20838212194E+03  0.91153161735E+02 0.  0.
         23    2    4    4    0    0 -0.74716173473E+03  0.97427220510E+02  0.91661560636E+03  0.11900756145E+04  0.91395171456E+02 0.  0.
          1    1    3    3  502    0  0.25611554719E+03 -0.67386642993E+02  0.41214555028E+01  0.26486434181E+03  0.00000000000E+00 0. -1.
         -4    1    3    3    0  502  0.31408216458E+03 -0.74454702593E+01 -0.38420171137E+02  0.31651090137E+03  0.00000000000E+00 0.  1.
         13    1    5    5    0    0  0.11483704609E+03  0.97474955352E+01 -0.39440024005E+01  0.11531745739E+03  0.00000000000E+00 0.  1.
        -13    1    5    5    0    0  0.62126976859E+02 -0.32342602794E+02  0.61279903552E+02  0.93064664554E+02  0.00000000000E+00 0. -1.
          4    1    6    6  503    0 -0.53160847926E+03  0.36226633569E+02  0.68459727047E+03  0.86752139278E+03  0.00000000000E+00 0.  1.
         -4    1    6    6    0  503 -0.21555325547E+03  0.61200586941E+02  0.23201833588E+03  0.32255422176E+03  0.00000000000E+00 0. -1.
<mgrwt>
<rscale>  0 0.17426392E+04</rscale>
<asrwt>0</asrwt>
<pdfrwt beam="1">  1        3 0.80013861E-01 0.17426392E+04</pdfrwt>
<pdfrwt beam="2">  1       -4 0.22457583E+00 0.17426392E+04</pdfrwt>
<totfact> 0.28772537E-01</totfact>
</mgrwt>
</event>
<event>
12    5  0.5428626E-008  0.2279779E+04  0.7818608E-02  0.8485937E-01
         -2   -1    0    0    0  501 -0.00000000000E+00  0.00000000000E+00  0.16678927402E+04  0.16678927402E+04  0.00000000000E+00 0.  1.
          1   -1    0    0  501    0  0.00000000000E+00 -0.00000000000E+00 -0.77903607625E+03  0.77903607625E+03  0.00000000000E+00 0. -1.
        -24    2    1    2    0    0  0.32517720693E+03 -0.73703550672E+03  0.93120419146E+03  0.12338681542E+04  0.79547606970E+02 0.  0.
        254    2    1    2    0    0 -0.32517720693E+03  0.73703550672E+03 -0.42347527481E+02  0.12130606622E+04  0.90595877563E+03 0.  0.
         23    2    4    4    0    0  0.25623309696E+03  0.64694471631E+01 -0.40749506608E+02  0.27490624383E+03  0.90640315982E+02 0.  0.
         23    2    4    4    0    0 -0.58141030390E+03  0.73056605955E+03 -0.15980208730E+01  0.93815441842E+03  0.91468302039E+02 0.  0.
          3    1    3    3  502    0  0.94592558544E+02 -0.14163420591E+03  0.17577253794E+03  0.24475290705E+03  0.00000000000E+00 0. -1.
         -4    1    3    3    0  502  0.23058464839E+03 -0.59540130081E+03  0.75543165352E+03  0.98911524719E+03  0.00000000000E+00 0.  1.
         13    1    5    5    0    0  0.72604053287E+02  0.36453767320E+02  0.10496451547E+02  0.81917038525E+02  0.00000000000E+00 0. -1.
        -13    1    5    5    0    0  0.18362904368E+03 -0.29984320157E+02 -0.51245958155E+02  0.19298920530E+03  0.00000000000E+00 0.  1.
          4    1    6    6  503    0 -0.17403599682E+03  0.15660289611E+03 -0.86473706605E+01  0.23428139550E+03  0.00000000000E+00 0. -1.
         -4    1    6    6    0  503 -0.40737430708E+03  0.57396316344E+03  0.70493497874E+01  0.70387302292E+03  0.00000000000E+00 0.  1.
<mgrwt>
<rscale>  0 0.22797795E+04</rscale>
<asrwt>0</asrwt>
<pdfrwt beam="1">  1        1 0.11985170E+00 0.22797795E+04</pdfrwt>
<pdfrwt beam="2">  1       -2 0.25659888E+00 0.22797795E+04</pdfrwt>
<totfact> 0.10715223E+00</totfact>
</mgrwt>
</event>
<event>
12    5  0.5428626E-008  0.1400083E+04  0.7818608E-02  0.8953758E-01
         -4   -1    0    0    0  501 -0.00000000000E+00  0.00000000000E+00  0.77012737121E+03  0.77012737121E+03  0.00000000000E+00 0.  1.
          3   -1    0    0  501    0  0.00000000000E+00 -0.00000000000E+00 -0.63633382450E+03  0.63633382450E+03  0.00000000000E+00 0. -1.
        -24    2    1    2    0    0  0.19885185328E+03 -0.14344201036E+03 -0.28195615955E+03  0.38171013062E+03  0.78010755810E+02 0.  0.
        254    2    1    2    0    0 -0.19885185328E+03  0.14344201036E+03  0.41574970626E+03  0.10247510651E+04  0.90396308400E+03 0.  0.
         23    2    4    4    0    0  0.11447312325E+03 -0.17945843504E+03 -0.16470548399E+03  0.28508167310E+03  0.93990627329E+02 0.  0.
         23    2    4    4    0    0 -0.31332497653E+03  0.32290044540E+03  0.58045519025E+03  0.73966939198E+03  0.88007630233E+02 0.  0.
          1    1    3    3  502    0  0.18046856275E+03 -0.10906499584E+03 -0.19849496546E+03  0.28959338178E+03  0.00000000000E+00 0. -1.
         -2    1    3    3    0  502  0.18383290530E+02 -0.34377014525E+02 -0.83461194089E+02  0.92116748841E+02  0.00000000000E+00 0.  1.
         13    1    5    5    0    0 -0.14205394829E+02 -0.17644812688E+02 -0.35037889684E+01  0.22921806085E+02  0.00000000000E+00 0.  1.
        -13    1    5    5    0    0  0.12867851808E+03 -0.16181362235E+03 -0.16120169503E+03  0.26215986702E+03  0.00000000000E+00 0. -1.
          3    1    6    6  503    0 -0.13601951212E+03  0.10949892717E+03  0.16606838318E+03  0.24097724088E+03  0.00000000000E+00 0. -1.
         -3    1    6    6    0  503 -0.17730546441E+03  0.21340151823E+03  0.41438680707E+03  0.49869215110E+03  0.00000000000E+00 0.  1.
<mgrwt>
<rscale>  0 0.14000830E+04</rscale>
<asrwt>0</asrwt>
<pdfrwt beam="1">  1        3 0.97897511E-01 0.14000830E+04</pdfrwt>
<pdfrwt beam="2">  1       -4 0.11848113E+00 0.14000830E+04</pdfrwt>
<totfact> 0.11192180E+00</totfact>
</mgrwt>
</event>
<event>
12    5  0.5428626E-008  0.1856827E+04  0.7818608E-02  0.8676650E-01
         -4   -1    0    0    0  501 -0.00000000000E+00  0.00000000000E+00  0.79692655738E+03  0.79692655738E+03  0.00000000000E+00 0.  1.
          1   -1    0    0  501    0  0.00000000000E+00 -0.00000000000E+00 -0.10815951357E+04  0.10815951357E+04  0.00000000000E+00 0. -1.
        -24    2    1    2    0    0 -0.48119108267E+03 -0.50712657851E+03 -0.52207735660E+02  0.70563777488E+03  0.80478549943E+02 0.  0.
        254    2    1    2    0    0  0.48119108267E+03  0.50712657851E+03 -0.23246084266E+03  0.11728839182E+04  0.91263158917E+03 0.  0.
         23    2    4    4    0    0  0.78101616994E+02  0.29332205559E+03  0.32023988635E+03  0.45060770834E+03  0.91411329357E+02 0.  0.
         23    2    4    4    0    0  0.40308946568E+03  0.21380452291E+03 -0.55270072901E+03  0.72227620986E+03  0.89506067572E+02 0.  0.
          1    1    3    3  502    0 -0.17629056296E+03 -0.24043245824E+03 -0.35093407868E+02  0.30019606400E+03  0.00000000000E+00 0. -1.
         -2    1    3    3    0  502 -0.30490051971E+03 -0.26669412027E+03 -0.17114327792E+02  0.40544171088E+03  0.00000000000E+00 0.  1.
         13    1    5    5    0    0  0.51817472636E+02  0.63101740735E+02  0.55201870810E+02  0.98560269354E+02  0.00000000000E+00 0. -1.
        -13    1    5    5    0    0  0.26284144358E+02  0.23022031486E+03  0.26503801554E+03  0.35204743899E+03  0.00000000000E+00 0.  1.
          3    1    6    6  503    0  0.31117788969E+03  0.16885173813E+03 -0.48139378004E+03  0.59756385430E+03  0.00000000000E+00 0. -1.
         -3    1    6    6    0  503  0.91911575982E+02  0.44952784779E+02 -0.71306948967E+02  0.12471235556E+03  0.00000000000E+00 0.  1.
<mgrwt>
<rscale>  0 0.18568273E+04</rscale>
<asrwt>0</asrwt>
<pdfrwt beam="1">  1        1 0.16639925E+00 0.18568273E+04</pdfrwt>
<pdfrwt beam="2">  1       -4 0.12260409E+00 0.18568273E+04</pdfrwt>
<totfact> 0.29980369E+00</totfact>
</mgrwt>
</event>
<event>
12    5  0.5428626E-008  0.1404197E+04  0.7818608E-02  0.8950786E-01
         -2   -1    0    0    0  501 -0.00000000000E+00  0.00000000000E+00  0.93444529339E+03  0.93444529339E+03  0.00000000000E+00 0.  1.
          1   -1    0    0  501    0  0.00000000000E+00 -0.00000000000E+00 -0.52752408027E+03  0.52752408027E+03  0.00000000000E+00 0. -1.
        -24    2    1    2    0    0 -0.17771300940E+03  0.11030152856E+03 -0.24822723543E+03  0.33439814940E+03  0.80355590975E+02 0.  0.
        254    2    1    2    0    0  0.17771300940E+03 -0.11030152856E+03  0.65514844855E+03  0.11275712243E+04  0.89355975471E+03 0.  0.
         23    2    4    4    0    0  0.15368629323E+02  0.35760552954E+03  0.45385236866E+03  0.58536542863E+03  0.92481365560E+02 0.  0.
         23    2    4    4    0    0  0.16234438007E+03 -0.46790705810E+03  0.20129607990E+03  0.54220579563E+03  0.90411837033E+02 0.  0.
          3    1    3    3  502    0 -0.16199201800E+03  0.11579402506E+03 -0.19529531092E+03  0.27890845918E+03  0.00000000000E+00 0. -1.
         -4    1    3    3    0  502 -0.15720991402E+02 -0.54924965030E+01 -0.52931924507E+02  0.55489690218E+02  0.00000000000E+00 0.  1.
         13    1    5    5    0    0 -0.20139582274E+02  0.28893172147E+03  0.38543969181E+03  0.48213161945E+03  0.00000000000E+00 0. -1.
        -13    1    5    5    0    0  0.35508211597E+02  0.68673808071E+02  0.68412676845E+02  0.10323380919E+03  0.00000000000E+00 0.  1.
          4    1    6    6  503    0  0.11045753947E+03 -0.18415149612E+03  0.94469093255E+02  0.23459976797E+03  0.00000000000E+00 0. -1.
         -4    1    6    6    0  503  0.51886840601E+02 -0.28375556198E+03  0.10682698664E+03  0.30760602767E+03  0.00000000000E+00 0.  1.
<mgrwt>
<rscale>  0 0.14041971E+04</rscale>
<asrwt>0</asrwt>
<pdfrwt beam="1">  1        1 0.81157551E-01 0.14041971E+04</pdfrwt>
<pdfrwt beam="2">  1       -2 0.14376081E+00 0.14041971E+04</pdfrwt>
<totfact> 0.11745961E+01</totfact>
</mgrwt>
</event>
<event>
12    5  0.5428626E-008  0.1232157E+04  0.7818608E-02  0.9085166E-01
          1   -1    0    0  501    0  0.00000000000E+00  0.00000000000E+00  0.98470913206E+03  0.98470913206E+03  0.00000000000E+00 0. -1.
         -2   -1    0    0    0  501 -0.00000000000E+00 -0.00000000000E+00 -0.38544674562E+03  0.38544674562E+03  0.00000000000E+00 0.  1.
        -24    2    1    2    0    0  0.13666171106E+03  0.24855810962E+03  0.50771743058E+02  0.29874764335E+03  0.78834176503E+02 0.  0.
        254    2    1    2    0    0 -0.13666171106E+03 -0.24855810962E+03  0.54849064338E+03  0.10714082343E+04  0.87556613775E+03 0.  0.
         23    2    4    4    0    0 -0.49744562630E+03 -0.11581829136E+03  0.37036796578E+03  0.63754082662E+03  0.91759728591E+02 0.  0.
         23    2    4    4    0    0  0.36078391524E+03 -0.13273981826E+03  0.17812267761E+03  0.43386740771E+03  0.93425619308E+02 0.  0.
          1    1    3    3  502    0  0.14424930705E+02  0.98575751890E+02  0.30571862679E+02  0.10421082609E+03  0.00000000000E+00 0. -1.
         -2    1    3    3    0  502  0.12223678035E+03  0.14998235773E+03  0.20199880380E+02  0.19453681726E+03  0.00000000000E+00 0.  1.
         13    1    5    5    0    0 -0.76486862247E+02 -0.98481571892E+01  0.99441861501E+02  0.12584081260E+03  0.00000000000E+00 0.  1.
        -13    1    5    5    0    0 -0.42095876405E+03 -0.10597013417E+03  0.27092610427E+03  0.51170001402E+03  0.00000000000E+00 0. -1.
          4    1    6    6  503    0  0.27919014035E+03 -0.12999683927E+03  0.17012596236E+03  0.35183683115E+03  0.00000000000E+00 0. -1.
         -4    1    6    6    0  503  0.81593774895E+02 -0.27429789969E+01  0.79967152487E+01  0.82030576556E+02  0.00000000000E+00 0.  1.
<mgrwt>
<rscale>  0 0.12321573E+04</rscale>
<asrwt>0</asrwt>
<pdfrwt beam="1">  1        1 0.15149371E+00 0.12321573E+04</pdfrwt>
<pdfrwt beam="2">  1       -2 0.59299500E-01 0.12321573E+04</pdfrwt>
<totfact> 0.35752429E+01</totfact>
</mgrwt>
</event>
<event>
12    5  0.5428626E-008  0.1190060E+04  0.7818608E-02  0.9121602E-01
          1   -1    0    0  501    0  0.00000000000E+00  0.00000000000E+00  0.16484937096E+04  0.16484937096E+04  0.00000000000E+00 0. -1.
         -2   -1    0    0    0  501 -0.00000000000E+00 -0.00000000000E+00 -0.21477815456E+03  0.21477815456E+03  0.00000000000E+00 0.  1.
        -24    2    1    2    0    0  0.17384116191E+03 -0.13570188160E+03  0.51899151289E+03  0.56953635177E+03  0.79898155739E+02 0.  0.
        254    2    1    2    0    0 -0.17384116191E+03  0.13570188160E+03  0.91472404219E+03  0.12937355124E+04  0.88791652339E+03 0.  0.
         23    2    4    4    0    0  0.19902134987E+03  0.29942245245E+03  0.11072431229E+03  0.38686578739E+03  0.90232817649E+02 0.  0.
         23    2    4    4    0    0 -0.37286251178E+03 -0.16372057085E+03  0.80399972990E+03  0.90686972504E+03  0.10082784588E+03 0.  0.
          3    1    3    3  502    0  0.12592689437E+03 -0.50901433250E+02  0.27182031086E+03  0.30386645098E+03  0.00000000000E+00 0. -1.
         -4    1    3    3    0  502  0.47914267538E+02 -0.84800448354E+02  0.24717120203E+03  0.26566990079E+03  0.00000000000E+00 0.  1.
         13    1    5    5    0    0  0.10269895240E+03  0.90227345561E+02  0.67801948547E+02  0.15259473431E+03  0.00000000000E+00 0.  1.
        -13    1    5    5    0    0  0.96322397468E+02  0.20919510689E+03  0.42922363742E+02  0.23427105308E+03  0.00000000000E+00 0. -1.
          3    1    6    6  503    0 -0.28124797634E+03 -0.10493661365E+03  0.49112571862E+03  0.57560106721E+03  0.00000000000E+00 0. -1.
         -3    1    6    6    0  503 -0.91614535440E+02 -0.58783957201E+02  0.31287401128E+03  0.33126865783E+03  0.00000000000E+00 0.  1.
<mgrwt>
<rscale>  0 0.11900596E+04</rscale>
<asrwt>0</asrwt>
<pdfrwt beam="1">  1        1 0.25361441E+00 0.11900596E+04</pdfrwt>
<pdfrwt beam="2">  1       -2 0.33042794E-01 0.11900596E+04</pdfrwt>
<totfact> 0.38417435E+01</totfact>
</mgrwt>
</event>
<event>
12    5  0.5428626E-008  0.1748398E+04  0.7818608E-02  0.8734232E-01
          1   -1    0    0  501    0  0.00000000000E+00  0.00000000000E+00  0.41609327574E+03  0.41609327574E+03  0.00000000000E+00 0. -1.
         -2   -1    0    0    0  501 -0.00000000000E+00 -0.00000000000E+00 -0.18366658821E+04  0.18366658821E+04  0.00000000000E+00 0.  1.
        -24    2    1    2    0    0  0.13159920736E+03 -0.47900354933E+03 -0.10355245038E+04  0.11512278771E+04  0.79068801343E+02 0.  0.
        254    2    1    2    0    0 -0.13159920736E+03  0.47900354933E+03 -0.38504810252E+03  0.11015312807E+04  0.90462498833E+03 0.  0.
         23    2    4    4    0    0  0.23202807783E+03  0.50973440166E+03 -0.44409717999E+03  0.72062792932E+03  0.91739403242E+02 0.  0.
         23    2    4    4    0    0 -0.36362728519E+03 -0.30730852338E+02  0.59049077462E+02  0.38090335140E+03  0.91822555706E+02 0.  0.
          1    1    3    3  502    0  0.61648789530E+02 -0.12745898174E+03 -0.35236275800E+03  0.37974449107E+03  0.00000000000E+00 0. -1.
         -2    1    3    3    0  502  0.69950417834E+02 -0.35154456758E+03 -0.68316174580E+03  0.77148338600E+03  0.00000000000E+00 0.  1.
         13    1    5    5    0    0  0.14304230716E+03  0.40185424640E+03 -0.31443856205E+03  0.52992409484E+03  0.00000000000E+00 0. -1.
        -13    1    5    5    0    0  0.88985770666E+02  0.10788015526E+03 -0.12965861794E+03  0.19070383448E+03  0.00000000000E+00 0.  1.
          2    1    6    6  503    0 -0.29085421375E+03 -0.44080708603E+02  0.78368128729E+02  0.30443529054E+03  0.00000000000E+00 0. -1.
         -2    1    6    6    0  503 -0.72773071441E+02  0.13349856265E+02 -0.19319051266E+02  0.76468060856E+02  0.00000000000E+00 0.  1.
<mgrwt>
<rscale>  0 0.17483985E+04</rscale>
<asrwt>0</asrwt>
<pdfrwt beam="1">  1        1 0.64014348E-01 0.17483985E+04</pdfrwt>
<pdfrwt beam="2">  1       -2 0.28256399E+00 0.17483985E+04</pdfrwt>
<totfact> 0.19186385E+00</totfact>
</mgrwt>
</event>
<event>
12    5  0.5428626E-008  0.1840635E+04  0.7818608E-02  0.8684984E-01
         -2   -1    0    0    0  501 -0.00000000000E+00  0.00000000000E+00  0.66568565790E+03  0.66568565790E+03  0.00000000000E+00 0.  1.
          1   -1    0    0  501    0  0.00000000000E+00 -0.00000000000E+00 -0.12723490112E+04  0.12723490112E+04  0.00000000000E+00 0. -1.
        -24    2    1    2    0    0  0.10453304321E+03  0.12589812497E+03  0.44861337804E+03  0.48402441076E+03  0.79045380993E+02 0.  0.
        254    2    1    2    0    0 -0.10453304321E+03 -0.12589812497E+03 -0.10552767314E+04  0.14540102584E+04  0.98679245876E+03 0.  0.
         23    2    4    4    0    0 -0.35535079986E+03  0.27510103526E+03 -0.76267556492E+03  0.89024361930E+03  0.94365850812E+02 0.  0.
         23    2    4    4    0    0  0.25081775665E+03 -0.40099916024E+03 -0.29260116643E+03  0.56376663906E+03  0.92236148889E+02 0.  0.
          3    1    3    3  502    0  0.23226163884E+01  0.50006103879E+02  0.83532045334E+02  0.97383815749E+02  0.00000000000E+00 0. -1.
         -4    1    3    3    0  502  0.10221042683E+03  0.75892021094E+02  0.36508133271E+03  0.38664059501E+03  0.00000000000E+00 0.  1.
         13    1    5    5    0    0 -0.11987688317E+03  0.69170325873E+02 -0.16260391871E+03  0.21352994047E+03  0.00000000000E+00 0.  1.
        -13    1    5    5    0    0 -0.23547391670E+03  0.20593070939E+03 -0.60007164622E+03  0.67671367882E+03  0.00000000000E+00 0. -1.
          2    1    6    6  503    0  0.25745703210E+03 -0.39820727958E+03 -0.29109751187E+03  0.55640895239E+03  0.00000000000E+00 0. -1.
         -2    1    6    6    0  503 -0.66392754494E+01 -0.27918806616E+01 -0.15036545614E+01  0.73576866719E+01  0.00000000000E+00 0.  1.
<mgrwt>
<rscale>  0 0.18406352E+04</rscale>
<asrwt>0</asrwt>
<pdfrwt beam="1">  1        1 0.19574600E+00 0.18406352E+04</pdfrwt>
<pdfrwt beam="2">  1       -2 0.10241318E+00 0.18406352E+04</pdfrwt>
<totfact> 0.60956625E+00</totfact>
</mgrwt>
</event>
<event>
12    5  0.5428626E-008  0.1344889E+04  0.7818608E-02  0.8994706E-01
          1   -1    0    0  501    0  0.00000000000E+00  0.00000000000E+00  0.10731676541E+04  0.10731676541E+04  0.00000000000E+00 0. -1.
         -2   -1    0    0    0  501 -0.00000000000E+00 -0.00000000000E+00 -0.42135222499E+03  0.42135222499E+03  0.00000000000E+00 0.  1.
        -24    2    1    2    0    0  0.33134608609E+03 -0.39867917173E+01  0.11789838923E+02  0.34108976890E+03  0.79981915917E+02 0.  0.
        254    2    1    2    0    0 -0.33134608609E+03  0.39867917173E+01  0.64002559015E+03  0.11534301101E+04  0.90053436340E+03 0.  0.
         23    2    4    4    0    0 -0.56844785083E+03 -0.13395765084E+03  0.63055378492E+03  0.86439061211E+03  0.92170729108E+02 0.  0.
         23    2    4    4    0    0  0.23710176474E+03  0.13794444255E+03  0.94718052322E+01  0.28903949803E+03  0.90599118408E+02 0.  0.
          3    1    3    3  502    0  0.22074914893E+03 -0.16012635482E+02  0.43169829827E+02  0.22549994558E+03  0.00000000000E+00 0. -1.
         -4    1    3    3    0  502  0.11059693716E+03  0.12025843764E+02 -0.31379990904E+02  0.11558982332E+03  0.00000000000E+00 0.  1.
         13    1    5    5    0    0 -0.13502356693E+03 -0.66002367622E+02  0.12927756319E+03  0.19824319535E+03  0.00000000000E+00 0. -1.
        -13    1    5    5    0    0 -0.43342428390E+03 -0.67955283214E+02  0.50127622173E+03  0.66614741676E+03  0.00000000000E+00 0.  1.
          4    1    6    6  503    0  0.10072257140E+02  0.40569467636E+02  0.33059092603E+01  0.41931624154E+02  0.00000000000E+00 0. -1.
         -4    1    6    6    0  503  0.22702950760E+03  0.97374974917E+02  0.61658959718E+01  0.24710787388E+03  0.00000000000E+00 0.  1.
<mgrwt>
<rscale>  0 0.13448890E+04</rscale>
<asrwt>0</asrwt>
<pdfrwt beam="1">  1        1 0.16510271E+00 0.13448890E+04</pdfrwt>
<pdfrwt beam="2">  1       -2 0.64823420E-01 0.13448890E+04</pdfrwt>
<totfact> 0.25051424E+01</totfact>
</mgrwt>
</event>
<event>
12    5  0.5428626E-008  0.2237470E+04  0.7818608E-02  0.8502992E-01
          3   -1    0    0  501    0  0.00000000000E+00  0.00000000000E+00  0.38002809162E+04  0.38002809162E+04  0.00000000000E+00 0. -1.
         -4   -1    0    0    0  501 -0.00000000000E+00 -0.00000000000E+00 -0.32933566049E+03  0.32933566049E+03  0.00000000000E+00 0.  1.
        -24    2    1    2    0    0  0.31714148177E+02  0.78207330399E+03  0.23821570400E+04  0.25087237229E+04  0.79863099380E+02 0.  0.
        254    2    1    2    0    0 -0.31714148177E+02 -0.78207330399E+03  0.10887882158E+04  0.16208928538E+04  0.91059838832E+03 0.  0.
         23    2    4    4    0    0 -0.23064435252E+03 -0.63431658760E+03  0.22401129271E+03  0.71677547584E+03  0.89619600771E+02 0.  0.
         23    2    4    4    0    0  0.19893020435E+03 -0.14775671638E+03  0.86477692306E+03  0.90411737800E+03  0.90464540578E+02 0.  0.
          1    1    3    3  502    0  0.54840571653E+02  0.67545005330E+03  0.20488110363E+04  0.21579775081E+04  0.00000000000E+00 0. -1.
         -2    1    3    3    0  502 -0.23126423475E+02  0.10662325069E+03  0.33334600368E+03  0.35074621483E+03  0.00000000000E+00 0.  1.
         13    1    5    5    0    0 -0.84820185758E+02 -0.23319688130E+03  0.12839086206E+03  0.27939123612E+03  0.00000000000E+00 0. -1.
        -13    1    5    5    0    0 -0.14582416677E+03 -0.40111970630E+03  0.95620430657E+02  0.43738423972E+03  0.00000000000E+00 0.  1.
          1    1    6    6  503    0  0.12747248781E+03 -0.54844914972E+02  0.35782640655E+03  0.38379283093E+03  0.00000000000E+00 0. -1.
         -1    1    6    6    0  503  0.71457716538E+02 -0.92911801411E+02  0.50695051651E+03  0.52032454707E+03  0.00000000000E+00 0.  1.
<mgrwt>
<rscale>  0 0.22374700E+04</rscale>
<asrwt>0</asrwt>
<pdfrwt beam="1">  1        3 0.58465857E+00 0.22374700E+04</pdfrwt>
<pdfrwt beam="2">  1       -4 0.50667027E-01 0.22374700E+04</pdfrwt>
<totfact> 0.10549094E-02</totfact>
</mgrwt>
</event>
<event>
12    5  0.5428626E-008  0.1791036E+04  0.7818608E-02  0.8711081E-01
          1   -1    0    0  501    0  0.00000000000E+00  0.00000000000E+00  0.32900781626E+04  0.32900781626E+04  0.00000000000E+00 0. -1.
         -2   -1    0    0    0  501 -0.00000000000E+00 -0.00000000000E+00 -0.24374879185E+03  0.24374879185E+03  0.00000000000E+00 0.  1.
        -24    2    1    2    0    0 -0.23176716404E+03 -0.56782449382E+03  0.62009024141E+03  0.87575859880E+03  0.79375952093E+02 0.  0.
        254    2    1    2    0    0  0.23176716404E+03  0.56782449382E+03  0.24262391294E+04  0.26580683557E+04  0.89585177151E+03 0.  0.
         23    2    4    4    0    0 -0.32870313420E+03  0.15765220188E+03  0.10149736443E+04  0.10825330957E+04  0.93842621546E+02 0.  0.
         23    2    4    4    0    0  0.56047029824E+03  0.41017229194E+03  0.14112654851E+04  0.15755352600E+04  0.90955052704E+02 0.  0.
          3    1    3    3  502    0  0.40760822020E+01 -0.22859324880E+02  0.13309310069E+02  0.26763798583E+02  0.00000000000E+00 0. -1.
         -4    1    3    3    0  502 -0.23584324624E+03 -0.54496516894E+03  0.60678093134E+03  0.84899480022E+03  0.00000000000E+00 0.  1.
         13    1    5    5    0    0 -0.22596344217E+03  0.12406089360E+03  0.82046721304E+03  0.86000990122E+03  0.00000000000E+00 0.  1.
        -13    1    5    5    0    0 -0.10273969203E+03  0.33591308279E+02  0.19450643122E+03  0.22252319451E+03  0.00000000000E+00 0. -1.
          3    1    6    6  503    0  0.16784933120E+03  0.15761023621E+03  0.54108728193E+03  0.58803897082E+03  0.00000000000E+00 0. -1.
         -3    1    6    6    0  503  0.39262096705E+03  0.25256205573E+03  0.87017820318E+03  0.98749628913E+03  0.00000000000E+00 0.  1.
<mgrwt>
<rscale>  0 0.17910361E+04</rscale>
<asrwt>0</asrwt>
<pdfrwt beam="1">  1        1 0.50616584E+00 0.17910361E+04</pdfrwt>
<pdfrwt beam="2">  1       -2 0.37499816E-01 0.17910361E+04</pdfrwt>
<totfact> 0.20319804E+00</totfact>
</mgrwt>
</event>
<event>
12    5  0.5428626E-008  0.1139192E+04  0.7818608E-02  0.9167813E-01
         -2   -1    0    0    0  501 -0.00000000000E+00  0.00000000000E+00  0.10986420766E+04  0.10986420766E+04  0.00000000000E+00 0.  1.
          1   -1    0    0  501    0  0.00000000000E+00 -0.00000000000E+00 -0.29530960492E+03  0.29530960492E+03  0.00000000000E+00 0. -1.
        -24    2    1    2    0    0  0.13142116042E+03  0.21945108214E+02 -0.32759009539E+02  0.15919767780E+03  0.80731894148E+02 0.  0.
        254    2    1    2    0    0 -0.13142116042E+03 -0.21945108214E+02  0.83609148124E+03  0.12347540037E+04  0.89878550031E+03 0.  0.
         23    2    4    4    0    0 -0.41510027993E+03  0.25946518014E+03  0.42937942559E+03  0.65748879427E+03  0.91073604089E+02 0.  0.
         23    2    4    4    0    0  0.28367911951E+03 -0.28141028835E+03  0.40671205565E+03  0.57726520948E+03  0.90304111912E+02 0.  0.
          3    1    3    3  502    0  0.54461404223E+02  0.48542605644E+02 -0.48295474302E+01  0.73114660917E+02  0.00000000000E+00 0. -1.
         -4    1    3    3    0  502  0.76959756192E+02 -0.26597497429E+02 -0.27929462109E+02  0.86083016887E+02  0.00000000000E+00 0.  1.
         13    1    5    5    0    0 -0.14507912945E+03  0.11195135732E+03  0.10867154415E+03  0.21305061538E+03  0.00000000000E+00 0.  1.
        -13    1    5    5    0    0 -0.27002115048E+03  0.14751382282E+03  0.32070788144E+03  0.44443817888E+03  0.00000000000E+00 0. -1.
          2    1    6    6  503    0  0.12443951937E+03 -0.11242007427E+03  0.11024809056E+03  0.20069406706E+03  0.00000000000E+00 0. -1.
         -2    1    6    6    0  503  0.15923960014E+03 -0.16899021408E+03  0.29646396509E+03  0.37657114242E+03  0.00000000000E+00 0.  1.
<mgrwt>
<rscale>  0 0.11391919E+04</rscale>
<asrwt>0</asrwt>
<pdfrwt beam="1">  1        1 0.45432247E-01 0.11391919E+04</pdfrwt>
<pdfrwt beam="2">  1       -2 0.16902186E+00 0.11391919E+04</pdfrwt>
<totfact> 0.16792434E+01</totfact>
</mgrwt>
</event>
<event>
12    5  0.5428626E-008  0.1298439E+04  0.7818608E-02  0.9030804E-01
         -2   -1    0    0    0  501 -0.00000000000E+00  0.00000000000E+00  0.13938209653E+04  0.13938209653E+04  0.00000000000E+00 0.  1.
          1   -1    0    0  501    0  0.00000000000E+00 -0.00000000000E+00 -0.30239589924E+03  0.30239589924E+03  0.00000000000E+00 0. -1.
        -24    2    1    2    0    0  0.33701383834E+03 -0.83725338366E+02  0.27663844947E+03  0.45151782476E+03  0.82166019947E+02 0.  0.
        254    2    1    2    0    0 -0.33701383834E+03  0.83725338366E+02  0.81478661664E+03  0.12446990398E+04  0.87453428154E+03 0.  0.
         23    2    4    4    0    0 -0.25766776506E+03 -0.52050094390E+02  0.96805914211E+03  0.10073946152E+04  0.92755153899E+02 0.  0.
         23    2    4    4    0    0 -0.79346073276E+02  0.13577543276E+03 -0.15327252548E+03  0.23730442466E+03  0.89945291211E+02 0.  0.
          3    1    3    3  502    0  0.23738967597E+03 -0.80415192703E+02  0.15681661719E+03  0.29565505729E+03  0.00000000000E+00 0. -1.
         -2    1    3    3    0  502  0.99624162366E+02 -0.33101456634E+01  0.11982183228E+03  0.15586276747E+03  0.00000000000E+00 0.  1.
         13    1    5    5    0    0 -0.24333863929E+03 -0.72296353628E+02  0.88935398367E+03  0.92487348562E+03  0.00000000000E+00 0.  1.
        -13    1    5    5    0    0 -0.14329125769E+02  0.20246259238E+02  0.78705158441E+02  0.82521129558E+02  0.00000000000E+00 0. -1.
          3    1    6    6  503    0 -0.38707209860E+02  0.23074150793E+02 -0.92667278384E+02  0.10304314151E+03  0.00000000000E+00 0. -1.
         -3    1    6    6    0  503 -0.40638863416E+02  0.11270128196E+03 -0.60605247092E+02  0.13426128314E+03  0.00000000000E+00 0.  1.
<mgrwt>
<rscale>  0 0.12984387E+04</rscale>
<asrwt>0</asrwt>
<pdfrwt beam="1">  1        1 0.46522447E-01 0.12984387E+04</pdfrwt>
<pdfrwt beam="2">  1       -2 0.21443399E+00 0.12984387E+04</pdfrwt>
<totfact> 0.79792281E+00</totfact>
</mgrwt>
</event>
<event>
12    5  0.5428626E-008  0.1837641E+04  0.7818608E-02  0.8686535E-01
          1   -1    0    0  501    0  0.00000000000E+00  0.00000000000E+00  0.81982434539E+03  0.81982434539E+03  0.00000000000E+00 0. -1.
         -2   -1    0    0    0  501 -0.00000000000E+00 -0.00000000000E+00 -0.10297708543E+04  0.10297708543E+04  0.00000000000E+00 0.  1.
        -24    2    1    2    0    0 -0.30799693238E+03 -0.28344765621E+03  0.47952036572E+03  0.64144864138E+03  0.79447430566E+02 0.  0.
        254    2    1    2    0    0  0.30799693238E+03  0.28344765621E+03 -0.68946687468E+03  0.12081465583E+04  0.89947142867E+03 0.  0.
         23    2    4    4    0    0 -0.92791464448E+02 -0.13966182014E+03 -0.57645103907E+03  0.60726825401E+03  0.91450817438E+02 0.  0.
         23    2    4    4    0    0  0.40078839683E+03  0.42310947636E+03 -0.11301583561E+03  0.60087830433E+03  0.92893430883E+02 0.  0.
          3    1    3    3  502    0 -0.29803096059E+03 -0.24636639453E+03  0.44779078935E+03  0.59163793391E+03  0.00000000000E+00 0. -1.
         -4    1    3    3    0  502 -0.99659717972E+01 -0.37081261684E+02  0.31729576371E+02  0.49810707470E+02  0.00000000000E+00 0.  1.
         13    1    5    5    0    0 -0.55141678888E+02 -0.12434382220E+03 -0.52131986865E+03  0.53877304714E+03  0.00000000000E+00 0. -1.
        -13    1    5    5    0    0 -0.37649785560E+02 -0.15317997940E+02 -0.55131170418E+02  0.68495206878E+02  0.00000000000E+00 0.  1.
          1    1    6    6  503    0  0.36536876684E+03  0.33859645507E+03 -0.10322858303E+03  0.50872196289E+03  0.00000000000E+00 0. -1.
         -1    1    6    6    0  503  0.35419629990E+02  0.84513021286E+02 -0.97872525819E+01  0.92156341446E+02  0.00000000000E+00 0.  1.
<mgrwt>
<rscale>  0 0.18376411E+04</rscale>
<asrwt>0</asrwt>
<pdfrwt beam="1">  1        1 0.12612682E+00 0.18376411E+04</pdfrwt>
<pdfrwt beam="2">  1       -2 0.15842629E+00 0.18376411E+04</pdfrwt>
<totfact> 0.45296810E+00</totfact>
</mgrwt>
</event>
<event>
12    5  0.5428626E-008  0.3305280E+04  0.7818608E-02  0.8161553E-01
          1   -1    0    0  501    0  0.00000000000E+00  0.00000000000E+00  0.90242504005E+03  0.90242504005E+03  0.00000000000E+00 0. -1.
         -2   -1    0    0    0  501 -0.00000000000E+00 -0.00000000000E+00 -0.30265322861E+04  0.30265322861E+04  0.00000000000E+00 0.  1.
        -24    2    1    2    0    0  0.11680852690E+04  0.49311941443E+03  0.38578702215E+02  0.12712852151E+04  0.84189247548E+02 0.  0.
        254    2    1    2    0    0 -0.11680852690E+04 -0.49311941443E+03 -0.21626859483E+04  0.26576721111E+04  0.88228146680E+03 0.  0.
         23    2    4    4    0    0 -0.10072673807E+03  0.57077281290E+02  0.36771564540E+02  0.15011801491E+03  0.88201919698E+02 0.  0.
         23    2    4    4    0    0 -0.10673585309E+04 -0.55019669572E+03 -0.21994575128E+04  0.25075540962E+04  0.90794036648E+02 0.  0.
          3    1    3    3  502    0  0.11002611169E+04  0.45377455982E+03  0.53943443362E+02  0.11913839732E+04  0.00000000000E+00 0. -1.
         -4    1    3    3    0  502  0.67824152083E+02  0.39344854609E+02 -0.15364741147E+02  0.79901241921E+02  0.00000000000E+00 0.  1.
         13    1    5    5    0    0 -0.11148613855E+03  0.58631660160E+02  0.16399255111E+02  0.12702663591E+03  0.00000000000E+00 0. -1.
        -13    1    5    5    0    0  0.10759400481E+02 -0.15543788702E+01  0.20372309430E+02  0.23091378995E+02  0.00000000000E+00 0.  1.
          4    1    6    6  503    0 -0.52727426957E+03 -0.26724590209E+03 -0.11769487862E+04  0.13170599732E+04  0.00000000000E+00 0. -1.
         -4    1    6    6    0  503 -0.54008426131E+03 -0.28295079362E+03 -0.10225087266E+04  0.11904941230E+04  0.00000000000E+00 0.  1.
<mgrwt>
<rscale>  0 0.33052797E+04</rscale>
<asrwt>0</asrwt>
<pdfrwt beam="1">  1        1 0.13883462E+00 0.33052797E+04</pdfrwt>
<pdfrwt beam="2">  1       -2 0.46562035E+00 0.33052797E+04</pdfrwt>
<totfact> 0.36042056E-02</totfact>
</mgrwt>
</event>
<event>
12    5  0.5428626E-008  0.1583281E+04  0.7818608E-02  0.8830885E-01
         -2   -1    0    0    0  501 -0.00000000000E+00  0.00000000000E+00  0.10033353050E+04  0.10033353050E+04  0.00000000000E+00 0.  1.
          1   -1    0    0  501    0  0.00000000000E+00 -0.00000000000E+00 -0.62461173300E+03  0.62461173300E+03  0.00000000000E+00 0. -1.
        -24    2    1    2    0    0  0.39119652269E+03  0.16302909512E+03  0.44132754980E+03  0.61715821720E+03  0.80629111488E+02 0.  0.
        254    2    1    2    0    0 -0.39119652269E+03 -0.16302909512E+03 -0.62603977812E+02  0.10107888208E+04  0.91551164764E+03 0.  0.
         23    2    4    4    0    0 -0.16724317876E+02  0.10976829061E+03  0.35358244854E+03  0.38147266267E+03  0.90399469114E+02 0.  0.
         23    2    4    4    0    0 -0.37447220482E+03 -0.27279738573E+03 -0.41618642635E+03  0.62931615812E+03  0.90442465427E+02 0.  0.
          3    1    3    3  502    0  0.71840887130E+02  0.25505525823E+02  0.39781155359E+02  0.85989448381E+02  0.00000000000E+00 0. -1.
         -2    1    3    3    0  502  0.31935563556E+03  0.13752356930E+03  0.40154639444E+03  0.53116876882E+03  0.00000000000E+00 0.  1.
         13    1    5    5    0    0 -0.11363266601E+02  0.68703354158E+02  0.32185655693E+03  0.32930368650E+03  0.00000000000E+00 0. -1.
        -13    1    5    5    0    0 -0.53610512751E+01  0.41064936450E+02  0.31725891608E+02  0.52168976171E+02  0.00000000000E+00 0.  1.
          1    1    6    6  503    0 -0.32331583863E+03 -0.19169912612E+03 -0.34027736347E+03  0.50702107506E+03  0.00000000000E+00 0. -1.
         -1    1    6    6    0  503 -0.51156366183E+02 -0.81098259614E+02 -0.75909062880E+02  0.12229508306E+03  0.00000000000E+00 0.  1.
<mgrwt>
<rscale>  0 0.15832814E+04</rscale>
<asrwt>0</asrwt>
<pdfrwt beam="1">  1        1 0.96094113E-01 0.15832814E+04</pdfrwt>
<pdfrwt beam="2">  1       -2 0.15435928E+00 0.15832814E+04</pdfrwt>
<totfact> 0.75353134E+00</totfact>
</mgrwt>
</event>
<event>
12    5  0.5428626E-008  0.1418349E+04  0.7818608E-02  0.8940643E-01
          1   -1    0    0  501    0  0.00000000000E+00  0.00000000000E+00  0.69103138161E+03  0.69103138161E+03  0.00000000000E+00 0. -1.
         -2   -1    0    0    0  501 -0.00000000000E+00 -0.00000000000E+00 -0.72779359751E+03  0.72779359751E+03  0.00000000000E+00 0.  1.
        -24    2    1    2    0    0 -0.27733123383E+03 -0.27745359563E+01  0.19968735694E+03  0.35141676043E+03  0.81843678291E+02 0.  0.
        254    2    1    2    0    0  0.27733123383E+03  0.27745359563E+01 -0.23644957285E+03  0.10674082187E+04  0.10032604814E+04 0.  0.
         23    2    4    4    0    0  0.17979754685E+02  0.44477656417E+03 -0.29743772863E+03  0.54324581688E+03  0.92181080117E+02 0.  0.
         23    2    4    4    0    0  0.25935147915E+03 -0.44200202821E+03  0.60988155785E+02  0.52416240181E+03  0.91638887206E+02 0.  0.
          1    1    3    3  502    0 -0.17366014160E+03 -0.16342265168E+02  0.16797518550E+03  0.24215816599E+03  0.00000000000E+00 0. -1.
         -2    1    3    3    0  502 -0.10367109224E+03  0.13567729212E+02  0.31712171446E+02  0.10925859444E+03  0.00000000000E+00 0.  1.
         13    1    5    5    0    0 -0.25498260862E+02  0.32712340625E+03 -0.23130463103E+03  0.40144951932E+03  0.00000000000E+00 0. -1.
        -13    1    5    5    0    0  0.43478015547E+02  0.11765315791E+03 -0.66133097599E+02  0.14179629756E+03  0.00000000000E+00 0.  1.
          3    1    6    6  503    0  0.23863948717E+03 -0.43620296904E+03  0.67297167813E+02  0.50174768941E+03  0.00000000000E+00 0. -1.
         -3    1    6    6    0  503  0.20711991981E+02 -0.57990591667E+01 -0.63090120278E+01  0.22414712396E+02  0.00000000000E+00 0.  1.
<mgrwt>
<rscale>  0 0.14183486E+04</rscale>
<asrwt>0</asrwt>
<pdfrwt beam="1">  1        1 0.10631252E+00 0.14183486E+04</pdfrwt>
<pdfrwt beam="2">  1       -2 0.11196824E+00 0.14183486E+04</pdfrwt>
<totfact> 0.14904588E+01</totfact>
</mgrwt>
</event>
<event>
12    5  0.5428626E-008  0.3929617E+04  0.7818608E-02  0.8018898E-01
         -2   -1    0    0    0  501 -0.00000000000E+00  0.00000000000E+00  0.48782093245E+04  0.48782093245E+04  0.00000000000E+00 0.  1.
          1   -1    0    0  501    0  0.00000000000E+00 -0.00000000000E+00 -0.79137071290E+03  0.79137071290E+03  0.00000000000E+00 0. -1.
        -24    2    1    2    0    0  0.18940955432E+03 -0.61394948858E+03 -0.58568791061E+03  0.87308326278E+03  0.80212850123E+02 0.  0.
        254    2    1    2    0    0 -0.18940955432E+03  0.61394948858E+03  0.46725265222E+04  0.47964967746E+04  0.87239168641E+03 0.  0.
         23    2    4    4    0    0 -0.22247911053E+03  0.39138405939E+03  0.44287230694E+04  0.44524917753E+04  0.91741738497E+02 0.  0.
         23    2    4    4    0    0  0.33069556211E+02  0.22256542918E+03  0.24380345274E+03  0.34400499932E+03  0.90941465650E+02 0.  0.
          3    1    3    3  502    0  0.18024715693E+03 -0.51774324028E+03 -0.46809962976E+03  0.72087749571E+03  0.00000000000E+00 0. -1.
         -4    1    3    3    0  502  0.91623973840E+01 -0.96206248294E+02 -0.11758828084E+03  0.15220576707E+03  0.00000000000E+00 0.  1.
         13    1    5    5    0    0 -0.14399570687E+03  0.31958029749E+03  0.31859505033E+04  0.32051750248E+04  0.00000000000E+00 0.  1.
        -13    1    5    5    0    0 -0.78483403655E+02  0.71803761907E+02  0.12427725661E+04  0.12473167505E+04  0.00000000000E+00 0. -1.
          2    1    6    6  503    0  0.46689355365E+02  0.18812086338E+03  0.15633744336E+03  0.24901958024E+03  0.00000000000E+00 0.  1.
         -2    1    6    6    0  503 -0.13619799154E+02  0.34444565799E+02  0.87466009375E+02  0.94985419081E+02  0.00000000000E+00 0. -1.
<mgrwt>
<rscale>  0 0.39296168E+04</rscale>
<asrwt>0</asrwt>
<pdfrwt beam="1">  1        1 0.12174934E+00 0.39296168E+04</pdfrwt>
<pdfrwt beam="2">  1       -2 0.75049372E+00 0.39296168E+04</pdfrwt>
<totfact> 0.22154357E-03</totfact>
</mgrwt>
</event>
<event>
12    5  0.5428626E-008  0.2116436E+04  0.7818608E-02  0.8554038E-01
         -2   -1    0    0    0  501 -0.00000000000E+00  0.00000000000E+00  0.97957019047E+03  0.97957019047E+03  0.00000000000E+00 0.  1.
          1   -1    0    0  501    0  0.00000000000E+00 -0.00000000000E+00 -0.11431801980E+04  0.11431801980E+04  0.00000000000E+00 0. -1.
        -24    2    1    2    0    0  0.27506097828E+03  0.52853700989E+03 -0.68907677275E+03  0.91457187574E+03  0.81271179127E+02 0.  0.
        254    2    1    2    0    0 -0.27506097828E+03 -0.52853700989E+03  0.52546676527E+03  0.12081785127E+04  0.91025825155E+03 0.  0.
         23    2    4    4    0    0  0.13906460436E+03 -0.11438420651E+03 -0.19099501401E+03  0.27804760525E+03  0.91698770571E+02 0.  0.
         23    2    4    4    0    0 -0.41412558263E+03 -0.41415280338E+03  0.71646177928E+03  0.93013090743E+03  0.93826867438E+02 0.  0.
          3    1    3    3  502    0  0.24191087192E+03  0.50168804495E+03 -0.62046473153E+03  0.83377949571E+03  0.00000000000E+00 0. -1.
         -4    1    3    3    0  502  0.33150106357E+02  0.26848964938E+02 -0.68612041228E+02  0.80792380032E+02  0.00000000000E+00 0.  1.
         13    1    5    5    0    0  0.15387572053E+01 -0.47775343535E+02 -0.60483261100E+02  0.77091349041E+02  0.00000000000E+00 0.  1.
        -13    1    5    5    0    0  0.13752584715E+03 -0.66608862971E+02 -0.13051175291E+03  0.20095625621E+03  0.00000000000E+00 0. -1.
          1    1    6    6  503    0 -0.23500256638E+03 -0.16915842910E+03  0.34107953727E+03  0.44741036095E+03  0.00000000000E+00 0. -1.
         -1    1    6    6    0  503 -0.17912301626E+03 -0.24499437428E+03  0.37538224200E+03  0.48272054648E+03  0.00000000000E+00 0.  1.
<mgrwt>
<rscale>  0 0.21164359E+04</rscale>
<asrwt>0</asrwt>
<pdfrwt beam="1">  1        1 0.17587388E+00 0.21164359E+04</pdfrwt>
<pdfrwt beam="2">  1       -2 0.15070311E+00 0.21164359E+04</pdfrwt>
<totfact> 0.28052195E+00</totfact>
</mgrwt>
</event>
<event>
12    5  0.5428626E-008  0.1833072E+04  0.7818608E-02  0.8688907E-01
          1   -1    0    0  501    0  0.00000000000E+00  0.00000000000E+00  0.13297628762E+04  0.13297628762E+04  0.00000000000E+00 0. -1.
         -2   -1    0    0    0  501 -0.00000000000E+00 -0.00000000000E+00 -0.63172022096E+03  0.63172022096E+03  0.00000000000E+00 0.  1.
        -24    2    1    2    0    0 -0.48399964907E+03  0.19539411654E+03  0.75615817702E+03  0.92216699803E+03  0.78627364821E+02 0.  0.
        254    2    1    2    0    0  0.48399964907E+03 -0.19539411654E+03 -0.58115521816E+02  0.10393160991E+04  0.89686454880E+03 0.  0.
         23    2    4    4    0    0  0.28899991218E+03 -0.52266860774E+03  0.10935467214E+03  0.61373879034E+03  0.89517795400E+02 0.  0.
         23    2    4    4    0    0  0.19499973690E+03  0.32727449120E+03 -0.16747019396E+03  0.42557730876E+03  0.89085856826E+02 0.  0.
          1    1    3    3  502    0 -0.14688421899E+03  0.51268361891E+02  0.29010694395E+03  0.32918909102E+03  0.00000000000E+00 0. -1.
         -2    1    3    3    0  502 -0.33711543009E+03  0.14412575464E+03  0.46605123307E+03  0.59297790701E+03  0.00000000000E+00 0.  1.
         13    1    5    5    0    0  0.14666240040E+03 -0.34344500815E+03  0.46061623728E+02  0.37627916032E+03  0.00000000000E+00 0. -1.
        -13    1    5    5    0    0  0.14233751178E+03 -0.17922359959E+03  0.63293048416E+02  0.23745963001E+03  0.00000000000E+00 0.  1.
          1    1    6    6  503    0  0.12221252475E+03  0.27682279567E+03 -0.12596410679E+03  0.32777083093E+03  0.00000000000E+00 0. -1.
         -1    1    6    6    0  503  0.72787212144E+02  0.50451695533E+02 -0.41506087169E+02  0.97806477831E+02  0.00000000000E+00 0.  1.
<mgrwt>
<rscale>  0 0.18330718E+04</rscale>
<asrwt>0</asrwt>
<pdfrwt beam="1">  1        1 0.20457890E+00 0.18330718E+04</pdfrwt>
<pdfrwt beam="2">  1       -2 0.97187726E-01 0.18330718E+04</pdfrwt>
<totfact> 0.62832622E+00</totfact>
</mgrwt>
</event>
<event>
12    5  0.5428626E-008  0.3585454E+04  0.7818608E-02  0.8093832E-01
         -2   -1    0    0    0  501 -0.00000000000E+00  0.00000000000E+00  0.19446762257E+04  0.19446762257E+04  0.00000000000E+00 0.  1.
          1   -1    0    0  501    0  0.00000000000E+00 -0.00000000000E+00 -0.16526506796E+04  0.16526506796E+04  0.00000000000E+00 0. -1.
        -24    2    1    2    0    0  0.10291471526E+04  0.90178313645E+02 -0.11912058242E+04  0.15787999184E+04  0.79761372826E+02 0.  0.
        254    2    1    2    0    0 -0.10291471526E+04 -0.90178313645E+02  0.14832313703E+04  0.20185269869E+04  0.89844304704E+03 0.  0.
         23    2    4    4    0    0 -0.70577831774E+03 -0.38314391253E+03  0.13121358133E+04  0.15410674523E+04  0.90918691978E+02 0.  0.
         23    2    4    4    0    0 -0.32336883489E+03  0.29296559889E+03  0.17109555704E+03  0.47745953457E+03  0.91091558329E+02 0.  0.
          1    1    3    3  502    0  0.89225144981E+03  0.67933673445E+02 -0.99063510328E+03  0.13349477673E+04  0.00000000000E+00 0. -1.
         -2    1    3    3    0  502  0.13689570282E+03  0.22244640201E+02 -0.20057072091E+03  0.24385215102E+03  0.00000000000E+00 0.  1.
         13    1    5    5    0    0 -0.69330475881E+02 -0.66178287964E+02  0.12868993898E+03  0.16045990490E+03  0.00000000000E+00 0. -1.
        -13    1    5    5    0    0 -0.63644784186E+03 -0.31696562457E+03  0.11834458743E+04  0.13806075474E+04  0.00000000000E+00 0.  1.
          1    1    6    6  503    0 -0.32306873218E+02  0.76417271637E+02  0.31075124537E+02  0.88594564317E+02  0.00000000000E+00 0. -1.
         -1    1    6    6    0  503 -0.29106196168E+03  0.21654832725E+03  0.14002043251E+03  0.38886497025E+03  0.00000000000E+00 0.  1.
<mgrwt>
<rscale>  0 0.35854542E+04</rscale>
<asrwt>0</asrwt>
<pdfrwt beam="1">  1        1 0.25425395E+00 0.35854542E+04</pdfrwt>
<pdfrwt beam="2">  1       -2 0.29918096E+00 0.35854542E+04</pdfrwt>
<totfact> 0.11748371E-01</totfact>
</mgrwt>
</event>
<event>
12    5  0.5428626E-008  0.2610795E+04  0.7818608E-02  0.8364543E-01
         -2   -1    0    0    0  501 -0.00000000000E+00  0.00000000000E+00  0.79140794559E+03  0.79140794559E+03  0.00000000000E+00 0.  1.
          1   -1    0    0  501    0  0.00000000000E+00 -0.00000000000E+00 -0.21532046249E+04  0.21532046249E+04  0.00000000000E+00 0. -1.
        -24    2    1    2    0    0 -0.54310451836E+03  0.72234479673E+03  0.19132919582E+03  0.92950316807E+03  0.10307645247E+03 0.  0.
        254    2    1    2    0    0  0.54310451836E+03 -0.72234479673E+03 -0.15531258752E+04  0.20151094025E+04  0.91198760767E+03 0.  0.
         23    2    4    4    0    0  0.43307278563E+03  0.44745126951E+02 -0.29182322597E+03  0.53196056897E+03  0.90923526599E+02 0.  0.
         23    2    4    4    0    0  0.11003173273E+03 -0.76708992368E+03 -0.12613026492E+04  0.14831488335E+04  0.91171027048E+02 0.  0.
          3    1    3    3  502    0 -0.55575082591E+02  0.13378757705E+03  0.41529331279E+02  0.15070630689E+03  0.00000000000E+00 0. -1.
         -4    1    3    3    0  502 -0.48752943576E+03  0.58855721968E+03  0.14979986454E+03  0.77879686118E+03  0.00000000000E+00 0.  1.
         13    1    5    5    0    0  0.88028409576E+02 -0.25856375428E+02 -0.47460235873E+02  0.10329582292E+03  0.00000000000E+00 0.  1.
        -13    1    5    5    0    0  0.34504437605E+03  0.70601502379E+02 -0.24436299009E+03  0.42866474606E+03  0.00000000000E+00 0. -1.
          3    1    6    6  503    0  0.10436614179E+03 -0.71253197363E+03 -0.11196148270E+04  0.13312142824E+04  0.00000000000E+00 0. -1.
         -3    1    6    6    0  503  0.56655909348E+01 -0.54557950054E+02 -0.14168782221E+03  0.15193455103E+03  0.00000000000E+00 0.  1.
<mgrwt>
<rscale>  0 0.26107955E+04</rscale>
<asrwt>0</asrwt>
<pdfrwt beam="1">  1        1 0.33126225E+00 0.26107955E+04</pdfrwt>
<pdfrwt beam="2">  1       -2 0.12175507E+00 0.26107955E+04</pdfrwt>
<totfact> 0.92862698E-01</totfact>
</mgrwt>
</event>
<event>
12    5  0.5428626E-008  0.1398591E+04  0.7818608E-02  0.8954839E-01
          1   -1    0    0  501    0  0.00000000000E+00  0.00000000000E+00  0.14037065483E+04  0.14037065483E+04  0.00000000000E+00 0. -1.
         -2   -1    0    0    0  501 -0.00000000000E+00 -0.00000000000E+00 -0.34837327776E+03  0.34837327776E+03  0.00000000000E+00 0.  1.
        -24    2    1    2    0    0  0.15907064868E+03  0.33310945316E+03  0.51360361287E+03  0.63731578231E+03  0.78213529330E+02 0.  0.
        254    2    1    2    0    0 -0.15907064868E+03 -0.33310945316E+03  0.54172965773E+03  0.11147640438E+04  0.90164431581E+03 0.  0.
         23    2    4    4    0    0 -0.22031708587E+03 -0.61303395931E+03  0.46202074951E+03  0.80381475614E+03  0.91130322097E+02 0.  0.
         23    2    4    4    0    0  0.61246437193E+02  0.27992450615E+03  0.79708908211E+02  0.31094928766E+03  0.90703330911E+02 0.  0.
          1    1    3    3  502    0  0.15562133611E+03  0.28482061064E+03  0.40964364775E+03  0.52263629671E+03  0.00000000000E+00 0. -1.
         -2    1    3    3    0  502  0.34493125665E+01  0.48288842521E+02  0.10395996511E+03  0.11467948559E+03  0.00000000000E+00 0.  1.
         13    1    5    5    0    0 -0.13720396923E+03 -0.46644747346E+03  0.30823168969E+03  0.57567781718E+03  0.00000000000E+00 0.  1.
        -13    1    5    5    0    0 -0.83113116643E+02 -0.14658648585E+03  0.15378905983E+03  0.22813693895E+03  0.00000000000E+00 0. -1.
          2    1    6    6  503    0  0.68442120978E+02  0.27397479075E+03  0.90629987963E+02  0.29658102537E+03  0.00000000000E+00 0. -1.
         -2    1    6    6    0  503 -0.71956837848E+01  0.59497154023E+01 -0.10921079752E+02  0.14368262298E+02  0.00000000000E+00 0.  1.
<mgrwt>
<rscale>  0 0.13985905E+04</rscale>
<asrwt>0</asrwt>
<pdfrwt beam="1">  1        1 0.21595485E+00 0.13985905E+04</pdfrwt>
<pdfrwt beam="2">  1       -2 0.53595890E-01 0.13985905E+04</pdfrwt>
<totfact> 0.21432798E+01</totfact>
</mgrwt>
</event>
<event>
12    5  0.5428626E-008  0.1885650E+04  0.7818608E-02  0.8662033E-01
         -2   -1    0    0    0  501 -0.00000000000E+00  0.00000000000E+00  0.76918867385E+03  0.76918867385E+03  0.00000000000E+00 0.  1.
          1   -1    0    0  501    0  0.00000000000E+00 -0.00000000000E+00 -0.11556575003E+04  0.11556575003E+04  0.00000000000E+00 0. -1.
        -24    2    1    2    0    0  0.76420565839E+02  0.70813327945E+03 -0.35638437331E+03  0.80158891556E+03  0.90786142474E+02 0.  0.
        254    2    1    2    0    0 -0.76420565839E+02 -0.70813327945E+03 -0.30084453167E+02  0.11232572586E+04  0.86804893316E+03 0.  0.
         23    2    4    4    0    0 -0.44556191576E+03 -0.53188670710E+03  0.20069208244E+02  0.70047188486E+03  0.93963814315E+02 0.  0.
         23    2    4    4    0    0  0.36914134992E+03 -0.17624657235E+03 -0.50153661411E+02  0.42278537375E+03  0.94360436749E+02 0.  0.
          1    1    3    3  502    0  0.37841508356E+02  0.34088897145E+03 -0.22235158975E+03  0.40875114688E+03  0.00000000000E+00 0. -1.
         -2    1    3    3    0  502  0.38579057483E+02  0.36724430800E+03 -0.13403278356E+03  0.39283776868E+03  0.00000000000E+00 0.  1.
         13    1    5    5    0    0 -0.36847428015E+03 -0.39653864520E+03  0.43074425797E+02  0.54302080847E+03  0.00000000000E+00 0.  1.
        -13    1    5    5    0    0 -0.77087635601E+02 -0.13534806190E+03 -0.23005217553E+02  0.15745107639E+03  0.00000000000E+00 0. -1.
          3    1    6    6  503    0  0.36266840676E+02  0.68009453216E+01  0.98515507131E+01  0.38191486503E+02  0.00000000000E+00 0. -1.
         -3    1    6    6    0  503  0.33287450924E+03 -0.18304751767E+03 -0.60005212124E+02  0.38459388725E+03  0.00000000000E+00 0.  1.
<mgrwt>
<rscale>  0 0.18856497E+04</rscale>
<asrwt>0</asrwt>
<pdfrwt beam="1">  1        1 0.17779346E+00 0.18856497E+04</pdfrwt>
<pdfrwt beam="2">  1       -2 0.11833672E+00 0.18856497E+04</pdfrwt>
<totfact> 0.52032876E+00</totfact>
</mgrwt>
</event>
<event>
12    5  0.5428626E-008  0.1369048E+04  0.7818608E-02  0.8976533E-01
          1   -1    0    0  501    0  0.00000000000E+00  0.00000000000E+00  0.10415729548E+04  0.10415729548E+04  0.00000000000E+00 0. -1.
         -2   -1    0    0    0  501 -0.00000000000E+00 -0.00000000000E+00 -0.44987094294E+03  0.44987094294E+03  0.00000000000E+00 0.  1.
        -24    2    1    2    0    0 -0.36229390058E+03 -0.13037659678E+03  0.28880192202E+03  0.49011470389E+03  0.92471322162E+02 0.  0.
        254    2    1    2    0    0  0.36229390058E+03  0.13037659678E+03  0.30290008980E+03  0.10013291938E+04  0.87330221720E+03 0.  0.
         23    2    4    4    0    0  0.10943966609E+03 -0.33499835920E+03 -0.35035981611E+02  0.36653823610E+03  0.94455372172E+02 0.  0.
         23    2    4    4    0    0  0.25285423449E+03  0.46537495598E+03  0.33793607141E+03  0.63479095770E+03  0.90827628320E+02 0.  0.
          3    1    3    3  502    0 -0.12217888321E+03 -0.36678445001E+01  0.11447981638E+03  0.16747167206E+03  0.00000000000E+00 0. -1.
         -4    1    3    3    0  502 -0.24011501738E+03 -0.12670875228E+03  0.17432210564E+03  0.32264303183E+03  0.00000000000E+00 0.  1.
         13    1    5    5    0    0  0.10679216667E+03 -0.24375693104E+03 -0.58094002096E+02  0.27239111838E+03  0.00000000000E+00 0. -1.
        -13    1    5    5    0    0  0.26474994231E+01 -0.91241428157E+02  0.23058020486E+02  0.94147117715E+02  0.00000000000E+00 0.  1.
          4    1    6    6  503    0  0.37452701880E+02  0.65496377540E+02  0.89586608959E+02  0.11712489425E+03  0.00000000000E+00 0. -1.
         -4    1    6    6    0  503  0.21540153261E+03  0.39987857844E+03  0.24834946245E+03  0.51766606345E+03  0.00000000000E+00 0.  1.
<mgrwt>
<rscale>  0 0.13690484E+04</rscale>
<asrwt>0</asrwt>
<pdfrwt beam="1">  1        1 0.16024199E+00 0.13690484E+04</pdfrwt>
<pdfrwt beam="2">  1       -2 0.69210914E-01 0.13690484E+04</pdfrwt>
<totfact> 0.22939324E+01</totfact>
</mgrwt>
</event>
<event>
12    5  0.5428626E-008  0.1873354E+04  0.7818608E-02  0.8668235E-01
          1   -1    0    0  501    0  0.00000000000E+00  0.00000000000E+00  0.15950107213E+04  0.15950107213E+04  0.00000000000E+00 0. -1.
         -2   -1    0    0    0  501 -0.00000000000E+00 -0.00000000000E+00 -0.55006758062E+03  0.55006758062E+03  0.00000000000E+00 0.  1.
        -24    2    1    2    0    0  0.36996212147E+03  0.18363317041E+03 -0.27436775726E+03  0.50235341967E+03  0.80549236107E+02 0.  0.
        254    2    1    2    0    0 -0.36996212147E+03 -0.18363317041E+03  0.13193108979E+04  0.16427248822E+04  0.88733910132E+03 0.  0.
         23    2    4    4    0    0 -0.58613072096E+03 -0.39459576716E+01  0.11688434012E+04  0.13107142988E+04  0.90621652171E+02 0.  0.
         23    2    4    4    0    0  0.21616859949E+03 -0.17968721274E+03  0.15046749669E+03  0.33201058343E+03  0.92596987648E+02 0.  0.
          3    1    3    3  502    0  0.16456543624E+03  0.10217377360E+03 -0.17110988234E+03  0.25845667848E+03  0.00000000000E+00 0. -1.
         -4    1    3    3    0  502  0.20539668523E+03  0.81459396817E+02 -0.10325787492E+03  0.24389674120E+03  0.00000000000E+00 0.  1.
         13    1    5    5    0    0 -0.13593299418E+03  0.37361929173E+02  0.27101065406E+03  0.30548398857E+03  0.00000000000E+00 0.  1.
        -13    1    5    5    0    0 -0.45019772678E+03 -0.41307886844E+02  0.89783274715E+03  0.10052303102E+04  0.00000000000E+00 0. -1.
          4    1    6    6  503    0  0.68301422437E+02 -0.94534221867E+01  0.21395994730E+02  0.72195845369E+02  0.00000000000E+00 0. -1.
         -4    1    6    6    0  503  0.14786717705E+03 -0.17023379055E+03  0.12907150196E+03  0.25981473806E+03  0.00000000000E+00 0.  1.
<mgrwt>
<rscale>  0 0.18733539E+04</rscale>
<asrwt>0</asrwt>
<pdfrwt beam="1">  1        1 0.24538626E+00 0.18733539E+04</pdfrwt>
<pdfrwt beam="2">  1       -2 0.84625783E-01 0.18733539E+04</pdfrwt>
<totfact> 0.56342075E+00</totfact>
</mgrwt>
</event>
<event>
12    5  0.5428626E-008  0.2541808E+04  0.7818608E-02  0.8388241E-01
          1   -1    0    0  501    0  0.00000000000E+00  0.00000000000E+00  0.99098332345E+03  0.99098332345E+03  0.00000000000E+00 0. -1.
         -2   -1    0    0    0  501 -0.00000000000E+00 -0.00000000000E+00 -0.16298929169E+04  0.16298929169E+04  0.00000000000E+00 0.  1.
        -24    2    1    2    0    0 -0.41343048997E+03 -0.69820525316E+03  0.50074408696E+03  0.95685900224E+03  0.80119685170E+02 0.  0.
        254    2    1    2    0    0  0.41343048997E+03  0.69820525316E+03 -0.11396536804E+04  0.16640172381E+04  0.90095921763E+03 0.  0.
         23    2    4    4    0    0  0.50981984822E+03  0.35565976006E+02 -0.35285166994E+03  0.62773856315E+03  0.91488722732E+02 0.  0.
         23    2    4    4    0    0 -0.96389358251E+02  0.66263927716E+03 -0.78680201043E+03  0.10362786749E+04  0.80214515339E+02 0.  0.
          1    1    3    3  502    0 -0.31521259007E+03 -0.54218021563E+03  0.42472444316E+03  0.75743594830E+03  0.00000000000E+00 0. -1.
         -2    1    3    3    0  502 -0.98217899903E+02 -0.15602503753E+03  0.76019643808E+02  0.19942305394E+03  0.00000000000E+00 0.  1.
         13    1    5    5    0    0  0.46557645269E+03  0.14187829440E+02 -0.29293052858E+03  0.55024632882E+03  0.00000000000E+00 0.  1.
        -13    1    5    5    0    0  0.44243395532E+02  0.21378146566E+02 -0.59921141360E+02  0.77492234325E+02  0.00000000000E+00 0. -1.
          1    1    6    6  503    0 -0.52738449677E+02  0.16319457736E+03 -0.23203056805E+03  0.28853422443E+03  0.00000000000E+00 0. -1.
         -1    1    6    6    0  503 -0.43650908574E+02  0.49944469980E+03 -0.55477144238E+03  0.74774445050E+03  0.00000000000E+00 0.  1.
<mgrwt>
<rscale>  0 0.25418078E+04</rscale>
<asrwt>0</asrwt>
<pdfrwt beam="1">  1        1 0.15245897E+00 0.25418078E+04</pdfrwt>
<pdfrwt beam="2">  1       -2 0.25075276E+00 0.25418078E+04</pdfrwt>
<totfact> 0.75912833E-01</totfact>
</mgrwt>
</event>
<event>
12    5  0.5428626E-008  0.1142705E+04  0.7818608E-02  0.9164540E-01
         -2   -1    0    0    0  501 -0.00000000000E+00  0.00000000000E+00  0.29126913373E+03  0.29126913373E+03  0.00000000000E+00 0.  1.
          1   -1    0    0  501    0  0.00000000000E+00 -0.00000000000E+00 -0.11207628828E+04  0.11207628828E+04  0.00000000000E+00 0. -1.
        -24    2    1    2    0    0 -0.11336295880E+03  0.98950088595E+02 -0.24707962536E+03  0.30017813356E+03  0.80101748646E+02 0.  0.
        254    2    1    2    0    0  0.11336295880E+03 -0.98950088595E+02 -0.58241412368E+03  0.11118538829E+04  0.93507783905E+03 0.  0.
         23    2    4    4    0    0 -0.29766921721E+03  0.25100373608E+03 -0.23349204032E+03  0.46269710774E+03  0.89220189496E+02 0.  0.
         23    2    4    4    0    0  0.41103217601E+03 -0.34995382468E+03 -0.34892208336E+03  0.64915677520E+03  0.90789698823E+02 0.  0.
          1    1    3    3  502    0 -0.70669623419E+02  0.10559805309E+03 -0.19048085882E+03  0.22897183684E+03  0.00000000000E+00 0. -1.
         -4    1    3    3    0  502 -0.42693335384E+02 -0.66479644908E+01 -0.56598766540E+02  0.71206296716E+02  0.00000000000E+00 0.  1.
         13    1    5    5    0    0 -0.19015292344E+02  0.14566747961E+02  0.73155102861E+01  0.25045721787E+02  0.00000000000E+00 0. -1.
        -13    1    5    5    0    0 -0.27865392487E+03  0.23643698812E+03 -0.24080755061E+03  0.43765138595E+03  0.00000000000E+00 0.  1.
          4    1    6    6  503    0  0.38107740694E+02 -0.47851235812E+02 -0.74166427610E+02  0.96138440043E+02  0.00000000000E+00 0. -1.
         -4    1    6    6    0  503  0.37292443532E+03 -0.30210258887E+03 -0.27475565575E+03  0.55301833516E+03  0.00000000000E+00 0.  1.
<mgrwt>
<rscale>  0 0.11427049E+04</rscale>
<asrwt>0</asrwt>
<pdfrwt beam="1">  1        1 0.17242506E+00 0.11427049E+04</pdfrwt>
<pdfrwt beam="2">  1       -2 0.44810636E-01 0.11427049E+04</pdfrwt>
<totfact> 0.50321736E+01</totfact>
</mgrwt>
</event>
<event>
12    5  0.5428626E-008  0.1803006E+04  0.7818608E-02  0.8704703E-01
         -2   -1    0    0    0  501 -0.00000000000E+00  0.00000000000E+00  0.85703539873E+03  0.85703539873E+03  0.00000000000E+00 0.  1.
          1   -1    0    0  501    0  0.00000000000E+00 -0.00000000000E+00 -0.94827760651E+03  0.94827760651E+03  0.00000000000E+00 0. -1.
        -24    2    1    2    0    0  0.35495583721E+03  0.57051010501E+03 -0.62156548850E+02  0.67926522039E+03  0.77861266239E+02 0.  0.
        254    2    1    2    0    0 -0.35495583721E+03 -0.57051010501E+03 -0.29085658927E+02  0.11260477848E+04  0.90314019505E+03 0.  0.
         23    2    4    4    0    0 -0.56816553598E+03 -0.11861831021E+03  0.11172012868E+03  0.59796566619E+03  0.90549273859E+02 0.  0.
         23    2    4    4    0    0  0.21320969877E+03 -0.45189179480E+03 -0.14080578761E+03  0.52808211866E+03  0.96849803147E+02 0.  0.
          1    1    3    3  502    0  0.34573166010E+02  0.24840618423E+02  0.53323518161E+01  0.42904476543E+02  0.00000000000E+00 0. -1.
         -2    1    3    3    0  502  0.32038267120E+03  0.54566948659E+03 -0.67488900666E+02  0.63636074385E+03  0.00000000000E+00 0.  1.
         13    1    5    5    0    0 -0.39721509192E+03 -0.12272915632E+03  0.92308818604E+02  0.42586757690E+03  0.00000000000E+00 0. -1.
        -13    1    5    5    0    0 -0.17095044406E+03  0.41108461023E+01  0.19411310080E+02  0.17209808929E+03  0.00000000000E+00 0.  1.
          2    1    6    6  503    0  0.19580544210E+03 -0.37621198941E+03 -0.85249445980E+02  0.43259993085E+03  0.00000000000E+00 0. -1.
         -2    1    6    6    0  503  0.17404256671E+02 -0.75679805388E+02 -0.55556341631E+02  0.95482187811E+02  0.00000000000E+00 0.  1.
<mgrwt>
<rscale>  0 0.18030058E+04</rscale>
<asrwt>0</asrwt>
<pdfrwt beam="1">  1        1 0.14588886E+00 0.18030058E+04</pdfrwt>
<pdfrwt beam="2">  1       -2 0.13185160E+00 0.18030058E+04</pdfrwt>
<totfact> 0.57597630E+00</totfact>
</mgrwt>
</event>
<event>
12    5  0.5428626E-008  0.2202873E+04  0.7818608E-02  0.8517233E-01
          1   -1    0    0  501    0  0.00000000000E+00  0.00000000000E+00  0.74946537560E+03  0.74946537560E+03  0.00000000000E+00 0. -1.
         -2   -1    0    0    0  501 -0.00000000000E+00 -0.00000000000E+00 -0.16187040417E+04  0.16187040417E+04  0.00000000000E+00 0.  1.
        -24    2    1    2    0    0  0.45583815577E+03 -0.49573660712E+03 -0.10354429147E+04  0.12377134028E+04  0.79052071465E+02 0.  0.
        254    2    1    2    0    0 -0.45583815577E+03  0.49573660712E+03  0.16620424862E+03  0.11304560145E+04  0.89261623361E+03 0.  0.
         23    2    4    4    0    0  0.81182872526E+02  0.29629067421E+03  0.39309235460E+03  0.50760264381E+03  0.93594991027E+02 0.  0.
         23    2    4    4    0    0 -0.53702102829E+03  0.19944593291E+03 -0.22688810598E+03  0.62285337066E+03  0.91092500904E+02 0.  0.
          3    1    3    3  502    0  0.44882614314E+02 -0.71032829425E+02 -0.17150771536E+03  0.19098431441E+03  0.00000000000E+00 0. -1.
         -4    1    3    3    0  502  0.41095554145E+03 -0.42470377769E+03 -0.86393519933E+03  0.10467290884E+04  0.00000000000E+00 0.  1.
         13    1    5    5    0    0 -0.79345051943E+01 -0.23987901771E+01  0.44579094345E+01  0.94118820391E+01  0.00000000000E+00 0. -1.
        -13    1    5    5    0    0  0.89117377720E+02  0.29868946438E+03  0.38863444517E+03  0.49819076177E+03  0.00000000000E+00 0.  1.
          2    1    6    6  503    0 -0.31543811834E+03  0.11284224046E+03 -0.18022277692E+03  0.38041402058E+03  0.00000000000E+00 0. -1.
         -2    1    6    6    0  503 -0.22158290995E+03  0.86603692458E+02 -0.46665329063E+02  0.24243935008E+03  0.00000000000E+00 0.  1.
<mgrwt>
<rscale>  0 0.22028732E+04</rscale>
<asrwt>0</asrwt>
<pdfrwt beam="1">  1        1 0.11530237E+00 0.22028732E+04</pdfrwt>
<pdfrwt beam="2">  1       -2 0.24903139E+00 0.22028732E+04</pdfrwt>
<totfact> 0.12757665E+00</totfact>
</mgrwt>
</event>
<event>
12    5  0.5428626E-008  0.1437854E+04  0.7818608E-02  0.8926864E-01
          1   -1    0    0  501    0  0.00000000000E+00  0.00000000000E+00  0.12069617480E+04  0.12069617480E+04  0.00000000000E+00 0. -1.
         -2   -1    0    0    0  501 -0.00000000000E+00 -0.00000000000E+00 -0.42822924049E+03  0.42822924049E+03  0.00000000000E+00 0.  1.
        -24    2    1    2    0    0 -0.37946824629E+03  0.17335802228E+03  0.14471295309E+03  0.44899273526E+03  0.81261821869E+02 0.  0.
        254    2    1    2    0    0  0.37946824629E+03 -0.17335802228E+03  0.63401955441E+03  0.11861982532E+04  0.91161194964E+03 0.  0.
         23    2    4    4    0    0  0.40957779789E+03 -0.16255487095E+03  0.84317480768E+03  0.95586116498E+03  0.92459460425E+02 0.  0.
         23    2    4    4    0    0 -0.30109551602E+02 -0.10803151324E+02 -0.20915525327E+03  0.23033708824E+03  0.91027254556E+02 0.  0.
          3    1    3    3  502    0 -0.27173420994E+03  0.13263147342E+03  0.14131623917E+03  0.33376768574E+03  0.00000000000E+00 0. -1.
         -4    1    3    3    0  502 -0.10773403635E+03  0.40726548853E+02  0.33967139159E+01  0.11522504951E+03  0.00000000000E+00 0.  1.
         13    1    5    5    0    0  0.38240538090E+03 -0.12445749767E+03  0.77571070812E+03  0.87375662903E+03  0.00000000000E+00 0. -1.
        -13    1    5    5    0    0  0.27172416986E+02 -0.38097373278E+02  0.67464099554E+02  0.82104535954E+02  0.00000000000E+00 0.  1.
          2    1    6    6  503    0 -0.53612556189E+02 -0.33318722150E+02 -0.12327409208E+03  0.13849528947E+03  0.00000000000E+00 0. -1.
         -2    1    6    6    0  503  0.23503004587E+02  0.22515570825E+02 -0.85881161183E+02  0.91841798765E+02  0.00000000000E+00 0.  1.
<mgrwt>
<rscale>  0 0.14378544E+04</rscale>
<asrwt>0</asrwt>
<pdfrwt beam="1">  1        1 0.18568642E+00 0.14378544E+04</pdfrwt>
<pdfrwt beam="2">  1       -2 0.65881422E-01 0.14378544E+04</pdfrwt>
<totfact> 0.19096485E+01</totfact>
</mgrwt>
</event>
<event>
12    5  0.5428626E-008  0.1813001E+04  0.7818608E-02  0.8699416E-01
          1   -1    0    0  501    0  0.00000000000E+00  0.00000000000E+00  0.84267795417E+03  0.84267795417E+03  0.00000000000E+00 0. -1.
         -2   -1    0    0    0  501 -0.00000000000E+00 -0.00000000000E+00 -0.97515709193E+03  0.97515709193E+03  0.00000000000E+00 0.  1.
        -24    2    1    2    0    0  0.50996998413E+03 -0.10390591668E+03 -0.47455964209E+03  0.70867181766E+03  0.78377720114E+02 0.  0.
        254    2    1    2    0    0 -0.50996998413E+03  0.10390591668E+03  0.34208050433E+03  0.11091632284E+04  0.91780072545E+03 0.  0.
         23    2    4    4    0    0 -0.20802047242E+03  0.38320396925E+03  0.49113175334E+03  0.66314780724E+03  0.91852142720E+02 0.  0.
         23    2    4    4    0    0 -0.30194951171E+03 -0.27929805256E+03 -0.14905124901E+03  0.44601542120E+03  0.86790387296E+02 0.  0.
          1    1    3    3  502    0  0.93519031455E+02 -0.18733982052E+02 -0.49171659933E+02  0.10730621356E+03  0.00000000000E+00 0. -1.
         -2    1    3    3    0  502  0.41645095267E+03 -0.85171934632E+02 -0.42538798216E+03  0.60136560410E+03  0.00000000000E+00 0.  1.
         13    1    5    5    0    0 -0.16462542769E+03  0.29229539666E+03  0.31463650526E+03  0.45992853879E+03  0.00000000000E+00 0. -1.
        -13    1    5    5    0    0 -0.43395044732E+02  0.90908572586E+02  0.17649524808E+03  0.20321926845E+03  0.00000000000E+00 0.  1.
          1    1    6    6  503    0 -0.99939542482E+01  0.18296361257E+01 -0.16886941247E+02  0.19707751636E+02  0.00000000000E+00 0. -1.
         -1    1    6    6    0  503 -0.29195555746E+03 -0.28112768869E+03 -0.13216430776E+03  0.42630766956E+03  0.00000000000E+00 0.  1.
<mgrwt>
<rscale>  0 0.18130013E+04</rscale>
<asrwt>0</asrwt>
<pdfrwt beam="1">  1        1 0.12964276E+00 0.18130013E+04</pdfrwt>
<pdfrwt beam="2">  1       -2 0.15002417E+00 0.18130013E+04</pdfrwt>
<totfact> 0.50232328E+00</totfact>
</mgrwt>
</event>
<event>
12    5  0.5428626E-008  0.1198952E+04  0.7818608E-02  0.9113774E-01
         -4   -1    0    0    0  501 -0.00000000000E+00  0.00000000000E+00  0.19376413298E+03  0.19376413298E+03  0.00000000000E+00 0.  1.
          3   -1    0    0  501    0  0.00000000000E+00 -0.00000000000E+00 -0.18546858226E+04  0.18546858226E+04  0.00000000000E+00 0. -1.
        -24    2    1    2    0    0 -0.20008637975E+03  0.64043544127E+02 -0.72702876948E+03  0.76103538165E+03  0.80423165647E+02 0.  0.
        254    2    1    2    0    0  0.20008637975E+03 -0.64043544127E+02 -0.93389292013E+03  0.12874145739E+04  0.86089730163E+03 0.  0.
         23    2    4    4    0    0  0.38477331172E+03 -0.27731692468E+03 -0.85288695613E+03  0.98027561337E+03  0.92568569801E+02 0.  0.
         23    2    4    4    0    0 -0.18468693197E+03  0.21327338055E+03 -0.81005964007E+02  0.30713896055E+03  0.90429957361E+02 0.  0.
          1    1    3    3  502    0 -0.65209074212E+02 -0.10666524176E+02 -0.29522885269E+03  0.30253276444E+03  0.00000000000E+00 0. -1.
         -2    1    3    3    0  502 -0.13487730553E+03  0.74710068304E+02 -0.43179991679E+03  0.45850261722E+03  0.00000000000E+00 0.  1.
         13    1    5    5    0    0  0.69562763265E+02 -0.17412992270E+02 -0.17008062077E+03  0.18457954354E+03  0.00000000000E+00 0. -1.
        -13    1    5    5    0    0  0.31521054845E+03 -0.25990393241E+03 -0.68280633536E+03  0.79569606983E+03  0.00000000000E+00 0.  1.
          2    1    6    6  503    0 -0.70445871280E+01  0.22384437947E+02  0.16563468184E+02  0.28723470338E+02  0.00000000000E+00 0. -1.
         -2    1    6    6    0  503 -0.17764234484E+03  0.19088894261E+03 -0.97569432191E+02  0.27841549021E+03  0.00000000000E+00 0.  1.
<mgrwt>
<rscale>  0 0.11989522E+04</rscale>
<asrwt>0</asrwt>
<pdfrwt beam="1">  1        3 0.28533630E+00 0.11989522E+04</pdfrwt>
<pdfrwt beam="2">  1       -4 0.29809865E-01 0.11989522E+04</pdfrwt>
<totfact> 0.11584448E+00</totfact>
</mgrwt>
</event>
<event>
12    5  0.5428626E-008  0.1431176E+04  0.7818608E-02  0.8931556E-01
          1   -1    0    0  501    0  0.00000000000E+00  0.00000000000E+00  0.14671748730E+04  0.14671748730E+04  0.00000000000E+00 0. -1.
         -2   -1    0    0    0  501 -0.00000000000E+00 -0.00000000000E+00 -0.34901526658E+03  0.34901526658E+03  0.00000000000E+00 0.  1.
        -24    2    1    2    0    0  0.25930793103E+03 -0.26650939980E+03  0.60500509134E+03  0.71663415239E+03  0.96257386922E+02 0.  0.
        254    2    1    2    0    0 -0.25930793103E+03  0.26650939980E+03  0.51315451506E+03  0.10995559872E+04  0.89856994682E+03 0.  0.
         23    2    4    4    0    0  0.36232091659E+02  0.73916927404E+02  0.68546435749E+03  0.69679217787E+03  0.94241589162E+02 0.  0.
         23    2    4    4    0    0 -0.29554002269E+03  0.19259247239E+03 -0.17230984243E+03  0.40276380931E+03  0.89956872181E+02 0.  0.
          3    1    3    3  502    0  0.16601312520E+03 -0.17082277874E+03  0.46862824062E+03  0.52569307336E+03  0.00000000000E+00 0. -1.
         -4    1    3    3    0  502  0.93294805838E+02 -0.95686621057E+02  0.13637685072E+03  0.19094107902E+03  0.00000000000E+00 0.  1.
         13    1    5    5    0    0  0.64527649243E+02  0.71031638889E+02  0.49509086247E+03  0.50430573399E+03  0.00000000000E+00 0.  1.
        -13    1    5    5    0    0 -0.28295557584E+02  0.28852885151E+01  0.19037349503E+03  0.19248644388E+03  0.00000000000E+00 0. -1.
          3    1    6    6  503    0 -0.24462566766E+03  0.19526146829E+03 -0.14561346938E+03  0.34521303675E+03  0.00000000000E+00 0. -1.
         -3    1    6    6    0  503 -0.50914355033E+02 -0.26689959013E+01 -0.26696373051E+02  0.57550772555E+02  0.00000000000E+00 0.  1.
<mgrwt>
<rscale>  0 0.14311763E+04</rscale>
<asrwt>0</asrwt>
<pdfrwt beam="1">  1        1 0.22571921E+00 0.14311763E+04</pdfrwt>
<pdfrwt beam="2">  1       -2 0.53694657E-01 0.14311763E+04</pdfrwt>
<totfact> 0.19228961E+01</totfact>
</mgrwt>
</event>
<event>
12    5  0.5428626E-008  0.1825537E+04  0.7818608E-02  0.8692836E-01
          1   -1    0    0  501    0  0.00000000000E+00  0.00000000000E+00  0.13250847748E+04  0.13250847748E+04  0.00000000000E+00 0. -1.
         -2   -1    0    0    0  501 -0.00000000000E+00 -0.00000000000E+00 -0.62874949074E+03  0.62874949074E+03  0.00000000000E+00 0.  1.
        -24    2    1    2    0    0  0.39756171252E+03 -0.50899489033E+03  0.47012961051E+01  0.65079681552E+03  0.79895427052E+02 0.  0.
        254    2    1    2    0    0 -0.39756171252E+03  0.50899489033E+03  0.69163398794E+03  0.13030374500E+04  0.89577782355E+03 0.  0.
         23    2    4    4    0    0  0.21741654271E+03  0.47955212317E+02  0.41489328008E+03  0.48092150809E+03  0.97874448456E+02 0.  0.
         23    2    4    4    0    0 -0.61497825522E+03  0.46103967802E+03  0.27674070786E+03  0.82211594190E+03  0.92376206005E+02 0.  0.
          3    1    3    3  502    0  0.65257758278E+02 -0.11906070000E+03 -0.23087691865E+02  0.13772097450E+03  0.00000000000E+00 0. -1.
         -4    1    3    3    0  502  0.33230395424E+03 -0.38993419033E+03  0.27788987970E+02  0.51307584102E+03  0.00000000000E+00 0.  1.
         13    1    5    5    0    0  0.20772919353E+03  0.43557418159E+02  0.31122641714E+03  0.37671016610E+03  0.00000000000E+00 0. -1.
        -13    1    5    5    0    0  0.96873491804E+01  0.43977941584E+01  0.10366686294E+03  0.10421134199E+03  0.00000000000E+00 0.  1.
          3    1    6    6  503    0 -0.52675770897E+03  0.40845797703E+03  0.27006034766E+03  0.71919690929E+03  0.00000000000E+00 0. -1.
         -3    1    6    6    0  503 -0.88220546257E+02  0.52581700991E+02  0.66803601941E+01  0.10291903261E+03  0.00000000000E+00 0.  1.
<mgrwt>
<rscale>  0 0.18255370E+04</rscale>
<asrwt>0</asrwt>
<pdfrwt beam="1">  1        1 0.20385920E+00 0.18255370E+04</pdfrwt>
<pdfrwt beam="2">  1       -2 0.96730691E-01 0.18255370E+04</pdfrwt>
<totfact> 0.64062163E+00</totfact>
</mgrwt>
</event>
<event>
12    5  0.5428626E-008  0.1512605E+04  0.7818608E-02  0.8876114E-01
          1   -1    0    0  501    0  0.00000000000E+00  0.00000000000E+00  0.15074064049E+04  0.15074064049E+04  0.00000000000E+00 0. -1.
         -2   -1    0    0    0  501 -0.00000000000E+00 -0.00000000000E+00 -0.37945537281E+03  0.37945537281E+03  0.00000000000E+00 0.  1.
        -24    2    1    2    0    0 -0.22472805739E+03 -0.30552486732E+03  0.73617585874E+03  0.83212802770E+03  0.81449463904E+02 0.  0.
        254    2    1    2    0    0  0.22472805739E+03  0.30552486732E+03  0.39177517337E+03  0.10547337500E+04  0.90284403562E+03 0.  0.
         23    2    4    4    0    0  0.46449740411E+03  0.36150328838E+03  0.15304485522E+02  0.59574777718E+03  0.90767399478E+02 0.  0.
         23    2    4    4    0    0 -0.23976934673E+03 -0.55978421057E+02  0.37647068785E+03  0.45898597285E+03  0.91186738130E+02 0.  0.
          1    1    3    3  502    0 -0.18793235862E+03 -0.21589241423E+03  0.48858632694E+03  0.56625498215E+03  0.00000000000E+00 0. -1.
         -2    1    3    3    0  502 -0.36795698770E+02 -0.89632453089E+02  0.24758953180E+03  0.26587304555E+03  0.00000000000E+00 0.  1.
         13    1    5    5    0    0  0.44899828899E+03  0.35528262223E+03 -0.78025602461E+00  0.57256075134E+03  0.00000000000E+00 0. -1.
        -13    1    5    5    0    0  0.15499115122E+02  0.62206661459E+01  0.16084741547E+02  0.23187025844E+02  0.00000000000E+00 0.  1.
          1    1    6    6  503    0 -0.23923489714E+03 -0.63658884053E+02  0.33355434571E+03  0.41538450991E+03  0.00000000000E+00 0. -1.
         -1    1    6    6    0  503 -0.53444958334E+00  0.76804629957E+01  0.42916342135E+02  0.43601462939E+02  0.00000000000E+00 0.  1.
<mgrwt>
<rscale>  0 0.15126050E+04</rscale>
<asrwt>0</asrwt>
<pdfrwt beam="1">  1        1 0.23190867E+00 0.15126050E+04</pdfrwt>
<pdfrwt beam="2">  1       -2 0.58377750E-01 0.15126050E+04</pdfrwt>
<totfact> 0.15043242E+01</totfact>
</mgrwt>
</event>
<event>
12    5  0.5428626E-008  0.1969372E+04  0.7818608E-02  0.8621076E-01
         -2   -1    0    0    0  501 -0.00000000000E+00  0.00000000000E+00  0.58685394470E+03  0.58685394470E+03  0.00000000000E+00 0.  1.
          1   -1    0    0  501    0  0.00000000000E+00 -0.00000000000E+00 -0.16522108647E+04  0.16522108647E+04  0.00000000000E+00 0. -1.
        -24    2    1    2    0    0 -0.67677898576E+03  0.37781650690E+03 -0.51213620147E+03  0.93252833895E+03  0.80935194081E+02 0.  0.
        254    2    1    2    0    0  0.67677898576E+03 -0.37781650690E+03 -0.55322071850E+03  0.13065364704E+04  0.89454417257E+03 0.  0.
         23    2    4    4    0    0  0.25556062367E+03 -0.62821062081E+03 -0.33137741844E+03  0.76119564571E+03  0.98224238998E+02 0.  0.
         23    2    4    4    0    0  0.42121836209E+03  0.25039411391E+03 -0.22184330005E+03  0.54534082470E+03  0.89777750382E+02 0.  0.
          1    1    3    3  502    0 -0.23413786080E+03  0.11749284250E+03 -0.21751766101E+03  0.34049822136E+03  0.00000000000E+00 0. -1.
         -4    1    3    3    0  502 -0.44264112495E+03  0.26032366440E+03 -0.29461854046E+03  0.59203011759E+03  0.00000000000E+00 0.  1.
         13    1    5    5    0    0  0.57882530367E+02 -0.59877774001E+02 -0.47351343054E+02  0.95801277810E+02  0.00000000000E+00 0.  1.
        -13    1    5    5    0    0  0.19767809330E+03 -0.56833284681E+03 -0.28402607539E+03  0.66539436790E+03  0.00000000000E+00 0. -1.
          4    1    6    6  503    0  0.54841763870E+02  0.48521713161E+02 -0.31049533459E+01  0.73291312225E+02  0.00000000000E+00 0.  1.
         -4    1    6    6    0  503  0.36637659822E+03  0.20187240075E+03 -0.21873834671E+03  0.47204951247E+03  0.00000000000E+00 0. -1.
<mgrwt>
<rscale>  0 0.19693719E+04</rscale>
<asrwt>0</asrwt>
<pdfrwt beam="1">  1        1 0.25418629E+00 0.19693719E+04</pdfrwt>
<pdfrwt beam="2">  1       -2 0.90285221E-01 0.19693719E+04</pdfrwt>
<totfact> 0.44015222E+00</totfact>
</mgrwt>
</event>
<event>
12    5  0.5428626E-008  0.1851522E+04  0.7818608E-02  0.8679371E-01
          1   -1    0    0  501    0  0.00000000000E+00  0.00000000000E+00  0.11948682883E+04  0.11948682883E+04  0.00000000000E+00 0. -1.
         -2   -1    0    0    0  501 -0.00000000000E+00 -0.00000000000E+00 -0.71726166737E+03  0.71726166737E+03  0.00000000000E+00 0.  1.
        -24    2    1    2    0    0  0.46332244384E+03 -0.45205528094E+03 -0.42031664872E+02  0.65378103985E+03  0.81494314042E+02 0.  0.
        254    2    1    2    0    0 -0.46332244384E+03  0.45205528094E+03  0.51963828578E+03  0.12583489158E+04  0.94572532051E+03 0.  0.
         23    2    4    4    0    0 -0.66610776092E+03  0.14136527541E+03  0.10587277214E+03  0.69519702256E+03  0.91685146246E+02 0.  0.
         23    2    4    4    0    0  0.20278531708E+03  0.31069000553E+03  0.41376551365E+03  0.56315189325E+03  0.91038399748E+02 0.  0.
          3    1    3    3  502    0  0.89241531316E+02 -0.56111152235E+02 -0.27205792183E+02  0.10886995658E+03  0.00000000000E+00 0. -1.
         -4    1    3    3    0  502  0.37408091253E+03 -0.39594412870E+03 -0.14825872689E+02  0.54491108327E+03  0.00000000000E+00 0.  1.
         13    1    5    5    0    0 -0.58333181543E+03  0.11200160671E+03  0.12069538164E+03  0.60612518670E+03  0.00000000000E+00 0.  1.
        -13    1    5    5    0    0 -0.82775945487E+02  0.29363668697E+02 -0.14822609500E+02  0.89071835858E+02  0.00000000000E+00 0. -1.
          1    1    6    6  503    0  0.61461559080E+01  0.67353635098E+02  0.55321463654E+02  0.87377066408E+02  0.00000000000E+00 0. -1.
         -1    1    6    6    0  503  0.19663916117E+03  0.24333637043E+03  0.35844404999E+03  0.47577482684E+03  0.00000000000E+00 0.  1.
<mgrwt>
<rscale>  0 0.18515218E+04</rscale>
<asrwt>0</asrwt>
<pdfrwt beam="1">  1        1 0.18382589E+00 0.18515218E+04</pdfrwt>
<pdfrwt beam="2">  1       -2 0.11034795E+00 0.18515218E+04</pdfrwt>
<totfact> 0.57913032E+00</totfact>
</mgrwt>
</event>
<event>
12    5  0.5428626E-008  0.2109195E+04  0.7818608E-02  0.8557204E-01
         -4   -1    0    0    0  501 -0.00000000000E+00  0.00000000000E+00  0.10374489123E+04  0.10374489123E+04  0.00000000000E+00 0.  1.
          3   -1    0    0  501    0  0.00000000000E+00 -0.00000000000E+00 -0.10720291687E+04  0.10720291687E+04  0.00000000000E+00 0. -1.
        -24    2    1    2    0    0  0.49294921186E+03  0.55297033869E+03  0.35688968244E+03  0.82611746131E+03  0.79527941638E+02 0.  0.
        254    2    1    2    0    0 -0.49294921186E+03 -0.55297033869E+03 -0.39146993876E+03  0.12833606197E+04  0.97210629371E+03 0.  0.
         23    2    4    4    0    0  0.30448644982E+02 -0.18315477289E+03  0.28136193301E+03  0.34908986994E+03  0.90699554211E+02 0.  0.
         23    2    4    4    0    0 -0.52339785684E+03 -0.36981556580E+03 -0.67283187177E+03  0.93427074975E+03  0.97212328998E+02 0.  0.
          3    1    3    3  502    0  0.58798389150E+02  0.46378301071E+02  0.14739240655E+02  0.76324587074E+02  0.00000000000E+00 0. -1.
         -2    1    3    3    0  502  0.43415082271E+03  0.50659203762E+03  0.34215044178E+03  0.74979287423E+03  0.00000000000E+00 0.  1.
         13    1    5    5    0    0  0.57553867282E+02 -0.14482809123E+03  0.18493950566E+03  0.24184756440E+03  0.00000000000E+00 0.  1.
        -13    1    5    5    0    0 -0.27105222300E+02 -0.38326681654E+02  0.96422427351E+02  0.10724230555E+03  0.00000000000E+00 0. -1.
          3    1    6    6  503    0 -0.21867578314E+01 -0.17768315748E+02 -0.99502497124E+01  0.20481758315E+02  0.00000000000E+00 0. -1.
         -3    1    6    6    0  503 -0.52121109901E+03 -0.35204725005E+03 -0.66288162206E+03  0.91378899143E+03  0.00000000000E+00 0.  1.
<mgrwt>
<rscale>  0 0.21091946E+04</rscale>
<asrwt>0</asrwt>
<pdfrwt beam="1">  1        3 0.16492756E+00 0.21091946E+04</pdfrwt>
<pdfrwt beam="2">  1       -4 0.15960753E+00 0.21091946E+04</pdfrwt>
<totfact> 0.13363011E-01</totfact>
</mgrwt>
</event>
<event>
12    5  0.5428626E-008  0.1696642E+04  0.7818608E-02  0.8763282E-01
         -2   -1    0    0    0  501 -0.00000000000E+00  0.00000000000E+00  0.13018727941E+04  0.13018727941E+04  0.00000000000E+00 0.  1.
          1   -1    0    0  501    0  0.00000000000E+00 -0.00000000000E+00 -0.55277953722E+03  0.55277953722E+03  0.00000000000E+00 0. -1.
        -24    2    1    2    0    0  0.37605515700E+03  0.92483057815E+02  0.78169382207E+03  0.87581798982E+03  0.77725946353E+02 0.  0.
        254    2    1    2    0    0 -0.37605515700E+03 -0.92483057815E+02 -0.32600565232E+02  0.97883434146E+03  0.89837813535E+03 0.  0.
         23    2    4    4    0    0  0.13781687661E+02 -0.28949824996E+03  0.29557127902E+03  0.42471782643E+03  0.94993049519E+02 0.  0.
         23    2    4    4    0    0 -0.38983684467E+03  0.19701519215E+03 -0.32817184425E+03  0.55411651504E+03  0.92523518536E+02 0.  0.
          3    1    3    3  502    0  0.80862310415E+02  0.53451618613E+02  0.20669915108E+03  0.22829876880E+03  0.00000000000E+00 0. -1.
         -4    1    3    3    0  502  0.29519284659E+03  0.39031439202E+02  0.57499467099E+03  0.64751922102E+03  0.00000000000E+00 0.  1.
         13    1    5    5    0    0  0.25037385055E+02 -0.22266548850E+03  0.16727569351E+03  0.27962107943E+03  0.00000000000E+00 0. -1.
        -13    1    5    5    0    0 -0.11255697394E+02 -0.66832761458E+02  0.12829558551E+03  0.14509674700E+03  0.00000000000E+00 0.  1.
          3    1    6    6  503    0 -0.30958532742E+03  0.18310249762E+03 -0.23164875860E+03  0.42782092860E+03  0.00000000000E+00 0. -1.
         -3    1    6    6    0  503 -0.80251517250E+02  0.13912694524E+02 -0.96523085654E+02  0.12629558644E+03  0.00000000000E+00 0.  1.
<mgrwt>
<rscale>  0 0.16966421E+04</rscale>
<asrwt>0</asrwt>
<pdfrwt beam="1">  1        1 0.85043006E-01 0.16966421E+04</pdfrwt>
<pdfrwt beam="2">  1       -2 0.20028812E+00 0.16966421E+04</pdfrwt>
<totfact> 0.42447484E+00</totfact>
</mgrwt>
</event>
<event>
12    5  0.5428626E-008  0.1393371E+04  0.7818608E-02  0.8958631E-01
          1   -1    0    0  501    0  0.00000000000E+00  0.00000000000E+00  0.72165793660E+03  0.72165793660E+03  0.00000000000E+00 0. -1.
         -2   -1    0    0    0  501 -0.00000000000E+00 -0.00000000000E+00 -0.67257680745E+03  0.67257680745E+03  0.00000000000E+00 0.  1.
        -24    2    1    2    0    0  0.12489516450E+03  0.14318999523E+02 -0.36726468231E+03  0.39626779047E+03  0.79630264542E+02 0.  0.
        254    2    1    2    0    0 -0.12489516450E+03 -0.14318999523E+02  0.41634581146E+03  0.99796695358E+03  0.89821510222E+03 0.  0.
         23    2    4    4    0    0  0.11047463330E+03  0.16513805825E+03  0.59856186396E+03  0.63726900566E+03  0.91434444787E+02 0.  0.
         23    2    4    4    0    0 -0.23536979780E+03 -0.17945705777E+03 -0.18221605250E+03  0.36069794792E+03  0.96418579886E+02 0.  0.
          3    1    3    3  502    0  0.55041062030E+02 -0.24078073339E+02 -0.22822039226E+03  0.23599538040E+03  0.00000000000E+00 0. -1.
         -4    1    3    3    0  502  0.69854102468E+02  0.38397072861E+02 -0.13904429005E+03  0.16027241007E+03  0.00000000000E+00 0.  1.
         13    1    5    5    0    0  0.98441209117E+02  0.12911934635E+03  0.56033747090E+03  0.58338714294E+03  0.00000000000E+00 0.  1.
        -13    1    5    5    0    0  0.12033424181E+02  0.36018711901E+02  0.38224393060E+02  0.53881862712E+02  0.00000000000E+00 0. -1.
          1    1    6    6  503    0 -0.48442212510E+02  0.45128817200E+01 -0.34997858450E+02  0.59932162904E+02  0.00000000000E+00 0. -1.
         -1    1    6    6    0  503 -0.18692758529E+03 -0.18396993949E+03 -0.14721819405E+03  0.30076578502E+03  0.00000000000E+00 0.  1.
<mgrwt>
<rscale>  0 0.13933706E+04</rscale>
<asrwt>0</asrwt>
<pdfrwt beam="1">  1        1 0.11102430E+00 0.13933706E+04</pdfrwt>
<pdfrwt beam="2">  1       -2 0.10347335E+00 0.13933706E+04</pdfrwt>
<totfact> 0.16913172E+01</totfact>
</mgrwt>
</event>
<event>
12    5  0.5428626E-008  0.1423612E+04  0.7818608E-02  0.8936902E-01
          1   -1    0    0  501    0  0.00000000000E+00  0.00000000000E+00  0.15010434011E+04  0.15010434011E+04  0.00000000000E+00 0. -1.
         -2   -1    0    0    0  501 -0.00000000000E+00 -0.00000000000E+00 -0.33754360924E+03  0.33754360924E+03  0.00000000000E+00 0.  1.
        -24    2    1    2    0    0 -0.65158326705E+02  0.44440789017E+03  0.54782188288E+03  0.71284688526E+03  0.79359221746E+02 0.  0.
        254    2    1    2    0    0  0.65158326705E+02 -0.44440789017E+03  0.61567790900E+03  0.11257401251E+04  0.82854544912E+03 0.  0.
         23    2    4    4    0    0  0.31641647787E+03  0.18768814485E+02  0.46467840261E+03  0.56990542300E+03  0.91621599261E+02 0.  0.
         23    2    4    4    0    0 -0.25125815116E+03 -0.46317670465E+03  0.15099950638E+03  0.55583470210E+03  0.92130596819E+02 0.  0.
          3    1    3    3  502    0 -0.69266950375E+02  0.43857340903E+03  0.51832613551E+03  0.68250020387E+03  0.00000000000E+00 0. -1.
         -4    1    3    3    0  502  0.41086236705E+01  0.58344811367E+01  0.29495747368E+02  0.30346681390E+02  0.00000000000E+00 0.  1.
         13    1    5    5    0    0 -0.46884473668E+01  0.52031200180E+01  0.36181257377E+01  0.78831992545E+01  0.00000000000E+00 0.  1.
        -13    1    5    5    0    0  0.32110492523E+03  0.13565694467E+02  0.46106027687E+03  0.56202222375E+03  0.00000000000E+00 0. -1.
          3    1    6    6  503    0 -0.15723175586E+03 -0.22815903952E+03  0.11562570245E+03  0.30024602484E+03  0.00000000000E+00 0. -1.
         -3    1    6    6    0  503 -0.94026395297E+02 -0.23501766513E+03  0.35373803938E+02  0.25558867726E+03  0.00000000000E+00 0.  1.
<mgrwt>
<rscale>  0 0.14236118E+04</rscale>
<asrwt>0</asrwt>
<pdfrwt beam="1">  1        1 0.23092975E+00 0.14236118E+04</pdfrwt>
<pdfrwt beam="2">  1       -2 0.51929787E-01 0.14236118E+04</pdfrwt>
<totfact> 0.19528246E+01</totfact>
</mgrwt>
</event>
<event>
12    5  0.5428626E-008  0.2124924E+04  0.7818608E-02  0.8550343E-01
         -2   -1    0    0    0  501 -0.00000000000E+00  0.00000000000E+00  0.48686636387E+03  0.48686636387E+03  0.00000000000E+00 0.  1.
          1   -1    0    0  501    0  0.00000000000E+00 -0.00000000000E+00 -0.23185532052E+04  0.23185532052E+04  0.00000000000E+00 0. -1.
        -24    2    1    2    0    0  0.68499918776E+03  0.49959678580E+03 -0.10079798278E+04  0.13195232678E+04  0.79356696807E+02 0.  0.
        254    2    1    2    0    0 -0.68499918776E+03 -0.49959678580E+03 -0.82370701356E+03  0.14858963013E+04  0.90031868717E+03 0.  0.
         23    2    4    4    0    0  0.87920290635E+02  0.16674782419E+03 -0.11843987295E+03  0.24211108159E+03  0.95157542758E+02 0.  0.
         23    2    4    4    0    0 -0.77291947840E+03 -0.66634460999E+03 -0.70526714061E+03  0.12437852197E+04  0.90444866382E+02 0.  0.
          3    1    3    3  502    0  0.65595602982E+03  0.47168016623E+03 -0.98174416543E+03  0.12714488187E+04  0.00000000000E+00 0. -1.
         -4    1    3    3    0  502  0.29043157937E+02  0.27916619568E+02 -0.26235662355E+02  0.48074449038E+02  0.00000000000E+00 0.  1.
         13    1    5    5    0    0  0.14646380429E+01  0.99166989101E+02 -0.38687342652E+02  0.10645631674E+03  0.00000000000E+00 0.  1.
        -13    1    5    5    0    0  0.86455652592E+02  0.67580835091E+02 -0.79752530300E+02  0.13565476485E+03  0.00000000000E+00 0. -1.
          3    1    6    6  503    0 -0.34495420925E+03 -0.23957966301E+03 -0.29866852076E+03  0.51535881355E+03  0.00000000000E+00 0. -1.
         -3    1    6    6    0  503 -0.42796526914E+03 -0.42676494697E+03 -0.40659861985E+03  0.72842640618E+03  0.00000000000E+00 0.  1.
<mgrwt>
<rscale>  0 0.21249241E+04</rscale>
<asrwt>0</asrwt>
<pdfrwt beam="1">  1        1 0.35670049E+00 0.21249241E+04</pdfrwt>
<pdfrwt beam="2">  1       -2 0.74902517E-01 0.21249241E+04</pdfrwt>
<totfact> 0.23337123E+00</totfact>
</mgrwt>
</event>
<event>
12    5  0.5428626E-008  0.1933410E+04  0.7818608E-02  0.8638403E-01
         -2   -1    0    0    0  501 -0.00000000000E+00  0.00000000000E+00  0.11687392137E+04  0.11687392137E+04  0.00000000000E+00 0.  1.
          1   -1    0    0  501    0  0.00000000000E+00 -0.00000000000E+00 -0.79959517451E+03  0.79959517451E+03  0.00000000000E+00 0. -1.
        -24    2    1    2    0    0  0.18365075949E+03  0.70338604269E+03 -0.43847986550E+02  0.73287403670E+03  0.81866850615E+02 0.  0.
        254    2    1    2    0    0 -0.18365075949E+03 -0.70338604269E+03  0.41299202577E+03  0.12354603515E+04  0.90957151470E+03 0.  0.
         23    2    4    4    0    0  0.91624694754E+01 -0.87777591234E+03  0.37026354973E+03  0.95716056219E+03  0.92123517216E+02 0.  0.
         23    2    4    4    0    0 -0.19281322897E+03  0.17438986965E+03  0.42728476036E+02  0.27829978934E+03  0.89645313239E+02 0.  0.
          1    1    3    3  502    0  0.14840324966E+03  0.65553329909E+03 -0.39432596667E+02  0.67327732801E+03  0.00000000000E+00 0. -1.
         -2    1    3    3    0  502  0.35247509831E+02  0.47852743601E+02 -0.44153898833E+01  0.59596708695E+02  0.00000000000E+00 0.  1.
         13    1    5    5    0    0 -0.11630964966E+02 -0.79395689394E+02  0.60692262795E+02  0.10061066347E+03  0.00000000000E+00 0. -1.
        -13    1    5    5    0    0  0.20793434441E+02 -0.79838022294E+03  0.30957128694E+03  0.85654989872E+03  0.00000000000E+00 0.  1.
          4    1    6    6  503    0 -0.49150072112E+02  0.19784080287E+02  0.41410836759E+02  0.67245794088E+02  0.00000000000E+00 0. -1.
         -4    1    6    6    0  503 -0.14366315685E+03  0.15460578936E+03  0.13176392761E+01  0.21105399526E+03  0.00000000000E+00 0.  1.
<mgrwt>
<rscale>  0 0.19334097E+04</rscale>
<asrwt>0</asrwt>
<pdfrwt beam="1">  1        1 0.12301464E+00 0.19334097E+04</pdfrwt>
<pdfrwt beam="2">  1       -2 0.17980603E+00 0.19334097E+04</pdfrwt>
<totfact> 0.32881821E+00</totfact>
</mgrwt>
</event>
<event>
12    5  0.5428626E-008  0.1316312E+04  0.7818608E-02  0.9016729E-01
         -2   -1    0    0    0  501 -0.00000000000E+00  0.00000000000E+00  0.16020151200E+04  0.16020151200E+04  0.00000000000E+00 0.  1.
          1   -1    0    0  501    0  0.00000000000E+00 -0.00000000000E+00 -0.27039009714E+03  0.27039009714E+03  0.00000000000E+00 0. -1.
        -24    2    1    2    0    0 -0.30121729288E+03 -0.11801652903E+03  0.16442368358E+03  0.37239467070E+03  0.83563654745E+02 0.  0.
        254    2    1    2    0    0  0.30121729288E+03  0.11801652903E+03  0.11672013393E+04  0.15000105465E+04  0.88488016951E+03 0.  0.
         23    2    4    4    0    0  0.36584719045E+03  0.42799150691E+03  0.93906536842E+03  0.10987821054E+04  0.91964406984E+02 0.  0.
         23    2    4    4    0    0 -0.64629897575E+02 -0.30997497788E+03  0.22813597090E+03  0.40122844112E+03  0.93148967618E+02 0.  0.
          1    1    3    3  502    0 -0.28512276253E+03 -0.12072203870E+03  0.13299548057E+03  0.33698159919E+03  0.00000000000E+00 0. -1.
         -2    1    3    3    0  502 -0.16094530349E+02  0.27055096742E+01  0.31428203007E+02  0.35413071513E+02  0.00000000000E+00 0.  1.
         13    1    5    5    0    0  0.13658039579E+03  0.23016098806E+03  0.43316549866E+03  0.50917642735E+03  0.00000000000E+00 0.  1.
        -13    1    5    5    0    0  0.22926679467E+03  0.19783051885E+03  0.50589986976E+03  0.58960567802E+03  0.00000000000E+00 0. -1.
          1    1    6    6  503    0 -0.66006277683E+02 -0.21127779984E+03  0.10966321346E+03  0.24702460967E+03  0.00000000000E+00 0. -1.
         -1    1    6    6    0  503  0.13763801080E+01 -0.98697178048E+02  0.11847275744E+03  0.15420383145E+03  0.00000000000E+00 0.  1.
<mgrwt>
<rscale>  0 0.13163115E+04</rscale>
<asrwt>0</asrwt>
<pdfrwt beam="1">  1        1 0.41598477E-01 0.13163115E+04</pdfrwt>
<pdfrwt beam="2">  1       -2 0.24646386E+00 0.13163115E+04</pdfrwt>
<totfact> 0.58181043E+00</totfact>
</mgrwt>
</event>
<event>
12    5  0.5428626E-008  0.1403653E+04  0.7818608E-02  0.8951179E-01
         -2   -1    0    0    0  501 -0.00000000000E+00  0.00000000000E+00  0.22831142673E+03  0.22831142673E+03  0.00000000000E+00 0.  1.
          1   -1    0    0  501    0  0.00000000000E+00 -0.00000000000E+00 -0.21574049847E+04  0.21574049847E+04  0.00000000000E+00 0. -1.
        -24    2    1    2    0    0 -0.36336252760E+03 -0.12144608677E+03 -0.30232352132E+03  0.49431324026E+03  0.78514899827E+02 0.  0.
        254    2    1    2    0    0  0.36336252760E+03  0.12144608677E+03 -0.16267700366E+04  0.18914031712E+04  0.88557536400E+03 0.  0.
         23    2    4    4    0    0  0.62588003929E+03  0.22767719078E+02 -0.13382575510E+04  0.14805834814E+04  0.94604333897E+02 0.  0.
         23    2    4    4    0    0 -0.26251751169E+03  0.98678367693E+02 -0.28851248567E+03  0.41081968978E+03  0.82948772947E+02 0.  0.
          1    1    3    3  502    0 -0.72875226483E+02  0.38488275726E+01 -0.75790165936E+02  0.10521293343E+03  0.00000000000E+00 0. -1.
         -2    1    3    3    0  502 -0.29048730112E+03 -0.12529491434E+03 -0.22653335538E+03  0.38910030683E+03  0.00000000000E+00 0.  1.
         13    1    5    5    0    0  0.51541296670E+02 -0.16582392081E+02 -0.76730599039E+02  0.93909881367E+02  0.00000000000E+00 0. -1.
        -13    1    5    5    0    0  0.57433874262E+03  0.39350111159E+02 -0.12615269519E+04  0.13866736000E+04  0.00000000000E+00 0.  1.
          1    1    6    6  503    0 -0.24153521553E+03  0.10322066936E+03 -0.28736163826E+03  0.38932053384E+03  0.00000000000E+00 0. -1.
         -1    1    6    6    0  503 -0.20982296156E+02 -0.45423016634E+01 -0.11508474012E+01  0.21499155940E+02  0.00000000000E+00 0.  1.
<mgrwt>
<rscale>  0 0.14036527E+04</rscale>
<asrwt>0</asrwt>
<pdfrwt beam="1">  1        1 0.33190846E+00 0.14036527E+04</pdfrwt>
<pdfrwt beam="2">  1       -2 0.35124835E-01 0.14036527E+04</pdfrwt>
<totfact> 0.15189985E+01</totfact>
</mgrwt>
</event>
<event>
12    5  0.5428626E-008  0.1693981E+04  0.7818608E-02  0.8764805E-01
          1   -1    0    0  501    0  0.00000000000E+00  0.00000000000E+00  0.26600416918E+04  0.26600416918E+04  0.00000000000E+00 0. -1.
         -2   -1    0    0    0  501 -0.00000000000E+00 -0.00000000000E+00 -0.26969222875E+03  0.26969222875E+03  0.00000000000E+00 0.  1.
        -24    2    1    2    0    0  0.31487480488E+03 -0.51482952278E+03  0.93618110394E+03  0.11166257629E+04  0.78882538127E+02 0.  0.
        254    2    1    2    0    0 -0.31487480488E+03  0.51482952278E+03  0.14541683591E+04  0.18131081576E+04  0.89919964095E+03 0.  0.
         23    2    4    4    0    0  0.12505177359E+03  0.60402937179E+03  0.80387909996E+03  0.10174469839E+04  0.92126704598E+02 0.  0.
         23    2    4    4    0    0 -0.43992657847E+03 -0.89199849014E+02  0.65028925913E+03  0.79566117366E+03  0.93319747196E+02 0.  0.
          3    1    3    3  502    0  0.28278950579E+03 -0.48808300479E+03  0.84071631365E+03  0.10124222658E+04  0.00000000000E+00 0. -1.
         -4    1    3    3    0  502  0.32085299091E+02 -0.26746517991E+02  0.95464790290E+02  0.10420349719E+03  0.00000000000E+00 0.  1.
         13    1    5    5    0    0  0.25692510008E+02  0.15431125828E+03  0.27287491589E+03  0.31453583138E+03  0.00000000000E+00 0.  1.
        -13    1    5    5    0    0  0.99359263581E+02  0.44971811351E+03  0.53100418407E+03  0.70291115255E+03  0.00000000000E+00 0. -1.
          2    1    6    6  503    0 -0.41404761764E+03 -0.92438772484E+02  0.56545631766E+03  0.70690961481E+03  0.00000000000E+00 0. -1.
         -2    1    6    6    0  503 -0.25878960829E+02  0.32389234698E+01  0.84832941472E+02  0.88751558847E+02  0.00000000000E+00 0.  1.
<mgrwt>
<rscale>  0 0.16939806E+04</rscale>
<asrwt>0</asrwt>
<pdfrwt beam="1">  1        1 0.40923716E+00 0.16939806E+04</pdfrwt>
<pdfrwt beam="2">  1       -2 0.41491114E-01 0.16939806E+04</pdfrwt>
<totfact> 0.48293598E+00</totfact>
</mgrwt>
</event>
<event>
12    5  0.5428626E-008  0.1280096E+04  0.7818608E-02  0.9045500E-01
         -2   -1    0    0    0  501 -0.00000000000E+00  0.00000000000E+00  0.10634353486E+04  0.10634353486E+04  0.00000000000E+00 0.  1.
          1   -1    0    0  501    0  0.00000000000E+00 -0.00000000000E+00 -0.38522479692E+03  0.38522479692E+03  0.00000000000E+00 0. -1.
        -24    2    1    2    0    0 -0.25468790983E+03  0.73726221790E+02  0.19230372676E+03  0.33738876347E+03  0.80925689335E+02 0.  0.
        254    2    1    2    0    0  0.25468790983E+03 -0.73726221790E+02  0.48590682489E+03  0.11112713820E+04  0.96359594999E+03 0.  0.
         23    2    4    4    0    0  0.53666266930E+03 -0.23174612148E+03  0.10192394041E+03  0.60025045094E+03  0.90548488548E+02 0.  0.
         23    2    4    4    0    0 -0.28197475948E+03  0.15801989969E+03  0.38398288447E+03  0.51102093109E+03  0.96018137660E+02 0.  0.
          1    1    3    3  502    0 -0.12640404272E+03  0.66939051287E+02  0.67052238983E+02  0.15797095099E+03  0.00000000000E+00 0. -1.
         -2    1    3    3    0  502 -0.12828386711E+03  0.67871705029E+01  0.12525148778E+03  0.17941781248E+03  0.00000000000E+00 0.  1.
         13    1    5    5    0    0  0.16761167304E+03 -0.32744652524E+02  0.48782411262E+02  0.17761083542E+03  0.00000000000E+00 0. -1.
        -13    1    5    5    0    0  0.36905099626E+03 -0.19900146896E+03  0.53141529152E+02  0.42263961552E+03  0.00000000000E+00 0.  1.
          4    1    6    6  503    0 -0.19189652310E+03  0.59210186731E+02  0.19849474209E+03  0.28236551565E+03  0.00000000000E+00 0. -1.
         -4    1    6    6    0  503 -0.90078236378E+02  0.98809712960E+02  0.18548814239E+03  0.22865541544E+03  0.00000000000E+00 0.  1.
<mgrwt>
<rscale>  0 0.12800963E+04</rscale>
<asrwt>0</asrwt>
<pdfrwt beam="1">  1        1 0.59265354E-01 0.12800963E+04</pdfrwt>
<pdfrwt beam="2">  1       -2 0.16360544E+00 0.12800963E+04</pdfrwt>
<totfact> 0.12836631E+01</totfact>
</mgrwt>
</event>
<event>
12    5  0.5428626E-008  0.2121406E+04  0.7818608E-02  0.8551872E-01
          1   -1    0    0  501    0  0.00000000000E+00  0.00000000000E+00  0.80681865323E+03  0.80681865323E+03  0.00000000000E+00 0. -1.
         -2   -1    0    0    0  501 -0.00000000000E+00 -0.00000000000E+00 -0.13944780014E+04  0.13944780014E+04  0.00000000000E+00 0.  1.
        -24    2    1    2    0    0  0.26128099846E+03 -0.16984220437E+03 -0.10801201376E+04  0.11273685083E+04  0.84770910890E+02 0.  0.
        254    2    1    2    0    0 -0.26128099846E+03  0.16984220437E+03  0.49246078944E+03  0.10739281463E+04  0.90204761503E+03 0.  0.
         23    2    4    4    0    0  0.17280708696E+03  0.37214294470E+02 -0.17291767452E+03  0.26319629012E+03  0.90136407479E+02 0.  0.
         23    2    4    4    0    0 -0.43408808542E+03  0.13262790990E+03  0.66537846396E+03  0.81073185620E+03  0.92385139353E+02 0.  0.
          1    1    3    3  502    0  0.88431179483E+02 -0.32005137745E+02 -0.21934303596E+03  0.23865407972E+03  0.00000000000E+00 0. -1.
         -2    1    3    3    0  502  0.17284981897E+03 -0.13783706663E+03 -0.86077710167E+03  0.88871442860E+03  0.00000000000E+00 0.  1.
         13    1    5    5    0    0  0.16279400879E+03  0.56395320708E+02 -0.13247445057E+03  0.21732878674E+03  0.00000000000E+00 0. -1.
        -13    1    5    5    0    0  0.10013078175E+02 -0.19181026237E+02 -0.40443223953E+02  0.45867503374E+02  0.00000000000E+00 0.  1.
          3    1    6    6  503    0 -0.38582605229E+03  0.12765177297E+03  0.53665322086E+03  0.67316669350E+03  0.00000000000E+00 0. -1.
         -3    1    6    6    0  503 -0.48262033127E+02  0.49761369339E+01  0.12872524310E+03  0.13756516271E+03  0.00000000000E+00 0.  1.
<mgrwt>
<rscale>  0 0.21214060E+04</rscale>
<asrwt>0</asrwt>
<pdfrwt beam="1">  1        1 0.12412595E+00 0.21214060E+04</pdfrwt>
<pdfrwt beam="2">  1       -2 0.21453508E+00 0.21214060E+04</pdfrwt>
<totfact> 0.18779240E+00</totfact>
</mgrwt>
</event>
<event>
12    5  0.5428626E-008  0.1945087E+04  0.7818608E-02  0.8632734E-01
          1   -1    0    0  501    0  0.00000000000E+00  0.00000000000E+00  0.10740124807E+04  0.10740124807E+04  0.00000000000E+00 0. -1.
         -2   -1    0    0    0  501 -0.00000000000E+00 -0.00000000000E+00 -0.88066089016E+03  0.88066089016E+03  0.00000000000E+00 0.  1.
        -24    2    1    2    0    0 -0.39553243247E+03 -0.32432369782E+03  0.64257500864E+03  0.82511988343E+03  0.79299522053E+02 0.  0.
        254    2    1    2    0    0  0.39553243247E+03  0.32432369782E+03 -0.44922341814E+03  0.11295534874E+04  0.90136431890E+03 0.  0.
         23    2    4    4    0    0 -0.87775313677E+02 -0.33061045063E+01 -0.51960084435E+03  0.53454577570E+03  0.89658869335E+02 0.  0.
         23    2    4    4    0    0  0.48330774615E+03  0.32762980232E+03  0.70377426213E+02  0.59500771169E+03  0.90296899156E+02 0.  0.
          3    1    3    3  502    0 -0.36455524633E+03 -0.32141976258E+03  0.61187639754E+03  0.78141149036E+03  0.00000000000E+00 0. -1.
         -4    1    3    3    0  502 -0.30977186139E+02 -0.29039352397E+01  0.30698611103E+02  0.43708393068E+02  0.00000000000E+00 0.  1.
         13    1    5    5    0    0 -0.57786549921E+02  0.18166091493E+02 -0.46327480109E+03  0.46721818624E+03  0.00000000000E+00 0. -1.
        -13    1    5    5    0    0 -0.29988763756E+02 -0.21472195999E+02 -0.56326043266E+02  0.67327589461E+02  0.00000000000E+00 0.  1.
          1    1    6    6  503    0  0.23177477082E+03  0.11932799817E+03  0.63675243794E+02  0.26835285019E+03  0.00000000000E+00 0. -1.
         -1    1    6    6    0  503  0.25153297533E+03  0.20830180416E+03  0.67021824193E+01  0.32665486150E+03  0.00000000000E+00 0.  1.
<mgrwt>
<rscale>  0 0.19450869E+04</rscale>
<asrwt>0</asrwt>
<pdfrwt beam="1">  1        1 0.16523269E+00 0.19450869E+04</pdfrwt>
<pdfrwt beam="2">  1       -2 0.13548629E+00 0.19450869E+04</pdfrwt>
<totfact> 0.42380768E+00</totfact>
</mgrwt>
</event>
<event>
12    5  0.5428626E-008  0.1893885E+04  0.7818608E-02  0.8657906E-01
          1   -1    0    0  501    0  0.00000000000E+00  0.00000000000E+00  0.21384838366E+04  0.21384838366E+04  0.00000000000E+00 0. -1.
         -2   -1    0    0    0  501 -0.00000000000E+00 -0.00000000000E+00 -0.41931587790E+03  0.41931587790E+03  0.00000000000E+00 0.  1.
        -24    2    1    2    0    0  0.35272704529E+03 -0.34231931522E+03  0.14031137967E+04  0.14884880632E+04  0.72591363139E+02 0.  0.
        254    2    1    2    0    0 -0.35272704529E+03  0.34231931522E+03  0.31605416199E+03  0.10693116512E+04  0.89551007367E+03 0.  0.
         23    2    4    4    0    0  0.25037663341E+03 -0.77745496419E+02  0.49572205010E+02  0.28224104329E+03  0.92031419836E+02 0.  0.
         23    2    4    4    0    0 -0.60310367870E+03  0.42006481164E+03  0.26648195698E+03  0.78707060792E+03  0.90989093903E+02 0.  0.
          3    1    3    3  502    0  0.17192377084E+03 -0.19542459349E+03  0.82938595933E+03  0.86926959238E+03  0.00000000000E+00 0. -1.
         -4    1    3    3    0  502  0.18080327445E+03 -0.14689472173E+03  0.57372783733E+03  0.61921847086E+03  0.00000000000E+00 0.  1.
         13    1    5    5    0    0  0.34199576081E+02  0.31651023119E+01 -0.21746839595E+02  0.40651616316E+02  0.00000000000E+00 0.  1.
        -13    1    5    5    0    0  0.21617705733E+03 -0.80910598731E+02  0.71319044605E+02  0.24158942697E+03  0.00000000000E+00 0. -1.
          4    1    6    6  503    0 -0.36300151772E+03  0.23816618941E+03  0.20280144899E+03  0.47918854677E+03  0.00000000000E+00 0. -1.
         -4    1    6    6    0  503 -0.24010216098E+03  0.18189862223E+03  0.63680507993E+02  0.30788206115E+03  0.00000000000E+00 0.  1.
<mgrwt>
<rscale>  0 0.18938851E+04</rscale>
<asrwt>0</asrwt>
<pdfrwt beam="1">  1        1 0.32899751E+00 0.18938851E+04</pdfrwt>
<pdfrwt beam="2">  1       -2 0.64510136E-01 0.18938851E+04</pdfrwt>
<totfact> 0.43775920E+00</totfact>
</mgrwt>
</event>
<event>
12    5  0.5428626E-008  0.1537620E+04  0.7818608E-02  0.8859814E-01
          1   -1    0    0  501    0  0.00000000000E+00  0.00000000000E+00  0.83425091664E+03  0.83425091664E+03  0.00000000000E+00 0. -1.
         -2   -1    0    0    0  501 -0.00000000000E+00 -0.00000000000E+00 -0.70850240937E+03  0.70850240937E+03  0.00000000000E+00 0.  1.
        -24    2    1    2    0    0  0.23361330683E+03 -0.30007315759E+03  0.37333466899E+03  0.53927229954E+03  0.82563678145E+02 0.  0.
        254    2    1    2    0    0 -0.23361330683E+03  0.30007315759E+03 -0.24758616172E+03  0.10034810265E+04  0.89501742216E+03 0.  0.
         23    2    4    4    0    0  0.31423232484E+03  0.18996582387E+01 -0.16597743447E+01  0.32622251202E+03  0.87594576435E+02 0.  0.
         23    2    4    4    0    0 -0.54784563167E+03  0.29817349935E+03 -0.24592638737E+03  0.67725851445E+03  0.95692400596E+02 0.  0.
          1    1    3    3  502    0  0.20984259973E+03 -0.27377335031E+03  0.36626098111E+03  0.50312311643E+03  0.00000000000E+00 0. -1.
         -2    1    3    3    0  502  0.23770707108E+02 -0.26299807287E+02  0.70736878729E+01  0.36149183115E+02  0.00000000000E+00 0.  1.
         13    1    5    5    0    0  0.17061307275E+03 -0.23331465725E+02  0.35324265355E+02  0.17578675038E+03  0.00000000000E+00 0.  1.
        -13    1    5    5    0    0  0.14361925209E+03  0.25231123963E+02 -0.36984039700E+02  0.15043576164E+03  0.00000000000E+00 0. -1.
          1    1    6    6  503    0 -0.34857732720E+03  0.13837227261E+03 -0.16029560438E+03  0.40785747467E+03  0.00000000000E+00 0. -1.
         -1    1    6    6    0  503 -0.19926830447E+03  0.15980122675E+03 -0.85630782994E+02  0.26940103978E+03  0.00000000000E+00 0.  1.
<mgrwt>
<rscale>  0 0.15376200E+04</rscale>
<asrwt>0</asrwt>
<pdfrwt beam="1">  1        1 0.12834629E+00 0.15376200E+04</pdfrwt>
<pdfrwt beam="2">  1       -2 0.10900037E+00 0.15376200E+04</pdfrwt>
<totfact> 0.11722227E+01</totfact>
</mgrwt>
</event>
<event>
12    5  0.5428626E-008  0.1040969E+04  0.7818608E-02  0.9264718E-01
         -2   -1    0    0    0  501 -0.00000000000E+00  0.00000000000E+00  0.14640115093E+03  0.14640115093E+03  0.00000000000E+00 0.  1.
          1   -1    0    0  501    0  0.00000000000E+00 -0.00000000000E+00 -0.18504218915E+04  0.18504218915E+04  0.00000000000E+00 0. -1.
        -24    2    1    2    0    0 -0.82112811085E+02  0.10754772231E+01 -0.37661255505E+03  0.39352082924E+03  0.79233553674E+02 0.  0.
        254    2    1    2    0    0  0.82112811085E+02 -0.10754772231E+01 -0.13274081855E+04  0.16033022132E+04  0.89544504325E+03 0.  0.
         23    2    4    4    0    0  0.40678204084E+03 -0.13680087463E+02 -0.27877097289E+03  0.50146793117E+03  0.89989205594E+02 0.  0.
         23    2    4    4    0    0 -0.32466922976E+03  0.12604610240E+02 -0.10486372127E+04  0.11018342820E+04  0.93966996245E+02 0.  0.
          1    1    3    3  502    0 -0.42700625349E+02  0.14778708357E+02 -0.32009684782E+03  0.32327039087E+03  0.00000000000E+00 0. -1.
         -2    1    3    3    0  502 -0.39412185736E+02 -0.13703231134E+02 -0.56515707232E+02  0.70250438376E+02  0.00000000000E+00 0.  1.
         13    1    5    5    0    0  0.39487016302E+03 -0.28278927384E+02 -0.25405603958E+03  0.47038985387E+03  0.00000000000E+00 0. -1.
        -13    1    5    5    0    0  0.11911877823E+02  0.14598839921E+02 -0.24714933309E+02  0.31078077302E+02  0.00000000000E+00 0.  1.
          2    1    6    6  503    0 -0.30641181772E+03 -0.95956523587E+01 -0.99249175165E+03  0.10387589498E+04  0.00000000000E+00 0. -1.
         -2    1    6    6    0  503 -0.18257412035E+02  0.22200262598E+02 -0.56145461001E+02  0.63075332299E+02  0.00000000000E+00 0.  1.
<mgrwt>
<rscale>  0 0.10409686E+04</rscale>
<asrwt>0</asrwt>
<pdfrwt beam="1">  1        1 0.28468031E+00 0.10409686E+04</pdfrwt>
<pdfrwt beam="2">  1       -2 0.22523253E-01 0.10409686E+04</pdfrwt>
<totfact> 0.57360901E+01</totfact>
</mgrwt>
</event>
<event>
12    5  0.5428626E-008  0.3471869E+04  0.7818608E-02  0.8120489E-01
          1   -1    0    0  501    0  0.00000000000E+00  0.00000000000E+00  0.17532942612E+04  0.17532942612E+04  0.00000000000E+00 0. -1.
         -2   -1    0    0    0  501 -0.00000000000E+00 -0.00000000000E+00 -0.17187463187E+04  0.17187463187E+04  0.00000000000E+00 0.  1.
        -24    2    1    2    0    0 -0.14035919882E+04  0.55587155318E+03 -0.60824344271E+03  0.16295544053E+04  0.80148745369E+02 0.  0.
        254    2    1    2    0    0  0.14035919882E+04 -0.55587155318E+03  0.64279138531E+03  0.18424861746E+04  0.83815922448E+03 0.  0.
         23    2    4    4    0    0  0.11963618419E+03  0.15865285615E+03  0.22049640353E+03  0.31105610343E+03  0.93025212612E+02 0.  0.
         23    2    4    4    0    0  0.12839558040E+04 -0.71452440933E+03  0.42229498178E+03  0.15314300711E+04  0.88641824481E+02 0.  0.
          3    1    3    3  502    0 -0.36519274966E+03  0.12396792401E+03 -0.12412943578E+03  0.40514430443E+03  0.00000000000E+00 0. -1.
         -4    1    3    3    0  502 -0.10383992385E+04  0.43190362917E+03 -0.48411400694E+03  0.12244101009E+04  0.00000000000E+00 0.  1.
         13    1    5    5    0    0  0.38470086741E+02 -0.14386436359E+01  0.26351415268E+02  0.46652056289E+02  0.00000000000E+00 0.  1.
        -13    1    5    5    0    0  0.81166097445E+02  0.16009149979E+03  0.19414498826E+03  0.26440404714E+03  0.00000000000E+00 0. -1.
          1    1    6    6  503    0  0.12501288553E+04 -0.68030364592E+03  0.39994205077E+03  0.14783737178E+04  0.00000000000E+00 0. -1.
         -1    1    6    6    0  503  0.33826948706E+02 -0.34220763411E+02  0.22352931014E+02  0.53056353362E+02  0.00000000000E+00 0.  1.
<mgrwt>
<rscale>  0 0.34718687E+04</rscale>
<asrwt>0</asrwt>
<pdfrwt beam="1">  1        1 0.26973758E+00 0.34718687E+04</pdfrwt>
<pdfrwt beam="2">  1       -2 0.26442251E+00 0.34718687E+04</pdfrwt>
<totfact> 0.16513952E-01</totfact>
</mgrwt>
</event>
<event>
12    5  0.5428626E-008  0.2607002E+04  0.7818608E-02  0.8365827E-01
         -2   -1    0    0    0  501 -0.00000000000E+00  0.00000000000E+00  0.90606091812E+03  0.90606091812E+03  0.00000000000E+00 0.  1.
          1   -1    0    0  501    0  0.00000000000E+00 -0.00000000000E+00 -0.18752761359E+04  0.18752761359E+04  0.00000000000E+00 0. -1.
        -24    2    1    2    0    0 -0.23738674276E+03  0.87201285704E+03 -0.11657969047E+04  0.14771458341E+04  0.78220865222E+02 0.  0.
        254    2    1    2    0    0  0.23738674276E+03 -0.87201285704E+03  0.19658168684E+03  0.13041912200E+04  0.91951698743E+03 0.  0.
         23    2    4    4    0    0  0.14805054340E+03 -0.72624443970E+03 -0.27392223109E+03  0.79550583865E+03  0.91903215611E+02 0.  0.
         23    2    4    4    0    0  0.89336199356E+02 -0.14576841734E+03  0.47050391793E+03  0.50868538133E+03  0.90318837334E+02 0.  0.
          3    1    3    3  502    0 -0.84706675084E+02  0.45358176189E+03 -0.57463930325E+03  0.73696808911E+03  0.00000000000E+00 0. -1.
         -4    1    3    3    0  502 -0.15268006767E+03  0.41843109515E+03 -0.59115760142E+03  0.74017774498E+03  0.00000000000E+00 0.  1.
         13    1    5    5    0    0  0.73668005713E+02 -0.38643232803E+03 -0.96686717738E+02  0.40509905035E+03  0.00000000000E+00 0.  1.
        -13    1    5    5    0    0  0.74382537688E+02 -0.33981211167E+03 -0.17723551335E+03  0.39040678829E+03  0.00000000000E+00 0. -1.
          3    1    6    6  503    0  0.39470825470E+02 -0.13257975718E+03  0.29619255947E+03  0.32690269250E+03  0.00000000000E+00 0. -1.
         -3    1    6    6    0  503  0.49865373886E+02 -0.13188660164E+02  0.17431135846E+03  0.18178268883E+03  0.00000000000E+00 0.  1.
<mgrwt>
<rscale>  0 0.26070017E+04</rscale>
<asrwt>0</asrwt>
<pdfrwt beam="1">  1        1 0.28850402E+00 0.26070017E+04</pdfrwt>
<pdfrwt beam="2">  1       -2 0.13939399E+00 0.26070017E+04</pdfrwt>
<totfact> 0.10174226E+00</totfact>
</mgrwt>
</event>
<event>
12    5  0.5428626E-008  0.1704126E+04  0.7818608E-02  0.8759015E-01
          3   -1    0    0  501    0  0.00000000000E+00  0.00000000000E+00  0.55997932483E+03  0.55997932483E+03  0.00000000000E+00 0. -1.
         -4   -1    0    0    0  501 -0.00000000000E+00 -0.00000000000E+00 -0.12964961330E+04  0.12964961330E+04  0.00000000000E+00 0.  1.
        -24    2    1    2    0    0  0.42041933281E+03 -0.36079898378E+03 -0.55304311199E+03  0.78531893960E+03  0.62776039074E+02 0.  0.
        254    2    1    2    0    0 -0.42041933281E+03  0.36079898378E+03 -0.18347369620E+03  0.10711565183E+04  0.89821231750E+03 0.  0.
         23    2    4    4    0    0 -0.10740488670E+02  0.92876305908E+02  0.33047585103E+03  0.35544805546E+03  0.91584200150E+02 0.  0.
         23    2    4    4    0    0 -0.40967884414E+03  0.26792267787E+03 -0.51394954723E+03  0.71570846279E+03  0.92060577686E+02 0.  0.
          3    1    3    3  502    0  0.11615762576E+03 -0.83168227847E+02 -0.10932011208E+03  0.17989006379E+03  0.00000000000E+00 0. -1.
         -4    1    3    3    0  502  0.30426170704E+03 -0.27763075593E+03 -0.44372299991E+03  0.60542887581E+03  0.00000000000E+00 0.  1.
         13    1    5    5    0    0 -0.18439089812E+02  0.10850568699E+03  0.30756958090E+03  0.32666884032E+03  0.00000000000E+00 0.  1.
        -13    1    5    5    0    0  0.76986011424E+01 -0.15629381080E+02  0.22906270135E+02  0.28779215138E+02  0.00000000000E+00 0. -1.
          2    1    6    6  503    0 -0.20839519050E+03  0.18186396208E+03 -0.25038000151E+03  0.37308605078E+03  0.00000000000E+00 0. -1.
         -2    1    6    6    0  503 -0.20128365363E+03  0.86058715790E+02 -0.26356954573E+03  0.34262241202E+03  0.00000000000E+00 0.  1.
<mgrwt>
<rscale>  0 0.17041256E+04</rscale>
<asrwt>0</asrwt>
<pdfrwt beam="1">  1        3 0.86150666E-01 0.17041256E+04</pdfrwt>
<pdfrwt beam="2">  1       -4 0.19946094E+00 0.17041256E+04</pdfrwt>
<totfact> 0.35556688E-01</totfact>
</mgrwt>
</event>
<event>
12    5  0.5428626E-008  0.1879125E+04  0.7818608E-02  0.8665318E-01
         -2   -1    0    0    0  501 -0.00000000000E+00  0.00000000000E+00  0.34391845015E+03  0.34391845015E+03  0.00000000000E+00 0.  1.
          1   -1    0    0  501    0  0.00000000000E+00 -0.00000000000E+00 -0.25668216556E+04  0.25668216556E+04  0.00000000000E+00 0. -1.
        -24    2    1    2    0    0 -0.48630285438E+02 -0.10713481495E+03  0.24568166198E+03  0.28397746109E+03  0.80255505352E+02 0.  0.
        254    2    1    2    0    0  0.48630285438E+02  0.10713481495E+03 -0.24685848675E+04  0.26267626447E+04  0.89001571361E+03 0.  0.
         23    2    4    4    0    0  0.42587812474E+03 -0.27998018332E+02 -0.17003510542E+04  0.17554818248E+04  0.91469468676E+02 0.  0.
         23    2    4    4    0    0 -0.37724783930E+03  0.13513283328E+03 -0.76823381328E+03  0.87128081986E+03  0.91489126693E+02 0.  0.
          3    1    3    3  502    0 -0.20045328332E+02 -0.77895624111E+02  0.80451773437E+02  0.11376304889E+03  0.00000000000E+00 0. -1.
         -4    1    3    3    0  502 -0.28584957106E+02 -0.29239190838E+02  0.16522988854E+03  0.17021441220E+03  0.00000000000E+00 0.  1.
         13    1    5    5    0    0  0.20233379867E+03  0.15318558700E+02 -0.94582187089E+03  0.96734308070E+03  0.00000000000E+00 0. -1.
        -13    1    5    5    0    0  0.22354432607E+03 -0.43316577032E+02 -0.75452918329E+03  0.78813874413E+03  0.00000000000E+00 0.  1.
          2    1    6    6  503    0 -0.32046849293E+03  0.81934515627E+02 -0.65653035809E+03  0.73514993770E+03  0.00000000000E+00 0. -1.
         -2    1    6    6    0  503 -0.56779346374E+02  0.53198317654E+02 -0.11170345519E+03  0.13613088216E+03  0.00000000000E+00 0.  1.
<mgrwt>
<rscale>  0 0.18791246E+04</rscale>
<asrwt>0</asrwt>
<pdfrwt beam="1">  1        1 0.39489564E+00 0.18791246E+04</pdfrwt>
<pdfrwt beam="2">  1       -2 0.52910531E-01 0.18791246E+04</pdfrwt>
<totfact> 0.33791809E+00</totfact>
</mgrwt>
</event>
<event>
12    5  0.5428626E-008  0.1090680E+04  0.7818608E-02  0.9214323E-01
         -2   -1    0    0    0  501 -0.00000000000E+00  0.00000000000E+00  0.16054648983E+03  0.16054648983E+03  0.00000000000E+00 0.  1.
          1   -1    0    0  501    0  0.00000000000E+00 -0.00000000000E+00 -0.18523972107E+04  0.18523972107E+04  0.00000000000E+00 0. -1.
        -24    2    1    2    0    0  0.13220853824E+02  0.23090456926E+02 -0.56423036817E+03  0.57035090313E+03  0.78970147291E+02 0.  0.
        254    2    1    2    0    0 -0.13220853824E+02 -0.23090456926E+02 -0.11276203527E+04  0.14425927974E+04  0.89935441239E+03 0.  0.
         23    2    4    4    0    0  0.13399224873E+03  0.85466151212E+02  0.92724906474E+02  0.20562067849E+03  0.91780005552E+02 0.  0.
         23    2    4    4    0    0 -0.14721310255E+03 -0.10855660814E+03 -0.12203452592E+04  0.12369721189E+04  0.86030440106E+02 0.  0.
          1    1    3    3  502    0  0.42159325668E+01  0.21598051709E+02 -0.55975079551E+03  0.56018318700E+03  0.00000000000E+00 0. -1.
         -2    1    3    3    0  502  0.90049212569E+01  0.14924052166E+01 -0.44795726640E+01  0.10167716136E+02  0.00000000000E+00 0.  1.
         13    1    5    5    0    0  0.89006733716E+02  0.70773605782E+02  0.10705045979E+03  0.15617587158E+03  0.00000000000E+00 0. -1.
        -13    1    5    5    0    0  0.44985515010E+02  0.14692545430E+02 -0.14325553320E+02  0.49444806905E+02  0.00000000000E+00 0.  1.
          2    1    6    6  503    0 -0.83270702760E+02 -0.89649961203E+02 -0.97788976840E+03  0.98551485257E+03  0.00000000000E+00 0. -1.
         -2    1    6    6    0  503 -0.63942399789E+02 -0.18906646934E+02 -0.24245549079E+03  0.25145726636E+03  0.00000000000E+00 0.  1.
<mgrwt>
<rscale>  0 0.10906803E+04</rscale>
<asrwt>0</asrwt>
<pdfrwt beam="1">  1        1 0.28498420E+00 0.10906803E+04</pdfrwt>
<pdfrwt beam="2">  1       -2 0.24699459E-01 0.10906803E+04</pdfrwt>
<totfact> 0.48258044E+01</totfact>
</mgrwt>
</event>
<event>
12    5  0.5428626E-008  0.2365898E+04  0.7818608E-02  0.8452382E-01
          1   -1    0    0  501    0  0.00000000000E+00  0.00000000000E+00  0.15766466863E+04  0.15766466863E+04  0.00000000000E+00 0. -1.
         -2   -1    0    0    0  501 -0.00000000000E+00 -0.00000000000E+00 -0.88756019701E+03  0.88756019701E+03  0.00000000000E+00 0.  1.
        -24    2    1    2    0    0  0.38324734715E+03  0.22393773641E+02  0.12723186879E+04  0.13317558963E+04  0.86016938207E+02 0.  0.
        254    2    1    2    0    0 -0.38324734715E+03 -0.22393773641E+02 -0.58323219859E+03  0.11324509870E+04  0.89157469136E+03 0.  0.
         23    2    4    4    0    0 -0.46781363128E+03 -0.34158555020E+03 -0.20394850494E+03  0.62128363243E+03  0.94170470645E+02 0.  0.
         23    2    4    4    0    0  0.84566284136E+02  0.31919177656E+03 -0.37928369365E+03  0.51116735455E+03  0.91657500830E+02 0.  0.
          3    1    3    3  502    0  0.25056405400E+03  0.44938768523E+02  0.92126065513E+03  0.95578398855E+03  0.00000000000E+00 0. -1.
         -4    1    3    3    0  502  0.13268329315E+03 -0.22544994882E+02  0.35105803274E+03  0.37597190776E+03  0.00000000000E+00 0.  1.
         13    1    5    5    0    0 -0.32179091058E+02 -0.44503381673E+02 -0.43690203689E+02  0.70177480576E+02  0.00000000000E+00 0.  1.
        -13    1    5    5    0    0 -0.43563454022E+03 -0.29708216853E+03 -0.16025830125E+03  0.55110615186E+03  0.00000000000E+00 0. -1.
          4    1    6    6  503    0 -0.16725496237E+02  0.26027418728E+02 -0.50046829632E+02  0.58837521245E+02  0.00000000000E+00 0.  1.
         -4    1    6    6    0  503  0.10129178037E+03  0.29316435783E+03 -0.32923686401E+03  0.45232983331E+03  0.00000000000E+00 0. -1.
<mgrwt>
<rscale>  0 0.23658984E+04</rscale>
<asrwt>0</asrwt>
<pdfrwt beam="1">  1        1 0.24256103E+00 0.23658984E+04</pdfrwt>
<pdfrwt beam="2">  1       -2 0.13654772E+00 0.23658984E+04</pdfrwt>
<totfact> 0.17510893E+00</totfact>
</mgrwt>
</event>
<event>
12    5  0.5428626E-008  0.1714147E+04  0.7818608E-02  0.8753336E-01
          1   -1    0    0  501    0  0.00000000000E+00  0.00000000000E+00  0.27353469494E+04  0.27353469494E+04  0.00000000000E+00 0. -1.
         -4   -1    0    0    0  501 -0.00000000000E+00 -0.00000000000E+00 -0.26854922729E+03  0.26854922729E+03  0.00000000000E+00 0.  1.
        -24    2    1    2    0    0  0.21599736222E+03 -0.54054894259E+03  0.80875073410E+03  0.99968236092E+03  0.80243710062E+02 0.  0.
        254    2    1    2    0    0 -0.21599736222E+03  0.54054894259E+03  0.16580469880E+04  0.20042138158E+04  0.96379727384E+03 0.  0.
         23    2    4    4    0    0 -0.53618526811E+03  0.49198398277E+03  0.13985473668E+04  0.15791152761E+04  0.90152299367E+02 0.  0.
         23    2    4    4    0    0  0.32018790589E+03  0.48564959822E+02  0.25949962125E+03  0.42509853968E+03  0.92140461283E+02 0.  0.
          1    1    3    3  502    0  0.21277841612E+03 -0.52528352723E+03  0.75709493391E+03  0.94572204019E+03  0.00000000000E+00 0. -1.
         -2    1    3    3    0  502  0.32189460966E+01 -0.15265415363E+02  0.51655800192E+02  0.53960320734E+02  0.00000000000E+00 0.  1.
         13    1    5    5    0    0 -0.43712565335E+03  0.42797705025E+03  0.12254064915E+04  0.13696219412E+04  0.00000000000E+00 0. -1.
        -13    1    5    5    0    0 -0.99059614761E+02  0.64006932522E+02  0.17314087527E+03  0.20949333493E+03  0.00000000000E+00 0.  1.
          3    1    6    6  503    0  0.30816211755E+03  0.24467423692E+02  0.23114987748E+03  0.38599586963E+03  0.00000000000E+00 0. -1.
         -3    1    6    6    0  503  0.12025788343E+02  0.24097536130E+02  0.28349743774E+02  0.39102670048E+02  0.00000000000E+00 0.  1.
<mgrwt>
<rscale>  0 0.17141474E+04</rscale>
<asrwt>0</asrwt>
<pdfrwt beam="1">  1        1 0.42082259E+00 0.17141474E+04</pdfrwt>
<pdfrwt beam="2">  1       -4 0.41315268E-01 0.17141474E+04</pdfrwt>
<totfact> 0.25093586E+00</totfact>
</mgrwt>
</event>
<event>
12    5  0.5428626E-008  0.2168686E+04  0.7818608E-02  0.8531576E-01
          1   -1    0    0  501    0  0.00000000000E+00  0.00000000000E+00  0.11448607212E+04  0.11448607212E+04  0.00000000000E+00 0. -1.
         -2   -1    0    0    0  501 -0.00000000000E+00 -0.00000000000E+00 -0.10270238192E+04  0.10270238192E+04  0.00000000000E+00 0.  1.
        -24    2    1    2    0    0 -0.48827206908E+03 -0.75574176546E+03 -0.27439298091E+02  0.90367262688E+03  0.79473718825E+02 0.  0.
        254    2    1    2    0    0  0.48827206908E+03  0.75574176546E+03  0.14527620009E+03  0.12682119135E+04  0.88187360418E+03 0.  0.
         23    2    4    4    0    0  0.35707592808E+03  0.86291815494E+03 -0.11379275699E+03  0.94508767483E+03  0.90060874052E+02 0.  0.
         23    2    4    4    0    0  0.13119614100E+03 -0.10717638948E+03  0.25906895708E+03  0.32312423868E+03  0.92700287083E+02 0.  0.
          1    1    3    3  502    0  0.81601049034E-01  0.92873408565E+00  0.24272826485E+01  0.26001743766E+01  0.00000000000E+00 0. -1.
         -2    1    3    3    0  502 -0.48835367013E+03 -0.75667049955E+03 -0.29866580739E+02  0.90107245250E+03  0.00000000000E+00 0.  1.
         13    1    5    5    0    0  0.31483839030E+02  0.14256728632E+03  0.27435373739E+01  0.14602804609E+03  0.00000000000E+00 0. -1.
        -13    1    5    5    0    0  0.32559208905E+03  0.72035086862E+03 -0.11653629437E+03  0.79905962874E+03  0.00000000000E+00 0.  1.
          1    1    6    6  503    0 -0.54945166467E+00 -0.48462301170E+02  0.56286555124E+02  0.74277000609E+02  0.00000000000E+00 0. -1.
         -1    1    6    6    0  503  0.13174559266E+03 -0.58714088310E+02  0.20278240196E+03  0.24884723807E+03  0.00000000000E+00 0.  1.
<mgrwt>
<rscale>  0 0.21686855E+04</rscale>
<asrwt>0</asrwt>
<pdfrwt beam="1">  1        1 0.17613242E+00 0.21686855E+04</pdfrwt>
<pdfrwt beam="2">  1       -2 0.15800366E+00 0.21686855E+04</pdfrwt>
<totfact> 0.24526148E+00</totfact>
</mgrwt>
</event>
<event>
12    5  0.5428626E-008  0.1538814E+04  0.7818608E-02  0.8859045E-01
          1   -1    0    0  501    0  0.00000000000E+00  0.00000000000E+00  0.46800053179E+03  0.46800053179E+03  0.00000000000E+00 0. -1.
         -2   -1    0    0    0  501 -0.00000000000E+00 -0.00000000000E+00 -0.12649280321E+04  0.12649280321E+04  0.00000000000E+00 0.  1.
        -24    2    1    2    0    0 -0.28682069035E+02 -0.43146947649E+03  0.23590013054E+02  0.44000191702E+03  0.77824340932E+02 0.  0.
        254    2    1    2    0    0  0.28682069035E+02  0.43146947649E+03 -0.82051751339E+03  0.12929266469E+04  0.90078951716E+03 0.  0.
         23    2    4    4    0    0  0.40079857959E+03  0.20982033667E+03 -0.69223791011E+03  0.83216516292E+03  0.92959448669E+02 0.  0.
         23    2    4    4    0    0 -0.37211651056E+03  0.22164913981E+03 -0.12827960328E+03  0.46076148397E+03  0.90809965762E+02 0.  0.
          1    1    3    3  502    0 -0.46290314470E+02 -0.21064192058E+03 -0.10209565825E+02  0.21590981255E+03  0.00000000000E+00 0. -1.
         -2    1    3    3    0  502  0.17608245435E+02 -0.22082755591E+03  0.33799578879E+02  0.22409210447E+03  0.00000000000E+00 0.  1.
         13    1    5    5    0    0  0.14625659904E+03  0.10575367643E+03 -0.20885191275E+03  0.27603252399E+03  0.00000000000E+00 0. -1.
        -13    1    5    5    0    0  0.25454198056E+03  0.10406666024E+03 -0.48338599736E+03  0.55613263893E+03  0.00000000000E+00 0.  1.
          2    1    6    6  503    0 -0.26480180829E+03  0.11070212652E+03 -0.99342359638E+02  0.30371674783E+03  0.00000000000E+00 0. -1.
         -2    1    6    6    0  503 -0.10731470227E+03  0.11094701329E+03 -0.28937243638E+02  0.15704473614E+03  0.00000000000E+00 0.  1.
<mgrwt>
<rscale>  0 0.15388138E+04</rscale>
<asrwt>0</asrwt>
<pdfrwt beam="1">  1        1 0.72000082E-01 0.15388138E+04</pdfrwt>
<pdfrwt beam="2">  1       -2 0.19460431E+00 0.15388138E+04</pdfrwt>
<totfact> 0.59046775E+00</totfact>
</mgrwt>
</event>
<event>
12    5  0.5428626E-008  0.2635753E+04  0.7818608E-02  0.8356157E-01
          1   -1    0    0  501    0  0.00000000000E+00  0.00000000000E+00  0.16149838001E+04  0.16149838001E+04  0.00000000000E+00 0. -1.
         -2   -1    0    0    0  501 -0.00000000000E+00 -0.00000000000E+00 -0.10754279684E+04  0.10754279684E+04  0.00000000000E+00 0.  1.
        -24    2    1    2    0    0 -0.45594613849E+03 -0.65728279921E+03 -0.61210981900E+03  0.10105560911E+04  0.81471610431E+02 0.  0.
        254    2    1    2    0    0  0.45594613849E+03  0.65728279921E+03  0.11516656507E+04  0.16798556775E+04  0.92502636016E+03 0.  0.
         23    2    4    4    0    0  0.75911517586E+02 -0.11356938234E+03 -0.73647085756E+02  0.18023465304E+03  0.91651916559E+02 0.  0.
         23    2    4    4    0    0  0.38003462090E+03  0.77085218155E+03  0.12253127365E+04  0.14996210245E+04  0.93981466643E+02 0.  0.
          3    1    3    3  502    0 -0.65591381012E+02 -0.69235201614E+02 -0.10240804023E+03  0.13993980531E+03  0.00000000000E+00 0. -1.
         -4    1    3    3    0  502 -0.39035475747E+03 -0.58804759760E+03 -0.50970177877E+03  0.87061628574E+03  0.00000000000E+00 0.  1.
         13    1    5    5    0    0  0.75519013375E+02 -0.90505219165E+02 -0.92983984768E+02  0.15013439813E+03  0.00000000000E+00 0.  1.
        -13    1    5    5    0    0  0.39250421075E+00 -0.23064163176E+02  0.19336899012E+02  0.30100254916E+02  0.00000000000E+00 0. -1.
          2    1    6    6  503    0  0.53454402633E+02  0.19839278932E+03  0.28562868513E+03  0.35185340383E+03  0.00000000000E+00 0. -1.
         -2    1    6    6    0  503  0.32658021827E+03  0.57245939223E+03  0.93968405133E+03  0.11477676207E+04  0.00000000000E+00 0.  1.
<mgrwt>
<rscale>  0 0.26357532E+04</rscale>
<asrwt>0</asrwt>
<pdfrwt beam="1">  1        1 0.24845905E+00 0.26357532E+04</pdfrwt>
<pdfrwt beam="2">  1       -2 0.16545046E+00 0.26357532E+04</pdfrwt>
<totfact> 0.96575036E-01</totfact>
</mgrwt>
</event>
<event>
12    5  0.5428626E-008  0.2009378E+04  0.7818608E-02  0.8602249E-01
          1   -1    0    0  501    0  0.00000000000E+00  0.00000000000E+00  0.34146587670E+04  0.34146587670E+04  0.00000000000E+00 0. -1.
         -2   -1    0    0    0  501 -0.00000000000E+00 -0.00000000000E+00 -0.29560778454E+03  0.29560778454E+03  0.00000000000E+00 0.  1.
        -24    2    1    2    0    0 -0.26765060306E+03 -0.34745923791E+01 -0.14249472501E+03  0.31366545507E+03  0.80201950954E+02 0.  0.
        254    2    1    2    0    0  0.26765060306E+03  0.34745923791E+01  0.32615457074E+04  0.33966010964E+04  0.90970857338E+03 0.  0.
         23    2    4    4    0    0  0.52263103590E+03  0.47384127896E+02  0.28685354465E+04  0.29174855116E+04  0.88530490654E+02 0.  0.
         23    2    4    4    0    0 -0.25498043283E+03 -0.43909535517E+02  0.39301026096E+03  0.47911558477E+03  0.90286266504E+02 0.  0.
          3    1    3    3  502    0 -0.65314696799E+02  0.94846955131E+00 -0.76939867044E+02  0.10092894705E+03  0.00000000000E+00 0. -1.
         -4    1    3    3    0  502 -0.20233590627E+03 -0.44230619304E+01 -0.65554857964E+02  0.21273650802E+03  0.00000000000E+00 0.  1.
         13    1    5    5    0    0  0.37780507455E+03  0.73235465707E+02  0.21136018795E+04  0.21483512313E+04  0.00000000000E+00 0. -1.
        -13    1    5    5    0    0  0.14482596135E+03 -0.25851337811E+02  0.75493356695E+03  0.76913428038E+03  0.00000000000E+00 0.  1.
          3    1    6    6  503    0 -0.12916351309E+03 -0.51851765000E+02  0.14550988606E+03  0.20135775523E+03  0.00000000000E+00 0. -1.
         -3    1    6    6    0  503 -0.12581691974E+03  0.79422294824E+01  0.24750037489E+03  0.27775782955E+03  0.00000000000E+00 0.  1.
<mgrwt>
<rscale>  0 0.20093777E+04</rscale>
<asrwt>0</asrwt>
<pdfrwt beam="1">  1        1 0.52533209E+00 0.20093777E+04</pdfrwt>
<pdfrwt beam="2">  1       -2 0.45478123E-01 0.20093777E+04</pdfrwt>
<totfact> 0.10924598E+00</totfact>
</mgrwt>
</event>
<event>
12    5  0.5428626E-008  0.1174813E+04  0.7818608E-02  0.9135193E-01
          1   -1    0    0  501    0  0.00000000000E+00  0.00000000000E+00  0.80300684435E+03  0.80300684435E+03  0.00000000000E+00 0. -1.
         -2   -1    0    0    0  501 -0.00000000000E+00 -0.00000000000E+00 -0.42969291436E+03  0.42969291436E+03  0.00000000000E+00 0.  1.
        -24    2    1    2    0    0  0.23626811332E+02 -0.22600619988E+03  0.21818664925E+02  0.24161878958E+03  0.79161586278E+02 0.  0.
        254    2    1    2    0    0 -0.23626811332E+02  0.22600619988E+03  0.35149526506E+03  0.99108096913E+03  0.89836269814E+03 0.  0.
         23    2    4    4    0    0 -0.23461835950E+03 -0.23294066126E+03 -0.37357074722E+02  0.34553287511E+03  0.93221727447E+02 0.  0.
         23    2    4    4    0    0  0.21099154817E+03  0.45894686114E+03  0.38885233978E+03  0.64554809402E+03  0.10186532674E+03 0.  0.
          3    1    3    3  502    0 -0.10533981645E+02 -0.31317913639E+01 -0.87912556345E+01  0.14073345802E+02  0.00000000000E+00 0. -1.
         -4    1    3    3    0  502  0.34160792977E+02 -0.22287440852E+03  0.30609920560E+02  0.22754544378E+03  0.00000000000E+00 0.  1.
         13    1    5    5    0    0 -0.59247348091E+01 -0.36914676621E+02 -0.23180818143E+02  0.43990296230E+02  0.00000000000E+00 0. -1.
        -13    1    5    5    0    0 -0.22869362469E+03 -0.19602598463E+03 -0.14176256579E+02  0.30154257888E+03  0.00000000000E+00 0.  1.
          4    1    6    6  503    0  0.11836570817E+01  0.75230507887E+02  0.34951090216E+02  0.82961491478E+02  0.00000000000E+00 0. -1.
         -4    1    6    6    0  503  0.20980789109E+03  0.38371635325E+03  0.35390124957E+03  0.56258660254E+03  0.00000000000E+00 0.  1.
<mgrwt>
<rscale>  0 0.11748129E+04</rscale>
<asrwt>0</asrwt>
<pdfrwt beam="1">  1        1 0.12353951E+00 0.11748129E+04</pdfrwt>
<pdfrwt beam="2">  1       -2 0.66106602E-01 0.11748129E+04</pdfrwt>
<totfact> 0.40195950E+01</totfact>
</mgrwt>
</event>
<event>
12    5  0.5428626E-008  0.1306089E+04  0.7818608E-02  0.9024750E-01
          1   -1    0    0  501    0  0.00000000000E+00  0.00000000000E+00  0.24962559044E+04  0.24962559044E+04  0.00000000000E+00 0. -1.
         -2   -1    0    0    0  501 -0.00000000000E+00 -0.00000000000E+00 -0.17084275703E+03  0.17084275703E+03  0.00000000000E+00 0.  1.
        -24    2    1    2    0    0 -0.19490925809E+03  0.18730243787E+03  0.18537485672E+03  0.33775547746E+03  0.81505232532E+02 0.  0.
        254    2    1    2    0    0  0.19490925809E+03 -0.18730243787E+03  0.21400382906E+04  0.23293431839E+04  0.87920643827E+03 0.  0.
         23    2    4    4    0    0  0.10651302782E+03  0.22618160866E+03  0.17815296341E+03  0.32032893461E+03  0.91482253945E+02 0.  0.
         23    2    4    4    0    0  0.88396230275E+02 -0.41348404653E+03  0.19618853272E+04  0.20090142493E+04  0.91439961786E+02 0.  0.
          1    1    3    3  502    0 -0.21750590236E+02  0.37905136848E+02  0.54571155505E+00  0.43705667553E+02  0.00000000000E+00 0. -1.
         -2    1    3    3    0  502 -0.17315866785E+03  0.14939730103E+03  0.18482914516E+03  0.29404980991E+03  0.00000000000E+00 0.  1.
         13    1    5    5    0    0  0.95671698621E+02  0.13866969589E+03  0.15554532923E+03  0.22929611405E+03  0.00000000000E+00 0.  1.
        -13    1    5    5    0    0  0.10841329195E+02  0.87511912767E+02  0.22607634179E+02  0.91032820554E+02  0.00000000000E+00 0. -1.
          2    1    6    6  503    0  0.93557059460E+02 -0.35364151871E+03  0.17883016414E+04  0.18253323006E+04  0.00000000000E+00 0. -1.
         -2    1    6    6    0  503 -0.51608291850E+01 -0.59842527818E+02  0.17358368584E+03  0.18368194871E+03  0.00000000000E+00 0.  1.
<mgrwt>
<rscale>  0 0.13060892E+04</rscale>
<asrwt>0</asrwt>
<pdfrwt beam="1">  1        1 0.38403934E+00 0.13060892E+04</pdfrwt>
<pdfrwt beam="2">  1       -2 0.26283503E-01 0.13060892E+04</pdfrwt>
<totfact> 0.15458671E+01</totfact>
</mgrwt>
</event>
<event>
12    5  0.5428626E-008  0.1465610E+04  0.7818608E-02  0.8907649E-01
         -2   -1    0    0    0  501 -0.00000000000E+00  0.00000000000E+00  0.12120797251E+04  0.12120797251E+04  0.00000000000E+00 0.  1.
          1   -1    0    0  501    0  0.00000000000E+00 -0.00000000000E+00 -0.44304288518E+03  0.44304288518E+03  0.00000000000E+00 0. -1.
        -24    2    1    2    0    0 -0.20711655045E+03 -0.28040286946E+03 -0.84556477553E+02  0.36824467100E+03  0.83254460282E+02 0.  0.
        254    2    1    2    0    0  0.20711655045E+03  0.28040286946E+03  0.85359331748E+03  0.12868779393E+04  0.89772503826E+03 0.  0.
         23    2    4    4    0    0 -0.33292427596E+03  0.76086712417E+02  0.46943963579E+03  0.58752224544E+03  0.90449189630E+02 0.  0.
         23    2    4    4    0    0  0.54004082640E+03  0.20431615704E+03  0.38415368169E+03  0.69935569385E+03  0.90195061734E+02 0.  0.
          3    1    3    3  502    0 -0.16073769131E+03 -0.26343949779E+03 -0.78950091808E+02  0.31854370406E+03  0.00000000000E+00 0. -1.
         -4    1    3    3    0  502 -0.46378859142E+02 -0.16963371667E+02 -0.56063857458E+01  0.49700966939E+02  0.00000000000E+00 0.  1.
         13    1    5    5    0    0 -0.33345548058E+03  0.85006896881E+02  0.45394738564E+03  0.56963756808E+03  0.00000000000E+00 0. -1.
        -13    1    5    5    0    0  0.53120462270E+00 -0.89201844636E+01  0.15492250155E+02  0.17884677354E+02  0.00000000000E+00 0.  1.
          3    1    6    6  503    0  0.53891336554E+03  0.19300186007E+03  0.37186315270E+03  0.68261228958E+03  0.00000000000E+00 0. -1.
         -3    1    6    6    0  503  0.11274608656E+01  0.11314296972E+02  0.12290528991E+02  0.16743404279E+02  0.00000000000E+00 0.  1.
<mgrwt>
<rscale>  0 0.14656102E+04</rscale>
<asrwt>0</asrwt>
<pdfrwt beam="1">  1        1 0.68160445E-01 0.14656102E+04</pdfrwt>
<pdfrwt beam="2">  1       -2 0.18647380E+00 0.14656102E+04</pdfrwt>
<totfact> 0.72537814E+00</totfact>
</mgrwt>
</event>
<event>
12    5  0.5428626E-008  0.2531627E+04  0.7818608E-02  0.8391804E-01
         -2   -1    0    0    0  501 -0.00000000000E+00  0.00000000000E+00  0.16303284574E+04  0.16303284574E+04  0.00000000000E+00 0.  1.
          1   -1    0    0  501    0  0.00000000000E+00 -0.00000000000E+00 -0.98279835457E+03  0.98279835457E+03  0.00000000000E+00 0. -1.
        -24    2    1    2    0    0  0.43988972399E+03  0.92588656094E+03  0.70894320369E+03  0.12485503188E+04  0.74219536739E+02 0.  0.
        254    2    1    2    0    0 -0.43988972399E+03 -0.92588656094E+03 -0.61413100830E+02  0.13645764932E+04  0.89862591979E+03 0.  0.
         23    2    4    4    0    0 -0.30320819223E+03 -0.64531360044E+03  0.38264322531E+03  0.81435592309E+03  0.91623582376E+02 0.  0.
         23    2    4    4    0    0 -0.13668153175E+03 -0.28057296050E+03 -0.44405632613E+03  0.55022057007E+03  0.90297439923E+02 0.  0.
          1    1    3    3  502    0  0.19792137882E+01  0.23359116653E+02  0.25889504167E+02  0.34926094028E+02  0.00000000000E+00 0. -1.
         -2    1    3    3    0  502  0.43791051020E+03  0.90252744429E+03  0.68305369953E+03  0.12136242248E+04  0.00000000000E+00 0.  1.
         13    1    5    5    0    0 -0.29853331263E+03 -0.64706372165E+03  0.37508050267E+03  0.80529434502E+03  0.00000000000E+00 0. -1.
        -13    1    5    5    0    0 -0.46748796013E+01  0.17501212135E+01  0.75627226300E+01  0.90615780705E+01  0.00000000000E+00 0.  1.
          3    1    6    6  503    0 -0.18835484287E+02 -0.14082614920E+03 -0.19186853405E+03  0.23874738559E+03  0.00000000000E+00 0. -1.
         -3    1    6    6    0  503 -0.11784604746E+03 -0.13974681130E+03 -0.25218779208E+03  0.31147318448E+03  0.00000000000E+00 0.  1.
<mgrwt>
<rscale>  0 0.25316272E+04</rscale>
<asrwt>0</asrwt>
<pdfrwt beam="1">  1        1 0.15119975E+00 0.25316272E+04</pdfrwt>
<pdfrwt beam="2">  1       -2 0.25081976E+00 0.25316272E+04</pdfrwt>
<totfact> 0.77040201E-01</totfact>
</mgrwt>
</event>
<event>
12    5  0.5428626E-008  0.1544053E+04  0.7818608E-02  0.8855675E-01
         -2   -1    0    0    0  501 -0.00000000000E+00  0.00000000000E+00  0.83756761054E+03  0.83756761054E+03  0.00000000000E+00 0.  1.
          1   -1    0    0  501    0  0.00000000000E+00 -0.00000000000E+00 -0.71161444792E+03  0.71161444792E+03  0.00000000000E+00 0. -1.
        -24    2    1    2    0    0 -0.48735862471E+03  0.43000788975E+02 -0.76655035426E+02  0.50105017930E+03  0.76208862898E+02 0.  0.
        254    2    1    2    0    0  0.48735862471E+03 -0.43000788975E+02  0.20260819805E+03  0.10481318792E+04  0.90452355263E+03 0.  0.
         23    2    4    4    0    0  0.71855264528E+03  0.28340117474E+02  0.76561401279E+01  0.72457930942E+03  0.88518319376E+02 0.  0.
         23    2    4    4    0    0 -0.23119402056E+03 -0.71340906448E+02  0.19495205792E+03  0.32355256974E+03  0.90220620811E+02 0.  0.
          1    1    3    3  502    0 -0.36850141423E+03  0.42375244077E+02 -0.89278846721E+02  0.38152282510E+03  0.00000000000E+00 0. -1.
         -2    1    3    3    0  502 -0.11885721049E+03  0.62554489804E+00  0.12623811294E+02  0.11952735420E+03  0.00000000000E+00 0.  1.
         13    1    5    5    0    0  0.44265859727E+03  0.37017573493E+02 -0.33645123387E+02  0.44547606985E+03  0.00000000000E+00 0. -1.
        -13    1    5    5    0    0  0.27589404801E+03 -0.86774560197E+01  0.41301263515E+02  0.27910323957E+03  0.00000000000E+00 0.  1.
          4    1    6    6  503    0 -0.17071231963E+03 -0.88488064281E+02  0.12420400490E+03  0.22890930175E+03  0.00000000000E+00 0. -1.
         -4    1    6    6    0  503 -0.60481700930E+02  0.17147157833E+02  0.70748053019E+02  0.94643267987E+02  0.00000000000E+00 0.  1.
<mgrwt>
<rscale>  0 0.15440534E+04</rscale>
<asrwt>0</asrwt>
<pdfrwt beam="1">  1        1 0.10947915E+00 0.15440534E+04</pdfrwt>
<pdfrwt beam="2">  1       -2 0.12885656E+00 0.15440534E+04</pdfrwt>
<totfact> 0.99561616E+00</totfact>
</mgrwt>
</event>
<event>
12    5  0.5428626E-008  0.1845652E+04  0.7818608E-02  0.8682392E-01
         -2   -1    0    0    0  501 -0.00000000000E+00  0.00000000000E+00  0.48168398925E+03  0.48168398925E+03  0.00000000000E+00 0.  1.
          1   -1    0    0  501    0  0.00000000000E+00 -0.00000000000E+00 -0.17679801853E+04  0.17679801853E+04  0.00000000000E+00 0. -1.
        -24    2    1    2    0    0  0.34452943325E+03 -0.43787968423E+03 -0.10044422899E+04  0.11513947996E+04  0.79790491473E+02 0.  0.
        254    2    1    2    0    0 -0.34452943325E+03  0.43787968423E+03 -0.28185390611E+03  0.10982693749E+04  0.90350143734E+03 0.  0.
         23    2    4    4    0    0  0.88827519279E+02  0.33836703123E+03  0.21874511787E+03  0.42259388684E+03  0.91397979177E+02 0.  0.
         23    2    4    4    0    0 -0.43335695253E+03  0.99512653000E+02 -0.50059902399E+03  0.67567548809E+03  0.90757732282E+02 0.  0.
          1    1    3    3  502    0  0.12550652662E+03 -0.17982207468E+03 -0.32133194119E+03  0.38902709828E+03  0.00000000000E+00 0. -1.
         -2    1    3    3    0  502  0.21902290663E+03 -0.25805760955E+03 -0.68311034874E+03  0.76236770133E+03  0.00000000000E+00 0.  1.
         13    1    5    5    0    0  0.26094652907E+02  0.99635399320E+02  0.18272505762E+02  0.10460414989E+03  0.00000000000E+00 0. -1.
        -13    1    5    5    0    0  0.62732866372E+02  0.23873163191E+03  0.20047261211E+03  0.31798973695E+03  0.00000000000E+00 0.  1.
          1    1    6    6  503    0 -0.22490503301E+03  0.66102972276E+02 -0.19878846435E+03  0.30735765872E+03  0.00000000000E+00 0. -1.
         -1    1    6    6    0  503 -0.20845191952E+03  0.33409680724E+02 -0.30181055964E+03  0.36831782937E+03  0.00000000000E+00 0.  1.
<mgrwt>
<rscale>  0 0.18456519E+04</rscale>
<asrwt>0</asrwt>
<pdfrwt beam="1">  1        1 0.27199696E+00 0.18456519E+04</pdfrwt>
<pdfrwt beam="2">  1       -2 0.74105228E-01 0.18456519E+04</pdfrwt>
<totfact> 0.57962939E+00</totfact>
</mgrwt>
</event>
<event>
12    5  0.5428626E-008  0.1095910E+04  0.7818608E-02  0.9209188E-01
          1   -1    0    0  501    0  0.00000000000E+00  0.00000000000E+00  0.27372511307E+04  0.27372511307E+04  0.00000000000E+00 0. -1.
         -2   -1    0    0    0  501 -0.00000000000E+00 -0.00000000000E+00 -0.10969195594E+03  0.10969195594E+03  0.00000000000E+00 0.  1.
        -24    2    1    2    0    0  0.33240909052E+02 -0.46579570532E+02  0.77467050534E+03  0.78092963899E+03  0.80387155635E+02 0.  0.
        254    2    1    2    0    0 -0.33240909052E+02  0.46579570532E+02  0.18528886695E+04  0.20660134477E+04  0.91210774044E+03 0.  0.
         23    2    4    4    0    0 -0.75585092943E+02 -0.41409313878E+03  0.10496385677E+04  0.11345354505E+04  0.90792795555E+02 0.  0.
         23    2    4    4    0    0  0.42344183891E+02  0.46067270931E+03  0.80325010174E+03  0.93147799719E+03  0.91805001466E+02 0.  0.
          3    1    3    3  502    0  0.38056713840E+02  0.11607648120E+02  0.27610576777E+03  0.27895778526E+03  0.00000000000E+00 0. -1.
         -4    1    3    3    0  502 -0.48158047885E+01 -0.58187218651E+02  0.49856473757E+03  0.50197185373E+03  0.00000000000E+00 0.  1.
         13    1    5    5    0    0 -0.36417320826E+02 -0.10754382301E+03  0.19383318249E+03  0.22464015170E+03  0.00000000000E+00 0. -1.
        -13    1    5    5    0    0 -0.39167772117E+02 -0.30654931577E+03  0.85580538524E+03  0.90989529880E+03  0.00000000000E+00 0.  1.
          1    1    6    6  503    0  0.33588484488E+02  0.31615715919E+03  0.46243690751E+03  0.56118751681E+03  0.00000000000E+00 0.  1.
         -1    1    6    6    0  503  0.87556994028E+01  0.14451555012E+03  0.34081319423E+03  0.37029048038E+03  0.00000000000E+00 0. -1.
<mgrwt>
<rscale>  0 0.10959095E+04</rscale>
<asrwt>0</asrwt>
<pdfrwt beam="1">  1        1 0.42111551E+00 0.10959095E+04</pdfrwt>
<pdfrwt beam="2">  1       -2 0.16875688E-01 0.10959095E+04</pdfrwt>
<totfact> 0.23508228E+01</totfact>
</mgrwt>
</event>
<event>
12    5  0.5428626E-008  0.1620667E+04  0.7818608E-02  0.8807951E-01
         -2   -1    0    0    0  501 -0.00000000000E+00  0.00000000000E+00  0.59870501258E+03  0.59870501258E+03  0.00000000000E+00 0.  1.
          1   -1    0    0  501    0  0.00000000000E+00 -0.00000000000E+00 -0.10967675590E+04  0.10967675590E+04  0.00000000000E+00 0. -1.
        -24    2    1    2    0    0 -0.40354563641E+03  0.36277845002E+02 -0.54861647894E+03  0.68701225870E+03  0.82708161227E+02 0.  0.
        254    2    1    2    0    0  0.40354563641E+03 -0.36277845002E+02  0.50553932509E+02  0.10084603129E+04  0.92210158871E+03 0.  0.
         23    2    4    4    0    0 -0.15846928263E+03 -0.36266555831E+02 -0.28947007244E+03  0.34431550940E+03  0.91282367240E+02 0.  0.
         23    2    4    4    0    0  0.56201491904E+03 -0.11289170699E-01  0.34002400495E+03  0.66414480350E+03  0.98036864144E+02 0.  0.
          3    1    3    3  502    0 -0.35127632470E+03  0.53734556121E+02 -0.44332999793E+03  0.56817598144E+03  0.00000000000E+00 0. -1.
         -4    1    3    3    0  502 -0.52269311705E+02 -0.17456711120E+02 -0.10528648101E+03  0.11883627726E+03  0.00000000000E+00 0.  1.
         13    1    5    5    0    0 -0.11085520433E+03 -0.62596087434E+02 -0.23533756975E+03  0.26756479257E+03  0.00000000000E+00 0.  1.
        -13    1    5    5    0    0 -0.47614078292E+02  0.26329531603E+02 -0.54132502688E+02  0.76750716826E+02  0.00000000000E+00 0. -1.
          4    1    6    6  503    0  0.34738475750E+03 -0.29329226825E+02  0.25274376133E+03  0.43059932905E+03  0.00000000000E+00 0.  1.
         -4    1    6    6    0  503  0.21463016154E+03  0.29317937654E+02  0.87280243613E+02  0.23354547445E+03  0.00000000000E+00 0. -1.
<mgrwt>
<rscale>  0 0.16206668E+04</rscale>
<asrwt>0</asrwt>
<pdfrwt beam="1">  1        1 0.16873347E+00 0.16206668E+04</pdfrwt>
<pdfrwt beam="2">  1       -2 0.92108464E-01 0.16206668E+04</pdfrwt>
<totfact> 0.10727367E+01</totfact>
</mgrwt>
</event>
<event>
12    5  0.5428626E-008  0.2371177E+04  0.7818608E-02  0.8450374E-01
          1   -1    0    0  501    0  0.00000000000E+00  0.00000000000E+00  0.35943395322E+03  0.35943395322E+03  0.00000000000E+00 0. -1.
         -2   -1    0    0    0  501 -0.00000000000E+00 -0.00000000000E+00 -0.39106500676E+04  0.39106500676E+04  0.00000000000E+00 0.  1.
        -24    2    1    2    0    0 -0.99512255408E+03 -0.15484125842E+03 -0.16245865573E+04  0.19131046444E+04  0.80269455344E+02 0.  0.
        254    2    1    2    0    0  0.99512255408E+03  0.15484125842E+03 -0.19266295571E+04  0.23569793764E+04  0.91060727953E+03 0.  0.
         23    2    4    4    0    0 -0.22349912975E+02  0.89322219638E+00 -0.88516625413E+03  0.89011750390E+03  0.91047003442E+02 0.  0.
         23    2    4    4    0    0  0.10174724671E+04  0.15394803622E+03 -0.10414633030E+04  0.14668618725E+04  0.89931765881E+02 0.  0.
          1    1    3    3  502    0 -0.12367108171E+03  0.71521367612E+01 -0.19415488155E+03  0.23030807094E+03  0.00000000000E+00 0. -1.
         -2    1    3    3    0  502 -0.87145147237E+03 -0.16199339518E+03 -0.14304316757E+04  0.16827965735E+04  0.00000000000E+00 0.  1.
         13    1    5    5    0    0 -0.39614662260E+02  0.86176802938E+01 -0.84216705977E+03  0.84314230261E+03  0.00000000000E+00 0. -1.
        -13    1    5    5    0    0  0.17264749286E+02 -0.77244580974E+01 -0.42999194363E+02  0.46975201294E+02  0.00000000000E+00 0.  1.
          2    1    6    6  503    0  0.47288732878E+02  0.26693003290E+02 -0.61019575192E+02  0.81683102528E+02  0.00000000000E+00 0.  1.
         -2    1    6    6    0  503  0.97018373418E+03  0.12725503293E+03 -0.98044372782E+03  0.13851787700E+04  0.00000000000E+00 0. -1.
<mgrwt>
<rscale>  0 0.23711773E+04</rscale>
<asrwt>0</asrwt>
<pdfrwt beam="1">  1        1 0.55297530E-01 0.23711773E+04</pdfrwt>
<pdfrwt beam="2">  1       -2 0.60163848E+00 0.23711773E+04</pdfrwt>
<totfact> 0.26696536E-02</totfact>
</mgrwt>
</event>
<event>
12    5  0.5428626E-008  0.1262224E+04  0.7818608E-02  0.9060070E-01
          1   -1    0    0  501    0  0.00000000000E+00  0.00000000000E+00  0.45448168169E+03  0.45448168169E+03  0.00000000000E+00 0. -1.
         -2   -1    0    0    0  501 -0.00000000000E+00 -0.00000000000E+00 -0.87638825086E+03  0.87638825086E+03  0.00000000000E+00 0.  1.
        -24    2    1    2    0    0  0.39178773455E+00  0.12804406434E+02  0.21726583407E+03  0.23063078348E+03  0.76302092456E+02 0.  0.
        254    2    1    2    0    0 -0.39178773455E+00 -0.12804406434E+02 -0.63917240323E+03  0.11002391491E+04  0.89544442472E+03 0.  0.
         23    2    4    4    0    0 -0.20531401066E+03  0.21772204020E+03 -0.70440898116E+03  0.77038222556E+03  0.87977445759E+02 0.  0.
         23    2    4    4    0    0  0.20492222293E+03 -0.23052644664E+03  0.65236577922E+02  0.32985692351E+03  0.97026897492E+02 0.  0.
          1    1    3    3  502    0 -0.26124783690E+02  0.20958432811E+02  0.18531280591E+03  0.18831515144E+03  0.00000000000E+00 0. -1.
         -2    1    3    3    0  502  0.26516571425E+02 -0.81540263772E+01  0.31953028165E+02  0.42315632043E+02  0.00000000000E+00 0.  1.
         13    1    5    5    0    0 -0.15459439749E+03  0.12701200711E+03 -0.54005949293E+03  0.57593032008E+03  0.00000000000E+00 0.  1.
        -13    1    5    5    0    0 -0.50719613179E+02  0.90710033098E+02 -0.16434948823E+03  0.19445190549E+03  0.00000000000E+00 0. -1.
          3    1    6    6  503    0  0.91772147600E+02 -0.15543107963E+03  0.31356489481E+01  0.18052916630E+03  0.00000000000E+00 0. -1.
         -3    1    6    6    0  503  0.11315007533E+03 -0.75095367002E+02  0.62100928974E+02  0.14932775720E+03  0.00000000000E+00 0.  1.
<mgrwt>
<rscale>  0 0.12622241E+04</rscale>
<asrwt>0</asrwt>
<pdfrwt beam="1">  1        1 0.69920260E-01 0.12622241E+04</pdfrwt>
<pdfrwt beam="2">  1       -2 0.13482896E+00 0.12622241E+04</pdfrwt>
<totfact> 0.17209769E+01</totfact>
</mgrwt>
</event>
<event>
12    5  0.5428626E-008  0.1131804E+04  0.7818608E-02  0.9174736E-01
          3   -1    0    0  501    0  0.00000000000E+00  0.00000000000E+00  0.95747315815E+03  0.95747315815E+03  0.00000000000E+00 0. -1.
         -4   -1    0    0    0  501 -0.00000000000E+00 -0.00000000000E+00 -0.33446897143E+03  0.33446897143E+03  0.00000000000E+00 0.  1.
        -24    2    1    2    0    0  0.13493541197E+03 -0.11959015076E+03  0.18991860549E+03  0.27424305147E+03  0.81429755025E+02 0.  0.
        254    2    1    2    0    0 -0.13493541197E+03  0.11959015076E+03  0.43308558123E+03  0.10176990781E+04  0.90312730186E+03 0.  0.
         23    2    4    4    0    0 -0.35446203046E+03 -0.39345125389E+02 -0.12606599670E+03  0.38940792116E+03  0.92490667698E+02 0.  0.
         23    2    4    4    0    0  0.21952661848E+03  0.15893527615E+03  0.55915157793E+03  0.62829115695E+03  0.92988884145E+02 0.  0.
          1    1    3    3  502    0  0.86860431782E+02 -0.74518324103E+02  0.61547542719E+02  0.12994543182E+03  0.00000000000E+00 0. -1.
         -2    1    3    3    0  502  0.48074980190E+02 -0.45071826661E+02  0.12837106277E+03  0.14429761965E+03  0.00000000000E+00 0.  1.
         13    1    5    5    0    0 -0.16222377575E+02 -0.10138223468E+02  0.12357844124E+02  0.22774227114E+02  0.00000000000E+00 0. -1.
        -13    1    5    5    0    0 -0.33823965288E+03 -0.29206901921E+02 -0.13842384082E+03  0.36663369405E+03  0.00000000000E+00 0.  1.
          1    1    6    6  503    0  0.24867268031E+02  0.16309590803E+02  0.15606664869E+02  0.33584993075E+02  0.00000000000E+00 0. -1.
         -1    1    6    6    0  503  0.19465935045E+03  0.14262568535E+03  0.54354491306E+03  0.59470616388E+03  0.00000000000E+00 0.  1.
<mgrwt>
<rscale>  0 0.11318040E+04</rscale>
<asrwt>0</asrwt>
<pdfrwt beam="1">  1        3 0.14730356E+00 0.11318040E+04</pdfrwt>
<pdfrwt beam="2">  1       -4 0.51456765E-01 0.11318040E+04</pdfrwt>
<totfact> 0.27936909E+00</totfact>
</mgrwt>
</event>
<event>
12    5  0.5428626E-008  0.1892531E+04  0.7818608E-02  0.8658583E-01
         -2   -1    0    0    0  501 -0.00000000000E+00  0.00000000000E+00  0.70472785407E+03  0.70472785407E+03  0.00000000000E+00 0.  1.
          1   -1    0    0  501    0  0.00000000000E+00 -0.00000000000E+00 -0.12705879420E+04  0.12705879420E+04  0.00000000000E+00 0. -1.
        -24    2    1    2    0    0 -0.11171637707E+03  0.36096038499E+03  0.42952068044E+03  0.57736716079E+03  0.78050464404E+02 0.  0.
        254    2    1    2    0    0  0.11171637707E+03 -0.36096038499E+03 -0.99538076842E+03  0.13979486353E+04  0.90592746092E+03 0.  0.
         23    2    4    4    0    0  0.41239514688E+03 -0.42026012662E+03 -0.38734299554E+03  0.71099247777E+03  0.93741005181E+02 0.  0.
         23    2    4    4    0    0 -0.30067876981E+03  0.59299741633E+02 -0.60803777287E+03  0.68695615756E+03  0.90965087809E+02 0.  0.
          3    1    3    3  502    0 -0.42600143480E+01 -0.36241311198E+01  0.44729197079E+01  0.71616380341E+01  0.00000000000E+00 0. -1.
         -4    1    3    3    0  502 -0.10745636272E+03  0.36458451611E+03  0.42504776073E+03  0.57020552275E+03  0.00000000000E+00 0.  1.
         13    1    5    5    0    0  0.38735907723E+03 -0.40960983580E+03 -0.34590482953E+03  0.66142076123E+03  0.00000000000E+00 0.  1.
        -13    1    5    5    0    0  0.25036069648E+02 -0.10650290825E+02 -0.41438166016E+02  0.49571716541E+02  0.00000000000E+00 0. -1.
          3    1    6    6  503    0 -0.59700846788E+02  0.51073236092E+02 -0.14873309463E+03  0.16820879879E+03  0.00000000000E+00 0. -1.
         -3    1    6    6    0  503 -0.24097792302E+03  0.82265055407E+01 -0.45930467824E+03  0.51874735877E+03  0.00000000000E+00 0.  1.
<mgrwt>
<rscale>  0 0.18925313E+04</rscale>
<asrwt>0</asrwt>
<pdfrwt beam="1">  1        1 0.19547507E+00 0.18925313E+04</pdfrwt>
<pdfrwt beam="2">  1       -2 0.10841967E+00 0.18925313E+04</pdfrwt>
<totfact> 0.53073444E+00</totfact>
</mgrwt>
</event>
<event>
12    5  0.5428626E-008  0.1994524E+04  0.7818608E-02  0.8609185E-01
         -2   -1    0    0    0  501 -0.00000000000E+00  0.00000000000E+00  0.21630865726E+04  0.21630865726E+04  0.00000000000E+00 0.  1.
          1   -1    0    0  501    0  0.00000000000E+00 -0.00000000000E+00 -0.45977416886E+03  0.45977416886E+03  0.00000000000E+00 0. -1.
        -24    2    1    2    0    0  0.11648733513E+03  0.73752542998E+03  0.57448388161E+03  0.94540020087E+03  0.78973099605E+02 0.  0.
        254    2    1    2    0    0 -0.11648733513E+03 -0.73752542998E+03  0.11288285221E+04  0.16774605406E+04  0.99101310475E+03 0.  0.
         23    2    4    4    0    0  0.19373834149E+03 -0.48046446211E+03  0.57891302749E+02  0.52997769504E+03  0.95625885579E+02 0.  0.
         23    2    4    4    0    0 -0.31022567662E+03 -0.25706096786E+03  0.10709372194E+04  0.11474828456E+04  0.86545024972E+02 0.  0.
          1    1    3    3  502    0 -0.61472914264E+01  0.15447517902E+03  0.10564069679E+03  0.18724403046E+03  0.00000000000E+00 0. -1.
         -2    1    3    3    0  502  0.12263462655E+03  0.58305025095E+03  0.46884318482E+03  0.75815617040E+03  0.00000000000E+00 0.  1.
         13    1    5    5    0    0  0.16297389574E+03 -0.28047362874E+03  0.31224616699E+02  0.32588483211E+03  0.00000000000E+00 0. -1.
        -13    1    5    5    0    0  0.30764445751E+02 -0.19999083338E+03  0.26666686050E+02  0.20409286294E+03  0.00000000000E+00 0.  1.
          4    1    6    6  503    0 -0.19522526419E+03 -0.17763932750E+03  0.58384785827E+03  0.64073938232E+03  0.00000000000E+00 0. -1.
         -4    1    6    6    0  503 -0.11500041242E+03 -0.79421640363E+02  0.48708936113E+03  0.50674346325E+03  0.00000000000E+00 0.  1.
<mgrwt>
<rscale>  0 0.19945238E+04</rscale>
<asrwt>0</asrwt>
<pdfrwt beam="1">  1        1 0.70734489E-01 0.19945238E+04</pdfrwt>
<pdfrwt beam="2">  1       -2 0.33278254E+00 0.19945238E+04</pdfrwt>
<totfact> 0.80733588E-01</totfact>
</mgrwt>
</event>
<event>
12    5  0.5428626E-008  0.3102380E+04  0.7818608E-02  0.8215085E-01
          1   -1    0    0  501    0  0.00000000000E+00  0.00000000000E+00  0.26448090581E+04  0.26448090581E+04  0.00000000000E+00 0. -1.
         -2   -1    0    0    0  501 -0.00000000000E+00 -0.00000000000E+00 -0.90977849116E+03  0.90977849116E+03  0.00000000000E+00 0.  1.
        -24    2    1    2    0    0  0.22907940623E+03 -0.81484443904E+03  0.20458672712E+04  0.22155026639E+04  0.80189328109E+02 0.  0.
        254    2    1    2    0    0 -0.22907940623E+03  0.81484443904E+03 -0.31083670419E+03  0.13390848854E+04  0.98998991886E+03 0.  0.
         23    2    4    4    0    0 -0.18082539373E+03 -0.19314942209E+03 -0.13209234667E+03  0.30970930303E+03  0.92015988088E+02 0.  0.
         23    2    4    4    0    0 -0.48254012508E+02  0.10079938611E+04 -0.17874435751E+03  0.10293755824E+04  0.96355956947E+02 0.  0.
          3    1    3    3  502    0  0.20405267895E+03 -0.76153136182E+03  0.19448100921E+04  0.20985361101E+04  0.00000000000E+00 0. -1.
         -4    1    3    3    0  502  0.25026727286E+02 -0.53313077215E+02  0.10105717906E+03  0.11696655385E+03  0.00000000000E+00 0.  1.
         13    1    5    5    0    0 -0.10947643326E+03 -0.92152227911E+02 -0.11757024184E+03  0.18520227945E+03  0.00000000000E+00 0.  1.
        -13    1    5    5    0    0 -0.71348960469E+02 -0.10099719418E+03 -0.14522104836E+02  0.12450702358E+03  0.00000000000E+00 0. -1.
          1    1    6    6  503    0  0.31717361278E+01  0.64921084884E+01 -0.10183808361E+02  0.12486686327E+02  0.00000000000E+00 0. -1.
         -1    1    6    6    0  503 -0.51425748636E+02  0.10015017526E+04 -0.16856054915E+03  0.10168888960E+04  0.00000000000E+00 0.  1.
<mgrwt>
<rscale>  0 0.31023800E+04</rscale>
<asrwt>0</asrwt>
<pdfrwt beam="1">  1        1 0.40689370E+00 0.31023800E+04</pdfrwt>
<pdfrwt beam="2">  1       -2 0.13996592E+00 0.31023800E+04</pdfrwt>
<totfact> 0.28623890E-01</totfact>
</mgrwt>
</event>
<event>
12    5  0.5428626E-008  0.1307841E+04  0.7818608E-02  0.9023370E-01
          1   -1    0    0  501    0  0.00000000000E+00  0.00000000000E+00  0.66819225226E+03  0.66819225226E+03  0.00000000000E+00 0. -1.
         -2   -1    0    0    0  501 -0.00000000000E+00 -0.00000000000E+00 -0.63995347982E+03  0.63995347982E+03  0.00000000000E+00 0.  1.
        -24    2    1    2    0    0  0.11944745467E+03 -0.31292786372E+03  0.97236531255E+01  0.34499102140E+03  0.82053111452E+02 0.  0.
        254    2    1    2    0    0 -0.11944745467E+03  0.31292786372E+03  0.18515119316E+02  0.96315471068E+03  0.90284696640E+03 0.  0.
         23    2    4    4    0    0  0.11106203224E+03 -0.28240038424E+03 -0.17694765399E+02  0.31719621679E+03  0.90639854375E+02 0.  0.
         23    2    4    4    0    0 -0.23050948692E+03  0.59532824796E+03  0.36209884715E+02  0.64595849388E+03  0.91656280172E+02 0.  0.
          1    1    3    3  502    0  0.81365646694E+02 -0.28746221881E+03  0.36461417548E+01  0.29877782725E+03  0.00000000000E+00 0. -1.
         -2    1    3    3    0  502  0.38081807979E+02 -0.25465644910E+02  0.60775113707E+01  0.46213194156E+02  0.00000000000E+00 0.  1.
         13    1    5    5    0    0  0.11142982047E+03 -0.25184211012E+03  0.10533045016E+02  0.27559390116E+03  0.00000000000E+00 0.  1.
        -13    1    5    5    0    0 -0.36778822336E+00 -0.30558274120E+02 -0.28227810415E+02  0.41602315634E+02  0.00000000000E+00 0. -1.
          3    1    6    6  503    0  0.38285153660E+01  0.15439672352E+02  0.12205184903E+02  0.20050125954E+02  0.00000000000E+00 0. -1.
         -3    1    6    6    0  503 -0.23433800228E+03  0.57988857561E+03  0.24004699812E+02  0.62590836793E+03  0.00000000000E+00 0.  1.
<mgrwt>
<rscale>  0 0.13078409E+04</rscale>
<asrwt>0</asrwt>
<pdfrwt beam="1">  1        1 0.10279881E+00 0.13078409E+04</pdfrwt>
<pdfrwt beam="2">  1       -2 0.98454381E-01 0.13078409E+04</pdfrwt>
<totfact> 0.21535724E+01</totfact>
</mgrwt>
</event>
<event>
12    5  0.5428626E-008  0.2133875E+04  0.7818608E-02  0.8546466E-01
          1   -1    0    0  501    0  0.00000000000E+00  0.00000000000E+00  0.74676062695E+03  0.74676062695E+03  0.00000000000E+00 0. -1.
         -2   -1    0    0    0  501 -0.00000000000E+00 -0.00000000000E+00 -0.15243922085E+04  0.15243922085E+04  0.00000000000E+00 0.  1.
        -24    2    1    2    0    0  0.48293898194E+03 -0.69001139612E+03 -0.65114296740E+02  0.84855986486E+03  0.80425030670E+02 0.  0.
        254    2    1    2    0    0 -0.48293898194E+03  0.69001139612E+03 -0.71251728482E+03  0.14225929706E+04  0.89818934072E+03 0.  0.
         23    2    4    4    0    0 -0.61386164829E+03  0.59419556398E+03 -0.83620229319E+03  0.11989576621E+04  0.91491578431E+02 0.  0.
         23    2    4    4    0    0  0.13092266635E+03  0.95815832141E+02  0.12368500837E+03  0.22363530848E+03  0.91615236980E+02 0.  0.
          1    1    3    3  502    0  0.24600093418E+03 -0.37869201265E+03 -0.71930357547E+02  0.45727243127E+03  0.00000000000E+00 0. -1.
         -2    1    3    3    0  502  0.23693804776E+03 -0.31131938347E+03  0.68160608079E+01  0.39128743359E+03  0.00000000000E+00 0.  1.
         13    1    5    5    0    0 -0.34882187743E+03  0.39899485604E+03 -0.52394794462E+03  0.74524831164E+03  0.00000000000E+00 0. -1.
        -13    1    5    5    0    0 -0.26503977086E+03  0.19520070794E+03 -0.31225434857E+03  0.45370935048E+03  0.00000000000E+00 0.  1.
          1    1    6    6  503    0  0.10012630243E+03  0.45392947725E+02  0.12242136276E+03  0.16453809954E+03  0.00000000000E+00 0. -1.
         -1    1    6    6    0  503  0.30796363921E+02  0.50422884416E+02  0.12636456188E+01  0.59097208935E+02  0.00000000000E+00 0.  1.
<mgrwt>
<rscale>  0 0.21338754E+04</rscale>
<asrwt>0</asrwt>
<pdfrwt beam="1">  1        1 0.11488625E+00 0.21338754E+04</pdfrwt>
<pdfrwt beam="2">  1       -2 0.23452187E+00 0.21338754E+04</pdfrwt>
<totfact> 0.15867791E+00</totfact>
</mgrwt>
</event>
<event>
12    5  0.5428626E-008  0.3468413E+04  0.7818608E-02  0.8121317E-01
         -2   -1    0    0    0  501 -0.00000000000E+00  0.00000000000E+00  0.23117452359E+04  0.23117452359E+04  0.00000000000E+00 0.  1.
          1   -1    0    0  501    0  0.00000000000E+00 -0.00000000000E+00 -0.13009534697E+04  0.13009534697E+04  0.00000000000E+00 0. -1.
        -24    2    1    2    0    0  0.98508957942E+02 -0.16080845767E+04  0.63378957765E+03  0.17331447690E+04  0.80383711760E+02 0.  0.
        254    2    1    2    0    0 -0.98508957942E+02  0.16080845767E+04  0.37700218850E+03  0.18795539365E+04  0.89160099239E+03 0.  0.
         23    2    4    4    0    0 -0.21090310269E+03  0.13988693068E+04 -0.85202073568E+01  0.14177179267E+04  0.92390852191E+02 0.  0.
         23    2    4    4    0    0  0.11239414475E+03  0.20921526991E+03  0.38552239585E+03  0.46183600984E+03  0.90892845399E+02 0.  0.
          3    1    3    3  502    0  0.95861347235E+02 -0.15826344049E+04  0.61204117311E+03  0.16995633130E+04  0.00000000000E+00 0. -1.
         -4    1    3    3    0  502  0.26476107070E+01 -0.25450171808E+02  0.21748404543E+02  0.33581456009E+02  0.00000000000E+00 0.  1.
         13    1    5    5    0    0  0.14494992346E+01  0.11892538177E+00  0.25056524462E+01  0.28971512661E+01  0.00000000000E+00 0.  1.
        -13    1    5    5    0    0 -0.21235260193E+03  0.13987503814E+04 -0.11025859803E+02  0.14148207754E+04  0.00000000000E+00 0. -1.
          1    1    6    6  503    0  0.33072577108E+02  0.14932668040E+03  0.20509301357E+03  0.25584252393E+03  0.00000000000E+00 0. -1.
         -1    1    6    6    0  503  0.79321567643E+02  0.59888589509E+02  0.18042938228E+03  0.20599348591E+03  0.00000000000E+00 0.  1.
<mgrwt>
<rscale>  0 0.34684135E+04</rscale>
<asrwt>0</asrwt>
<pdfrwt beam="1">  1        1 0.20014669E+00 0.34684135E+04</pdfrwt>
<pdfrwt beam="2">  1       -2 0.35565311E+00 0.34684135E+04</pdfrwt>
<totfact> 0.92898914E-02</totfact>
</mgrwt>
</event>
<event>
12    5  0.5428626E-008  0.1203062E+04  0.7818608E-02  0.9110181E-01
         -2   -1    0    0    0  501 -0.00000000000E+00  0.00000000000E+00  0.16612656753E+04  0.16612656753E+04  0.00000000000E+00 0.  1.
          1   -1    0    0  501    0  0.00000000000E+00 -0.00000000000E+00 -0.21780955090E+03  0.21780955090E+03  0.00000000000E+00 0. -1.
        -24    2    1    2    0    0 -0.12112173920E+02  0.24787658530E+03  0.43894633646E+03  0.51036106307E+03  0.78771962726E+02 0.  0.
        254    2    1    2    0    0  0.12112173920E+02 -0.24787658530E+03  0.10045097880E+04  0.13687141631E+04  0.89596263313E+03 0.  0.
         23    2    4    4    0    0  0.12891792200E+03  0.14241076816E+03  0.91750972640E+03  0.94179128540E+03  0.90807872578E+02 0.  0.
         23    2    4    4    0    0 -0.11680574808E+03 -0.39028735346E+03  0.87000061561E+02  0.42692287774E+03  0.93414836978E+02 0.  0.
          3    1    3    3  502    0 -0.28031110148E+02  0.17477480920E+03  0.24313131524E+03  0.30074044210E+03  0.00000000000E+00 0. -1.
         -4    1    3    3    0  502  0.15918936229E+02  0.73101776104E+02  0.19581502122E+03  0.20962062097E+03  0.00000000000E+00 0.  1.
         13    1    5    5    0    0  0.92698641306E+02  0.52709087314E+02  0.34299960970E+03  0.35919356654E+03  0.00000000000E+00 0. -1.
        -13    1    5    5    0    0  0.36219280696E+02  0.89701680844E+02  0.57451011670E+03  0.58259771887E+03  0.00000000000E+00 0.  1.
          4    1    6    6  503    0 -0.11617498089E+01 -0.43005943863E+02 -0.17227419955E+02  0.46342689482E+02  0.00000000000E+00 0. -1.
         -4    1    6    6    0  503 -0.11564399827E+03 -0.34728140960E+03  0.10422748152E+03  0.38058018825E+03  0.00000000000E+00 0.  1.
<mgrwt>
<rscale>  0 0.12030620E+04</rscale>
<asrwt>0</asrwt>
<pdfrwt beam="1">  1        1 0.33509163E-01 0.12030620E+04</pdfrwt>
<pdfrwt beam="2">  1       -2 0.25557933E+00 0.12030620E+04</pdfrwt>
<totfact> 0.68410859E+00</totfact>
</mgrwt>
</event>
<event>
12    5  0.5428626E-008  0.1458790E+04  0.7818608E-02  0.8912329E-01
          1   -1    0    0  501    0  0.00000000000E+00  0.00000000000E+00  0.77675281931E+03  0.77675281931E+03  0.00000000000E+00 0. -1.
         -2   -1    0    0    0  501 -0.00000000000E+00 -0.00000000000E+00 -0.68492487161E+03  0.68492487161E+03  0.00000000000E+00 0.  1.
        -24    2    1    2    0    0  0.41273322200E+03 -0.41001564192E+02  0.26928637127E+03  0.50110944962E+03  0.81028945073E+02 0.  0.
        254    2    1    2    0    0 -0.41273322200E+03  0.41001564192E+02 -0.17745842357E+03  0.96056824130E+03  0.84803892204E+03 0.  0.
         23    2    4    4    0    0 -0.63092479310E+03 -0.12037159509E+03 -0.18082548655E+03  0.67432367769E+03  0.97258162928E+02 0.  0.
         23    2    4    4    0    0  0.21819157110E+03  0.16137315928E+03  0.33670629882E+01  0.28624456361E+03  0.90971175926E+02 0.  0.
          1    1    3    3  502    0  0.39746480494E+03 -0.47401023567E+02  0.23794418964E+03  0.46566357554E+03  0.00000000000E+00 0. -1.
         -2    1    3    3    0  502  0.15268417054E+02  0.63994593753E+01  0.31342181633E+02  0.35445874078E+02  0.00000000000E+00 0.  1.
         13    1    5    5    0    0 -0.81962823309E+02  0.17060656927E+02 -0.22584003532E+02  0.86712211569E+02  0.00000000000E+00 0.  1.
        -13    1    5    5    0    0 -0.54896196979E+03 -0.13743225201E+03 -0.15824148302E+03  0.58761146612E+03  0.00000000000E+00 0. -1.
          4    1    6    6  503    0  0.21588401779E+03  0.17072516113E+03 -0.19551066895E+01  0.27523955425E+03  0.00000000000E+00 0. -1.
         -4    1    6    6    0  503  0.23075533126E+01 -0.93520018562E+01  0.53221696777E+01  0.11005009363E+02  0.00000000000E+00 0.  1.
<mgrwt>
<rscale>  0 0.14587904E+04</rscale>
<asrwt>0</asrwt>
<pdfrwt beam="1">  1        1 0.11950044E+00 0.14587904E+04</pdfrwt>
<pdfrwt beam="2">  1       -2 0.10537306E+00 0.14587904E+04</pdfrwt>
<totfact> 0.14360700E+01</totfact>
</mgrwt>
</event>
<event>
12    5  0.5428626E-008  0.1603373E+04  0.7818608E-02  0.8818479E-01
         -2   -1    0    0    0  501 -0.00000000000E+00  0.00000000000E+00  0.38651754414E+03  0.38651754414E+03  0.00000000000E+00 0.  1.
          1   -1    0    0  501    0  0.00000000000E+00 -0.00000000000E+00 -0.16627993015E+04  0.16627993015E+04  0.00000000000E+00 0. -1.
        -24    2    1    2    0    0 -0.92422318587E+01 -0.45610247462E+03 -0.79331401669E+03  0.91857742372E+03  0.79513949046E+02 0.  0.
        254    2    1    2    0    0  0.92422318587E+01  0.45610247462E+03 -0.48296774066E+03  0.11307394219E+04  0.91498574609E+03 0.  0.
         23    2    4    4    0    0 -0.34503694659E+03  0.20198484010E+03 -0.54429614396E+03  0.68171314698E+03  0.92877081643E+02 0.  0.
         23    2    4    4    0    0  0.35427917845E+03  0.25411763453E+03  0.61328403293E+02  0.44902627493E+03  0.88169802486E+02 0.  0.
          1    1    3    3  502    0 -0.28783557078E+02 -0.42693382124E+03 -0.72910960750E+03  0.84540037889E+03  0.00000000000E+00 0. -1.
         -2    1    3    3    0  502  0.19541325219E+02 -0.29168653386E+02 -0.64204409187E+02  0.73177044835E+02  0.00000000000E+00 0.  1.
         13    1    5    5    0    0 -0.66736281231E+02  0.75884951705E+02 -0.97385957490E+02  0.14034344247E+03  0.00000000000E+00 0.  1.
        -13    1    5    5    0    0 -0.27830066536E+03  0.12609988839E+03 -0.44691018647E+03  0.54136970451E+03  0.00000000000E+00 0. -1.
          1    1    6    6  503    0  0.29566418562E+03  0.20077931293E+03  0.82921574972E+02  0.36688640034E+03  0.00000000000E+00 0. -1.
         -1    1    6    6    0  503  0.58614992832E+02  0.53338321597E+02 -0.21593171679E+02  0.82139874596E+02  0.00000000000E+00 0.  1.
<mgrwt>
<rscale>  0 0.16033728E+04</rscale>
<asrwt>0</asrwt>
<pdfrwt beam="1">  1        1 0.25581527E+00 0.16033728E+04</pdfrwt>
<pdfrwt beam="2">  1       -2 0.59464239E-01 0.16033728E+04</pdfrwt>
<totfact> 0.11230272E+01</totfact>
</mgrwt>
</event>
<event>
12    5  0.5428626E-008  0.2927153E+04  0.7818608E-02  0.8264844E-01
          1   -1    0    0  501    0  0.00000000000E+00  0.00000000000E+00  0.96618904519E+03  0.96618904519E+03  0.00000000000E+00 0. -1.
         -2   -1    0    0    0  501 -0.00000000000E+00 -0.00000000000E+00 -0.22170160564E+04  0.22170160564E+04  0.00000000000E+00 0.  1.
        -24    2    1    2    0    0 -0.67929110085E+03  0.52195459687E+03 -0.16663331984E+04  0.18752739654E+04  0.78186418465E+02 0.  0.
        254    2    1    2    0    0  0.67929110085E+03 -0.52195459687E+03  0.41550618724E+03  0.13079311362E+04  0.89675273324E+03 0.  0.
         23    2    4    4    0    0  0.16293643843E+03 -0.13256761246E+03 -0.27448944635E+03  0.35742784089E+03  0.91037082823E+02 0.  0.
         23    2    4    4    0    0  0.51635466242E+03 -0.38938698441E+03  0.68999563359E+03  0.95050329533E+03  0.95489156576E+02 0.  0.
          3    1    3    3  502    0 -0.30126944728E+03  0.20970424686E+03 -0.63873232058E+03  0.73669405344E+03  0.00000000000E+00 0. -1.
         -4    1    3    3    0  502 -0.37802165357E+03  0.31225035001E+03 -0.10276008779E+04  0.11385799119E+04  0.00000000000E+00 0.  1.
         13    1    5    5    0    0  0.40243207983E+02 -0.63667336320E+02 -0.15692275045E+03  0.17406261836E+03  0.00000000000E+00 0.  1.
        -13    1    5    5    0    0  0.12269323045E+03 -0.68900276136E+02 -0.11756669590E+03  0.18336522253E+03  0.00000000000E+00 0. -1.
          2    1    6    6  503    0  0.71630600746E+02 -0.52348414994E+02  0.14827689628E+03  0.17279275878E+03  0.00000000000E+00 0. -1.
         -2    1    6    6    0  503  0.44472406168E+03 -0.33703856942E+03  0.54171873731E+03  0.77771053655E+03  0.00000000000E+00 0.  1.
<mgrwt>
<rscale>  0 0.29271533E+04</rscale>
<asrwt>0</asrwt>
<pdfrwt beam="1">  1        1 0.14864447E+00 0.29271533E+04</pdfrwt>
<pdfrwt beam="2">  1       -2 0.34107939E+00 0.29271533E+04</pdfrwt>
<totfact> 0.21397379E-01</totfact>
</mgrwt>
</event>
<event>
12    5  0.5428626E-008  0.2012904E+04  0.7818608E-02  0.8600611E-01
          1   -1    0    0  501    0  0.00000000000E+00  0.00000000000E+00  0.82433942634E+03  0.82433942634E+03  0.00000000000E+00 0. -1.
         -2   -1    0    0    0  501 -0.00000000000E+00 -0.00000000000E+00 -0.12287972695E+04  0.12287972695E+04  0.00000000000E+00 0.  1.
        -24    2    1    2    0    0 -0.26585781849E+03  0.10666800334E+03  0.60242881466E+03  0.67178230648E+03  0.79451544784E+02 0.  0.
        254    2    1    2    0    0  0.26585781849E+03 -0.10666800334E+03 -0.10068866578E+04  0.13813543893E+04  0.90125510522E+03 0.  0.
         23    2    4    4    0    0 -0.16586983799E+03  0.26569535415E+03 -0.56563912135E+03  0.65473756418E+03  0.10308655576E+03 0.  0.
         23    2    4    4    0    0  0.43172765648E+03 -0.37236335749E+03 -0.44124753642E+03  0.72661682513E+03  0.90715945627E+02 0.  0.
          1    1    3    3  502    0 -0.14829199025E+03  0.10121769084E+03  0.36912418578E+03  0.41047314144E+03  0.00000000000E+00 0. -1.
         -2    1    3    3    0  502 -0.11756582824E+03  0.54503124988E+01  0.23330462888E+03  0.26130916504E+03  0.00000000000E+00 0.  1.
         13    1    5    5    0    0 -0.58507181409E+02  0.36493287046E+02 -0.70253994474E+02  0.98440205279E+02  0.00000000000E+00 0.  1.
        -13    1    5    5    0    0 -0.10736265658E+03  0.22920206710E+03 -0.49538512688E+03  0.55629735890E+03  0.00000000000E+00 0. -1.
          1    1    6    6  503    0  0.30525367576E+03 -0.29248524310E+03 -0.28230687746E+03  0.50835479447E+03  0.00000000000E+00 0. -1.
         -1    1    6    6    0  503  0.12647398072E+03 -0.79878114390E+02 -0.15894065896E+03  0.21826203066E+03  0.00000000000E+00 0.  1.
<mgrwt>
<rscale>  0 0.20129044E+04</rscale>
<asrwt>0</asrwt>
<pdfrwt beam="1">  1        1 0.12682145E+00 0.20129044E+04</pdfrwt>
<pdfrwt beam="2">  1       -2 0.18904573E+00 0.20129044E+04</pdfrwt>
<totfact> 0.26889858E+00</totfact>
</mgrwt>
</event>
<event>
12    5  0.5428626E-008  0.1899836E+04  0.7818608E-02  0.8654938E-01
          1   -1    0    0  501    0  0.00000000000E+00  0.00000000000E+00  0.17404570404E+04  0.17404570404E+04  0.00000000000E+00 0. -1.
         -2   -1    0    0    0  501 -0.00000000000E+00 -0.00000000000E+00 -0.51845251813E+03  0.51845251813E+03  0.00000000000E+00 0.  1.
        -24    2    1    2    0    0  0.29879605843E+03  0.47253600611E+03  0.10234439996E+04  0.11689327368E+04  0.79979755010E+02 0.  0.
        254    2    1    2    0    0 -0.29879605843E+03 -0.47253600611E+03  0.19856052262E+03  0.10899768217E+04  0.91435979191E+03 0.  0.
         23    2    4    4    0    0 -0.51934167951E+03 -0.57571561771E+03  0.31253367881E+02  0.78087167686E+03  0.87290034739E+02 0.  0.
         23    2    4    4    0    0  0.22054562108E+03  0.10317961160E+03  0.16730715474E+03  0.30910514483E+03  0.90928011685E+02 0.  0.
          3    1    3    3  502    0  0.29790666387E+03  0.47524491679E+03  0.10110286358E+04  0.11561941938E+04  0.00000000000E+00 0. -1.
         -4    1    3    3    0  502  0.88939456593E+00 -0.27089106789E+01  0.12415363822E+02  0.12738543033E+02  0.00000000000E+00 0.  1.
         13    1    5    5    0    0 -0.14372021043E+03 -0.17975651073E+03 -0.28177610752E+02  0.23186608157E+03  0.00000000000E+00 0. -1.
        -13    1    5    5    0    0 -0.37562146908E+03 -0.39595910698E+03  0.59430978633E+02  0.54900559529E+03  0.00000000000E+00 0.  1.
          4    1    6    6  503    0  0.65561380175E+02  0.78052372970E+02  0.79034634788E+02  0.12898426645E+03  0.00000000000E+00 0. -1.
         -4    1    6    6    0  503  0.15498424090E+03  0.25127238628E+02  0.88272519949E+02  0.18012087838E+03  0.00000000000E+00 0.  1.
<mgrwt>
<rscale>  0 0.18998361E+04</rscale>
<asrwt>0</asrwt>
<pdfrwt beam="1">  1        1 0.26776262E+00 0.18998361E+04</pdfrwt>
<pdfrwt beam="2">  1       -2 0.79761927E-01 0.18998361E+04</pdfrwt>
<totfact> 0.51122626E+00</totfact>
</mgrwt>
</event>
<event>
12    5  0.5428626E-008  0.1956106E+04  0.7818608E-02  0.8627422E-01
          1   -1    0    0  501    0  0.00000000000E+00  0.00000000000E+00  0.14303559875E+04  0.14303559875E+04  0.00000000000E+00 0. -1.
         -2   -1    0    0    0  501 -0.00000000000E+00 -0.00000000000E+00 -0.66877577802E+03  0.66877577802E+03  0.00000000000E+00 0.  1.
        -24    2    1    2    0    0  0.22593970081E+03  0.92427126624E+02 -0.48253295611E+03  0.54808037505E+03  0.89232962775E+02 0.  0.
        254    2    1    2    0    0 -0.22593970081E+03 -0.92427126624E+02  0.12441131656E+04  0.15510513905E+04  0.89350507831E+03 0.  0.
         23    2    4    4    0    0 -0.49982109194E+03  0.13620988473E+03  0.52374858645E+03  0.74206483506E+03  0.89293790272E+02 0.  0.
         23    2    4    4    0    0  0.27388139112E+03 -0.22863701136E+03  0.72036457912E+03  0.80898655540E+03  0.90819714807E+02 0.  0.
          3    1    3    3  502    0  0.11412202285E+03  0.22299550426E+02 -0.30828936349E+03  0.32948966249E+03  0.00000000000E+00 0. -1.
         -4    1    3    3    0  502  0.11181767796E+03  0.70127576198E+02 -0.17424359262E+03  0.21859071256E+03  0.00000000000E+00 0.  1.
         13    1    5    5    0    0 -0.40956677306E+03  0.14364607591E+03  0.45078530721E+03  0.62576875115E+03  0.00000000000E+00 0.  1.
        -13    1    5    5    0    0 -0.90254318877E+02 -0.74361911834E+01  0.72963279242E+02  0.11629608391E+03  0.00000000000E+00 0. -1.
          3    1    6    6  503    0  0.17606872430E+03 -0.88948525419E+02  0.36849616525E+03  0.41797303700E+03  0.00000000000E+00 0. -1.
         -3    1    6    6    0  503  0.97812666826E+02 -0.13968848594E+03  0.35186841387E+03  0.39101351840E+03  0.00000000000E+00 0.  1.
<mgrwt>
<rscale>  0 0.19561058E+04</rscale>
<asrwt>0</asrwt>
<pdfrwt beam="1">  1        1 0.22005477E+00 0.19561058E+04</pdfrwt>
<pdfrwt beam="2">  1       -2 0.10288858E+00 0.19561058E+04</pdfrwt>
<totfact> 0.46135475E+00</totfact>
</mgrwt>
</event>
<event>
12    5  0.5428626E-008  0.2301026E+04  0.7818608E-02  0.8477517E-01
         -2   -1    0    0    0  501 -0.00000000000E+00  0.00000000000E+00  0.45049596379E+03  0.45049596379E+03  0.00000000000E+00 0.  1.
          1   -1    0    0  501    0  0.00000000000E+00 -0.00000000000E+00 -0.29382741606E+04  0.29382741606E+04  0.00000000000E+00 0. -1.
        -24    2    1    2    0    0 -0.21255857623E+03 -0.51101599544E+03 -0.22388092023E+04  0.23075810424E+04  0.79656305282E+02 0.  0.
        254    2    1    2    0    0  0.21255857623E+03  0.51101599544E+03 -0.24896899452E+03  0.10811890820E+04  0.89479929308E+03 0.  0.
         23    2    4    4    0    0 -0.28443280938E+03  0.41939575388E+03 -0.23831261107E+03  0.56760051305E+03  0.92642433034E+02 0.  0.
         23    2    4    4    0    0  0.49699138561E+03  0.91620241562E+02 -0.10656383447E+02  0.51358856896E+03  0.90911790341E+02 0.  0.
          3    1    3    3  502    0 -0.11247439656E+03 -0.19272077148E+03 -0.10029604223E+04  0.10274830384E+04  0.00000000000E+00 0. -1.
         -4    1    3    3    0  502 -0.10008417967E+03 -0.31829522396E+03 -0.12358487800E+04  0.12800980039E+04  0.00000000000E+00 0.  1.
         13    1    5    5    0    0 -0.27511637163E+03  0.42026072656E+03 -0.24198071087E+03  0.55755067991E+03  0.00000000000E+00 0. -1.
        -13    1    5    5    0    0 -0.93164377468E+01 -0.86497268361E+00  0.36680998043E+01  0.10049833143E+02  0.00000000000E+00 0.  1.
          3    1    6    6  503    0  0.33748268596E+03  0.10461800355E+03 -0.12352649619E+02  0.35354218693E+03  0.00000000000E+00 0. -1.
         -3    1    6    6    0  503  0.15950869965E+03 -0.12997761985E+02  0.16962661723E+01  0.16004638203E+03  0.00000000000E+00 0.  1.
<mgrwt>
<rscale>  0 0.23010264E+04</rscale>
<asrwt>0</asrwt>
<pdfrwt beam="1">  1        1 0.45204218E+00 0.23010264E+04</pdfrwt>
<pdfrwt beam="2">  1       -2 0.69307071E-01 0.23010264E+04</pdfrwt>
<totfact> 0.10008444E+00</totfact>
</mgrwt>
</event>
<event>
12    5  0.5428626E-008  0.2266825E+04  0.7818608E-02  0.8491117E-01
          1   -1    0    0  501    0  0.00000000000E+00  0.00000000000E+00  0.89164993134E+03  0.89164993134E+03  0.00000000000E+00 0. -1.
         -2   -1    0    0    0  501 -0.00000000000E+00 -0.00000000000E+00 -0.14407271313E+04  0.14407271313E+04  0.00000000000E+00 0.  1.
        -24    2    1    2    0    0  0.79917637069E+03  0.34796791540E+03 -0.28824317473E+01  0.87510583891E+03  0.77700574423E+02 0.  0.
        254    2    1    2    0    0 -0.79917637069E+03 -0.34796791540E+03 -0.54619476825E+03  0.14572712238E+04  0.10322529502E+04 0.  0.
         23    2    4    4    0    0 -0.24012753427E+03  0.10427630563E+03 -0.66691809771E+03  0.72228735784E+03  0.91566902385E+02 0.  0.
         23    2    4    4    0    0 -0.55904883642E+03 -0.45224422103E+03  0.12072332946E+03  0.73498386592E+03  0.92556598476E+02 0.  0.
          3    1    3    3  502    0  0.13585015034E+03  0.67040596600E+02 -0.29124074891E+02  0.15426573397E+03  0.00000000000E+00 0. -1.
         -4    1    3    3    0  502  0.66332622036E+03  0.28092731880E+03  0.26241643143E+02  0.72084010494E+03  0.00000000000E+00 0.  1.
         13    1    5    5    0    0 -0.18565797559E+02 -0.96343525674E+01 -0.11305909456E+03  0.11497768675E+03  0.00000000000E+00 0.  1.
        -13    1    5    5    0    0 -0.22156173671E+03  0.11391065820E+03 -0.55385900315E+03  0.60730967109E+03  0.00000000000E+00 0. -1.
          4    1    6    6  503    0 -0.25263991343E+03 -0.21928399986E+03  0.10896880773E+02  0.33471053234E+03  0.00000000000E+00 0. -1.
         -4    1    6    6    0  503 -0.30640892299E+03 -0.23296022117E+03  0.10982644869E+03  0.40027333357E+03  0.00000000000E+00 0.  1.
<mgrwt>
<rscale>  0 0.22668253E+04</rscale>
<asrwt>0</asrwt>
<pdfrwt beam="1">  1        1 0.13717691E+00 0.22668253E+04</pdfrwt>
<pdfrwt beam="2">  1       -2 0.22165033E+00 0.22668253E+04</pdfrwt>
<totfact> 0.14171079E+00</totfact>
</mgrwt>
</event>
<event>
12    5  0.5428626E-008  0.2262413E+04  0.7818608E-02  0.8492890E-01
         -2   -1    0    0    0  501 -0.00000000000E+00  0.00000000000E+00  0.93905960712E+03  0.93905960712E+03  0.00000000000E+00 0.  1.
          1   -1    0    0  501    0  0.00000000000E+00 -0.00000000000E+00 -0.13626692789E+04  0.13626692789E+04  0.00000000000E+00 0. -1.
        -24    2    1    2    0    0 -0.54438739379E+02 -0.86300785839E+03 -0.57571650457E+03  0.10417890802E+04  0.78286997283E+02 0.  0.
        254    2    1    2    0    0  0.54438739379E+02  0.86300785839E+03  0.15210683279E+03  0.12599398059E+04  0.90364024136E+03 0.  0.
         23    2    4    4    0    0 -0.29092892407E+03  0.57394591205E+02  0.21394236360E+03  0.37650335104E+03  0.89719899901E+02 0.  0.
         23    2    4    4    0    0  0.34536766345E+03  0.80561326718E+03 -0.61835530816E+02  0.88343645482E+03  0.91349754305E+02 0.  0.
          1    1    3    3  502    0  0.10210271029E+02 -0.26752302175E+03 -0.20706144723E+03  0.33844831176E+03  0.00000000000E+00 0. -1.
         -2    1    3    3    0  502 -0.64649010408E+02 -0.59548483664E+03 -0.36865505733E+03  0.70334076841E+03  0.00000000000E+00 0.  1.
         13    1    5    5    0    0 -0.10811027692E+03  0.24266630211E+02  0.29402946712E+02  0.11463522405E+03  0.00000000000E+00 0.  1.
        -13    1    5    5    0    0 -0.18281864715E+03  0.33127960994E+02  0.18453941689E+03  0.26186812699E+03  0.00000000000E+00 0. -1.
          2    1    6    6  503    0  0.11592588965E+02  0.99977997642E+02 -0.93008664747E+01  0.10107667510E+03  0.00000000000E+00 0. -1.
         -2    1    6    6    0  503  0.33377507448E+03  0.70563526954E+03 -0.52534664341E+02  0.78235977972E+03  0.00000000000E+00 0.  1.
<mgrwt>
<rscale>  0 0.22624126E+04</rscale>
<asrwt>0</asrwt>
<pdfrwt beam="1">  1        1 0.20964143E+00 0.22624126E+04</pdfrwt>
<pdfrwt beam="2">  1       -2 0.14447071E+00 0.22624126E+04</pdfrwt>
<totfact> 0.21495130E+00</totfact>
</mgrwt>
</event>
<event>
12    5  0.5428626E-008  0.2245897E+04  0.7818608E-02  0.8499564E-01
         -2   -1    0    0    0  501 -0.00000000000E+00  0.00000000000E+00  0.10987352635E+04  0.10987352635E+04  0.00000000000E+00 0.  1.
          1   -1    0    0  501    0  0.00000000000E+00 -0.00000000000E+00 -0.11476956835E+04  0.11476956835E+04  0.00000000000E+00 0. -1.
        -24    2    1    2    0    0  0.70861696880E+03 -0.21112791867E+03  0.56057695446E+03  0.93128745177E+03  0.79603953651E+02 0.  0.
        254    2    1    2    0    0 -0.70861696880E+03  0.21112791867E+03 -0.60953737446E+03  0.13151434952E+04  0.90075168360E+03 0.  0.
         23    2    4    4    0    0 -0.51751162025E+03  0.45792078495E+02  0.11753063330E+03  0.54034579892E+03  0.90801658025E+02 0.  0.
         23    2    4    4    0    0 -0.19110534855E+03  0.16533584017E+03 -0.72706800777E+03  0.77479769625E+03  0.88466874615E+02 0.  0.
          3    1    3    3  502    0  0.32887137997E+02 -0.13393016036E+01  0.45311277803E+02  0.56004191544E+02  0.00000000000E+00 0. -1.
         -4    1    3    3    0  502  0.67572983080E+03 -0.20978861706E+03  0.51526567666E+03  0.87528326022E+03  0.00000000000E+00 0.  1.
         13    1    5    5    0    0 -0.40738259106E+02 -0.93736686189E+00  0.36052606934E+02  0.54408408158E+02  0.00000000000E+00 0. -1.
        -13    1    5    5    0    0 -0.47677336114E+03  0.46729445357E+02  0.81478026370E+02  0.48593739076E+03  0.00000000000E+00 0.  1.
          1    1    6    6  503    0 -0.54889919604E+02  0.95782306405E+02 -0.23767685901E+03  0.26206381437E+03  0.00000000000E+00 0. -1.
         -1    1    6    6    0  503 -0.13621542895E+03  0.69553533767E+02 -0.48939114876E+03  0.51273388188E+03  0.00000000000E+00 0.  1.
<mgrwt>
<rscale>  0 0.22458973E+04</rscale>
<asrwt>0</asrwt>
<pdfrwt beam="1">  1        1 0.17656857E+00 0.22458973E+04</pdfrwt>
<pdfrwt beam="2">  1       -2 0.16903619E+00 0.22458973E+04</pdfrwt>
<totfact> 0.20142647E+00</totfact>
</mgrwt>
</event>
<event>
12    5  0.5428626E-008  0.1211020E+04  0.7818608E-02  0.9103265E-01
          1   -1    0    0  501    0  0.00000000000E+00  0.00000000000E+00  0.33359190421E+03  0.33359190421E+03  0.00000000000E+00 0. -1.
         -2   -1    0    0    0  501 -0.00000000000E+00 -0.00000000000E+00 -0.10990751880E+04  0.10990751880E+04  0.00000000000E+00 0.  1.
        -24    2    1    2    0    0  0.11418919651E+03  0.16923952284E+03 -0.33705115574E+03  0.40196920820E+03  0.79338351763E+02 0.  0.
        254    2    1    2    0    0 -0.11418919651E+03 -0.16923952284E+03 -0.42843212807E+03  0.10306978840E+04  0.91493324953E+03 0.  0.
         23    2    4    4    0    0  0.19838858330E+03 -0.21814693888E+03  0.16655761267E+03  0.35060587784E+03  0.90757513760E+02 0.  0.
         23    2    4    4    0    0 -0.31257777981E+03  0.48907416044E+02 -0.59498974075E+03  0.68009200620E+03  0.91736260678E+02 0.  0.
          3    1    3    3  502    0  0.97300139946E+01  0.30455105946E+00  0.11030122249E+01  0.97970689316E+01  0.00000000000E+00 0. -1.
         -4    1    3    3    0  502  0.10445918252E+03  0.16893497178E+03 -0.33815416796E+03  0.39217213926E+03  0.00000000000E+00 0.  1.
         13    1    5    5    0    0  0.18436724601E+03 -0.17228748042E+03  0.16709704813E+03  0.30264778341E+03  0.00000000000E+00 0. -1.
        -13    1    5    5    0    0  0.14021337294E+02 -0.45859458467E+02 -0.53943545437E+00  0.47958094427E+02  0.00000000000E+00 0.  1.
          3    1    6    6  503    0 -0.21774358840E+03  0.63075514131E+02 -0.47640198194E+03  0.52758851312E+03  0.00000000000E+00 0. -1.
         -3    1    6    6    0  503 -0.94834191411E+02 -0.14168098087E+02 -0.11858775880E+03  0.15250349308E+03  0.00000000000E+00 0.  1.
<mgrwt>
<rscale>  0 0.12110204E+04</rscale>
<asrwt>0</asrwt>
<pdfrwt beam="1">  1        1 0.51321831E-01 0.12110204E+04</pdfrwt>
<pdfrwt beam="2">  1       -2 0.16908849E+00 0.12110204E+04</pdfrwt>
<totfact> 0.14234876E+01</totfact>
</mgrwt>
</event>
<event>
12    5  0.5428626E-008  0.2095138E+04  0.7818608E-02  0.8563388E-01
          1   -1    0    0  501    0  0.00000000000E+00  0.00000000000E+00  0.55428423517E+03  0.55428423517E+03  0.00000000000E+00 0. -1.
         -2   -1    0    0    0  501 -0.00000000000E+00 -0.00000000000E+00 -0.19798528633E+04  0.19798528633E+04  0.00000000000E+00 0.  1.
        -24    2    1    2    0    0  0.11763893016E+03 -0.82412039994E+03 -0.34057776687E+03  0.90304426625E+03  0.80513228898E+02 0.  0.
        254    2    1    2    0    0 -0.11763893016E+03  0.82412039994E+03 -0.10849908613E+04  0.16310928323E+04  0.88895742691E+03 0.  0.
         23    2    4    4    0    0  0.10791505554E+03  0.86272005671E+03 -0.52650502090E+03  0.10206552009E+04  0.92725113332E+02 0.  0.
         23    2    4    4    0    0 -0.22555398570E+03 -0.38599656767E+02 -0.55848584039E+03  0.61043763135E+03  0.91450171593E+02 0.  0.
          1    1    3    3  502    0  0.30762691561E+02 -0.45795630611E+03 -0.16468610939E+03  0.48763904286E+03  0.00000000000E+00 0. -1.
         -2    1    3    3    0  502  0.86876238598E+02 -0.36616409383E+03 -0.17589165748E+03  0.41540522338E+03  0.00000000000E+00 0.  1.
         13    1    5    5    0    0  0.10491108148E+03  0.73853564508E+03 -0.48468150191E+03  0.88958270687E+03  0.00000000000E+00 0.  1.
        -13    1    5    5    0    0  0.30039740563E+01  0.12418441162E+03 -0.41823518993E+02  0.13107249403E+03  0.00000000000E+00 0. -1.
          3    1    6    6  503    0 -0.90098735917E+02  0.28351986959E+02 -0.24032921361E+03  0.25822422096E+03  0.00000000000E+00 0. -1.
         -3    1    6    6    0  503 -0.13545524978E+03 -0.66951643726E+02 -0.31815662678E+03  0.35221341039E+03  0.00000000000E+00 0.  1.
<mgrwt>
<rscale>  0 0.20951384E+04</rscale>
<asrwt>0</asrwt>
<pdfrwt beam="1">  1        1 0.85274496E-01 0.20951384E+04</pdfrwt>
<pdfrwt beam="2">  1       -2 0.30459276E+00 0.20951384E+04</pdfrwt>
<totfact> 0.92165600E-01</totfact>
</mgrwt>
</event>
<event>
12    5  0.5428626E-008  0.2349381E+04  0.7818608E-02  0.8458701E-01
         -2   -1    0    0    0  501 -0.00000000000E+00  0.00000000000E+00  0.12361313614E+04  0.12361313614E+04  0.00000000000E+00 0.  1.
          1   -1    0    0  501    0  0.00000000000E+00 -0.00000000000E+00 -0.11163035535E+04  0.11163035535E+04  0.00000000000E+00 0. -1.
        -24    2    1    2    0    0 -0.15693881570E+03 -0.30735738000E+03  0.99705224793E+03  0.10580219004E+04  0.78732494918E+02 0.  0.
        254    2    1    2    0    0  0.15693881570E+03  0.30735738000E+03 -0.87722443999E+03  0.12944130145E+04  0.88706481334E+03 0.  0.
         23    2    4    4    0    0  0.74778564558E+02 -0.26793878794E+03 -0.81515317348E+02  0.30375062991E+03  0.90756103978E+02 0.  0.
         23    2    4    4    0    0  0.82160251140E+02  0.57529616794E+03 -0.79570912264E+03  0.99066238458E+03  0.10267893970E+03 0.  0.
          3    1    3    3  502    0 -0.10119362919E+01  0.11178093631E+01  0.47388734866E+02  0.47412716702E+02  0.00000000000E+00 0. -1.
         -4    1    3    3    0  502 -0.15592687941E+03 -0.30847518936E+03  0.94966351306E+03  0.10106091837E+04  0.00000000000E+00 0.  1.
         13    1    5    5    0    0  0.75300472678E+02 -0.11768785945E+03 -0.18959341450E+02  0.14099663144E+03  0.00000000000E+00 0. -1.
        -13    1    5    5    0    0 -0.52190811940E+00 -0.15025092849E+03 -0.62555975898E+02  0.16275399847E+03  0.00000000000E+00 0.  1.
          2    1    6    6  503    0 -0.19840708859E+02  0.35144897912E+02 -0.58592442050E+02  0.71146973531E+02  0.00000000000E+00 0. -1.
         -2    1    6    6    0  503  0.10200096000E+03  0.54015127002E+03 -0.73711668059E+03  0.91951541105E+03  0.00000000000E+00 0.  1.
<mgrwt>
<rscale>  0 0.23493811E+04</rscale>
<asrwt>0</asrwt>
<pdfrwt beam="1">  1        1 0.17173901E+00 0.23493811E+04</pdfrwt>
<pdfrwt beam="2">  1       -2 0.19017405E+00 0.23493811E+04</pdfrwt>
<totfact> 0.15041635E+00</totfact>
</mgrwt>
</event>
<event>
12    5  0.5428626E-008  0.1619040E+04  0.7818608E-02  0.8808936E-01
         -2   -1    0    0    0  501 -0.00000000000E+00  0.00000000000E+00  0.31822708218E+03  0.31822708218E+03  0.00000000000E+00 0.  1.
          1   -1    0    0  501    0  0.00000000000E+00 -0.00000000000E+00 -0.20592923766E+04  0.20592923766E+04  0.00000000000E+00 0. -1.
        -24    2    1    2    0    0 -0.15224687774E+03 -0.12899154745E+03  0.15910355704E+03  0.26738634593E+03  0.79772081802E+02 0.  0.
        254    2    1    2    0    0  0.15224687774E+03  0.12899154745E+03 -0.19001688514E+04  0.21101331128E+04  0.89565738918E+03 0.  0.
         23    2    4    4    0    0  0.47287516247E+02  0.12257840330E+03 -0.19547978453E+04  0.19613426619E+04  0.91481402592E+02 0.  0.
         23    2    4    4    0    0  0.10495936149E+03  0.64131441517E+01  0.54628993911E+02  0.14879045094E+03  0.89981527733E+02 0.  0.
          3    1    3    3  502    0 -0.69388559631E+02 -0.55294087407E+02  0.22678628947E+02  0.91577991465E+02  0.00000000000E+00 0. -1.
         -4    1    3    3    0  502 -0.82858318108E+02 -0.73697460042E+02  0.13642492809E+03  0.17580835447E+03  0.00000000000E+00 0.  1.
         13    1    5    5    0    0  0.73557980311E+02  0.85243714344E+02 -0.12463074695E+04  0.12513830652E+04  0.00000000000E+00 0.  1.
        -13    1    5    5    0    0 -0.26270464064E+02  0.37334688954E+02 -0.70849037579E+03  0.70995959665E+03  0.00000000000E+00 0. -1.
          3    1    6    6  503    0  0.21440399352E+02 -0.13619695103E+02 -0.22063528192E+02  0.33645001045E+02  0.00000000000E+00 0. -1.
         -3    1    6    6    0  503  0.83518962139E+02  0.20032839254E+02  0.76692522103E+02  0.11514544990E+03  0.00000000000E+00 0.  1.
<mgrwt>
<rscale>  0 0.16190400E+04</rscale>
<asrwt>0</asrwt>
<pdfrwt beam="1">  1        1 0.31681421E+00 0.16190400E+04</pdfrwt>
<pdfrwt beam="2">  1       -2 0.48958014E-01 0.16190400E+04</pdfrwt>
<totfact> 0.90295487E+00</totfact>
</mgrwt>
</event>
<event>
12    5  0.5428626E-008  0.1190593E+04  0.7818608E-02  0.9121130E-01
         -2   -1    0    0    0  501 -0.00000000000E+00  0.00000000000E+00  0.18604657888E+03  0.18604657888E+03  0.00000000000E+00 0.  1.
          1   -1    0    0  501    0  0.00000000000E+00 -0.00000000000E+00 -0.19047809886E+04  0.19047809886E+04  0.00000000000E+00 0. -1.
        -24    2    1    2    0    0 -0.42991887755E+02  0.18062223608E+03 -0.65173367536E+03  0.68234380484E+03  0.79772111861E+02 0.  0.
        254    2    1    2    0    0  0.42991887755E+02 -0.18062223608E+03 -0.10670007344E+04  0.14084837627E+04  0.90047945447E+03 0.  0.
         23    2    4    4    0    0  0.24986795722E+03 -0.46072878094E+03 -0.79723874604E+03  0.95847333559E+03  0.91523282438E+02 0.  0.
         23    2    4    4    0    0 -0.20687606947E+03  0.28010654486E+03 -0.26976198836E+03  0.45001042707E+03  0.92089464749E+02 0.  0.
          3    1    3    3  502    0  0.19262975693E+01  0.81593613161E+02 -0.39814721578E+03  0.40642641864E+03  0.00000000000E+00 0. -1.
         -4    1    3    3    0  502 -0.44918185324E+02  0.99028622916E+02 -0.25358645958E+03  0.27591738621E+03  0.00000000000E+00 0.  1.
         13    1    5    5    0    0  0.79341473160E+02 -0.80606549410E+02 -0.13542043817E+03  0.17644030222E+03  0.00000000000E+00 0. -1.
        -13    1    5    5    0    0  0.17052648406E+03 -0.38012223153E+03 -0.66181830786E+03  0.78203303338E+03  0.00000000000E+00 0.  1.
          3    1    6    6  503    0 -0.26856278286E+02  0.30815189901E+00 -0.13545451292E+02  0.30080456972E+02  0.00000000000E+00 0. -1.
         -3    1    6    6    0  503 -0.18001979118E+03  0.27979839297E+03 -0.25621653707E+03  0.41992997010E+03  0.00000000000E+00 0.  1.
<mgrwt>
<rscale>  0 0.11905931E+04</rscale>
<asrwt>0</asrwt>
<pdfrwt beam="1">  1        1 0.29304324E+00 0.11905931E+04</pdfrwt>
<pdfrwt beam="2">  1       -2 0.28622550E-01 0.11905931E+04</pdfrwt>
<totfact> 0.33694112E+01</totfact>
</mgrwt>
</event>
<event>
12    5  0.5428626E-008  0.1584177E+04  0.7818608E-02  0.8830328E-01
          1   -1    0    0  501    0  0.00000000000E+00  0.00000000000E+00  0.33775097504E+03  0.33775097504E+03  0.00000000000E+00 0. -1.
         -2   -1    0    0    0  501 -0.00000000000E+00 -0.00000000000E+00 -0.18575939144E+04  0.18575939144E+04  0.00000000000E+00 0.  1.
        -24    2    1    2    0    0 -0.47821245377E+03  0.11601011287E+03 -0.24335157679E+03  0.55486697578E+03  0.80696181177E+02 0.  0.
        254    2    1    2    0    0  0.47821245377E+03 -0.11601011287E+03 -0.12764913625E+04  0.16404779136E+04  0.90531325473E+03 0.  0.
         23    2    4    4    0    0  0.27013998037E+03 -0.18396073031E+03 -0.13506088430E+04  0.13920170992E+04  0.82159590514E+02 0.  0.
         23    2    4    4    0    0  0.20807247341E+03  0.67950617436E+02  0.74117480510E+02  0.24846081440E+03  0.91257519003E+02 0.  0.
          1    1    3    3  502    0 -0.59891760155E+02  0.41540452099E+02 -0.24328597336E+02  0.76840827321E+02  0.00000000000E+00 0. -1.
         -2    1    3    3    0  502 -0.41832069362E+03  0.74469660774E+02 -0.21902297946E+03  0.47802614846E+03  0.00000000000E+00 0.  1.
         13    1    5    5    0    0  0.10871515143E+03 -0.12301463868E+03 -0.63010392572E+03  0.65113941878E+03  0.00000000000E+00 0.  1.
        -13    1    5    5    0    0  0.16142482894E+03 -0.60946091630E+02 -0.72050491732E+03  0.74087768043E+03  0.00000000000E+00 0. -1.
          1    1    6    6  503    0  0.16272739523E+03  0.65399406426E+02  0.93887625061E+02  0.19892755882E+03  0.00000000000E+00 0. -1.
         -1    1    6    6    0  503  0.45345078173E+02  0.25512110100E+01 -0.19770144550E+02  0.49533255573E+02  0.00000000000E+00 0.  1.
<mgrwt>
<rscale>  0 0.15841770E+04</rscale>
<asrwt>0</asrwt>
<pdfrwt beam="1">  1        1 0.51961686E-01 0.15841770E+04</pdfrwt>
<pdfrwt beam="2">  1       -2 0.28578369E+00 0.15841770E+04</pdfrwt>
<totfact> 0.24518152E+00</totfact>
</mgrwt>
</event>
<event>
12    5  0.5428626E-008  0.1643651E+04  0.7818608E-02  0.8794172E-01
         -2   -1    0    0    0  501 -0.00000000000E+00  0.00000000000E+00  0.30980840573E+03  0.30980840573E+03  0.00000000000E+00 0.  1.
          1   -1    0    0  501    0  0.00000000000E+00 -0.00000000000E+00 -0.21800468017E+04  0.21800468017E+04  0.00000000000E+00 0. -1.
        -24    2    1    2    0    0  0.28726448268E+03  0.46252945922E+03 -0.60432340674E+03  0.81735560118E+03  0.80056325156E+02 0.  0.
        254    2    1    2    0    0 -0.28726448268E+03 -0.46252945922E+03 -0.12659149892E+04  0.16724996062E+04  0.94776568268E+03 0.  0.
         23    2    4    4    0    0 -0.15200329765E+03 -0.23554495755E+03 -0.13481274109E+04  0.13801554253E+04  0.93781941097E+02 0.  0.
         23    2    4    4    0    0 -0.13526118503E+03 -0.22698450167E+03  0.82212421754E+02  0.29234418086E+03  0.94279826128E+02 0.  0.
          1    1    3    3  502    0  0.16218706749E+03  0.21226064129E+03 -0.34070504944E+03  0.43294243891E+03  0.00000000000E+00 0. -1.
         -2    1    3    3    0  502  0.12507741519E+03  0.25026881793E+03 -0.26361835730E+03  0.38441316227E+03  0.00000000000E+00 0.  1.
         13    1    5    5    0    0 -0.11622578246E+03 -0.94308045516E+02 -0.71040832743E+03  0.72600442949E+03  0.00000000000E+00 0. -1.
        -13    1    5    5    0    0 -0.35777515191E+02 -0.14123691203E+03 -0.63771908351E+03  0.65415099586E+03  0.00000000000E+00 0.  1.
          1    1    6    6  503    0  0.26455240801E+01 -0.47209512025E+01 -0.12922463821E+02  0.14009862566E+02  0.00000000000E+00 0. -1.
         -1    1    6    6    0  503 -0.13790670911E+03 -0.22226355047E+03  0.95134885575E+02  0.27833431829E+03  0.00000000000E+00 0.  1.
<mgrwt>
<rscale>  0 0.16436506E+04</rscale>
<asrwt>0</asrwt>
<pdfrwt beam="1">  1        1 0.33539181E+00 0.16436506E+04</pdfrwt>
<pdfrwt beam="2">  1       -2 0.47662833E-01 0.16436506E+04</pdfrwt>
<totfact> 0.78772938E+00</totfact>
</mgrwt>
</event>
<event>
12    5  0.5428626E-008  0.1572060E+04  0.7818608E-02  0.8837899E-01
         -2   -1    0    0    0  501 -0.00000000000E+00  0.00000000000E+00  0.27582644017E+03  0.27582644017E+03  0.00000000000E+00 0.  1.
          1   -1    0    0  501    0  0.00000000000E+00 -0.00000000000E+00 -0.22399695356E+04  0.22399695356E+04  0.00000000000E+00 0. -1.
        -24    2    1    2    0    0  0.42322728416E+03 -0.12704576444E+03 -0.20731031140E+03  0.49458333465E+03  0.79832007235E+02 0.  0.
        254    2    1    2    0    0 -0.42322728416E+03  0.12704576444E+03 -0.17568327840E+04  0.20212126411E+04  0.89642464783E+03 0.  0.
         23    2    4    4    0    0 -0.49923788952E+03  0.83667292983E+02 -0.18117548787E+04  0.18833343645E+04  0.90850986896E+02 0.  0.
         23    2    4    4    0    0  0.76010605360E+02  0.43378471455E+02  0.54922094742E+02  0.13787827653E+03  0.91294461695E+02 0.  0.
          1    1    3    3  502    0  0.35794530714E+03 -0.11189915461E+03 -0.20528341549E+03  0.42753660005E+03  0.00000000000E+00 0. -1.
         -2    1    3    3    0  502  0.65281977018E+02 -0.15146609824E+02 -0.20268959025E+01  0.67046734593E+02  0.00000000000E+00 0.  1.
         13    1    5    5    0    0 -0.12285587122E+03  0.56608263352E+02 -0.41405491747E+03  0.43559101833E+03  0.00000000000E+00 0.  1.
        -13    1    5    5    0    0 -0.37638201830E+03  0.27059029631E+02 -0.13976999613E+04  0.14477433462E+04  0.00000000000E+00 0. -1.
          4    1    6    6  503    0  0.65563136768E+02  0.61433012738E+02  0.12641782858E+02  0.90732324067E+02  0.00000000000E+00 0. -1.
         -4    1    6    6    0  503  0.10447468593E+02 -0.18054541283E+02  0.42280311884E+02  0.47145952466E+02  0.00000000000E+00 0.  1.
<mgrwt>
<rscale>  0 0.15720596E+04</rscale>
<asrwt>0</asrwt>
<pdfrwt beam="1">  1        1 0.34461070E+00 0.15720596E+04</pdfrwt>
<pdfrwt beam="2">  1       -2 0.42434837E-01 0.15720596E+04</pdfrwt>
<totfact> 0.91042264E+00</totfact>
</mgrwt>
</event>
<event>
12    5  0.5428626E-008  0.1138758E+04  0.7818608E-02  0.9168218E-01
         -2   -1    0    0    0  501 -0.00000000000E+00  0.00000000000E+00  0.13893033790E+03  0.13893033790E+03  0.00000000000E+00 0.  1.
          1   -1    0    0  501    0  0.00000000000E+00 -0.00000000000E+00 -0.23334873501E+04  0.23334873501E+04  0.00000000000E+00 0. -1.
        -24    2    1    2    0    0 -0.72860407660E+02  0.11771121134E+03 -0.68604787719E+03  0.70443762829E+03  0.80038203877E+02 0.  0.
        254    2    1    2    0    0  0.72860407660E+02 -0.11771121134E+03 -0.15085091350E+04  0.17679800597E+04  0.91158604248E+03 0.  0.
         23    2    4    4    0    0  0.99619780155E+01  0.25222081421E+03 -0.13033026957E+04  0.13303137743E+04  0.86152430928E+02 0.  0.
         23    2    4    4    0    0  0.62898429645E+02 -0.36993202555E+03 -0.20520643925E+03  0.43766628535E+03  0.92931042415E+02 0.  0.
          3    1    3    3  502    0 -0.59474917788E+02  0.74875974674E+02 -0.59815804426E+03  0.60575302173E+03  0.00000000000E+00 0. -1.
         -4    1    3    3    0  502 -0.13385489872E+02  0.42835236661E+02 -0.87889832933E+02  0.98684606560E+02  0.00000000000E+00 0.  1.
         13    1    5    5    0    0  0.31452770380E+01  0.19038303391E+03 -0.76122033959E+03  0.78467317896E+03  0.00000000000E+00 0.  1.
        -13    1    5    5    0    0  0.68167009775E+01  0.61837780306E+02 -0.54208235612E+03  0.54564059536E+03  0.00000000000E+00 0. -1.
          4    1    6    6  503    0 -0.56072419289E+01 -0.11238717267E+03 -0.23057237598E+02  0.11486493786E+03  0.00000000000E+00 0. -1.
         -4    1    6    6    0  503  0.68505671573E+02 -0.25754485288E+03 -0.18214920165E+03  0.32280134749E+03  0.00000000000E+00 0.  1.
<mgrwt>
<rscale>  0 0.11387575E+04</rscale>
<asrwt>0</asrwt>
<pdfrwt beam="1">  1        1 0.35899806E+00 0.11387575E+04</pdfrwt>
<pdfrwt beam="2">  1       -2 0.21373898E-01 0.11387575E+04</pdfrwt>
<totfact> 0.29445410E+01</totfact>
</mgrwt>
</event>
<event>
12    5  0.5428626E-008  0.2463435E+04  0.7818608E-02  0.8416129E-01
          1   -1    0    0  501    0  0.00000000000E+00  0.00000000000E+00  0.23643778513E+04  0.23643778513E+04  0.00000000000E+00 0. -1.
         -2   -1    0    0    0  501 -0.00000000000E+00 -0.00000000000E+00 -0.64166072763E+03  0.64166072763E+03  0.00000000000E+00 0.  1.
        -24    2    1    2    0    0 -0.24773901627E+03 -0.43796034386E+03 -0.39447040470E+03  0.64600803796E+03  0.92388321520E+02 0.  0.
        254    2    1    2    0    0  0.24773901627E+03  0.43796034386E+03  0.21171875283E+04  0.23600305409E+04  0.91327829330E+03 0.  0.
         23    2    4    4    0    0 -0.15580039976E+03  0.47717844368E+03  0.60294409827E+03  0.78974738656E+03  0.90478269594E+02 0.  0.
         23    2    4    4    0    0  0.40353941603E+03 -0.39218099819E+02  0.15142434301E+04  0.15702831544E+04  0.92053787289E+02 0.  0.
          3    1    3    3  502    0 -0.10385847635E+03 -0.23013955306E+03 -0.24778078043E+03  0.35375996402E+03  0.00000000000E+00 0. -1.
         -4    1    3    3    0  502 -0.14388053992E+03 -0.20782079079E+03 -0.14668962427E+03  0.29224807394E+03  0.00000000000E+00 0.  1.
         13    1    5    5    0    0 -0.56710419984E+02  0.75923182922E+02  0.86753574546E+02  0.12847795195E+03  0.00000000000E+00 0.  1.
        -13    1    5    5    0    0 -0.99089979773E+02  0.40125526075E+03  0.51619052372E+03  0.66126943461E+03  0.00000000000E+00 0. -1.
          2    1    6    6  503    0  0.37571033610E+03 -0.54236767428E+02  0.14471731855E+04  0.14961317163E+04  0.00000000000E+00 0. -1.
         -2    1    6    6    0  503  0.27829079928E+02  0.15018667609E+02  0.67070244583E+02  0.74151438117E+02  0.00000000000E+00 0.  1.
<mgrwt>
<rscale>  0 0.24634353E+04</rscale>
<asrwt>0</asrwt>
<pdfrwt beam="1">  1        1 0.36375043E+00 0.24634353E+04</pdfrwt>
<pdfrwt beam="2">  1       -2 0.98717036E-01 0.24634353E+04</pdfrwt>
<totfact> 0.11213109E+00</totfact>
</mgrwt>
</event>
<event>
12    5  0.5428626E-008  0.2127121E+04  0.7818608E-02  0.8549390E-01
         -2   -1    0    0    0  501 -0.00000000000E+00  0.00000000000E+00  0.55499373443E+03  0.55499373443E+03  0.00000000000E+00 0.  1.
          1   -1    0    0  501    0  0.00000000000E+00 -0.00000000000E+00 -0.20381507999E+04  0.20381507999E+04  0.00000000000E+00 0. -1.
        -24    2    1    2    0    0 -0.59451137568E+03  0.56292539320E+03 -0.97674052073E+03  0.12770448577E+04  0.80577600508E+02 0.  0.
        254    2    1    2    0    0  0.59451137568E+03 -0.56292539320E+03 -0.50641654475E+03  0.13160996766E+04  0.89740284590E+03 0.  0.
         23    2    4    4    0    0  0.41593125386E+03  0.80755357236E+02  0.57353709487E+02  0.43713557693E+03  0.90982575072E+02 0.  0.
         23    2    4    4    0    0  0.17858012182E+03 -0.64368075044E+03 -0.56377025423E+03  0.87896409967E+03  0.92332120948E+02 0.  0.
          1    1    3    3  502    0 -0.42972806128E+03  0.41601817602E+03 -0.76594593519E+03  0.97180785399E+03  0.00000000000E+00 0. -1.
         -2    1    3    3    0  502 -0.16478331440E+03  0.14690721718E+03 -0.21079458553E+03  0.30523700375E+03  0.00000000000E+00 0.  1.
         13    1    5    5    0    0  0.28140528773E+03  0.15618332894E+02  0.57626452343E+02  0.28766938714E+03  0.00000000000E+00 0.  1.
        -13    1    5    5    0    0  0.13452596613E+03  0.65137024342E+02 -0.27274285606E+00  0.14946618979E+03  0.00000000000E+00 0. -1.
          2    1    6    6  503    0  0.21344940196E+00  0.46732301429E+00  0.27434029538E+01  0.27910949847E+01  0.00000000000E+00 0. -1.
         -2    1    6    6    0  503  0.17836667242E+03 -0.64414807345E+03 -0.56651365719E+03  0.87617300469E+03  0.00000000000E+00 0.  1.
<mgrwt>
<rscale>  0 0.21271210E+04</rscale>
<asrwt>0</asrwt>
<pdfrwt beam="1">  1        1 0.31356167E+00 0.21271210E+04</pdfrwt>
<pdfrwt beam="2">  1       -2 0.85383650E-01 0.21271210E+04</pdfrwt>
<totfact> 0.26982393E+00</totfact>
</mgrwt>
</event>
<event>
12    5  0.5428626E-008  0.2360866E+04  0.7818608E-02  0.8454302E-01
          1   -1    0    0  501    0  0.00000000000E+00  0.00000000000E+00  0.68548796660E+03  0.68548796660E+03  0.00000000000E+00 0. -1.
         -2   -1    0    0    0  501 -0.00000000000E+00 -0.00000000000E+00 -0.20327445379E+04  0.20327445379E+04  0.00000000000E+00 0.  1.
        -24    2    1    2    0    0  0.39303013594E+03 -0.82827574652E+03 -0.10232325308E+03  0.92598117927E+03  0.80359792239E+02 0.  0.
        254    2    1    2    0    0 -0.39303013594E+03  0.82827574652E+03 -0.12449333183E+04  0.17922513253E+04  0.90652768627E+03 0.  0.
         23    2    4    4    0    0 -0.38979203208E+02  0.56342058824E+03 -0.12114074937E+04  0.13397129897E+04  0.91436544129E+02 0.  0.
         23    2    4    4    0    0 -0.35405093273E+03  0.26485515828E+03 -0.33525824568E+02  0.45253833551E+03  0.90369499054E+02 0.  0.
          3    1    3    3  502    0  0.12165986810E+03 -0.28755003554E+03  0.95027777664E+00  0.31222916179E+03  0.00000000000E+00 0. -1.
         -4    1    3    3    0  502  0.27137026784E+03 -0.54072571098E+03 -0.10327353085E+03  0.61375201748E+03  0.00000000000E+00 0.  1.
         13    1    5    5    0    0  0.72489268960E+01  0.44396163741E+03 -0.93707561165E+03  0.10369499430E+04  0.00000000000E+00 0.  1.
        -13    1    5    5    0    0 -0.46228130104E+02  0.11945895082E+03 -0.27433188203E+03  0.30276304669E+03  0.00000000000E+00 0. -1.
          2    1    6    6  503    0 -0.12303136878E+03  0.41362996629E+02 -0.13095901457E+02  0.13045734103E+03  0.00000000000E+00 0. -1.
         -2    1    6    6    0  503 -0.23101956396E+03  0.22349216165E+03 -0.20429923111E+02  0.32208099449E+03  0.00000000000E+00 0.  1.
<mgrwt>
<rscale>  0 0.23608659E+04</rscale>
<asrwt>0</asrwt>
<pdfrwt beam="1">  1        1 0.10545969E+00 0.23608659E+04</pdfrwt>
<pdfrwt beam="2">  1       -2 0.31272992E+00 0.23608659E+04</pdfrwt>
<totfact> 0.58865257E-01</totfact>
</mgrwt>
</event>
<event>
12    5  0.5428626E-008  0.1517606E+04  0.7818608E-02  0.8872829E-01
          1   -1    0    0  501    0  0.00000000000E+00  0.00000000000E+00  0.59712920378E+03  0.59712920378E+03  0.00000000000E+00 0. -1.
         -2   -1    0    0    0  501 -0.00000000000E+00 -0.00000000000E+00 -0.96425081611E+03  0.96425081611E+03  0.00000000000E+00 0.  1.
        -24    2    1    2    0    0 -0.19875501636E+03 -0.44799752927E+03 -0.93316367737E+02  0.50542079389E+03  0.80851046016E+02 0.  0.
        254    2    1    2    0    0  0.19875501636E+03  0.44799752927E+03 -0.27380524459E+03  0.10559592260E+04  0.89435744099E+03 0.  0.
         23    2    4    4    0    0  0.23352997467E+03  0.70119314900E+03 -0.15929701964E+03  0.76150693922E+03  0.91154795494E+02 0.  0.
         23    2    4    4    0    0 -0.34774958302E+02 -0.25319561972E+03 -0.11450822495E+03  0.29445228679E+03  0.90954362416E+02 0.  0.
          3    1    3    3  502    0 -0.12883302193E+03 -0.29508571730E+03 -0.99978629863E+02  0.33714871277E+03  0.00000000000E+00 0. -1.
         -4    1    3    3    0  502 -0.69921994437E+02 -0.15291181198E+03  0.66622621264E+01  0.16827208112E+03  0.00000000000E+00 0.  1.
         13    1    5    5    0    0  0.48901693007E+01  0.11936116488E+03 -0.22192856393E+02  0.12150524397E+03  0.00000000000E+00 0.  1.
        -13    1    5    5    0    0  0.22863980536E+03  0.58183198411E+03 -0.13710416324E+03  0.64000169524E+03  0.00000000000E+00 0. -1.
          1    1    6    6  503    0 -0.46423879745E+02 -0.19001572261E+03 -0.12080094367E+03  0.22990002053E+03  0.00000000000E+00 0. -1.
         -1    1    6    6    0  503  0.11648921442E+02 -0.63179897114E+02  0.62927187191E+01  0.64552266257E+02  0.00000000000E+00 0.  1.
<mgrwt>
<rscale>  0 0.15176064E+04</rscale>
<asrwt>0</asrwt>
<pdfrwt beam="1">  1        1 0.91866032E-01 0.15176064E+04</pdfrwt>
<pdfrwt beam="2">  1       -2 0.14834628E+00 0.15176064E+04</pdfrwt>
<totfact> 0.89891352E+00</totfact>
</mgrwt>
</event>
<event>
12    5  0.5428626E-008  0.1502839E+04  0.7818608E-02  0.8882567E-01
          3   -1    0    0  501    0  0.00000000000E+00  0.00000000000E+00  0.42215122345E+03  0.42215122345E+03  0.00000000000E+00 0. -1.
         -4   -1    0    0    0  501 -0.00000000000E+00 -0.00000000000E+00 -0.13375096535E+04  0.13375096535E+04  0.00000000000E+00 0.  1.
        -24    2    1    2    0    0 -0.21159538699E+03 -0.49710614126E+03 -0.46918124503E+03  0.71856535384E+03  0.65711517823E+02 0.  0.
        254    2    1    2    0    0  0.21159538699E+03  0.49710614126E+03 -0.44617718500E+03  0.10410955231E+04  0.77001213258E+03 0.  0.
         23    2    4    4    0    0  0.31841939590E+03  0.40632632452E+03 -0.61184285321E+03  0.80557492520E+03  0.90040487569E+02 0.  0.
         23    2    4    4    0    0 -0.10682400890E+03  0.90779816736E+02  0.16566566821E+03  0.23552059789E+03  0.91501335529E+02 0.  0.
          3    1    3    3  502    0 -0.55760451851E+02 -0.16779077664E+03 -0.11823138826E+03  0.21270080838E+03  0.00000000000E+00 0. -1.
         -4    1    3    3    0  502 -0.15583493514E+03 -0.32931536462E+03 -0.35094985676E+03  0.50586454545E+03  0.00000000000E+00 0.  1.
         13    1    5    5    0    0  0.24246232378E+03  0.30800663188E+03 -0.51938559778E+03  0.65070535799E+03  0.00000000000E+00 0. -1.
        -13    1    5    5    0    0  0.75957072118E+02  0.98319692646E+02 -0.92457255432E+02  0.15486956721E+03  0.00000000000E+00 0.  1.
          2    1    6    6  503    0 -0.82037366176E+02  0.65286888443E+02  0.16996889429E+03  0.19970461256E+03  0.00000000000E+00 0. -1.
         -2    1    6    6    0  503 -0.24786642727E+02  0.25492928293E+02 -0.43032260798E+01  0.35815985332E+02  0.00000000000E+00 0.  1.
<mgrwt>
<rscale>  0 0.15028391E+04</rscale>
<asrwt>0</asrwt>
<pdfrwt beam="1">  1        3 0.64946343E-01 0.15028391E+04</pdfrwt>
<pdfrwt beam="2">  1       -4 0.20577071E+00 0.15028391E+04</pdfrwt>
<totfact> 0.61136925E-01</totfact>
</mgrwt>
</event>
<event>
12    5  0.5428626E-008  0.1759817E+04  0.7818608E-02  0.8727965E-01
          1   -1    0    0  501    0  0.00000000000E+00  0.00000000000E+00  0.65040715683E+03  0.65040715683E+03  0.00000000000E+00 0. -1.
         -2   -1    0    0    0  501 -0.00000000000E+00 -0.00000000000E+00 -0.11903918693E+04  0.11903918693E+04  0.00000000000E+00 0.  1.
        -24    2    1    2    0    0 -0.40758948461E+03 -0.32414438528E+03  0.29052417667E+03  0.60279058503E+03  0.88053516118E+02 0.  0.
        254    2    1    2    0    0  0.40758948461E+03  0.32414438528E+03 -0.83050888911E+03  0.12380084411E+04  0.75612242052E+03 0.  0.
         23    2    4    4    0    0  0.21219353346E+03  0.37750724202E+03 -0.72384106204E+02  0.44788137446E+03  0.88433327047E+02 0.  0.
         23    2    4    4    0    0  0.19539595114E+03 -0.53362856743E+02 -0.75812478290E+03  0.79012706661E+03  0.92306135977E+02 0.  0.
          3    1    3    3  502    0 -0.31763086628E+03 -0.26379132124E+03  0.18812555243E+03  0.45372508400E+03  0.00000000000E+00 0. -1.
         -4    1    3    3    0  502 -0.89958618327E+02 -0.60353064036E+02  0.10239862424E+03  0.14906550103E+03  0.00000000000E+00 0.  1.
         13    1    5    5    0    0  0.10292093853E+03  0.26001551545E+03 -0.65870957230E+02  0.28729735618E+03  0.00000000000E+00 0. -1.
        -13    1    5    5    0    0  0.10927259493E+03  0.11749172657E+03 -0.65131489741E+01  0.16058401828E+03  0.00000000000E+00 0.  1.
          3    1    6    6  503    0  0.20003362995E+03 -0.61793461620E+02 -0.68241170118E+03  0.71380502585E+03  0.00000000000E+00 0. -1.
         -3    1    6    6    0  503 -0.46376788083E+01  0.84306048767E+01 -0.75713081722E+02  0.76322040769E+02  0.00000000000E+00 0.  1.
<mgrwt>
<rscale>  0 0.17598175E+04</rscale>
<asrwt>0</asrwt>
<pdfrwt beam="1">  1        1 0.10006264E+00 0.17598175E+04</pdfrwt>
<pdfrwt beam="2">  1       -2 0.18313721E+00 0.17598175E+04</pdfrwt>
<totfact> 0.43487162E+00</totfact>
</mgrwt>
</event>
<event>
12    5  0.5428626E-008  0.1292359E+04  0.7818608E-02  0.9035647E-01
         -2   -1    0    0    0  501 -0.00000000000E+00  0.00000000000E+00  0.34212814089E+03  0.34212814089E+03  0.00000000000E+00 0.  1.
          1   -1    0    0  501    0  0.00000000000E+00 -0.00000000000E+00 -0.12204426917E+04  0.12204426917E+04  0.00000000000E+00 0. -1.
        -24    2    1    2    0    0  0.31817166395E+03 -0.50831716797E+02 -0.12236661741E+03  0.35361613682E+03  0.79080414698E+02 0.  0.
        254    2    1    2    0    0 -0.31817166395E+03  0.50831716797E+02 -0.75594793336E+03  0.12089546957E+04  0.88673395514E+03 0.  0.
         23    2    4    4    0    0 -0.51576040939E+03  0.28620912497E+03 -0.35370201138E+03  0.69385844904E+03  0.91705895922E+02 0.  0.
         23    2    4    4    0    0  0.19758874544E+03 -0.23537740817E+03 -0.40224592198E+03  0.51509624668E+03  0.95281294043E+02 0.  0.
          1    1    3    3  502    0  0.47229644804E+02  0.20174653169E+02 -0.24657918370E+02  0.56970772482E+02  0.00000000000E+00 0. -1.
         -2    1    3    3    0  502  0.27094201914E+03 -0.71006369966E+02 -0.97708699045E+02  0.29664536434E+03  0.00000000000E+00 0.  1.
         13    1    5    5    0    0 -0.51303057414E+03  0.27007258297E+03 -0.34946523956E+03  0.67695311783E+03  0.00000000000E+00 0.  1.
        -13    1    5    5    0    0 -0.27298352490E+01  0.16136541996E+02 -0.42367718209E+01  0.16905331217E+02  0.00000000000E+00 0. -1.
          1    1    6    6  503    0  0.40800931498E+02 -0.11515732290E+03 -0.12638431728E+03  0.17578088828E+03  0.00000000000E+00 0. -1.
         -1    1    6    6    0  503  0.15678781394E+03 -0.12022008527E+03 -0.27586160469E+03  0.33931535840E+03  0.00000000000E+00 0.  1.
<mgrwt>
<rscale>  0 0.12923588E+04</rscale>
<asrwt>0</asrwt>
<pdfrwt beam="1">  1        1 0.18776041E+00 0.12923588E+04</pdfrwt>
<pdfrwt beam="2">  1       -2 0.52635099E-01 0.12923588E+04</pdfrwt>
<totfact> 0.30313728E+01</totfact>
</mgrwt>
</event>
<event>
12    5  0.5428626E-008  0.1348363E+04  0.7818608E-02  0.8992069E-01
          1   -1    0    0  501    0  0.00000000000E+00  0.00000000000E+00  0.24223273500E+04  0.24223273500E+04  0.00000000000E+00 0. -1.
         -2   -1    0    0    0  501 -0.00000000000E+00 -0.00000000000E+00 -0.18763790416E+03  0.18763790416E+03  0.00000000000E+00 0.  1.
        -24    2    1    2    0    0  0.26829753418E+03 -0.19718393535E+03  0.72287091915E+03  0.79986789711E+03  0.79882512831E+02 0.  0.
        254    2    1    2    0    0 -0.26829753418E+03  0.19718393535E+03  0.15118185267E+04  0.18100973571E+04  0.93807894827E+03 0.  0.
         23    2    4    4    0    0  0.18721665409E+03  0.14597014137E+03  0.29936505718E+02  0.25623768671E+03  0.91674423774E+02 0.  0.
         23    2    4    4    0    0 -0.45551418826E+03  0.51213793974E+02  0.14818820210E+04  0.15538596704E+04  0.91594337430E+02 0.  0.
          1    1    3    3  502    0  0.20608189204E+03 -0.16431446646E+03  0.63334518361E+03  0.68599935256E+03  0.00000000000E+00 0. -1.
         -2    1    3    3    0  502  0.62215642136E+02 -0.32869468891E+02  0.89525735544E+02  0.11386854454E+03  0.00000000000E+00 0.  1.
         13    1    5    5    0    0  0.42196771409E+02  0.67621765295E+02  0.43579767487E+02  0.90843088858E+02  0.00000000000E+00 0. -1.
        -13    1    5    5    0    0  0.14501988268E+03  0.78348376079E+02 -0.13643261770E+02  0.16539459785E+03  0.00000000000E+00 0.  1.
          3    1    6    6  503    0 -0.11045593132E+03 -0.17535483848E+02  0.44804537780E+03  0.46179288272E+03  0.00000000000E+00 0. -1.
         -3    1    6    6    0  503 -0.34505825695E+03  0.68749277822E+02  0.10338366432E+04  0.10920667876E+04  0.00000000000E+00 0.  1.
<mgrwt>
<rscale>  0 0.13483626E+04</rscale>
<asrwt>0</asrwt>
<pdfrwt beam="1">  1        1 0.37266572E+00 0.13483626E+04</pdfrwt>
<pdfrwt beam="2">  1       -2 0.28867372E-01 0.13483626E+04</pdfrwt>
<totfact> 0.14569500E+01</totfact>
</mgrwt>
</event>
<event>
12    5  0.5428626E-008  0.1882035E+04  0.7818608E-02  0.8663851E-01
         -2   -1    0    0    0  501 -0.00000000000E+00  0.00000000000E+00  0.42248128625E+03  0.42248128625E+03  0.00000000000E+00 0.  1.
          1   -1    0    0  501    0  0.00000000000E+00 -0.00000000000E+00 -0.20959838437E+04  0.20959838437E+04  0.00000000000E+00 0. -1.
        -24    2    1    2    0    0 -0.35769227254E+02  0.49012495412E+02  0.28674412705E+03  0.30382028700E+03  0.80018185885E+02 0.  0.
        254    2    1    2    0    0  0.35769227254E+02 -0.49012495412E+02 -0.19602466845E+04  0.22146448430E+04  0.10287871762E+04 0.  0.
         23    2    4    4    0    0 -0.36616147293E+03 -0.34044793006E+03 -0.78429438658E+03  0.93458065696E+03  0.91347152178E+02 0.  0.
         23    2    4    4    0    0  0.40193070018E+03  0.29143543465E+03 -0.11759522979E+04  0.12800641860E+04  0.96008400456E+02 0.  0.
          1    1    3    3  502    0  0.14050783328E+02  0.38589750023E+02  0.69800598926E+02  0.80985905746E+02  0.00000000000E+00 0. -1.
         -2    1    3    3    0  502 -0.49820010582E+02  0.10422745389E+02  0.21694352812E+03  0.22283438125E+03  0.00000000000E+00 0.  1.
         13    1    5    5    0    0 -0.12484428897E+03 -0.17130715930E+03 -0.36499205490E+03  0.42207989701E+03  0.00000000000E+00 0.  1.
        -13    1    5    5    0    0 -0.24131718395E+03 -0.16914077077E+03 -0.41930233168E+03  0.51250075996E+03  0.00000000000E+00 0. -1.
          1    1    6    6  503    0  0.30882800426E+03  0.24726120007E+03 -0.10100171474E+04  0.10847338269E+04  0.00000000000E+00 0. -1.
         -1    1    6    6    0  503  0.93102695924E+02  0.44174234577E+02 -0.16593515056E+03  0.19533035908E+03  0.00000000000E+00 0.  1.
<mgrwt>
<rscale>  0 0.18820350E+04</rscale>
<asrwt>0</asrwt>
<pdfrwt beam="1">  1        1 0.32245906E+00 0.18820350E+04</pdfrwt>
<pdfrwt beam="2">  1       -2 0.64997121E-01 0.18820350E+04</pdfrwt>
<totfact> 0.46082339E+00</totfact>
</mgrwt>
</event>
<event>
12    5  0.5428626E-008  0.2406011E+04  0.7818608E-02  0.8437257E-01
          1   -1    0    0  501    0  0.00000000000E+00  0.00000000000E+00  0.17890973822E+04  0.17890973822E+04  0.00000000000E+00 0. -1.
         -2   -1    0    0    0  501 -0.00000000000E+00 -0.00000000000E+00 -0.80891172068E+03  0.80891172068E+03  0.00000000000E+00 0.  1.
        -24    2    1    2    0    0  0.29214336668E+03  0.97188422199E+03  0.67341082318E+03  0.12205398721E+04  0.79553471645E+02 0.  0.
        254    2    1    2    0    0 -0.29214336668E+03 -0.97188422199E+03  0.30677483830E+03  0.13774692308E+04  0.87943390467E+03 0.  0.
         23    2    4    4    0    0  0.21898594866E+03 -0.71150780611E+03  0.81193981934E+02  0.75539594337E+03  0.99158281010E+02 0.  0.
         23    2    4    4    0    0 -0.51112931534E+03 -0.26037641588E+03  0.22558085636E+03  0.62207328741E+03  0.83901115626E+02 0.  0.
          1    1    3    3  502    0  0.24478642274E+03  0.73003399037E+03  0.48090210936E+03  0.90781983821E+03  0.00000000000E+00 0. -1.
         -2    1    3    3    0  502  0.47356943946E+02  0.24185023162E+03  0.19250871382E+03  0.31272003385E+03  0.00000000000E+00 0.  1.
         13    1    5    5    0    0  0.36024386644E+02 -0.27219159842E+03  0.15647382401E+02  0.27501066026E+03  0.00000000000E+00 0.  1.
        -13    1    5    5    0    0  0.18296156202E+03 -0.43931620769E+03  0.65546599532E+02  0.48038528311E+03  0.00000000000E+00 0. -1.
          1    1    6    6  503    0 -0.40007297377E+03 -0.18360873534E+03  0.13870430867E+03  0.46152945440E+03  0.00000000000E+00 0. -1.
         -1    1    6    6    0  503 -0.11105634157E+03 -0.76767680536E+02  0.86876547694E+02  0.16054383301E+03  0.00000000000E+00 0.  1.
<mgrwt>
<rscale>  0 0.24060107E+04</rscale>
<asrwt>0</asrwt>
<pdfrwt beam="1">  1        1 0.27524575E+00 0.24060107E+04</pdfrwt>
<pdfrwt beam="2">  1       -2 0.12444796E+00 0.24060107E+04</pdfrwt>
<totfact> 0.15808636E+00</totfact>
</mgrwt>
</event>
<event>
12    5  0.5428626E-008  0.1565156E+04  0.7818608E-02  0.8842244E-01
          1   -1    0    0  501    0  0.00000000000E+00  0.00000000000E+00  0.11075980371E+04  0.11075980371E+04  0.00000000000E+00 0. -1.
         -2   -1    0    0    0  501 -0.00000000000E+00 -0.00000000000E+00 -0.55293401076E+03  0.55293401076E+03  0.00000000000E+00 0.  1.
        -24    2    1    2    0    0  0.19306439986E+03  0.48129688618E+03  0.24131496893E+03  0.57756471458E+03  0.80171878835E+02 0.  0.
        254    2    1    2    0    0 -0.19306439986E+03 -0.48129688618E+03  0.31334905743E+03  0.10829673333E+04  0.89761353492E+03 0.  0.
         23    2    4    4    0    0 -0.12122024655E+03 -0.30963977501E+03  0.62196821003E+03  0.71123678917E+03  0.91881323093E+02 0.  0.
         23    2    4    4    0    0 -0.71844153313E+02 -0.17165711117E+03 -0.30861915261E+03  0.37173054413E+03  0.91159584838E+02 0.  0.
          3    1    3    3  502    0  0.14407270311E+03  0.31582173582E+03  0.19802548211E+03  0.39964284575E+03  0.00000000000E+00 0. -1.
         -4    1    3    3    0  502  0.48991696755E+02  0.16547515036E+03  0.43289486824E+02  0.17792186882E+03  0.00000000000E+00 0.  1.
         13    1    5    5    0    0 -0.70863997368E+02 -0.22170558876E+03  0.34373110195E+03  0.41512184315E+03  0.00000000000E+00 0.  1.
        -13    1    5    5    0    0 -0.50356249181E+02 -0.87934186255E+02  0.27823710808E+03  0.29611494602E+03  0.00000000000E+00 0. -1.
          3    1    6    6  503    0 -0.29220256484E+02 -0.12591034235E+03 -0.13366837096E+03  0.18594211760E+03  0.00000000000E+00 0. -1.
         -3    1    6    6    0  503 -0.42623896830E+02 -0.45746768812E+02 -0.17495078164E+03  0.18578842653E+03  0.00000000000E+00 0.  1.
<mgrwt>
<rscale>  0 0.15651564E+04</rscale>
<asrwt>0</asrwt>
<pdfrwt beam="1">  1        1 0.17039970E+00 0.15651564E+04</pdfrwt>
<pdfrwt beam="2">  1       -2 0.85066771E-01 0.15651564E+04</pdfrwt>
<totfact> 0.12699453E+01</totfact>
</mgrwt>
</event>
<event>
12    5  0.5428626E-008  0.2115288E+04  0.7818608E-02  0.8554539E-01
         -2   -1    0    0    0  501 -0.00000000000E+00  0.00000000000E+00  0.51705223712E+03  0.51705223712E+03  0.00000000000E+00 0.  1.
          1   -1    0    0  501    0  0.00000000000E+00 -0.00000000000E+00 -0.21634378411E+04  0.21634378411E+04  0.00000000000E+00 0. -1.
        -24    2    1    2    0    0  0.59511557954E+03  0.30228847625E+03 -0.13758280861E+04  0.15312359703E+04  0.78992393070E+02 0.  0.
        254    2    1    2    0    0 -0.59511557954E+03 -0.30228847625E+03 -0.27055751786E+03  0.11492541080E+04  0.89556839957E+03 0.  0.
         23    2    4    4    0    0 -0.20305210243E+03  0.31129911865E+03 -0.94164805311E+02  0.39442596696E+03  0.92560981409E+02 0.  0.
         23    2    4    4    0    0 -0.39206347712E+03 -0.61358759490E+03 -0.17639271255E+03  0.75482814100E+03  0.91910971635E+02 0.  0.
          3    1    3    3  502    0  0.51609051369E+03  0.27376315557E+03 -0.11416562355E+04  0.12824486905E+04  0.00000000000E+00 0. -1.
         -4    1    3    3    0  502  0.79025065852E+02  0.28525320675E+02 -0.23417185065E+03  0.24878727980E+03  0.00000000000E+00 0.  1.
         13    1    5    5    0    0 -0.14198214165E+03  0.16146242030E+03 -0.88534304180E+02  0.23252390142E+03  0.00000000000E+00 0. -1.
        -13    1    5    5    0    0 -0.61069960780E+02  0.14983669835E+03 -0.56305011311E+01  0.16190206554E+03  0.00000000000E+00 0.  1.
          3    1    6    6  503    0 -0.17415108989E+03 -0.19136821901E+03 -0.66142423010E+02  0.26706781438E+03  0.00000000000E+00 0.  1.
         -3    1    6    6    0  503 -0.21791238723E+03 -0.42221937589E+03 -0.11025028954E+03  0.48776032662E+03  0.00000000000E+00 0. -1.
<mgrwt>
<rscale>  0 0.21152876E+04</rscale>
<asrwt>0</asrwt>
<pdfrwt beam="1">  1        1 0.33283658E+00 0.21152876E+04</pdfrwt>
<pdfrwt beam="2">  1       -2 0.79546500E-01 0.21152876E+04</pdfrwt>
<totfact> 0.26062715E+00</totfact>
</mgrwt>
</event>
<event>
12    5  0.5428626E-008  0.1463095E+04  0.7818608E-02  0.8909372E-01
         -2   -1    0    0    0  501 -0.00000000000E+00  0.00000000000E+00  0.14045955904E+04  0.14045955904E+04  0.00000000000E+00 0.  1.
          1   -1    0    0  501    0  0.00000000000E+00 -0.00000000000E+00 -0.38100756842E+03  0.38100756842E+03  0.00000000000E+00 0. -1.
        -24    2    1    2    0    0 -0.17415257204E+03 -0.13577294009E+03 -0.16574826167E+03  0.28770010773E+03  0.80842168044E+02 0.  0.
        254    2    1    2    0    0  0.17415257204E+03  0.13577294009E+03  0.11893362836E+04  0.14979030511E+04  0.88341912209E+03 0.  0.
         23    2    4    4    0    0 -0.31969622061E+02  0.35734242566E+03  0.11121391103E+04  0.11723759906E+04  0.94320711762E+02 0.  0.
         23    2    4    4    0    0  0.20612219410E+03 -0.22156948558E+03  0.77197173297E+02  0.32552706049E+03  0.91809954291E+02 0.  0.
          1    1    3    3  502    0 -0.84664950000E+02 -0.16969726272E+02 -0.64345196330E+02  0.10768671998E+03  0.00000000000E+00 0. -1.
         -2    1    3    3    0  502 -0.89487622038E+02 -0.11880321382E+03 -0.10140306534E+03  0.18001338775E+03  0.00000000000E+00 0.  1.
         13    1    5    5    0    0 -0.23685559069E+02  0.17740978557E+03  0.70141655417E+03  0.72389254741E+03  0.00000000000E+00 0. -1.
        -13    1    5    5    0    0 -0.82840629928E+01  0.17993264009E+03  0.41072255615E+03  0.44848344318E+03  0.00000000000E+00 0.  1.
          2    1    6    6  503    0  0.14840984089E+03 -0.11656665657E+03  0.11942785403E+02  0.18909229603E+03  0.00000000000E+00 0. -1.
         -2    1    6    6    0  503  0.57712353212E+02 -0.10500282901E+03  0.65254387895E+02  0.13643476446E+03  0.00000000000E+00 0.  1.
<mgrwt>
<rscale>  0 0.14630947E+04</rscale>
<asrwt>0</asrwt>
<pdfrwt beam="1">  1        1 0.58616550E-01 0.14630947E+04</pdfrwt>
<pdfrwt beam="2">  1       -2 0.21609163E+00 0.14630947E+04</pdfrwt>
<totfact> 0.56763738E+00</totfact>
</mgrwt>
</event>
<event>
12    5  0.5428626E-008  0.1397848E+04  0.7818608E-02  0.8955378E-01
         -2   -1    0    0    0  501 -0.00000000000E+00  0.00000000000E+00  0.63429666467E+03  0.63429666467E+03  0.00000000000E+00 0.  1.
          1   -1    0    0  501    0  0.00000000000E+00 -0.00000000000E+00 -0.77013557465E+03  0.77013557465E+03  0.00000000000E+00 0. -1.
        -24    2    1    2    0    0 -0.19577450197E+03  0.34115645743E+03 -0.14347905355E+03  0.42329811527E+03  0.62287009236E+02 0.  0.
        254    2    1    2    0    0  0.19577450197E+03 -0.34115645743E+03  0.76401435782E+01  0.98113412405E+03  0.89880499193E+03 0.  0.
         23    2    4    4    0    0 -0.11946916298E+03 -0.50861761835E+03  0.20049812876E+03  0.56668682831E+03  0.89273171493E+02 0.  0.
         23    2    4    4    0    0  0.31524366495E+03  0.16746116092E+03 -0.19285798518E+03  0.41444729574E+03  0.84560923517E+02 0.  0.
          1    1    3    3  502    0 -0.17013966170E+03  0.29498415493E+03 -0.14580605556E+03  0.37043563811E+03  0.00000000000E+00 0. -1.
         -2    1    3    3    0  502 -0.25634840263E+02  0.46172302499E+02  0.23270020080E+01  0.52862477162E+02  0.00000000000E+00 0.  1.
         13    1    5    5    0    0 -0.10910531498E+03 -0.45930050404E+03  0.14998553648E+03  0.49533482002E+03  0.00000000000E+00 0. -1.
        -13    1    5    5    0    0 -0.10363848007E+02 -0.49317114308E+02  0.50512592276E+02  0.71352008294E+02  0.00000000000E+00 0.  1.
          3    1    6    6  503    0  0.56311105919E+02  0.27746666603E+02 -0.74217924601E+02  0.97206576370E+02  0.00000000000E+00 0.  1.
         -3    1    6    6    0  503  0.25893255903E+03  0.13971449432E+03 -0.11864006058E+03  0.31724071937E+03  0.00000000000E+00 0. -1.
<mgrwt>
<rscale>  0 0.13978475E+04</rscale>
<asrwt>0</asrwt>
<pdfrwt beam="1">  1        1 0.11848240E+00 0.13978475E+04</pdfrwt>
<pdfrwt beam="2">  1       -2 0.97584103E-01 0.13978475E+04</pdfrwt>
<totfact> 0.17563599E+01</totfact>
</mgrwt>
</event>
<event>
12    5  0.5428626E-008  0.1126217E+04  0.7818608E-02  0.9180009E-01
          1   -1    0    0  501    0  0.00000000000E+00  0.00000000000E+00  0.41222041221E+03  0.41222041221E+03  0.00000000000E+00 0. -1.
         -2   -1    0    0    0  501 -0.00000000000E+00 -0.00000000000E+00 -0.76922694423E+03  0.76922694423E+03  0.00000000000E+00 0.  1.
        -24    2    1    2    0    0 -0.46124803969E+02  0.54556334222E+02  0.12090254232E+03  0.16182170258E+03  0.80404897487E+02 0.  0.
        254    2    1    2    0    0  0.46124803969E+02 -0.54556334222E+02 -0.47790907434E+03  0.10196256539E+04  0.89785048841E+03 0.  0.
         23    2    4    4    0    0 -0.25834366072E+03  0.19590527705E+03  0.64437994734E+02  0.34303714166E+03  0.91661882926E+02 0.  0.
         23    2    4    4    0    0  0.30446846469E+03 -0.25046161127E+03 -0.54234706907E+03  0.67658851220E+03  0.90551680241E+02 0.  0.
          1    1    3    3  502    0 -0.55647645977E+02  0.54880457355E+02  0.12797613879E+03  0.14995471717E+03  0.00000000000E+00 0. -1.
         -2    1    3    3    0  502  0.95228420087E+01 -0.32412313255E+00 -0.70735964647E+01  0.11866985408E+02  0.00000000000E+00 0.  1.
         13    1    5    5    0    0 -0.17877716697E+03  0.18035293391E+03  0.64320506998E+02  0.26196485227E+03  0.00000000000E+00 0. -1.
        -13    1    5    5    0    0 -0.79566493750E+02  0.15552343141E+02  0.11748773572E+00  0.81072289397E+02  0.00000000000E+00 0.  1.
          3    1    6    6  503    0  0.12946768034E+03 -0.14020512146E+03 -0.32252023230E+03  0.37475145974E+03  0.00000000000E+00 0. -1.
         -3    1    6    6    0  503  0.17500078436E+03 -0.11025648982E+03 -0.21982683678E+03  0.30183705246E+03  0.00000000000E+00 0.  1.
<mgrwt>
<rscale>  0 0.11262168E+04</rscale>
<asrwt>0</asrwt>
<pdfrwt beam="1">  1        1 0.63418525E-01 0.11262168E+04</pdfrwt>
<pdfrwt beam="2">  1       -2 0.11834261E+00 0.11262168E+04</pdfrwt>
<totfact> 0.27523482E+01</totfact>
</mgrwt>
</event>
<event>
12    5  0.5428626E-008  0.1549139E+04  0.7818608E-02  0.8852418E-01
         -2   -1    0    0    0  501 -0.00000000000E+00  0.00000000000E+00  0.58141744996E+03  0.58141744996E+03  0.00000000000E+00 0.  1.
          1   -1    0    0  501    0  0.00000000000E+00 -0.00000000000E+00 -0.10318885656E+04  0.10318885656E+04  0.00000000000E+00 0. -1.
        -24    2    1    2    0    0 -0.25165875583E+03 -0.24974742375E+03  0.22787808323E+03  0.42951464919E+03  0.82755712773E+02 0.  0.
        254    2    1    2    0    0  0.25165875583E+03  0.24974742375E+03 -0.67834919887E+03  0.11837913664E+04  0.90304953267E+03 0.  0.
         23    2    4    4    0    0 -0.19861213748E+03  0.42475301428E+03 -0.36759110967E+03  0.60236547887E+03  0.88651237609E+02 0.  0.
         23    2    4    4    0    0  0.45027089330E+03 -0.17500559054E+03 -0.31075808920E+03  0.58142588751E+03  0.90081288781E+02 0.  0.
          1    1    3    3  502    0 -0.27404821582E+02 -0.12857890590E+02 -0.21790090236E+01  0.30349591047E+02  0.00000000000E+00 0. -1.
         -4    1    3    3    0  502 -0.22425393424E+03 -0.23688953316E+03  0.23005709225E+03  0.39916505814E+03  0.00000000000E+00 0.  1.
         13    1    5    5    0    0 -0.10754406755E+03  0.31715611495E+03 -0.23763260619E+03  0.41063728915E+03  0.00000000000E+00 0. -1.
        -13    1    5    5    0    0 -0.91068069929E+02  0.10759689933E+03 -0.12995850349E+03  0.19172818972E+03  0.00000000000E+00 0.  1.
          1    1    6    6  503    0  0.37667873508E+03 -0.16986333353E+03 -0.23356547194E+03  0.47465066230E+03  0.00000000000E+00 0. -1.
         -1    1    6    6    0  503  0.73592158217E+02 -0.51422570067E+01 -0.77192617260E+02  0.10677522521E+03  0.00000000000E+00 0.  1.
<mgrwt>
<rscale>  0 0.15491391E+04</rscale>
<asrwt>0</asrwt>
<pdfrwt beam="1">  1        1 0.15875209E+00 0.15491391E+04</pdfrwt>
<pdfrwt beam="2">  1       -2 0.89448839E-01 0.15491391E+04</pdfrwt>
<totfact> 0.12940701E+01</totfact>
</mgrwt>
</event>
<event>
12    5  0.5428626E-008  0.1235033E+04  0.7818608E-02  0.9082733E-01
         -4   -1    0    0    0  501 -0.00000000000E+00  0.00000000000E+00  0.24867662848E+03  0.24867662848E+03  0.00000000000E+00 0.  1.
          1   -1    0    0  501    0  0.00000000000E+00 -0.00000000000E+00 -0.15334235301E+04  0.15334235301E+04  0.00000000000E+00 0. -1.
        -24    2    1    2    0    0  0.14810116685E+03  0.16886722743E+02 -0.67268729020E+03  0.69351836046E+03  0.78996258607E+02 0.  0.
        254    2    1    2    0    0 -0.14810116685E+03 -0.16886722743E+02 -0.61205961141E+03  0.10885817981E+04  0.88779178089E+03 0.  0.
         23    2    4    4    0    0  0.23463755209E+03  0.95346608369E+02 -0.62371898496E+03  0.67925538753E+03  0.90646305582E+02 0.  0.
         23    2    4    4    0    0 -0.38273871894E+03 -0.11223333111E+03  0.11659373548E+02  0.40932641057E+03  0.91251968797E+02 0.  0.
          3    1    3    3  502    0  0.10191600236E+03  0.43562682722E+02 -0.52293089511E+03  0.53454775270E+03  0.00000000000E+00 0. -1.
         -4    1    3    3    0  502  0.46185164493E+02 -0.26675959978E+02 -0.14975639509E+03  0.15897060776E+03  0.00000000000E+00 0.  1.
         13    1    5    5    0    0  0.44265182293E+02 -0.76669887554E+01 -0.56797160908E+02  0.72416203761E+02  0.00000000000E+00 0. -1.
        -13    1    5    5    0    0  0.19037236980E+03  0.10301359712E+03 -0.56692182405E+03  0.60683918377E+03  0.00000000000E+00 0.  1.
          2    1    6    6  503    0 -0.11140827247E+03 -0.17630363799E+02 -0.35246467675E+02  0.11817337426E+03  0.00000000000E+00 0. -1.
         -2    1    6    6    0  503 -0.27133044648E+03 -0.94602967314E+02  0.46905841223E+02  0.29115303631E+03  0.00000000000E+00 0.  1.
<mgrwt>
<rscale>  0 0.12350329E+04</rscale>
<asrwt>0</asrwt>
<pdfrwt beam="1">  1        1 0.23591132E+00 0.12350329E+04</pdfrwt>
<pdfrwt beam="2">  1       -4 0.38257942E-01 0.12350329E+04</pdfrwt>
<totfact> 0.20122867E+01</totfact>
</mgrwt>
</event>
<event>
12    5  0.5428626E-008  0.1496918E+04  0.7818608E-02  0.8886505E-01
          1   -1    0    0  501    0  0.00000000000E+00  0.00000000000E+00  0.22523463220E+04  0.22523463220E+04  0.00000000000E+00 0. -1.
         -2   -1    0    0    0  501 -0.00000000000E+00 -0.00000000000E+00 -0.24871428026E+03  0.24871428026E+03  0.00000000000E+00 0.  1.
        -24    2    1    2    0    0 -0.18005000257E+03 -0.37270608943E+03  0.76425767411E+03  0.87274920800E+03  0.79205776980E+02 0.  0.
        254    2    1    2    0    0  0.18005000257E+03  0.37270608943E+03  0.12393743677E+04  0.16283113943E+04  0.97160760653E+03 0.  0.
         23    2    4    4    0    0  0.24568121296E+03  0.28176842558E+03  0.13766008793E+04  0.14292827983E+04  0.89814434038E+02 0.  0.
         23    2    4    4    0    0 -0.65631210392E+02  0.90937663853E+02 -0.13722651165E+03  0.19902859599E+03  0.90576774264E+02 0.  0.
          3    1    3    3  502    0 -0.11160752349E+03 -0.18368910703E+03  0.46458124526E+03  0.51189223552E+03  0.00000000000E+00 0. -1.
         -4    1    3    3    0  502 -0.68442479082E+02 -0.18901698240E+03  0.29967642884E+03  0.36085697247E+03  0.00000000000E+00 0.  1.
         13    1    5    5    0    0  0.10543427325E+03  0.17943346567E+03  0.66477377110E+03  0.69658949269E+03  0.00000000000E+00 0.  1.
        -13    1    5    5    0    0  0.14024693971E+03  0.10233495991E+03  0.71182710821E+03  0.73269330562E+03  0.00000000000E+00 0. -1.
          3    1    6    6  503    0 -0.11445003498E+02 -0.14879113883E+02 -0.18515225291E+01  0.18862774734E+02  0.00000000000E+00 0. -1.
         -3    1    6    6    0  503 -0.54186206894E+02  0.10581677774E+03 -0.13537498912E+03  0.18016582125E+03  0.00000000000E+00 0.  1.
<mgrwt>
<rscale>  0 0.14969178E+04</rscale>
<asrwt>0</asrwt>
<pdfrwt beam="1">  1        1 0.34651480E+00 0.14969178E+04</pdfrwt>
<pdfrwt beam="2">  1       -2 0.38263737E-01 0.14969178E+04</pdfrwt>
<totfact> 0.11009709E+01</totfact>
</mgrwt>
</event>
<event>
12    5  0.5428626E-008  0.1471196E+04  0.7818608E-02  0.8903836E-01
          1   -1    0    0  501    0  0.00000000000E+00  0.00000000000E+00  0.40752889518E+03  0.40752889518E+03  0.00000000000E+00 0. -1.
         -2   -1    0    0    0  501 -0.00000000000E+00 -0.00000000000E+00 -0.13277699131E+04  0.13277699131E+04  0.00000000000E+00 0.  1.
        -24    2    1    2    0    0 -0.38814048671E+03 -0.23946678811E+03 -0.32006891496E+03  0.56303613290E+03  0.81044411308E+02 0.  0.
        254    2    1    2    0    0  0.38814048671E+03  0.23946678811E+03 -0.60017210299E+03  0.11722626754E+04  0.89777271452E+03 0.  0.
         23    2    4    4    0    0  0.16113224606E+01  0.40959789148E+03 -0.60995266361E+03  0.74026237546E+03  0.90405218940E+02 0.  0.
         23    2    4    4    0    0  0.38652916425E+03 -0.17013110338E+03  0.97805606185E+01  0.43200029995E+03  0.90438999570E+02 0.  0.
          1    1    3    3  502    0 -0.37164042400E+03 -0.20732515746E+03 -0.28178020349E+03  0.51039240662E+03  0.00000000000E+00 0. -1.
         -2    1    3    3    0  502 -0.16500062711E+02 -0.32141630652E+02 -0.38288711473E+02  0.52643726280E+02  0.00000000000E+00 0.  1.
         13    1    5    5    0    0  0.19271091479E+02  0.38100475124E+03 -0.58502380737E+03  0.69841882179E+03  0.00000000000E+00 0. -1.
        -13    1    5    5    0    0 -0.17659769018E+02  0.28593140244E+02 -0.24928856236E+02  0.41843553673E+02  0.00000000000E+00 0.  1.
          3    1    6    6  503    0  0.38684535851E+03 -0.17593354884E+03  0.59021585354E+01  0.42501385917E+03  0.00000000000E+00 0. -1.
         -3    1    6    6    0  503 -0.31619426447E+00  0.58024454605E+01  0.38784020831E+01  0.69864407858E+01  0.00000000000E+00 0.  1.
<mgrwt>
<rscale>  0 0.14711963E+04</rscale>
<asrwt>0</asrwt>
<pdfrwt beam="1">  1        1 0.62696754E-01 0.14711963E+04</pdfrwt>
<pdfrwt beam="2">  1       -2 0.20427229E+00 0.14711963E+04</pdfrwt>
<totfact> 0.61794666E+00</totfact>
</mgrwt>
</event>
<event>
12    5  0.5428626E-008  0.1338097E+04  0.7818608E-02  0.8999888E-01
         -2   -1    0    0    0  501 -0.00000000000E+00  0.00000000000E+00  0.34914383792E+03  0.34914383792E+03  0.00000000000E+00 0.  1.
          1   -1    0    0  501    0  0.00000000000E+00 -0.00000000000E+00 -0.12820666493E+04  0.12820666493E+04  0.00000000000E+00 0. -1.
        -24    2    1    2    0    0  0.15619358142E+03 -0.24627846413E+03  0.54699132627E+00  0.30545419732E+03  0.90843000202E+02 0.  0.
        254    2    1    2    0    0 -0.15619358142E+03  0.24627846413E+03 -0.93346980270E+03  0.13257562899E+04  0.89510577635E+03 0.  0.
         23    2    4    4    0    0 -0.53846790051E+01  0.50123983575E+03 -0.23336530210E+03  0.56031682200E+03  0.90692938430E+02 0.  0.
         23    2    4    4    0    0 -0.15080890242E+03 -0.25496137161E+03 -0.70010450060E+03  0.76543946789E+03  0.89457482563E+02 0.  0.
          1    1    3    3  502    0  0.94925517866E+02 -0.15490326620E+03 -0.43729714067E+02  0.18686402466E+03  0.00000000000E+00 0. -1.
         -2    1    3    3    0  502  0.61268063554E+02 -0.91375197937E+02  0.44276705393E+02  0.11859017265E+03  0.00000000000E+00 0.  1.
         13    1    5    5    0    0 -0.86110793666E+01  0.48030453182E+03 -0.24144575709E+03  0.53764546645E+03  0.00000000000E+00 0.  1.
        -13    1    5    5    0    0  0.32264003616E+01  0.20935303929E+02  0.80804549846E+01  0.22671355554E+02  0.00000000000E+00 0. -1.
          3    1    6    6  503    0 -0.19230506706E+02 -0.49468635900E+02 -0.22693002764E+03  0.23305406190E+03  0.00000000000E+00 0. -1.
         -3    1    6    6    0  503 -0.13157839571E+03 -0.20549273571E+03 -0.47317447296E+03  0.53238540599E+03  0.00000000000E+00 0.  1.
<mgrwt>
<rscale>  0 0.13380967E+04</rscale>
<asrwt>0</asrwt>
<pdfrwt beam="1">  1        1 0.19724102E+00 0.13380967E+04</pdfrwt>
<pdfrwt beam="2">  1       -2 0.53714436E-01 0.13380967E+04</pdfrwt>
<totfact> 0.26145694E+01</totfact>
</mgrwt>
</event>
<event>
12    5  0.5428626E-008  0.1328369E+04  0.7818608E-02  0.9007366E-01
          1   -1    0    0  501    0  0.00000000000E+00  0.00000000000E+00  0.27848907444E+04  0.27848907444E+04  0.00000000000E+00 0. -1.
         -2   -1    0    0    0  501 -0.00000000000E+00 -0.00000000000E+00 -0.15840521551E+03  0.15840521551E+03  0.00000000000E+00 0.  1.
        -24    2    1    2    0    0  0.24136352893E+03 -0.40076833940E+02  0.12996854427E+03  0.28852814403E+03  0.80586361627E+02 0.  0.
        254    2    1    2    0    0 -0.24136352893E+03  0.40076833940E+02  0.24965169846E+04  0.26547678159E+04  0.86909872631E+03 0.  0.
         23    2    4    4    0    0 -0.44126839029E+03 -0.67072745009E+02  0.65992437232E+03  0.80193887813E+03  0.91592803688E+02 0.  0.
         23    2    4    4    0    0  0.19990486136E+03  0.10714957895E+03  0.18365926123E+04  0.18528289377E+04  0.91976427239E+02 0.  0.
          3    1    3    3  502    0  0.14483208765E+03 -0.62525883192E+02  0.69109965164E+02  0.17222661515E+03  0.00000000000E+00 0. -1.
         -4    1    3    3    0  502  0.96531441277E+02  0.22449049252E+02  0.60858579107E+02  0.11630152887E+03  0.00000000000E+00 0.  1.
         13    1    5    5    0    0 -0.51753569379E+00 -0.10349766514E+02  0.86459039902E+01  0.13495820312E+02  0.00000000000E+00 0. -1.
        -13    1    5    5    0    0 -0.44075085460E+03 -0.56722978495E+02  0.65127846833E+03  0.78844305782E+03  0.00000000000E+00 0.  1.
          3    1    6    6  503    0 -0.71748097845E+01  0.11970085224E+02  0.56116827583E+02  0.57826111522E+02  0.00000000000E+00 0. -1.
         -3    1    6    6    0  503  0.20707967115E+03  0.95179493725E+02  0.17804757847E+04  0.17950028262E+04  0.00000000000E+00 0.  1.
<mgrwt>
<rscale>  0 0.13283693E+04</rscale>
<asrwt>0</asrwt>
<pdfrwt beam="1">  1        1 0.42844469E+00 0.13283693E+04</pdfrwt>
<pdfrwt beam="2">  1       -2 0.24370035E-01 0.13283693E+04</pdfrwt>
<totfact> 0.11127554E+01</totfact>
</mgrwt>
</event>
<event>
12    5  0.5428626E-008  0.1720261E+04  0.7818608E-02  0.8749893E-01
         -2   -1    0    0    0  501 -0.00000000000E+00  0.00000000000E+00  0.95534975426E+03  0.95534975426E+03  0.00000000000E+00 0.  1.
          1   -1    0    0  501    0  0.00000000000E+00 -0.00000000000E+00 -0.77440139079E+03  0.77440139079E+03  0.00000000000E+00 0. -1.
        -24    2    1    2    0    0  0.46898175444E+03 -0.25816019463E+03  0.38375937898E+03  0.66367320276E+03  0.81242150543E+02 0.  0.
        254    2    1    2    0    0 -0.46898175444E+03  0.25816019463E+03 -0.20281101551E+03  0.10660779423E+04  0.89933269646E+03 0.  0.
         23    2    4    4    0    0 -0.58388065428E+03 -0.12886138943E+03 -0.24051984089E+03  0.65130633552E+03  0.93958888314E+02 0.  0.
         23    2    4    4    0    0  0.11489889984E+03  0.38702158406E+03  0.37708825383E+02  0.41477160677E+03  0.87327352843E+02 0.  0.
          3    1    3    3  502    0  0.10923514336E+02 -0.23309523165E+01 -0.33502472563E+01  0.11661074600E+02  0.00000000000E+00 0. -1.
         -4    1    3    3    0  502  0.45805824010E+03 -0.25582924231E+03  0.38710962624E+03  0.65201212816E+03  0.00000000000E+00 0.  1.
         13    1    5    5    0    0 -0.22779688311E+03 -0.53877153689E+02 -0.14400957096E+03  0.27483253842E+03  0.00000000000E+00 0.  1.
        -13    1    5    5    0    0 -0.35608377117E+03 -0.74984235742E+02 -0.96510269928E+02  0.37647379710E+03  0.00000000000E+00 0. -1.
          4    1    6    6  503    0  0.34181928678E+02  0.15871210119E+03 -0.25886896232E+02  0.16440214935E+03  0.00000000000E+00 0. -1.
         -4    1    6    6    0  503  0.80716971164E+02  0.22830948287E+03  0.63595721616E+02  0.25036945742E+03  0.00000000000E+00 0.  1.
<mgrwt>
<rscale>  0 0.17202607E+04</rscale>
<asrwt>0</asrwt>
<pdfrwt beam="1">  1        1 0.11913868E+00 0.17202607E+04</pdfrwt>
<pdfrwt beam="2">  1       -2 0.14697688E+00 0.17202607E+04</pdfrwt>
<totfact> 0.61251544E+00</totfact>
</mgrwt>
</event>
<event>
12    5  0.5428626E-008  0.1675623E+04  0.7818608E-02  0.8775391E-01
          1   -1    0    0  501    0  0.00000000000E+00  0.00000000000E+00  0.34386426119E+03  0.34386426119E+03  0.00000000000E+00 0. -1.
         -2   -1    0    0    0  501 -0.00000000000E+00 -0.00000000000E+00 -0.20412945796E+04  0.20412945796E+04  0.00000000000E+00 0.  1.
        -24    2    1    2    0    0 -0.86702368385E+02  0.55402619632E+03 -0.47106924998E+03  0.73674919233E+03  0.80192314025E+02 0.  0.
        254    2    1    2    0    0  0.86702368385E+02 -0.55402619632E+03 -0.12263610685E+04  0.16484096485E+04  0.94806675509E+03 0.  0.
         23    2    4    4    0    0  0.24334797365E+03  0.18611190934E+03 -0.51430098595E+03  0.60536504876E+03  0.90030322833E+02 0.  0.
         23    2    4    4    0    0 -0.15664560527E+03 -0.74013810566E+03 -0.71206008251E+03  0.10430445997E+04  0.92575454742E+02 0.  0.
          3    1    3    3  502    0 -0.38514881191E+02  0.43647220719E+03 -0.34409595577E+03  0.55712961732E+03  0.00000000000E+00 0. -1.
         -4    1    3    3    0  502 -0.48187487194E+02  0.11755398913E+03 -0.12697329421E+03  0.17961957501E+03  0.00000000000E+00 0.  1.
         13    1    5    5    0    0  0.47188072417E+02  0.14562360671E+02 -0.14653368342E+03  0.15463148742E+03  0.00000000000E+00 0. -1.
        -13    1    5    5    0    0  0.19615990124E+03  0.17154954867E+03 -0.36776730253E+03  0.45073356134E+03  0.00000000000E+00 0.  1.
          3    1    6    6  503    0 -0.19016878923E+02 -0.23832250971E+03 -0.18398317659E+03  0.30167709490E+03  0.00000000000E+00 0. -1.
         -3    1    6    6    0  503 -0.13762872635E+03 -0.50181559596E+03 -0.52807690591E+03  0.74136750483E+03  0.00000000000E+00 0.  1.
<mgrwt>
<rscale>  0 0.16756232E+04</rscale>
<asrwt>0</asrwt>
<pdfrwt beam="1">  1        1 0.52902194E-01 0.16756232E+04</pdfrwt>
<pdfrwt beam="2">  1       -2 0.31404532E+00 0.16756232E+04</pdfrwt>
<totfact> 0.15969954E+00</totfact>
</mgrwt>
</event>
<event>
12    5  0.5428626E-008  0.1516740E+04  0.7818608E-02  0.8873397E-01
         -2   -1    0    0    0  501 -0.00000000000E+00  0.00000000000E+00  0.76576674824E+03  0.76576674824E+03  0.00000000000E+00 0.  1.
          1   -1    0    0  501    0  0.00000000000E+00 -0.00000000000E+00 -0.75104442448E+03  0.75104442448E+03  0.00000000000E+00 0. -1.
        -24    2    1    2    0    0  0.56193195508E+02 -0.48873514220E+02  0.48596589441E+03  0.49876429425E+03  0.84004018209E+02 0.  0.
        254    2    1    2    0    0 -0.56193195508E+02  0.48873514220E+02 -0.47124357065E+03  0.10180468785E+04  0.89933455858E+03 0.  0.
         23    2    4    4    0    0  0.14212511998E+03 -0.17005555037E+03 -0.62726327939E+03  0.67189149075E+03  0.94130301903E+02 0.  0.
         23    2    4    4    0    0 -0.19831831549E+03  0.21892906459E+03  0.15601970873E+03  0.34615538771E+03  0.90671458279E+02 0.  0.
          1    1    3    3  502    0  0.23558686711E+02  0.23246463068E+02  0.14564017265E+03  0.14935350566E+03  0.00000000000E+00 0. -1.
         -2    1    3    3    0  502  0.32634508798E+02 -0.72119977288E+02  0.34032572177E+03  0.34941078859E+03  0.00000000000E+00 0.  1.
         13    1    5    5    0    0  0.20315194577E+02  0.50499313104E+01 -0.23076705027E+02  0.31156752909E+02  0.00000000000E+00 0. -1.
        -13    1    5    5    0    0  0.12180992540E+03 -0.17510548168E+03 -0.60418657436E+03  0.64073473784E+03  0.00000000000E+00 0.  1.
          2    1    6    6  503    0 -0.96016981960E+02  0.12039833282E+03  0.31323765560E+02  0.15715023913E+03  0.00000000000E+00 0. -1.
         -2    1    6    6    0  503 -0.10230133353E+03  0.98530731775E+02  0.12469594317E+03  0.18900514858E+03  0.00000000000E+00 0.  1.
<mgrwt>
<rscale>  0 0.15167397E+04</rscale>
<asrwt>0</asrwt>
<pdfrwt beam="1">  1        1 0.11554530E+00 0.15167397E+04</pdfrwt>
<pdfrwt beam="2">  1       -2 0.11781027E+00 0.15167397E+04</pdfrwt>
<totfact> 0.11490464E+01</totfact>
</mgrwt>
</event>
<event>
12    5  0.5428626E-008  0.2352706E+04  0.7818608E-02  0.8457425E-01
         -4   -1    0    0    0  501 -0.00000000000E+00  0.00000000000E+00  0.73009416359E+03  0.73009416359E+03  0.00000000000E+00 0.  1.
          1   -1    0    0  501    0  0.00000000000E+00 -0.00000000000E+00 -0.18953799079E+04  0.18953799079E+04  0.00000000000E+00 0. -1.
        -24    2    1    2    0    0 -0.73346470994E+02  0.69825235524E+02  0.61424861684E+03  0.62785547013E+03  0.81522142790E+02 0.  0.
        254    2    1    2    0    0  0.73346470994E+02 -0.69825235524E+02 -0.17795343612E+04  0.19976186014E+04  0.90193251722E+03 0.  0.
         23    2    4    4    0    0 -0.25937639281E+03  0.10799253097E+03 -0.16844736593E+03  0.34020576944E+03  0.91798423623E+02 0.  0.
         23    2    4    4    0    0  0.33272286381E+03 -0.17781776649E+03 -0.16110869952E+04  0.16574128319E+04  0.95353694290E+02 0.  0.
          1    1    3    3  502    0 -0.74625690056E+02  0.16300518850E+02  0.37184209983E+03  0.37960670139E+03  0.00000000000E+00 0. -1.
         -2    1    3    3    0  502  0.12792190622E+01  0.53524716674E+02  0.24240651701E+03  0.24824876875E+03  0.00000000000E+00 0.  1.
         13    1    5    5    0    0 -0.26958140882E+02  0.66507374954E+01 -0.56674673661E+02  0.63110952327E+02  0.00000000000E+00 0.  1.
        -13    1    5    5    0    0 -0.23241825193E+03  0.10134179347E+03 -0.11177269226E+03  0.27709481711E+03  0.00000000000E+00 0. -1.
          3    1    6    6  503    0  0.27175994354E+03 -0.17781568071E+03 -0.14271840704E+04  0.14636687652E+04  0.00000000000E+00 0. -1.
         -3    1    6    6    0  503  0.60962920268E+02 -0.20857780061E-02 -0.18390292480E+03  0.19374406675E+03  0.00000000000E+00 0.  1.
<mgrwt>
<rscale>  0 0.23527055E+04</rscale>
<asrwt>0</asrwt>
<pdfrwt beam="1">  1        1 0.29159691E+00 0.23527055E+04</pdfrwt>
<pdfrwt beam="2">  1       -4 0.11232218E+00 0.23527055E+04</pdfrwt>
<totfact> 0.96582170E-01</totfact>
</mgrwt>
</event>
<event>
12    5  0.5428626E-008  0.3898129E+04  0.7818608E-02  0.8025418E-01
          1   -1    0    0  501    0  0.00000000000E+00  0.00000000000E+00  0.16121612155E+04  0.16121612155E+04  0.00000000000E+00 0. -1.
         -2   -1    0    0    0  501 -0.00000000000E+00 -0.00000000000E+00 -0.23563731383E+04  0.23563731383E+04  0.00000000000E+00 0.  1.
        -24    2    1    2    0    0  0.18184460940E+04 -0.11980969116E+03 -0.13822592883E+03  0.18293264859E+04  0.78920374283E+02 0.  0.
        254    2    1    2    0    0 -0.18184460940E+04  0.11980969116E+03 -0.60598599393E+03  0.21392078679E+04  0.94227953303E+03 0.  0.
         23    2    4    4    0    0 -0.15197113813E+04 -0.13303696513E+03 -0.76208047476E+03  0.17080387945E+04  0.96996684874E+02 0.  0.
         23    2    4    4    0    0 -0.29873471276E+03  0.25284665630E+03  0.15609448083E+03  0.43116907348E+03  0.91473617881E+02 0.  0.
          3    1    3    3  502    0  0.16802152719E+03 -0.32877027619E+02 -0.20407099744E+02  0.17241978502E+03  0.00000000000E+00 0. -1.
         -4    1    3    3    0  502  0.16504245668E+04 -0.86932663545E+02 -0.11781882909E+03  0.16569067009E+04  0.00000000000E+00 0.  1.
         13    1    5    5    0    0 -0.32473472481E+03 -0.60229070806E+02 -0.13796007090E+03  0.35792899245E+03  0.00000000000E+00 0. -1.
        -13    1    5    5    0    0 -0.11949766565E+04 -0.72807894327E+02 -0.62412040386E+03  0.13501098020E+04  0.00000000000E+00 0.  1.
          1    1    6    6  503    0 -0.10244752166E+02 -0.52915940472E+01  0.15479558657E+02  0.19302141091E+02  0.00000000000E+00 0. -1.
         -1    1    6    6    0  503 -0.28848996060E+03  0.25813825034E+03  0.14061492218E+03  0.41186693239E+03  0.00000000000E+00 0.  1.
<mgrwt>
<rscale>  0 0.38981295E+04</rscale>
<asrwt>0</asrwt>
<pdfrwt beam="1">  1        1 0.24802480E+00 0.38981295E+04</pdfrwt>
<pdfrwt beam="2">  1       -2 0.36251894E+00 0.38981295E+04</pdfrwt>
<totfact> 0.49152615E-02</totfact>
</mgrwt>
</event>
<event>
12    5  0.5428626E-008  0.1152316E+04  0.7818608E-02  0.9155649E-01
          1   -1    0    0  501    0  0.00000000000E+00  0.00000000000E+00  0.12204107793E+04  0.12204107793E+04  0.00000000000E+00 0. -1.
         -2   -1    0    0    0  501 -0.00000000000E+00 -0.00000000000E+00 -0.27200529803E+03  0.27200529803E+03  0.00000000000E+00 0.  1.
        -24    2    1    2    0    0  0.30687025902E+02 -0.41796493697E+02  0.43828867969E+03  0.44841929052E+03  0.79336327890E+02 0.  0.
        254    2    1    2    0    0 -0.30687025902E+02  0.41796493697E+02  0.51011680160E+03  0.10439967868E+04  0.90940722407E+03 0.  0.
         23    2    4    4    0    0 -0.43880687304E+03  0.84719339254E+01  0.10357573126E+03  0.45989218469E+03  0.90275378361E+02 0.  0.
         23    2    4    4    0    0  0.40811984714E+03  0.33324559772E+02  0.40654107033E+03  0.58410460214E+03  0.90720496361E+02 0.  0.
          3    1    3    3  502    0  0.57333992152E+02 -0.27610419407E+02  0.26600666348E+03  0.27351246211E+03  0.00000000000E+00 0. -1.
         -4    1    3    3    0  502 -0.26646966249E+02 -0.14186074290E+02  0.17228201621E+03  0.17490682841E+03  0.00000000000E+00 0.  1.
         13    1    5    5    0    0 -0.73662006045E+02 -0.32728921214E+02  0.17498391264E+02  0.82483132307E+02  0.00000000000E+00 0. -1.
        -13    1    5    5    0    0 -0.36514486700E+03  0.41200855139E+02  0.86077340001E+02  0.37740905238E+03  0.00000000000E+00 0.  1.
          3    1    6    6  503    0  0.77453745264E+02  0.21651794985E+02  0.38383203056E+02  0.89113148067E+02  0.00000000000E+00 0. -1.
         -3    1    6    6    0  503  0.33066610188E+03  0.11672764787E+02  0.36815786728E+03  0.49499145407E+03  0.00000000000E+00 0.  1.
<mgrwt>
<rscale>  0 0.11523163E+04</rscale>
<asrwt>0</asrwt>
<pdfrwt beam="1">  1        1 0.18775550E+00 0.11523163E+04</pdfrwt>
<pdfrwt beam="2">  1       -2 0.41846970E-01 0.11523163E+04</pdfrwt>
<totfact> 0.48647279E+01</totfact>
</mgrwt>
</event>
<event>
12    5  0.5428626E-008  0.3583458E+04  0.7818608E-02  0.8094291E-01
          1   -1    0    0  501    0  0.00000000000E+00  0.00000000000E+00  0.29928632872E+04  0.29928632872E+04  0.00000000000E+00 0. -1.
         -2   -1    0    0    0  501 -0.00000000000E+00 -0.00000000000E+00 -0.10726492097E+04  0.10726492097E+04  0.00000000000E+00 0.  1.
        -24    2    1    2    0    0  0.10441113871E+04  0.12783576860E+04  0.12482822083E+04  0.20709677295E+04  0.79573256177E+02 0.  0.
        254    2    1    2    0    0 -0.10441113871E+04 -0.12783576860E+04  0.67193186921E+03  0.19945447675E+04  0.89573959974E+03 0.  0.
         23    2    4    4    0    0 -0.86520106881E+03 -0.39452505336E+03  0.47540415796E+03  0.10669219046E+04  0.89946260936E+02 0.  0.
         23    2    4    4    0    0 -0.17891031831E+03 -0.88383263260E+03  0.19652771125E+03  0.92762286288E+03  0.93230949770E+02 0.  0.
          3    1    3    3  502    0  0.10371813611E+04  0.12618287295E+04  0.12256629258E+04  0.20421083532E+04  0.00000000000E+00 0. -1.
         -4    1    3    3    0  502  0.69300260614E+01  0.16528956469E+02  0.22619282465E+02  0.28859376334E+02  0.00000000000E+00 0.  1.
         13    1    5    5    0    0 -0.35190655044E+03 -0.17422439588E+03  0.14912991720E+03  0.42003820370E+03  0.00000000000E+00 0. -1.
        -13    1    5    5    0    0 -0.51329451837E+03 -0.22030065748E+03  0.32627424076E+03  0.64688370088E+03  0.00000000000E+00 0.  1.
          3    1    6    6  503    0 -0.12631028816E+03 -0.39012055784E+03  0.89328262403E+02  0.41967591903E+03  0.00000000000E+00 0. -1.
         -3    1    6    6    0  503 -0.52600030150E+02 -0.49371207476E+03  0.10719944884E+03  0.50794694385E+03  0.00000000000E+00 0.  1.
<mgrwt>
<rscale>  0 0.35834578E+04</rscale>
<asrwt>0</asrwt>
<pdfrwt beam="1">  1        1 0.46044050E+00 0.35834578E+04</pdfrwt>
<pdfrwt beam="2">  1       -2 0.16502296E+00 0.35834578E+04</pdfrwt>
<totfact> 0.99811307E-02</totfact>
</mgrwt>
</event>
<event>
12    5  0.5428626E-008  0.2937397E+04  0.7818608E-02  0.8261837E-01
         -2   -1    0    0    0  501 -0.00000000000E+00  0.00000000000E+00  0.11356939691E+04  0.11356939691E+04  0.00000000000E+00 0.  1.
          1   -1    0    0  501    0  0.00000000000E+00 -0.00000000000E+00 -0.18993461713E+04  0.18993461713E+04  0.00000000000E+00 0. -1.
        -24    2    1    2    0    0 -0.12590960296E+02  0.67739831986E+03  0.83630980088E+03  0.10793220599E+04  0.80591624610E+02 0.  0.
        254    2    1    2    0    0  0.12590960296E+02 -0.67739831986E+03 -0.15999620031E+04  0.19557180805E+04  0.89773480649E+03 0.  0.
         23    2    4    4    0    0  0.41074849167E+03 -0.16166141817E+03 -0.81367922319E+03  0.93045188262E+03  0.93904686207E+02 0.  0.
         23    2    4    4    0    0 -0.39815753137E+03 -0.51573690169E+03 -0.78628277995E+03  0.10252661979E+04  0.91739821592E+02 0.  0.
          3    1    3    3  502    0 -0.37920483437E+01  0.13463184177E+03  0.22079928188E+03  0.25863571936E+03  0.00000000000E+00 0. -1.
         -2    1    3    3    0  502 -0.87989119527E+01  0.54276647809E+03  0.61551051900E+03  0.82068634056E+03  0.00000000000E+00 0.  1.
         13    1    5    5    0    0  0.39927932945E+03 -0.14203768497E+03 -0.73362405687E+03  0.84723252044E+03  0.00000000000E+00 0. -1.
        -13    1    5    5    0    0  0.11469162214E+02 -0.19623733198E+02 -0.80055166326E+02  0.83219362182E+02  0.00000000000E+00 0.  1.
          2    1    6    6  503    0 -0.14250023055E+03 -0.24367092027E+03 -0.38186887346E+03  0.47487437245E+03  0.00000000000E+00 0. -1.
         -2    1    6    6    0  503 -0.25565730082E+03 -0.27206598142E+03 -0.40441390648E+03  0.55039182540E+03  0.00000000000E+00 0.  1.
<mgrwt>
<rscale>  0 0.29373975E+04</rscale>
<asrwt>0</asrwt>
<pdfrwt beam="1">  1        1 0.29220710E+00 0.29373975E+04</pdfrwt>
<pdfrwt beam="2">  1       -2 0.17472215E+00 0.29373975E+04</pdfrwt>
<totfact> 0.51768894E-01</totfact>
</mgrwt>
</event>
<event>
12    5  0.5428626E-008  0.1279641E+04  0.7818608E-02  0.9045868E-01
         -2   -1    0    0    0  501 -0.00000000000E+00  0.00000000000E+00  0.68737114817E+03  0.68737114817E+03  0.00000000000E+00 0.  1.
          1   -1    0    0  501    0  0.00000000000E+00 -0.00000000000E+00 -0.59555921071E+03  0.59555921071E+03  0.00000000000E+00 0. -1.
        -24    2    1    2    0    0  0.21730243521E+03 -0.50744150775E+02  0.24401420744E+03  0.34169126270E+03  0.86108468688E+02 0.  0.
        254    2    1    2    0    0 -0.21730243521E+03  0.50744150775E+02 -0.15220226999E+03  0.94123909618E+03  0.90164859452E+03 0.  0.
         23    2    4    4    0    0  0.14451994381E+03  0.99107673961E+02  0.29698176657E+03  0.35559103107E+03  0.86824342793E+02 0.  0.
         23    2    4    4    0    0 -0.36182237903E+03 -0.48363523186E+02 -0.44918403656E+03  0.58564806512E+03  0.89235044321E+02 0.  0.
          1    1    3    3  502    0  0.94359067289E+02  0.20513646682E+02  0.10990123233E+03  0.14629669904E+03  0.00000000000E+00 0. -1.
         -2    1    3    3    0  502  0.12294336793E+03 -0.71257797457E+02  0.13411297511E+03  0.19539456366E+03  0.00000000000E+00 0.  1.
         13    1    5    5    0    0  0.13292359901E+03  0.57263324171E+02  0.26397326909E+03  0.30104760132E+03  0.00000000000E+00 0.  1.
        -13    1    5    5    0    0  0.11596344796E+02  0.41844349789E+02  0.33008497486E+02  0.54543429744E+02  0.00000000000E+00 0. -1.
          1    1    6    6  503    0 -0.10580541847E+03  0.13606182266E+02 -0.86154315290E+02  0.13712213832E+03  0.00000000000E+00 0. -1.
         -1    1    6    6    0  503 -0.25601696056E+03 -0.61969705452E+02 -0.36302972127E+03  0.44852592680E+03  0.00000000000E+00 0.  1.
<mgrwt>
<rscale>  0 0.12796409E+04</rscale>
<asrwt>0</asrwt>
<pdfrwt beam="1">  1        1 0.91624494E-01 0.12796409E+04</pdfrwt>
<pdfrwt beam="2">  1       -2 0.10574941E+00 0.12796409E+04</pdfrwt>
<totfact> 0.21541806E+01</totfact>
</mgrwt>
</event>
<event>
12    5  0.5428626E-008  0.1620302E+04  0.7818608E-02  0.8808172E-01
          1   -1    0    0  501    0  0.00000000000E+00  0.00000000000E+00  0.14110946774E+04  0.14110946774E+04  0.00000000000E+00 0. -1.
         -2   -1    0    0    0  501 -0.00000000000E+00 -0.00000000000E+00 -0.46513165036E+03  0.46513165036E+03  0.00000000000E+00 0.  1.
        -24    2    1    2    0    0  0.44506936266E+03 -0.14132633934E+02 -0.65063028198E+02  0.45662055918E+03  0.77347711697E+02 0.  0.
        254    2    1    2    0    0 -0.44506936266E+03  0.14132633934E+02  0.10110260553E+04  0.14196057686E+04  0.89152699617E+03 0.  0.
         23    2    4    4    0    0 -0.17795378776E+03  0.30363162875E+02  0.11030987850E+04  0.11216473988E+04  0.93147654900E+02 0.  0.
         23    2    4    4    0    0 -0.26711557490E+03 -0.16230528942E+02 -0.92072729742E+02  0.29795836976E+03  0.93207521811E+02 0.  0.
          1    1    3    3  502    0  0.93877411270E+02 -0.28145333118E+02  0.54044326094E+01  0.98154653557E+02  0.00000000000E+00 0. -1.
         -2    1    3    3    0  502  0.35119195139E+03  0.14012699185E+02 -0.70467460807E+02  0.35846590562E+03  0.00000000000E+00 0.  1.
         13    1    5    5    0    0 -0.14266023226E+03 -0.18082924007E+01  0.96578133577E+03  0.97626266973E+03  0.00000000000E+00 0. -1.
        -13    1    5    5    0    0 -0.35293555496E+02  0.32171455276E+02  0.13731744923E+03  0.14538472911E+03  0.00000000000E+00 0.  1.
          1    1    6    6  503    0 -0.26437331461E+03  0.10607669366E+01 -0.78432137547E+02  0.27576434669E+03  0.00000000000E+00 0. -1.
         -1    1    6    6    0  503 -0.27422602933E+01 -0.17291295878E+02 -0.13640592195E+02  0.22194023071E+02  0.00000000000E+00 0.  1.
<mgrwt>
<rscale>  0 0.16203022E+04</rscale>
<asrwt>0</asrwt>
<pdfrwt beam="1">  1        1 0.21709149E+00 0.16203022E+04</pdfrwt>
<pdfrwt beam="2">  1       -2 0.71558716E-01 0.16203022E+04</pdfrwt>
<totfact> 0.11234227E+01</totfact>
</mgrwt>
</event>
<event>
12    5  0.5428626E-008  0.3287085E+04  0.7818608E-02  0.8166189E-01
          1   -1    0    0  501    0  0.00000000000E+00  0.00000000000E+00  0.11968813712E+04  0.11968813712E+04  0.00000000000E+00 0. -1.
         -2   -1    0    0    0  501 -0.00000000000E+00 -0.00000000000E+00 -0.22568923838E+04  0.22568923838E+04  0.00000000000E+00 0.  1.
        -24    2    1    2    0    0 -0.28113138007E+03  0.14670946479E+04 -0.81750426853E+03  0.17047401140E+04  0.80150286916E+02 0.  0.
        254    2    1    2    0    0  0.28113138007E+03 -0.14670946479E+04 -0.24250674405E+03  0.17490336410E+04  0.87687376387E+03 0.  0.
         23    2    4    4    0    0  0.51900844189E+03 -0.10850086280E+04  0.44486931610E+02  0.12070283561E+04  0.91240779114E+02 0.  0.
         23    2    4    4    0    0 -0.23787706182E+03 -0.38208601987E+03 -0.28699367566E+03  0.54200528490E+03  0.93963481558E+02 0.  0.
          3    1    3    3  502    0 -0.85490753299E+02  0.28551024310E+03 -0.15102886967E+03  0.33411747529E+03  0.00000000000E+00 0. -1.
         -4    1    3    3    0  502 -0.19564062678E+03  0.11815844047E+04 -0.66647539886E+03  0.13706226387E+04  0.00000000000E+00 0.  1.
         13    1    5    5    0    0  0.31325194919E+02 -0.59314927174E+02 -0.18407199155E+02  0.69558273434E+02  0.00000000000E+00 0. -1.
        -13    1    5    5    0    0  0.48768324697E+03 -0.10256937008E+04  0.62894130765E+02  0.11374700827E+04  0.00000000000E+00 0.  1.
          3    1    6    6  503    0 -0.14559183514E+03 -0.14865873780E+03 -0.11521768387E+03  0.23784767701E+03  0.00000000000E+00 0. -1.
         -3    1    6    6    0  503 -0.92285226677E+02 -0.23342728207E+03 -0.17177599179E+03  0.30415760788E+03  0.00000000000E+00 0.  1.
<mgrwt>
<rscale>  0 0.32870853E+04</rscale>
<asrwt>0</asrwt>
<pdfrwt beam="1">  1        1 0.18413560E+00 0.32870853E+04</pdfrwt>
<pdfrwt beam="2">  1       -2 0.34721421E+00 0.32870853E+04</pdfrwt>
<totfact> 0.12681918E-01</totfact>
</mgrwt>
</event>
<event>
12    5  0.5428626E-008  0.1446336E+04  0.7818608E-02  0.8920944E-01
          1   -1    0    0  501    0  0.00000000000E+00  0.00000000000E+00  0.83557651568E+03  0.83557651568E+03  0.00000000000E+00 0. -1.
         -2   -1    0    0    0  501 -0.00000000000E+00 -0.00000000000E+00 -0.62588171945E+03  0.62588171945E+03  0.00000000000E+00 0.  1.
        -24    2    1    2    0    0 -0.25246868180E+03 -0.30496659403E+03  0.23243994994E+03  0.46576506096E+03  0.78509253732E+02 0.  0.
        254    2    1    2    0    0  0.25246868180E+03  0.30496659403E+03 -0.22745153709E+02  0.99569317417E+03  0.91331401845E+03 0.  0.
         23    2    4    4    0    0  0.42922820548E+03 -0.10799291495E+03 -0.21163361428E+03  0.49904695913E+03  0.91431715853E+02 0.  0.
         23    2    4    4    0    0 -0.17675952367E+03  0.41295950898E+03  0.18888846057E+03  0.49664621504E+03  0.95912080101E+02 0.  0.
          1    1    3    3  502    0 -0.32747796676E+02 -0.53240183972E+02  0.71263959211E+02  0.94791810084E+02  0.00000000000E+00 0. -1.
         -2    1    3    3    0  502 -0.21972088513E+03 -0.25172641006E+03  0.16117599073E+03  0.37097325088E+03  0.00000000000E+00 0.  1.
         13    1    5    5    0    0  0.11562792060E+03 -0.61836471602E+02 -0.33057952452E+02  0.13522719202E+03  0.00000000000E+00 0. -1.
        -13    1    5    5    0    0  0.31360028488E+03 -0.46156443352E+02 -0.17857566183E+03  0.36381976710E+03  0.00000000000E+00 0.  1.
          3    1    6    6  503    0  0.11464957042E+02  0.28627099799E+02  0.68490448623E+01  0.31589009140E+02  0.00000000000E+00 0. -1.
         -3    1    6    6    0  503 -0.18822448072E+03  0.38433240918E+03  0.18203941571E+03  0.46505720590E+03  0.00000000000E+00 0.  1.
<mgrwt>
<rscale>  0 0.14463362E+04</rscale>
<asrwt>0</asrwt>
<pdfrwt beam="1">  1        1 0.12855023E+00 0.14463362E+04</pdfrwt>
<pdfrwt beam="2">  1       -2 0.96289495E-01 0.14463362E+04</pdfrwt>
<totfact> 0.15835823E+01</totfact>
</mgrwt>
</event>
<event>
12    5  0.5428626E-008  0.1729431E+04  0.7818608E-02  0.8744755E-01
         -2   -1    0    0    0  501 -0.00000000000E+00  0.00000000000E+00  0.67018694817E+03  0.67018694817E+03  0.00000000000E+00 0.  1.
          1   -1    0    0  501    0  0.00000000000E+00 -0.00000000000E+00 -0.11157076860E+04  0.11157076860E+04  0.00000000000E+00 0. -1.
        -24    2    1    2    0    0  0.30713116870E+03  0.43470999015E+03  0.20366705075E+03  0.57554663509E+03  0.80444585177E+02 0.  0.
        254    2    1    2    0    0 -0.30713116870E+03 -0.43470999015E+03 -0.64918778862E+03  0.12103479991E+04  0.87189171560E+03 0.  0.
         23    2    4    4    0    0 -0.37052546781E+03 -0.20835198486E+03  0.76909282682E+02  0.44166375420E+03  0.91935641202E+02 0.  0.
         23    2    4    4    0    0  0.63394299107E+02 -0.22635800529E+03 -0.72609707130E+03  0.76868424490E+03  0.91660938791E+02 0.  0.
          3    1    3    3  502    0  0.77240146628E+02  0.73301764024E+02  0.67574555139E+02  0.12611704628E+03  0.00000000000E+00 0. -1.
         -4    1    3    3    0  502  0.22989102208E+03  0.36140822612E+03  0.13609249561E+03  0.44942958881E+03  0.00000000000E+00 0.  1.
         13    1    5    5    0    0 -0.39143505155E+02 -0.54311725007E+02 -0.50952629376E+01  0.67141188353E+02  0.00000000000E+00 0.  1.
        -13    1    5    5    0    0 -0.33138196266E+03 -0.15404025985E+03  0.82004545619E+02  0.37452256585E+03  0.00000000000E+00 0. -1.
          2    1    6    6  503    0  0.28626738562E+02 -0.21300630946E+03 -0.60941809646E+03  0.64620553566E+03  0.00000000000E+00 0. -1.
         -2    1    6    6    0  503  0.34767560545E+02 -0.13351695824E+02 -0.11667897484E+03  0.12247870924E+03  0.00000000000E+00 0.  1.
<mgrwt>
<rscale>  0 0.17294308E+04</rscale>
<asrwt>0</asrwt>
<pdfrwt beam="1">  1        1 0.17164734E+00 0.17294308E+04</pdfrwt>
<pdfrwt beam="2">  1       -2 0.10310568E+00 0.17294308E+04</pdfrwt>
<totfact> 0.78871656E+00</totfact>
</mgrwt>
</event>
<event>
12    5  0.5428626E-008  0.2553468E+04  0.7818608E-02  0.8384181E-01
          1   -1    0    0  501    0  0.00000000000E+00  0.00000000000E+00  0.16572077323E+04  0.16572077323E+04  0.00000000000E+00 0. -1.
         -4   -1    0    0    0  501 -0.00000000000E+00 -0.00000000000E+00 -0.98361207256E+03  0.98361207256E+03  0.00000000000E+00 0.  1.
        -24    2    1    2    0    0  0.10332479503E+04 -0.41979177907E+03  0.36993781909E+03  0.11778108974E+04  0.80981821909E+02 0.  0.
        254    2    1    2    0    0 -0.10332479503E+04  0.41979177907E+03  0.30365784068E+03  0.14630089075E+04  0.89686148018E+03 0.  0.
         23    2    4    4    0    0  0.28757800714E+02  0.34682665666E+03  0.11907745608E+03  0.37878160480E+03  0.90445136473E+02 0.  0.
         23    2    4    4    0    0 -0.10620057510E+04  0.72965122411E+02  0.18458038460E+03  0.10842273027E+04  0.91097756635E+02 0.  0.
          1    1    3    3  502    0  0.63671933302E+03 -0.23261662993E+03  0.19151678218E+03  0.70441513571E+03  0.00000000000E+00 0. -1.
         -4    1    3    3    0  502  0.39652861727E+03 -0.18717514914E+03  0.17842103692E+03  0.47339576169E+03  0.00000000000E+00 0.  1.
         13    1    5    5    0    0  0.32849709859E+02  0.34916455315E+03  0.10834621867E+03  0.36706115528E+03  0.00000000000E+00 0. -1.
        -13    1    5    5    0    0 -0.40919091448E+01 -0.23378964890E+01  0.10731237414E+02  0.11720449517E+02  0.00000000000E+00 0.  1.
          4    1    6    6  503    0 -0.10325665360E+04  0.83352464958E+02  0.18791709276E+03  0.10528314767E+04  0.00000000000E+00 0. -1.
         -4    1    6    6    0  503 -0.29439215045E+02 -0.10387342547E+02 -0.33367081616E+01  0.31395825980E+02  0.00000000000E+00 0.  1.
<mgrwt>
<rscale>  0 0.25534679E+04</rscale>
<asrwt>0</asrwt>
<pdfrwt beam="1">  1        1 0.25495504E+00 0.25534679E+04</pdfrwt>
<pdfrwt beam="2">  1       -4 0.15132493E+00 0.25534679E+04</pdfrwt>
<totfact> 0.64053135E-01</totfact>
</mgrwt>
</event>
<event>
12    5  0.5428626E-008  0.3226256E+04  0.7818608E-02  0.8181917E-01
          1   -1    0    0  501    0  0.00000000000E+00  0.00000000000E+00  0.27108015460E+04  0.27108015460E+04  0.00000000000E+00 0. -1.
         -2   -1    0    0    0  501 -0.00000000000E+00 -0.00000000000E+00 -0.95993107637E+03  0.95993107637E+03  0.00000000000E+00 0.  1.
        -24    2    1    2    0    0  0.48268535469E+03 -0.13252222891E+04  0.13206513361E+04  0.19337983302E+04  0.79099706419E+02 0.  0.
        254    2    1    2    0    0 -0.48268535469E+03  0.13252222891E+04  0.43021913355E+03  0.17369342921E+04  0.91796130917E+03 0.  0.
         23    2    4    4    0    0 -0.67076178685E+03  0.12056476731E+04  0.18849126935E+03  0.13956043513E+04  0.93138931790E+02 0.  0.
         23    2    4    4    0    0  0.18807643215E+03  0.11957461599E+03  0.24172786421E+03  0.34132994075E+03  0.91667524225E+02 0.  0.
          3    1    3    3  502    0  0.45197509963E+03 -0.11904918126E+04  0.11687592637E+04  0.17284531995E+04  0.00000000000E+00 0. -1.
         -2    1    3    3    0  502  0.30710255067E+02 -0.13473047650E+03  0.15189207238E+03  0.20534513074E+03  0.00000000000E+00 0.  1.
         13    1    5    5    0    0 -0.25835791600E+03  0.38194979919E+03  0.44800698040E+02  0.46329425251E+03  0.00000000000E+00 0.  1.
        -13    1    5    5    0    0 -0.41240387085E+03  0.82369787388E+03  0.14369057131E+03  0.93231009884E+03  0.00000000000E+00 0. -1.
          2    1    6    6  503    0  0.13317682222E+02 -0.98240272272E+01  0.45553709210E+02  0.48466613184E+02  0.00000000000E+00 0. -1.
         -2    1    6    6    0  503  0.17475874993E+03  0.12939864322E+03  0.19617415500E+03  0.29286332757E+03  0.00000000000E+00 0.  1.
<mgrwt>
<rscale>  0 0.32262564E+04</rscale>
<asrwt>0</asrwt>
<pdfrwt beam="1">  1        1 0.41704639E+00 0.32262564E+04</pdfrwt>
<pdfrwt beam="2">  1       -2 0.14768171E+00 0.32262564E+04</pdfrwt>
<totfact> 0.22110156E-01</totfact>
</mgrwt>
</event>
<event>
12    5  0.5428626E-008  0.5878110E+04  0.7818608E-02  0.7705701E-01
         -2   -1    0    0    0  501 -0.00000000000E+00  0.00000000000E+00  0.49858398829E+04  0.49858398829E+04  0.00000000000E+00 0.  1.
          1   -1    0    0  501    0  0.00000000000E+00 -0.00000000000E+00 -0.17325151466E+04  0.17325151466E+04  0.00000000000E+00 0. -1.
        -24    2    1    2    0    0 -0.12500496253E+04  0.42363825505E+03  0.44988373673E+04  0.46892023299E+04  0.83590651858E+02 0.  0.
        254    2    1    2    0    0  0.12500496253E+04 -0.42363825505E+03 -0.12455126310E+04  0.20291526995E+04  0.90778055003E+03 0.  0.
         23    2    4    4    0    0  0.51123622164E+03  0.26876281807E+03 -0.45189410436E+03  0.73933287849E+03  0.93855724217E+02 0.  0.
         23    2    4    4    0    0  0.73881340370E+03 -0.69240107312E+03 -0.79361852662E+03  0.12898198210E+04  0.92413815749E+02 0.  0.
          3    1    3    3  502    0 -0.14726296261E+03  0.22099824125E+02  0.50434597788E+03  0.52587037166E+03  0.00000000000E+00 0. -1.
         -4    1    3    3    0  502 -0.11027866627E+04  0.40153843092E+03  0.39944913894E+04  0.41633319583E+04  0.00000000000E+00 0.  1.
         13    1    5    5    0    0  0.36919148854E+03  0.16024650919E+03 -0.27221822684E+03  0.48588482374E+03  0.00000000000E+00 0.  1.
        -13    1    5    5    0    0  0.14204473310E+03  0.10851630888E+03 -0.17967587751E+03  0.25344805475E+03  0.00000000000E+00 0. -1.
          1    1    6    6  503    0  0.36393193555E+03 -0.40026129655E+03 -0.44292462060E+03  0.69916934913E+03  0.00000000000E+00 0. -1.
         -1    1    6    6    0  503  0.37488146815E+03 -0.29213977657E+03 -0.35069390601E+03  0.59065047188E+03  0.00000000000E+00 0.  1.
<mgrwt>
<rscale>  0 0.58781096E+04</rscale>
<asrwt>0</asrwt>
<pdfrwt beam="1">  1        1 0.26654079E+00 0.58781096E+04</pdfrwt>
<pdfrwt beam="2">  1       -2 0.76705228E+00 0.58781096E+04</pdfrwt>
<totfact> 0.32113921E-04</totfact>
</mgrwt>
</event>
<event>
12    5  0.5428626E-008  0.1333626E+04  0.7818608E-02  0.9003316E-01
          1   -1    0    0  501    0  0.00000000000E+00  0.00000000000E+00  0.13446973244E+04  0.13446973244E+04  0.00000000000E+00 0. -1.
         -2   -1    0    0    0  501 -0.00000000000E+00 -0.00000000000E+00 -0.33066156206E+03  0.33066156206E+03  0.00000000000E+00 0.  1.
        -24    2    1    2    0    0 -0.43803602258E+02  0.39260353020E+02 -0.14750604755E+03  0.17700590267E+03  0.78185194416E+02 0.  0.
        254    2    1    2    0    0  0.43803602258E+02 -0.39260353020E+02  0.11615418099E+04  0.14983529838E+04  0.94468098162E+03 0.  0.
         23    2    4    4    0    0 -0.57681345813E+02 -0.42647073648E+03  0.26937945594E+03  0.51631614757E+03  0.93875695645E+02 0.  0.
         23    2    4    4    0    0  0.10148494807E+03  0.38721038346E+03  0.89216235401E+03  0.98203683627E+03  0.90617912923E+02 0.  0.
          3    1    3    3  502    0  0.22800008568E+02  0.71193128715E+01 -0.36613610744E+02  0.43715918133E+02  0.00000000000E+00 0. -1.
         -4    1    3    3    0  502 -0.66603610826E+02  0.32141040148E+02 -0.11089243681E+03  0.13328998454E+03  0.00000000000E+00 0.  1.
         13    1    5    5    0    0 -0.80958031673E+02 -0.35661113623E+03  0.20978590749E+03  0.42158727727E+03  0.00000000000E+00 0. -1.
        -13    1    5    5    0    0  0.23276685860E+02 -0.69859600245E+02  0.59593548445E+02  0.94728870295E+02  0.00000000000E+00 0.  1.
          2    1    6    6  503    0  0.11243446893E+03  0.33764644166E+03  0.73015893902E+03  0.81226763176E+03  0.00000000000E+00 0. -1.
         -2    1    6    6    0  503 -0.10949520861E+02  0.49563941795E+02  0.16200341498E+03  0.16976920451E+03  0.00000000000E+00 0.  1.
<mgrwt>
<rscale>  0 0.13336262E+04</rscale>
<asrwt>0</asrwt>
<pdfrwt beam="1">  1        1 0.20687651E+00 0.13336262E+04</pdfrwt>
<pdfrwt beam="2">  1       -2 0.50871010E-01 0.13336262E+04</pdfrwt>
<totfact> 0.26396882E+01</totfact>
</mgrwt>
</event>
<event>
12    5  0.5428626E-008  0.1235411E+04  0.7818608E-02  0.9082414E-01
          1   -1    0    0  501    0  0.00000000000E+00  0.00000000000E+00  0.99556268321E+03  0.99556268321E+03  0.00000000000E+00 0. -1.
         -2   -1    0    0    0  501 -0.00000000000E+00 -0.00000000000E+00 -0.38326083709E+03  0.38326083709E+03  0.00000000000E+00 0.  1.
        -24    2    1    2    0    0 -0.26834122169E+03  0.10164390238E+03  0.19274517963E+03  0.35511811928E+03  0.81361417254E+02 0.  0.
        254    2    1    2    0    0  0.26834122169E+03 -0.10164390238E+03  0.41955666649E+03  0.10237054010E+04  0.88859802923E+03 0.  0.
         23    2    4    4    0    0  0.55729219841E+02  0.34065520743E+03  0.38267163846E+03  0.52341200801E+03  0.91492245365E+02 0.  0.
         23    2    4    4    0    0  0.21261200185E+03 -0.44229910981E+03  0.36885028034E+02  0.50029339301E+03  0.90003377346E+02 0.  0.
          3    1    3    3  502    0 -0.21610167812E+03  0.88498600764E+02  0.11439092790E+03  0.26003311714E+03  0.00000000000E+00 0. -1.
         -4    1    3    3    0  502 -0.52239543575E+02  0.13145301616E+02  0.78354251733E+02  0.95085002141E+02  0.00000000000E+00 0.  1.
         13    1    5    5    0    0  0.70739368364E+02  0.30670675934E+03  0.30986508563E+03  0.44168933172E+03  0.00000000000E+00 0. -1.
        -13    1    5    5    0    0 -0.15010148523E+02  0.33948448085E+02  0.72806552825E+02  0.81722676292E+02  0.00000000000E+00 0.  1.
          3    1    6    6  503    0  0.15503030775E+03 -0.39424583382E+03  0.25104185318E+02  0.42437529844E+03  0.00000000000E+00 0. -1.
         -3    1    6    6    0  503  0.57581694104E+02 -0.48053275988E+02  0.11780842716E+02  0.75918094576E+02  0.00000000000E+00 0.  1.
<mgrwt>
<rscale>  0 0.12354112E+04</rscale>
<asrwt>0</asrwt>
<pdfrwt beam="1">  1        1 0.15316349E+00 0.12354112E+04</pdfrwt>
<pdfrwt beam="2">  1       -2 0.58963206E-01 0.12354112E+04</pdfrwt>
<totfact> 0.35472516E+01</totfact>
</mgrwt>
</event>
<event>
12    5  0.6521061E-008  0.1973932E+04  0.7818608E-02  0.8618906E-01
         -2   -1    0    0    0  501 -0.00000000000E+00  0.00000000000E+00  0.86123178225E+03  0.86123178225E+03  0.00000000000E+00 0.  1.
          1   -1    0    0  501    0  0.00000000000E+00 -0.00000000000E+00 -0.11310566662E+04  0.11310566662E+04  0.00000000000E+00 0. -1.
        -24    2    1    2    0    0  0.41388592985E+03  0.50292484616E+03  0.32138599301E+03  0.73110442118E+03  0.83604750835E+02 0.  0.
        254    2    1    2    0    0 -0.41388592985E+03 -0.50292484616E+03 -0.59121087691E+03  0.12611840272E+04  0.90378088368E+03 0.  0.
         23    2    4    4    0    0 -0.28383802711E+03 -0.23601358912E+02  0.17288410800E+03  0.34525335016E+03  0.90498128270E+02 0.  0.
         23    2    4    4    0    0 -0.13004790274E+03 -0.47932348725E+03 -0.76409498491E+03  0.91593067706E+03  0.91784512703E+02 0.  0.
          3    1    3    3  502    0  0.24684747064E+02  0.34327907881E+02  0.46368603460E+02  0.62751807814E+02  0.00000000000E+00 0. -1.
         -4    1    3    3    0  502  0.38920118279E+03  0.46859693828E+03  0.27501738955E+03  0.66835261337E+03  0.00000000000E+00 0.  1.
         13    1    5    5    0    0 -0.27374374226E+03 -0.18980313916E+02  0.13506903880E+03  0.30584233517E+03  0.00000000000E+00 0. -1.
        -13    1    5    5    0    0 -0.10094284850E+02 -0.46210449962E+01  0.37815069199E+02  0.39411014983E+02  0.00000000000E+00 0.  1.
          3    1    6    6  503    0 -0.10040618538E+02 -0.59736941972E+02 -0.47805611836E+02  0.77166655880E+02  0.00000000000E+00 0.  1.
         -3    1    6    6    0  503 -0.12000728420E+03 -0.41958654527E+03 -0.71628937308E+03  0.83876402118E+03  0.00000000000E+00 0. -1.
<mgrwt>
<rscale>  0 0.19739321E+04</rscale>
<asrwt>0</asrwt>
<pdfrwt beam="1">  1        1 0.17400872E+00 0.19739321E+04</pdfrwt>
<pdfrwt beam="2">  1       -2 0.13249720E+00 0.19739321E+04</pdfrwt>
<totfact> 0.40544456E+00</totfact>
</mgrwt>
</event>
<event>
12    5  0.5428626E-008  0.1741637E+04  0.7818608E-02  0.8737967E-01
          1   -1    0    0  501    0  0.00000000000E+00  0.00000000000E+00  0.34056800390E+03  0.34056800390E+03  0.00000000000E+00 0. -1.
         -2   -1    0    0    0  501 -0.00000000000E+00 -0.00000000000E+00 -0.22266479472E+04  0.22266479472E+04  0.00000000000E+00 0.  1.
        -24    2    1    2    0    0 -0.22531595661E+03  0.13530243920E+03 -0.15085100452E+04  0.15334103425E+04  0.81674302292E+02 0.  0.
        254    2    1    2    0    0  0.22531595661E+03 -0.13530243920E+03 -0.37756989805E+03  0.10338056085E+04  0.92580828360E+03 0.  0.
         23    2    4    4    0    0 -0.66204929273E+02  0.11040578536E+02 -0.61158605608E+03  0.62184495057E+03  0.90269881633E+02 0.  0.
         23    2    4    4    0    0  0.29152088588E+03 -0.14634301773E+03  0.23401615803E+03  0.41196065797E+03  0.92451694171E+02 0.  0.
          3    1    3    3  502    0 -0.47689197588E+02  0.23918323851E+02 -0.15903048147E+03  0.16774099028E+03  0.00000000000E+00 0. -1.
         -4    1    3    3    0  502 -0.17762675902E+03  0.11138411535E+03 -0.13494795637E+04  0.13656693522E+04  0.00000000000E+00 0.  1.
         13    1    5    5    0    0 -0.77515438981E+02  0.35541141155E+02 -0.44699978269E+03  0.45506111867E+03  0.00000000000E+00 0. -1.
        -13    1    5    5    0    0  0.11310509708E+02 -0.24500562620E+02 -0.16458627338E+03  0.16678383190E+03  0.00000000000E+00 0.  1.
          4    1    6    6  503    0  0.51232135489E+02 -0.66845786126E+02  0.41045341491E+02  0.93689972183E+02  0.00000000000E+00 0.  1.
         -4    1    6    6    0  503  0.24028875039E+03 -0.79497231608E+02  0.19297081654E+03  0.31827068579E+03  0.00000000000E+00 0. -1.
<mgrwt>
<rscale>  0 0.17416372E+04</rscale>
<asrwt>0</asrwt>
<pdfrwt beam="1">  1        1 0.52395077E-01 0.17416372E+04</pdfrwt>
<pdfrwt beam="2">  1       -2 0.34256123E+00 0.17416372E+04</pdfrwt>
<totfact> 0.10706247E+00</totfact>
</mgrwt>
</event>
<event>
12    5  0.5428626E-008  0.3005202E+04  0.7818608E-02  0.8242247E-01
         -2   -1    0    0    0  501 -0.00000000000E+00  0.00000000000E+00  0.16519054601E+04  0.16519054601E+04  0.00000000000E+00 0.  1.
          1   -1    0    0  501    0  0.00000000000E+00 -0.00000000000E+00 -0.13667907920E+04  0.13667907920E+04  0.00000000000E+00 0. -1.
        -24    2    1    2    0    0 -0.33990090757E+03 -0.69384383062E+03 -0.10042961579E+04  0.12692770834E+04  0.74173130245E+02 0.  0.
        254    2    1    2    0    0  0.33990090757E+03  0.69384383062E+03  0.12894108260E+04  0.17494191688E+04  0.89494986548E+03 0.  0.
         23    2    4    4    0    0  0.98710916845E+02  0.67839849471E+03  0.34954843434E+03  0.77501467472E+03  0.92169818039E+02 0.  0.
         23    2    4    4    0    0  0.24118999073E+03  0.15445335907E+02  0.93986239165E+03  0.97440449407E+03  0.87815902905E+02 0.  0.
          3    1    3    3  502    0 -0.11752407208E+03 -0.21292481621E+03 -0.26454749850E+03  0.35935256203E+03  0.00000000000E+00 0. -1.
         -4    1    3    3    0  502 -0.22237683549E+03 -0.48091901441E+03 -0.73974865942E+03  0.90992452132E+03  0.00000000000E+00 0.  1.
         13    1    5    5    0    0  0.77132756715E+00  0.82404414919E+02  0.75491294940E+02  0.11175874980E+03  0.00000000000E+00 0.  1.
        -13    1    5    5    0    0  0.97939589278E+02  0.59599407979E+03  0.27405713940E+03  0.66325592493E+03  0.00000000000E+00 0. -1.
          3    1    6    6  503    0  0.13691258456E+03  0.42677827096E+02  0.63681563444E+03  0.65276382023E+03  0.00000000000E+00 0. -1.
         -3    1    6    6    0  503  0.10427740617E+03 -0.27232491189E+02  0.30304675722E+03  0.32164067385E+03  0.00000000000E+00 0.  1.
<mgrwt>
<rscale>  0 0.30052016E+04</rscale>
<asrwt>0</asrwt>
<pdfrwt beam="1">  1        1 0.21027551E+00 0.30052016E+04</pdfrwt>
<pdfrwt beam="2">  1       -2 0.25413930E+00 0.30052016E+04</pdfrwt>
<totfact> 0.36704487E-01</totfact>
</mgrwt>
</event>
<event>
12    5  0.5428626E-008  0.1929794E+04  0.7818608E-02  0.8640167E-01
          1   -1    0    0  501    0  0.00000000000E+00  0.00000000000E+00  0.10215301223E+04  0.10215301223E+04  0.00000000000E+00 0. -1.
         -2   -1    0    0    0  501 -0.00000000000E+00 -0.00000000000E+00 -0.91140356447E+03  0.91140356447E+03  0.00000000000E+00 0.  1.
        -24    2    1    2    0    0 -0.64294289344E+03 -0.33235617431E+03  0.26250044893E+03  0.77402755810E+03  0.79849760056E+02 0.  0.
        254    2    1    2    0    0  0.64294289344E+03  0.33235617431E+03 -0.15237389112E+03  0.11589061286E+04  0.89219360090E+03 0.  0.
         23    2    4    4    0    0  0.58884475742E+03 -0.98105501462E+02 -0.32428064360E+03  0.68508588559E+03  0.88441489503E+02 0.  0.
         23    2    4    4    0    0  0.54098136015E+02  0.43046167577E+03  0.17190675247E+03  0.47382024305E+03  0.82035532269E+02 0.  0.
          1    1    3    3  502    0 -0.26194882134E+03 -0.12435574942E+03  0.14569104155E+03  0.32451104296E+03  0.00000000000E+00 0. -1.
         -2    1    3    3    0  502 -0.38099407209E+03 -0.20800042489E+03  0.11680940738E+03  0.44951651513E+03  0.00000000000E+00 0.  1.
         13    1    5    5    0    0  0.57300568883E+03 -0.10693652251E+03 -0.32411745412E+03  0.66695057039E+03  0.00000000000E+00 0. -1.
        -13    1    5    5    0    0  0.15839068597E+02  0.88310210501E+01 -0.16318947560E+00  0.18135315206E+02  0.00000000000E+00 0.  1.
          1    1    6    6  503    0  0.49471740446E+02  0.42847659574E+03  0.17739012777E+03  0.46637635406E+03  0.00000000000E+00 0. -1.
         -1    1    6    6    0  503  0.46263955694E+01  0.19850800320E+01 -0.54833752954E+01  0.74438889922E+01  0.00000000000E+00 0.  1.
<mgrwt>
<rscale>  0 0.19297940E+04</rscale>
<asrwt>0</asrwt>
<pdfrwt beam="1">  1        1 0.15715848E+00 0.19297940E+04</pdfrwt>
<pdfrwt beam="2">  1       -2 0.14021593E+00 0.19297940E+04</pdfrwt>
<totfact> 0.42604100E+00</totfact>
</mgrwt>
</event>
<event>
12    5  0.5428626E-008  0.1610287E+04  0.7818608E-02  0.8814253E-01
         -2   -1    0    0    0  501 -0.00000000000E+00  0.00000000000E+00  0.66161955356E+03  0.66161955356E+03  0.00000000000E+00 0.  1.
          1   -1    0    0  501    0  0.00000000000E+00 -0.00000000000E+00 -0.97980215624E+03  0.97980215624E+03  0.00000000000E+00 0. -1.
        -24    2    1    2    0    0  0.47175126143E+03 -0.23542554519E+03 -0.25191095192E+03  0.58985647010E+03  0.80604513776E+02 0.  0.
        254    2    1    2    0    0 -0.47175126143E+03  0.23542554519E+03 -0.66271650761E+02  0.10515652397E+04  0.90742662604E+03 0.  0.
         23    2    4    4    0    0 -0.11253295302E+03  0.11008776863E+03  0.40234476284E+03  0.44155504152E+03  0.91140354364E+02 0.  0.
         23    2    4    4    0    0 -0.35921830841E+03  0.12533777656E+03 -0.46861641360E+03  0.61001019817E+03  0.88112129960E+02 0.  0.
          3    1    3    3  502    0  0.57231203202E+02 -0.75331481075E+01 -0.46602262462E+02  0.74188474893E+02  0.00000000000E+00 0. -1.
         -4    1    3    3    0  502  0.41452005822E+03 -0.22789239708E+03 -0.20530868946E+03  0.51566799521E+03  0.00000000000E+00 0.  1.
         13    1    5    5    0    0 -0.12553306939E+03  0.11090131538E+03  0.35641158826E+03  0.39381070771E+03  0.00000000000E+00 0. -1.
        -13    1    5    5    0    0  0.13000116373E+02 -0.81354674994E+00  0.45933174583E+02  0.47744333813E+02  0.00000000000E+00 0.  1.
          4    1    6    6  503    0 -0.20461649174E+03  0.11659307424E+03 -0.27376098187E+03  0.36111899541E+03  0.00000000000E+00 0. -1.
         -4    1    6    6    0  503 -0.15460181667E+03  0.87447023256E+01 -0.19485543173E+03  0.24889120276E+03  0.00000000000E+00 0.  1.
<mgrwt>
<rscale>  0 0.16102873E+04</rscale>
<asrwt>0</asrwt>
<pdfrwt beam="1">  1        1 0.15073879E+00 0.16102873E+04</pdfrwt>
<pdfrwt beam="2">  1       -2 0.10178762E+00 0.16102873E+04</pdfrwt>
<totfact> 0.10444792E+01</totfact>
</mgrwt>
</event>
<event>
12    5  0.5428626E-008  0.1619184E+04  0.7818608E-02  0.8808848E-01
          1   -1    0    0  501    0  0.00000000000E+00  0.00000000000E+00  0.10418065784E+04  0.10418065784E+04  0.00000000000E+00 0. -1.
         -2   -1    0    0    0  501 -0.00000000000E+00 -0.00000000000E+00 -0.62913721558E+03  0.62913721558E+03  0.00000000000E+00 0.  1.
        -24    2    1    2    0    0 -0.42152236182E+03 -0.18368813199E+01 -0.23400258519E+03  0.48861380951E+03  0.79383684269E+02 0.  0.
        254    2    1    2    0    0  0.42152236182E+03  0.18368813199E+01  0.64667194804E+03  0.11823299845E+04  0.89556412848E+03 0.  0.
         23    2    4    4    0    0 -0.17133219184E+03  0.27054046627E+03  0.22777410019E+03  0.40366656321E+03  0.92297289664E+02 0.  0.
         23    2    4    4    0    0  0.59285455366E+03 -0.26870358495E+03  0.41889784785E+03  0.77866342130E+03  0.84635562056E+02 0.  0.
          3    1    3    3  502    0 -0.66534598861E+01 -0.42113971821E+01 -0.20635637814E+02  0.22086963184E+02  0.00000000000E+00 0. -1.
         -4    1    3    3    0  502 -0.41486890193E+03  0.23745158622E+01 -0.21336694737E+03  0.46652684633E+03  0.00000000000E+00 0.  1.
         13    1    5    5    0    0 -0.14246912128E+03  0.24939938589E+03  0.16454591392E+03  0.33101791793E+03  0.00000000000E+00 0.  1.
        -13    1    5    5    0    0 -0.28863070560E+02  0.21141080385E+02  0.63228186268E+02  0.72648645278E+02  0.00000000000E+00 0. -1.
          1    1    6    6  503    0  0.50065920818E+02 -0.79778086007E+01  0.56285295399E+02  0.75751411443E+02  0.00000000000E+00 0. -1.
         -1    1    6    6    0  503  0.54278863284E+03 -0.26072577635E+03  0.36261255245E+03  0.70291200985E+03  0.00000000000E+00 0.  1.
<mgrwt>
<rscale>  0 0.16191841E+04</rscale>
<asrwt>0</asrwt>
<pdfrwt beam="1">  1        1 0.16027793E+00 0.16191841E+04</pdfrwt>
<pdfrwt beam="2">  1       -2 0.96790341E-01 0.16191841E+04</pdfrwt>
<totfact> 0.10521620E+01</totfact>
</mgrwt>
</event>
<event>
12    5  0.5428626E-008  0.1569003E+04  0.7818608E-02  0.8839820E-01
          1   -1    0    0  501    0  0.00000000000E+00  0.00000000000E+00  0.21020716475E+04  0.21020716475E+04  0.00000000000E+00 0. -1.
         -4   -1    0    0    0  501 -0.00000000000E+00 -0.00000000000E+00 -0.29277910658E+03  0.29277910658E+03  0.00000000000E+00 0.  1.
        -24    2    1    2    0    0  0.21280148227E+03 -0.28913341436E+03  0.11953018088E+04  0.12505021101E+04  0.78272033949E+02 0.  0.
        254    2    1    2    0    0 -0.21280148227E+03  0.28913341436E+03  0.61399073220E+03  0.11443486440E+04  0.89647453817E+03 0.  0.
         23    2    4    4    0    0 -0.51887915273E+03  0.18902527466E+03  0.16286114612E+03  0.58242753363E+03  0.87931504092E+02 0.  0.
         23    2    4    4    0    0  0.30607767046E+03  0.10010813970E+03  0.45112958608E+03  0.56192111035E+03  0.92370183651E+02 0.  0.
          1    1    3    3  502    0  0.15442140421E+03 -0.14919623781E+03  0.74732598274E+03  0.77756132358E+03  0.00000000000E+00 0. -1.
         -2    1    3    3    0  502  0.58380078057E+02 -0.13993717656E+03  0.44797582602E+03  0.47294078656E+03  0.00000000000E+00 0.  1.
         13    1    5    5    0    0 -0.42240780191E+03  0.11876778700E+03  0.11312450434E+03  0.45313495983E+03  0.00000000000E+00 0. -1.
        -13    1    5    5    0    0 -0.96471350826E+02  0.70257487667E+02  0.49736641784E+02  0.12929257380E+03  0.00000000000E+00 0.  1.
          3    1    6    6  503    0  0.24982456850E+03  0.11205685846E+03  0.40140817378E+03  0.48589873073E+03  0.00000000000E+00 0. -1.
         -3    1    6    6    0  503  0.56253101965E+02 -0.11948718763E+02  0.49721412302E+02  0.76022379613E+02  0.00000000000E+00 0.  1.
<mgrwt>
<rscale>  0 0.15690031E+04</rscale>
<asrwt>0</asrwt>
<pdfrwt beam="1">  1        1 0.32339563E+00 0.15690031E+04</pdfrwt>
<pdfrwt beam="2">  1       -4 0.45042941E-01 0.15690031E+04</pdfrwt>
<totfact> 0.57980368E+00</totfact>
</mgrwt>
</event>
<event>
12    5  0.5428626E-008  0.1568336E+04  0.7818608E-02  0.8840240E-01
         -2   -1    0    0    0  501 -0.00000000000E+00  0.00000000000E+00  0.10246019548E+04  0.10246019548E+04  0.00000000000E+00 0.  1.
          1   -1    0    0  501    0  0.00000000000E+00 -0.00000000000E+00 -0.60015468926E+03  0.60015468926E+03  0.00000000000E+00 0. -1.
        -24    2    1    2    0    0  0.17643026322E+03 -0.43974359839E+03  0.46023157420E+03  0.66537423690E+03  0.80048130135E+02 0.  0.
        254    2    1    2    0    0 -0.17643026322E+03  0.43974359839E+03 -0.35784308703E+02  0.95938240711E+03  0.83344586880E+03 0.  0.
         23    2    4    4    0    0  0.16797425018E+03 -0.15786006722E+03 -0.78947091200E+02  0.26241304100E+03  0.97431059383E+02 0.  0.
         23    2    4    4    0    0 -0.34440451340E+03  0.59760366561E+03  0.43162782497E+02  0.69696936611E+03  0.90325309288E+02 0.  0.
          3    1    3    3  502    0  0.69344273066E+02 -0.14972867364E+03  0.21350577814E+03  0.26983702714E+03  0.00000000000E+00 0. -1.
         -4    1    3    3    0  502  0.10708599015E+03 -0.29001492475E+03  0.24672579606E+03  0.39553720976E+03  0.00000000000E+00 0.  1.
         13    1    5    5    0    0  0.13194517056E+03 -0.12334161122E+03 -0.14909862534E+02  0.18123185452E+03  0.00000000000E+00 0. -1.
        -13    1    5    5    0    0  0.36029079615E+02 -0.34518456001E+02 -0.64037228666E+02  0.81181186477E+02  0.00000000000E+00 0.  1.
          1    1    6    6  503    0 -0.32349280690E+03  0.54495832822E+03  0.15502236666E+02  0.63393019722E+03  0.00000000000E+00 0. -1.
         -1    1    6    6    0  503 -0.20911706498E+02  0.52645337395E+02  0.27660545831E+02  0.63039168886E+02  0.00000000000E+00 0.  1.
<mgrwt>
<rscale>  0 0.15683363E+04</rscale>
<asrwt>0</asrwt>
<pdfrwt beam="1">  1        1 0.92331491E-01 0.15683363E+04</pdfrwt>
<pdfrwt beam="2">  1       -2 0.15763107E+00 0.15683363E+04</pdfrwt>
<totfact> 0.75551289E+00</totfact>
</mgrwt>
</event>
<event>
12    5  0.5428626E-008  0.1205830E+04  0.7818608E-02  0.9107769E-01
          1   -1    0    0  501    0  0.00000000000E+00  0.00000000000E+00  0.12610655439E+03  0.12610655439E+03  0.00000000000E+00 0. -1.
         -2   -1    0    0    0  501 -0.00000000000E+00 -0.00000000000E+00 -0.28825335026E+04  0.28825335026E+04  0.00000000000E+00 0.  1.
        -24    2    1    2    0    0 -0.12353976754E+03  0.34294148744E+02 -0.65559729481E+02  0.16812719498E+03  0.86778527078E+02 0.  0.
        254    2    1    2    0    0  0.12353976754E+03 -0.34294148744E+02 -0.26908672187E+04  0.28405128620E+04  0.90072679966E+03 0.  0.
         23    2    4    4    0    0  0.13842717105E+03 -0.31006219641E+03 -0.24119069939E+04  0.24374741353E+04  0.93188872109E+02 0.  0.
         23    2    4    4    0    0 -0.14887403510E+02  0.27576804766E+03 -0.27896022485E+03  0.40303872670E+03  0.91387949284E+02 0.  0.
          3    1    3    3  502    0 -0.11956132815E+03  0.56275029442E+02 -0.52069761020E+02  0.14203186311E+03  0.00000000000E+00 0. -1.
         -4    1    3    3    0  502 -0.39784393910E+01 -0.21980880698E+02 -0.13489968461E+02  0.26095331869E+02  0.00000000000E+00 0.  1.
         13    1    5    5    0    0  0.14452552600E+03 -0.26176044859E+03 -0.19171246888E+04  0.19403023560E+04  0.00000000000E+00 0. -1.
        -13    1    5    5    0    0 -0.60983549541E+01 -0.48301747822E+02 -0.49478230502E+03  0.49717177931E+03  0.00000000000E+00 0.  1.
          2    1    6    6  503    0 -0.38686001309E+02  0.55022152120E+02 -0.47748763557E+02  0.82486291845E+02  0.00000000000E+00 0. -1.
         -2    1    6    6    0  503  0.23798597799E+02  0.22074589554E+03 -0.23121146129E+03  0.32055243485E+03  0.00000000000E+00 0.  1.
<mgrwt>
<rscale>  0 0.12058298E+04</rscale>
<asrwt>0</asrwt>
<pdfrwt beam="1">  1        1 0.19401007E-01 0.12058298E+04</pdfrwt>
<pdfrwt beam="2">  1       -2 0.44346672E+00 0.12058298E+04</pdfrwt>
<totfact> 0.92007807E-01</totfact>
</mgrwt>
</event>
<event>
12    5  0.5428626E-008  0.1138845E+04  0.7818608E-02  0.9168137E-01
         -2   -1    0    0    0  501 -0.00000000000E+00  0.00000000000E+00  0.16116323444E+04  0.16116323444E+04  0.00000000000E+00 0.  1.
          1   -1    0    0  501    0  0.00000000000E+00 -0.00000000000E+00 -0.20118844843E+03  0.20118844843E+03  0.00000000000E+00 0. -1.
        -24    2    1    2    0    0 -0.72495067828E+02 -0.39517458520E-01  0.56133857441E+03  0.57154378730E+03  0.79408873959E+02 0.  0.
        254    2    1    2    0    0  0.72495067828E+02  0.39517458520E-01  0.84910532159E+03  0.12412770055E+04  0.90251494222E+03 0.  0.
         23    2    4    4    0    0 -0.18061627685E+03 -0.37053639036E+03  0.26523242581E+03  0.49947518461E+03  0.95957096115E+02 0.  0.
         23    2    4    4    0    0  0.25311134468E+03  0.37057590782E+03  0.58387289577E+03  0.74180182093E+03  0.89277807186E+02 0.  0.
          3    1    3    3  502    0  0.10612945826E+02 -0.19309021901E+02  0.10249837195E+03  0.10483982639E+03  0.00000000000E+00 0. -1.
         -4    1    3    3    0  502 -0.83108013654E+02  0.19269504443E+02  0.45884020246E+03  0.46670396091E+03  0.00000000000E+00 0.  1.
         13    1    5    5    0    0  0.34437349453E+01 -0.51612024174E+02  0.13608194506E+02  0.53486851725E+02  0.00000000000E+00 0. -1.
        -13    1    5    5    0    0 -0.18406001180E+03 -0.31892436619E+03  0.25162423131E+03  0.44598833289E+03  0.00000000000E+00 0.  1.
          4    1    6    6  503    0  0.11288117116E+03  0.11615656565E+03  0.15791862214E+03  0.22621405298E+03  0.00000000000E+00 0. -1.
         -4    1    6    6    0  503  0.14023017352E+03  0.25441934217E+03  0.42595427363E+03  0.51558776795E+03  0.00000000000E+00 0.  1.
<mgrwt>
<rscale>  0 0.11388447E+04</rscale>
<asrwt>0</asrwt>
<pdfrwt beam="1">  1        1 0.30952070E-01 0.11388447E+04</pdfrwt>
<pdfrwt beam="2">  1       -2 0.24794343E+00 0.11388447E+04</pdfrwt>
<totfact> 0.84897734E+00</totfact>
</mgrwt>
</event>
<event>
12    5  0.5428626E-008  0.3380660E+04  0.7818608E-02  0.8142669E-01
         -2   -1    0    0    0  501 -0.00000000000E+00  0.00000000000E+00  0.15219793717E+04  0.15219793717E+04  0.00000000000E+00 0.  1.
          1   -1    0    0  501    0  0.00000000000E+00 -0.00000000000E+00 -0.18773027222E+04  0.18773027222E+04  0.00000000000E+00 0. -1.
        -24    2    1    2    0    0  0.97114588744E+03 -0.58137276415E+03 -0.12601597016E+04  0.16957587077E+04  0.80476677614E+02 0.  0.
        254    2    1    2    0    0 -0.97114588744E+03  0.58137276415E+03  0.90483635117E+03  0.17035233862E+04  0.89562518905E+03 0.  0.
         23    2    4    4    0    0 -0.22111249071E+02 -0.16598819832E+03  0.28304450406E+03  0.34100491192E+03  0.90161906322E+02 0.  0.
         23    2    4    4    0    0 -0.94903463837E+03  0.74736096247E+03  0.62179184710E+03  0.13625184743E+04  0.10303561770E+03 0.  0.
          1    1    3    3  502    0  0.55391729407E+03 -0.30571903823E+03 -0.65394017048E+03  0.90990452553E+03  0.00000000000E+00 0. -1.
         -2    1    3    3    0  502  0.41722859337E+03 -0.27565372592E+03 -0.60621953112E+03  0.78585418218E+03  0.00000000000E+00 0.  1.
         13    1    5    5    0    0  0.65407975121E+01  0.99087396682E+01  0.15172774812E+02  0.19265986853E+02  0.00000000000E+00 0.  1.
        -13    1    5    5    0    0 -0.28652046583E+02 -0.17589693799E+03  0.26787172925E+03  0.32173892506E+03  0.00000000000E+00 0. -1.
          3    1    6    6  503    0 -0.69846868974E+03  0.60057300845E+03  0.45135702238E+03  0.10258019354E+04  0.00000000000E+00 0. -1.
         -3    1    6    6    0  503 -0.25056594863E+03  0.14678795402E+03  0.17043482472E+03  0.33671653885E+03  0.00000000000E+00 0.  1.
<mgrwt>
<rscale>  0 0.33806603E+04</rscale>
<asrwt>0</asrwt>
<pdfrwt beam="1">  1        1 0.28881580E+00 0.33806603E+04</pdfrwt>
<pdfrwt beam="2">  1       -2 0.23415067E+00 0.33806603E+04</pdfrwt>
<totfact> 0.21061059E-01</totfact>
</mgrwt>
</event>
<event>
12    5  0.5428626E-008  0.2161364E+04  0.7818608E-02  0.8534684E-01
         -4   -1    0    0    0  501 -0.00000000000E+00  0.00000000000E+00  0.12116537934E+04  0.12116537934E+04  0.00000000000E+00 0.  1.
          3   -1    0    0  501    0  0.00000000000E+00 -0.00000000000E+00 -0.96386709457E+03  0.96386709457E+03  0.00000000000E+00 0. -1.
        -24    2    1    2    0    0  0.45904462709E+03  0.59780008285E+03  0.38296655345E+03  0.84931712353E+03  0.81174420531E+02 0.  0.
        254    2    1    2    0    0 -0.45904462709E+03 -0.59780008285E+03 -0.13517985460E+03  0.13262037644E+04  0.10828000383E+04 0.  0.
         23    2    4    4    0    0 -0.12768876218E+03 -0.60018237153E+03 -0.52176702730E+03  0.81026018469E+03  0.88076313723E+02 0.  0.
         23    2    4    4    0    0 -0.33135586491E+03  0.23822886803E+01  0.38658717269E+03  0.51594357975E+03  0.83341171616E+02 0.  0.
          1    1    3    3  502    0  0.26928455970E+02  0.65602325518E+02  0.20302656358E+02  0.73763166347E+02  0.00000000000E+00 0. -1.
         -2    1    3    3    0  502  0.43211617112E+03  0.53219775733E+03  0.36266389709E+03  0.77555395718E+03  0.00000000000E+00 0.  1.
         13    1    5    5    0    0 -0.16627945965E+02 -0.23380103472E+03 -0.16222327446E+03  0.28505403558E+03  0.00000000000E+00 0.  1.
        -13    1    5    5    0    0 -0.11106081622E+03 -0.36638133681E+03 -0.35954375284E+03  0.52520614911E+03  0.00000000000E+00 0. -1.
          3    1    6    6  503    0 -0.21515763868E+03  0.88740531025E+01  0.30683887175E+03  0.37486217669E+03  0.00000000000E+00 0. -1.
         -3    1    6    6    0  503 -0.11619822623E+03 -0.64917644223E+01  0.79748300943E+02  0.14108140306E+03  0.00000000000E+00 0.  1.
<mgrwt>
<rscale>  0 0.21613637E+04</rscale>
<asrwt>0</asrwt>
<pdfrwt beam="1">  1        3 0.14828725E+00 0.21613637E+04</pdfrwt>
<pdfrwt beam="2">  1       -4 0.18640828E+00 0.21613637E+04</pdfrwt>
<totfact> 0.11335339E-01</totfact>
</mgrwt>
</event>
<event>
12    5  0.5428626E-008  0.2398438E+04  0.7818608E-02  0.8440089E-01
         -2   -1    0    0    0  501 -0.00000000000E+00  0.00000000000E+00  0.58988199825E+03  0.58988199825E+03  0.00000000000E+00 0.  1.
          1   -1    0    0  501    0  0.00000000000E+00 -0.00000000000E+00 -0.24379899714E+04  0.24379899714E+04  0.00000000000E+00 0. -1.
        -24    2    1    2    0    0 -0.70214772634E+03  0.74596247687E+03 -0.64428235422E+03  0.12128171843E+04  0.79714013523E+02 0.  0.
        254    2    1    2    0    0  0.70214772634E+03 -0.74596247687E+03 -0.12038256189E+04  0.18150547854E+04  0.89205173988E+03 0.  0.
         23    2    4    4    0    0  0.48187740143E+03 -0.79871439730E+03 -0.48247581271E+03  0.10540156238E+04  0.89529362940E+02 0.  0.
         23    2    4    4    0    0  0.22027032491E+03  0.52751920428E+02 -0.72134980618E+03  0.76103916158E+03  0.86794478170E+02 0.  0.
          3    1    3    3  502    0 -0.27608533594E+03  0.24563807059E+03 -0.25552743200E+03  0.44928325469E+03  0.00000000000E+00 0. -1.
         -4    1    3    3    0  502 -0.42606239040E+03  0.50032440629E+03 -0.38875492222E+03  0.76353392956E+03  0.00000000000E+00 0.  1.
         13    1    5    5    0    0  0.69443980119E+02 -0.82944800731E+02 -0.83318742601E+02  0.13654420241E+03  0.00000000000E+00 0. -1.
        -13    1    5    5    0    0  0.41243342131E+03 -0.71576959657E+03 -0.39915707011E+03  0.91747142136E+03  0.00000000000E+00 0.  1.
          1    1    6    6  503    0  0.13168267699E+03  0.36474344058E+02 -0.55816847371E+03  0.57465011114E+03  0.00000000000E+00 0.  1.
         -1    1    6    6    0  503  0.88587647921E+02  0.16277576369E+02 -0.16318133247E+03  0.18638905044E+03  0.00000000000E+00 0. -1.
<mgrwt>
<rscale>  0 0.23984382E+04</rscale>
<asrwt>0</asrwt>
<pdfrwt beam="1">  1        1 0.37507538E+00 0.23984382E+04</pdfrwt>
<pdfrwt beam="2">  1       -2 0.90751076E-01 0.23984382E+04</pdfrwt>
<totfact> 0.12212305E+00</totfact>
</mgrwt>
</event>
<event>
12    5  0.5428626E-008  0.1905937E+04  0.7818608E-02  0.8651907E-01
         -2   -1    0    0    0  501 -0.00000000000E+00  0.00000000000E+00  0.77706764156E+03  0.77706764156E+03  0.00000000000E+00 0.  1.
          1   -1    0    0  501    0  0.00000000000E+00 -0.00000000000E+00 -0.11686876627E+04  0.11686876627E+04  0.00000000000E+00 0. -1.
        -24    2    1    2    0    0 -0.54162732623E+02 -0.49802336176E+02  0.59807434593E+03  0.60762239746E+03  0.78090846702E+02 0.  0.
        254    2    1    2    0    0  0.54162732623E+02  0.49802336176E+02 -0.98969436707E+03  0.13381329068E+04  0.89760284188E+03 0.  0.
         23    2    4    4    0    0 -0.30977794427E+03 -0.25442412452E+03 -0.54145378160E+03  0.67898226251E+03  0.84561843010E+02 0.  0.
         23    2    4    4    0    0  0.36394067690E+03  0.30422646069E+03 -0.44824058547E+03  0.65915064429E+03  0.92484559364E+02 0.  0.
          1    1    3    3  502    0 -0.14608712504E+01 -0.13949928742E+02  0.13121555017E+02  0.19207026391E+02  0.00000000000E+00 0. -1.
         -2    1    3    3    0  502 -0.52701861372E+02 -0.35852407435E+02  0.58495279091E+03  0.58841537107E+03  0.00000000000E+00 0.  1.
         13    1    5    5    0    0 -0.71686823634E+02 -0.10649458447E+03 -0.14845933324E+03  0.19626581677E+03  0.00000000000E+00 0. -1.
        -13    1    5    5    0    0 -0.23809112064E+03 -0.14792954004E+03 -0.39299444836E+03  0.48271644574E+03  0.00000000000E+00 0.  1.
          1    1    6    6  503    0  0.23173798327E+03  0.23860509247E+03 -0.34363886282E+03  0.47824946532E+03  0.00000000000E+00 0. -1.
         -1    1    6    6    0  503  0.13220269363E+03  0.65621368224E+02 -0.10460172264E+03  0.18090117896E+03  0.00000000000E+00 0.  1.
<mgrwt>
<rscale>  0 0.19059374E+04</rscale>
<asrwt>0</asrwt>
<pdfrwt beam="1">  1        1 0.17979810E+00 0.19059374E+04</pdfrwt>
<pdfrwt beam="2">  1       -2 0.11954887E+00 0.19059374E+04</pdfrwt>
<totfact> 0.49535924E+00</totfact>
</mgrwt>
</event>
<event>
12    5  0.5428626E-008  0.1521766E+04  0.7818608E-02  0.8870106E-01
          1   -1    0    0  501    0  0.00000000000E+00  0.00000000000E+00  0.71904409072E+03  0.71904409072E+03  0.00000000000E+00 0. -1.
         -2   -1    0    0    0  501 -0.00000000000E+00 -0.00000000000E+00 -0.80515671487E+03  0.80515671487E+03  0.00000000000E+00 0.  1.
        -24    2    1    2    0    0 -0.43097928591E+03  0.10916390786E+03  0.16668609459E+03  0.48138500624E+03  0.79292915431E+02 0.  0.
        254    2    1    2    0    0  0.43097928591E+03 -0.10916390786E+03 -0.25279871874E+03  0.10428157993E+04  0.90878913699E+03 0.  0.
         23    2    4    4    0    0  0.40162565308E+03  0.20951572848E+03  0.18072729566E+03  0.49620872073E+03  0.91437046331E+02 0.  0.
         23    2    4    4    0    0  0.29353632832E+02 -0.31867963633E+03 -0.43352601440E+03  0.54660707862E+03  0.91739559950E+02 0.  0.
          3    1    3    3  502    0 -0.15263982567E+03  0.62961889019E+02  0.94110557902E+02  0.19005239530E+03  0.00000000000E+00 0. -1.
         -4    1    3    3    0  502 -0.27833946024E+03  0.46202018836E+02  0.72575536688E+02  0.29133261094E+03  0.00000000000E+00 0.  1.
         13    1    5    5    0    0  0.84763139720E+01  0.71837531305E+01 -0.97353872157E+01  0.14772676529E+02  0.00000000000E+00 0. -1.
        -13    1    5    5    0    0  0.39314933911E+03  0.20233197535E+03  0.19046268287E+03  0.48143604420E+03  0.00000000000E+00 0.  1.
          4    1    6    6  503    0 -0.15753368925E+02 -0.27646957439E+02 -0.15870444366E+02  0.35558316784E+02  0.00000000000E+00 0. -1.
         -4    1    6    6    0  503  0.45107001757E+02 -0.29103267890E+03 -0.41765557003E+03  0.51104876183E+03  0.00000000000E+00 0.  1.
<mgrwt>
<rscale>  0 0.15217663E+04</rscale>
<asrwt>0</asrwt>
<pdfrwt beam="1">  1        1 0.11062217E+00 0.15217663E+04</pdfrwt>
<pdfrwt beam="2">  1       -2 0.12387026E+00 0.15217663E+04</pdfrwt>
<totfact> 0.10843062E+01</totfact>
</mgrwt>
</event>
<event>
12    5  0.5428626E-008  0.1409752E+04  0.7818608E-02  0.8946790E-01
          1   -1    0    0  501    0  0.00000000000E+00  0.00000000000E+00  0.64593172541E+03  0.64593172541E+03  0.00000000000E+00 0. -1.
         -2   -1    0    0    0  501 -0.00000000000E+00 -0.00000000000E+00 -0.76919886572E+03  0.76919886572E+03  0.00000000000E+00 0.  1.
        -24    2    1    2    0    0 -0.29347550128E+03  0.12976488577E+03  0.23020261256E+03  0.40288234551E+03  0.79712897754E+02 0.  0.
        254    2    1    2    0    0  0.29347550128E+03 -0.12976488577E+03 -0.35346975287E+03  0.10122482456E+04  0.89260229057E+03 0.  0.
         23    2    4    4    0    0 -0.27986922148E+03 -0.15260231116E+03 -0.26347248062E+03  0.42431958917E+03  0.94947981574E+02 0.  0.
         23    2    4    4    0    0  0.57334472275E+03  0.22837425385E+02 -0.89997272250E+02  0.58792865645E+03  0.91185947129E+02 0.  0.
          1    1    3    3  502    0 -0.26403769803E+03  0.98095315574E+02  0.17080223358E+03  0.32941159651E+03  0.00000000000E+00 0. -1.
         -2    1    3    3    0  502 -0.29437803248E+02  0.31669570196E+02  0.59400378979E+02  0.73470749005E+02  0.00000000000E+00 0.  1.
         13    1    5    5    0    0 -0.24658046507E+03 -0.13663710694E+03 -0.18386538063E+03  0.33656812526E+03  0.00000000000E+00 0. -1.
        -13    1    5    5    0    0 -0.33288756408E+02 -0.15965204213E+02 -0.79607099987E+02  0.87751463903E+02  0.00000000000E+00 0.  1.
          2    1    6    6  503    0  0.34699255951E+03  0.28181334591E+02 -0.11611692393E+02  0.34832865999E+03  0.00000000000E+00 0. -1.
         -2    1    6    6    0  503  0.22635216325E+03 -0.53439092063E+01 -0.78385579856E+02  0.23959999645E+03  0.00000000000E+00 0.  1.
<mgrwt>
<rscale>  0 0.14097517E+04</rscale>
<asrwt>0</asrwt>
<pdfrwt beam="1">  1        1 0.99374112E-01 0.14097517E+04</pdfrwt>
<pdfrwt beam="2">  1       -2 0.11833829E+00 0.14097517E+04</pdfrwt>
<totfact> 0.14409308E+01</totfact>
</mgrwt>
</event>
<event>
12    5  0.5428626E-008  0.1511783E+04  0.7818608E-02  0.8876655E-01
          1   -1    0    0  501    0  0.00000000000E+00  0.00000000000E+00  0.48646886659E+03  0.48646886659E+03  0.00000000000E+00 0. -1.
         -2   -1    0    0    0  501 -0.00000000000E+00 -0.00000000000E+00 -0.11745291004E+04  0.11745291004E+04  0.00000000000E+00 0.  1.
        -24    2    1    2    0    0 -0.90271036520E+02  0.16949140900E+03 -0.70409746881E+03  0.73423492603E+03  0.80445529722E+02 0.  0.
        254    2    1    2    0    0  0.90271036520E+02 -0.16949140900E+03  0.16037234999E+02  0.92676304096E+03  0.90650777350E+03 0.  0.
         23    2    4    4    0    0  0.23222354146E+03  0.28506746918E+03 -0.15937608897E+03  0.41093748819E+03  0.90981571040E+02 0.  0.
         23    2    4    4    0    0 -0.14195250494E+03 -0.45455887819E+03  0.17541332397E+03  0.51582555277E+03  0.92368172390E+02 0.  0.
          1    1    3    3  502    0 -0.60758992084E+02  0.34193527413E+02 -0.23423300049E+03  0.24438893378E+03  0.00000000000E+00 0. -1.
         -2    1    3    3    0  502 -0.29512044436E+02  0.13529788159E+03 -0.46986446832E+03  0.48984599225E+03  0.00000000000E+00 0.  1.
         13    1    5    5    0    0  0.12038219791E+03  0.90090122010E+02 -0.92030128093E+02  0.17628853660E+03  0.00000000000E+00 0.  1.
        -13    1    5    5    0    0  0.11184134354E+03  0.19497734717E+03 -0.67345960874E+02  0.23464895159E+03  0.00000000000E+00 0. -1.
          3    1    6    6  503    0 -0.19718777790E+02 -0.20734581902E+03  0.58966266843E+02  0.21646740976E+03  0.00000000000E+00 0. -1.
         -3    1    6    6    0  503 -0.12223372715E+03 -0.24721305917E+03  0.11644705712E+03  0.29935814301E+03  0.00000000000E+00 0.  1.
<mgrwt>
<rscale>  0 0.15117828E+04</rscale>
<asrwt>0</asrwt>
<pdfrwt beam="1">  1        1 0.74841365E-01 0.15117828E+04</pdfrwt>
<pdfrwt beam="2">  1       -2 0.18069678E+00 0.15117828E+04</pdfrwt>
<totfact> 0.69698419E+00</totfact>
</mgrwt>
</event>
<event>
12    5  0.5428626E-008  0.2033992E+04  0.7818608E-02  0.8590891E-01
         -2   -1    0    0    0  501 -0.00000000000E+00  0.00000000000E+00  0.10705251350E+04  0.10705251350E+04  0.00000000000E+00 0.  1.
          1   -1    0    0  501    0  0.00000000000E+00 -0.00000000000E+00 -0.96614364959E+03  0.96614364959E+03  0.00000000000E+00 0. -1.
        -24    2    1    2    0    0 -0.27015902170E+03  0.70550757788E+03  0.34443538424E+03  0.83411686280E+03  0.79927263422E+02 0.  0.
        254    2    1    2    0    0  0.27015902170E+03 -0.70550757788E+03 -0.24005389880E+03  0.12025519218E+04  0.90431101448E+03 0.  0.
         23    2    4    4    0    0  0.25635666508E+03  0.34811384496E+02  0.19823269341E+03  0.33737735133E+03  0.87159074299E+02 0.  0.
         23    2    4    4    0    0  0.13802356621E+02 -0.74031896238E+03 -0.43828659221E+03  0.86517457050E+03  0.90383789571E+02 0.  0.
          1    1    3    3  502    0 -0.21238325517E+03  0.49095137815E+03  0.21168577845E+03  0.57528320989E+03  0.00000000000E+00 0. -1.
         -2    1    3    3    0  502 -0.57775766527E+02  0.21455619973E+03  0.13274960579E+03  0.25883365291E+03  0.00000000000E+00 0.  1.
         13    1    5    5    0    0  0.18193855129E+03  0.57360898590E+02  0.11179724111E+03  0.22111203552E+03  0.00000000000E+00 0. -1.
        -13    1    5    5    0    0  0.74418113793E+02 -0.22549514093E+02  0.86435452303E+02  0.11626531581E+03  0.00000000000E+00 0.  1.
          4    1    6    6  503    0  0.67956105177E+01 -0.33662067137E+03 -0.14738513259E+03  0.36753507863E+03  0.00000000000E+00 0. -1.
         -4    1    6    6    0  503  0.70067461029E+01 -0.40369829100E+03 -0.29090145962E+03  0.49763949186E+03  0.00000000000E+00 0.  1.
<mgrwt>
<rscale>  0 0.20339922E+04</rscale>
<asrwt>0</asrwt>
<pdfrwt beam="1">  1        1 0.14863749E+00 0.20339922E+04</pdfrwt>
<pdfrwt beam="2">  1       -2 0.16469617E+00 0.20339922E+04</pdfrwt>
<totfact> 0.30352552E+00</totfact>
</mgrwt>
</event>
<event>
12    5  0.5428626E-008  0.2818503E+04  0.7818608E-02  0.8297547E-01
          1   -1    0    0  501    0  0.00000000000E+00  0.00000000000E+00  0.18294411994E+04  0.18294411994E+04  0.00000000000E+00 0. -1.
         -2   -1    0    0    0  501 -0.00000000000E+00 -0.00000000000E+00 -0.10855715684E+04  0.10855715684E+04  0.00000000000E+00 0.  1.
        -24    2    1    2    0    0  0.21718483248E+03  0.43892589018E+03  0.15407025023E+04  0.16185835480E+04  0.78887976248E+02 0.  0.
        254    2    1    2    0    0 -0.21718483248E+03 -0.43892589018E+03 -0.79683287133E+03  0.12964292197E+04  0.89775325588E+03 0.  0.
         23    2    4    4    0    0  0.29279051633E+03  0.12893476744E+02 -0.39527233092E+03  0.50025722395E+03  0.90136265357E+02 0.  0.
         23    2    4    4    0    0 -0.50997534881E+03 -0.45181936693E+03 -0.40156054042E+03  0.79617199580E+03  0.91778987551E+02 0.  0.
          3    1    3    3  502    0  0.20666312694E+03  0.40143110173E+03  0.14710898117E+04  0.15388183166E+04  0.00000000000E+00 0. -1.
         -4    1    3    3    0  502  0.10521705540E+02  0.37494788456E+02  0.69612690650E+02  0.79765231450E+02  0.00000000000E+00 0.  1.
         13    1    5    5    0    0  0.22869134728E+03 -0.27219581880E+02 -0.31170625164E+03  0.38755828629E+03  0.00000000000E+00 0.  1.
        -13    1    5    5    0    0  0.64099169043E+02  0.40113058624E+02 -0.83566079275E+02  0.11269893766E+03  0.00000000000E+00 0. -1.
          3    1    6    6  503    0 -0.62919121420E+02 -0.89251183520E+02 -0.90938520285E+02  0.14210701626E+03  0.00000000000E+00 0. -1.
         -3    1    6    6    0  503 -0.44705622739E+03 -0.36256818341E+03 -0.31062202013E+03  0.65406497954E+03  0.00000000000E+00 0.  1.
<mgrwt>
<rscale>  0 0.28185027E+04</rscale>
<asrwt>0</asrwt>
<pdfrwt beam="1">  1        1 0.28145249E+00 0.28185027E+04</pdfrwt>
<pdfrwt beam="2">  1       -2 0.16701101E+00 0.28185027E+04</pdfrwt>
<totfact> 0.66169623E-01</totfact>
</mgrwt>
</event>
<event>
12    5  0.5428626E-008  0.2544133E+04  0.7818608E-02  0.8387430E-01
          1   -1    0    0  501    0  0.00000000000E+00  0.00000000000E+00  0.28058397038E+04  0.28058397038E+04  0.00000000000E+00 0. -1.
         -2   -1    0    0    0  501 -0.00000000000E+00 -0.00000000000E+00 -0.57670896074E+03  0.57670896074E+03  0.00000000000E+00 0.  1.
        -24    2    1    2    0    0  0.12731614783E+03 -0.21880223194E+03 -0.46355528967E+03  0.53425647049E+03  0.80390618097E+02 0.  0.
        254    2    1    2    0    0 -0.12731614783E+03  0.21880223194E+03  0.26926860327E+04  0.28482921940E+04  0.89337927754E+03 0.  0.
         23    2    4    4    0    0 -0.33825301058E+03 -0.21374984059E+03  0.88680948435E+03  0.97717004593E+03  0.91247704713E+02 0.  0.
         23    2    4    4    0    0  0.21093686275E+03  0.43255207253E+03  0.18058765484E+04  0.18711221481E+04  0.91171978273E+02 0.  0.
          1    1    3    3  502    0  0.18617934594E+02 -0.55832511850E+01 -0.78623104628E+02  0.80990078181E+02  0.00000000000E+00 0. -1.
         -2    1    3    3    0  502  0.10869821324E+03 -0.21321898076E+03 -0.38493218504E+03  0.45326639231E+03  0.00000000000E+00 0.  1.
         13    1    5    5    0    0 -0.31100914240E+03 -0.17904430334E+03  0.83665293809E+03  0.91036898455E+03  0.00000000000E+00 0.  1.
        -13    1    5    5    0    0 -0.27243868176E+02 -0.34705537250E+02  0.50156546263E+02  0.66801061384E+02  0.00000000000E+00 0. -1.
          4    1    6    6  503    0  0.18835533396E+02  0.10023861571E+03  0.48476998922E+03  0.49538318487E+03  0.00000000000E+00 0. -1.
         -4    1    6    6    0  503  0.19210132935E+03  0.33231345682E+03  0.13211065592E+04  0.13757389632E+04  0.00000000000E+00 0.  1.
<mgrwt>
<rscale>  0 0.25441328E+04</rscale>
<asrwt>0</asrwt>
<pdfrwt beam="1">  1        1 0.43166764E+00 0.25441328E+04</pdfrwt>
<pdfrwt beam="2">  1       -2 0.88724457E-01 0.25441328E+04</pdfrwt>
<totfact> 0.70142275E-01</totfact>
</mgrwt>
</event>
<event>
12    5  0.5428626E-008  0.1828002E+04  0.7818608E-02  0.8691549E-01
          1   -1    0    0  501    0  0.00000000000E+00  0.00000000000E+00  0.32146701796E+04  0.32146701796E+04  0.00000000000E+00 0. -1.
         -2   -1    0    0    0  501 -0.00000000000E+00 -0.00000000000E+00 -0.25987038591E+03  0.25987038591E+03  0.00000000000E+00 0.  1.
        -24    2    1    2    0    0  0.47431868777E+03  0.34992946927E+03  0.18265023119E+04  0.19210336819E+04  0.82649019875E+02 0.  0.
        254    2    1    2    0    0 -0.47431868777E+03 -0.34992946927E+03  0.11282974817E+04  0.15535068836E+04  0.89044908839E+03 0.  0.
         23    2    4    4    0    0 -0.52492147470E+03 -0.59595697349E+03  0.87469173584E+03  0.11849841101E+04  0.91621174258E+02 0.  0.
         23    2    4    4    0    0  0.50602786933E+02  0.24602750423E+03  0.25360574590E+03  0.36852277349E+03  0.91667798841E+02 0.  0.
          3    1    3    3  502    0  0.31498315097E+03  0.23989433929E+03  0.13446195124E+04  0.14017008642E+04  0.00000000000E+00 0. -1.
         -2    1    3    3    0  502  0.15933553679E+03  0.11003512998E+03  0.48188279952E+03  0.51933281774E+03  0.00000000000E+00 0.  1.
         13    1    5    5    0    0 -0.46543113459E+03 -0.54223180489E+03  0.82136849725E+03  0.10887091804E+04  0.00000000000E+00 0. -1.
        -13    1    5    5    0    0 -0.59490340105E+02 -0.53725168603E+02  0.53323238583E+02  0.96274929655E+02  0.00000000000E+00 0.  1.
          1    1    6    6  503    0 -0.42811582577E+01  0.17748903233E+03  0.14765485982E+03  0.23091696027E+03  0.00000000000E+00 0. -1.
         -1    1    6    6    0  503  0.54883945190E+02  0.68538471899E+02  0.10595088608E+03  0.13760581321E+03  0.00000000000E+00 0.  1.
<mgrwt>
<rscale>  0 0.18280017E+04</rscale>
<asrwt>0</asrwt>
<pdfrwt beam="1">  1        1 0.49456461E+00 0.18280017E+04</pdfrwt>
<pdfrwt beam="2">  1       -2 0.39980062E-01 0.18280017E+04</pdfrwt>
<totfact> 0.20371379E+00</totfact>
</mgrwt>
</event>
<event>
12    5  0.5428626E-008  0.1827893E+04  0.7818608E-02  0.8691606E-01
         -2   -1    0    0    0  501 -0.00000000000E+00  0.00000000000E+00  0.81851512656E+03  0.81851512656E+03  0.00000000000E+00 0.  1.
          1   -1    0    0  501    0  0.00000000000E+00 -0.00000000000E+00 -0.10205038476E+04  0.10205038476E+04  0.00000000000E+00 0. -1.
        -24    2    1    2    0    0 -0.58786962044E+03  0.12112990321E+03 -0.53072221216E+03  0.80567489995E+03  0.84751600782E+02 0.  0.
        254    2    1    2    0    0  0.58786962044E+03 -0.12112990321E+03  0.32873349109E+03  0.10333440742E+04  0.77425520568E+03 0.  0.
         23    2    4    4    0    0  0.32368252396E+03  0.29877835396E+00 -0.22326678758E+03  0.40284197543E+03  0.87539323406E+02 0.  0.
         23    2    4    4    0    0  0.26418709648E+03 -0.12142868157E+03  0.55200027867E+03  0.63050209882E+03  0.91043079435E+02 0.  0.
          3    1    3    3  502    0 -0.58243839299E+03  0.11208516238E+03 -0.52943498009E+03  0.79504651650E+03  0.00000000000E+00 0. -1.
         -4    1    3    3    0  502 -0.54312274558E+01  0.90447408315E+01 -0.12872320698E+01  0.10628383451E+02  0.00000000000E+00 0.  1.
         13    1    5    5    0    0  0.11159386786E+02 -0.18585875620E+02 -0.91217278276E+01  0.23519621692E+02  0.00000000000E+00 0.  1.
        -13    1    5    5    0    0  0.31252313718E+03  0.18884653974E+02 -0.21414505975E+03  0.37932235373E+03  0.00000000000E+00 0. -1.
          3    1    6    6  503    0  0.26506915304E+03 -0.12394506042E+03  0.55441987661E+03  0.62690145436E+03  0.00000000000E+00 0. -1.
         -3    1    6    6    0  503 -0.88205656001E+00  0.25163788544E+01 -0.24195979441E+01  0.36006444597E+01  0.00000000000E+00 0.  1.
<mgrwt>
<rscale>  0 0.18278926E+04</rscale>
<asrwt>0</asrwt>
<pdfrwt beam="1">  1        1 0.15700059E+00 0.18278926E+04</pdfrwt>
<pdfrwt beam="2">  1       -2 0.12592540E+00 0.18278926E+04</pdfrwt>
<totfact> 0.56648859E+00</totfact>
</mgrwt>
</event>
<event>
12    5  0.5428626E-008  0.2182021E+04  0.7818608E-02  0.8525949E-01
          3   -1    0    0  501    0  0.00000000000E+00  0.00000000000E+00  0.79174613496E+03  0.79174613496E+03  0.00000000000E+00 0. -1.
         -4   -1    0    0    0  501 -0.00000000000E+00 -0.00000000000E+00 -0.15033906769E+04  0.15033906769E+04  0.00000000000E+00 0.  1.
        -24    2    1    2    0    0  0.19068900074E+03 -0.28282493167E+03 -0.11761327215E+04  0.12272143256E+04  0.80091106052E+02 0.  0.
        254    2    1    2    0    0 -0.19068900074E+03  0.28282493167E+03  0.46448817955E+03  0.10679224863E+04  0.89908672044E+03 0.  0.
         23    2    4    4    0    0  0.19036234968E+03  0.39123902381E+03 -0.76663951330E+01  0.44486431493E+03  0.92410427771E+02 0.  0.
         23    2    4    4    0    0 -0.38105135042E+03 -0.10841409214E+03  0.47215457469E+03  0.62305817139E+03  0.91201949061E+02 0.  0.
          3    1    3    3  502    0  0.71479515918E+01  0.38316827464E+01 -0.13207145351E+02  0.15498506152E+02  0.00000000000E+00 0. -1.
         -2    1    3    3    0  502  0.18354104915E+03 -0.28665661442E+03 -0.11629255762E+04  0.12117158194E+04  0.00000000000E+00 0.  1.
         13    1    5    5    0    0  0.16208976093E+03  0.38162790054E+03 -0.11331484811E+02  0.41477867305E+03  0.00000000000E+00 0. -1.
        -13    1    5    5    0    0  0.28272588752E+02  0.96111232676E+01  0.36650896781E+01  0.30085641884E+02  0.00000000000E+00 0.  1.
          2    1    6    6  503    0 -0.38380685460E+03 -0.11319311215E+03  0.46964337425E+03  0.61699698642E+03  0.00000000000E+00 0. -1.
         -2    1    6    6    0  503  0.27555041815E+01  0.47790200183E+01  0.25112004400E+01  0.60611849732E+01  0.00000000000E+00 0.  1.
<mgrwt>
<rscale>  0 0.21820209E+04</rscale>
<asrwt>0</asrwt>
<pdfrwt beam="1">  1        3 0.12180710E+00 0.21820209E+04</pdfrwt>
<pdfrwt beam="2">  1       -4 0.23129087E+00 0.21820209E+04</pdfrwt>
<totfact> 0.94368866E-02</totfact>
</mgrwt>
</event>
<event>
12    5  0.5428626E-008  0.1945128E+04  0.7818608E-02  0.8632714E-01
         -2   -1    0    0    0  501 -0.00000000000E+00  0.00000000000E+00  0.53341819220E+03  0.53341819220E+03  0.00000000000E+00 0.  1.
          1   -1    0    0  501    0  0.00000000000E+00 -0.00000000000E+00 -0.17732439411E+04  0.17732439411E+04  0.00000000000E+00 0. -1.
        -24    2    1    2    0    0 -0.24361485111E+02 -0.36255679857E+03 -0.12780797437E+04  0.13313706154E+04  0.83779294387E+02 0.  0.
        254    2    1    2    0    0  0.24361485111E+02  0.36255679857E+03  0.38253994817E+02  0.97529151787E+03  0.90426172238E+03 0.  0.
         23    2    4    4    0    0 -0.29203685173E+03  0.50003879505E+03 -0.95680848893E+02  0.59386086338E+03  0.90507352636E+02 0.  0.
         23    2    4    4    0    0  0.31639833684E+03 -0.13748199648E+03  0.13393484371E+03  0.38143065449E+03  0.92420749358E+02 0.  0.
          1    1    3    3  502    0 -0.51086921031E+02 -0.29795952445E+03 -0.10048451553E+04  0.10493348073E+04  0.00000000000E+00 0. -1.
         -2    1    3    3    0  502  0.26725435920E+02 -0.64597274126E+02 -0.27323458842E+03  0.28203580812E+03  0.00000000000E+00 0.  1.
         13    1    5    5    0    0 -0.21283036205E+03  0.42760380593E+03 -0.92273619266E+02  0.48647322502E+03  0.00000000000E+00 0. -1.
        -13    1    5    5    0    0 -0.79206489686E+02  0.72434989127E+02 -0.34072296264E+01  0.10738763836E+03  0.00000000000E+00 0.  1.
          2    1    6    6  503    0  0.20241246364E+03 -0.11959541872E+03  0.54465534193E+02  0.24133040428E+03  0.00000000000E+00 0. -1.
         -2    1    6    6    0  503  0.11398587320E+03 -0.17886577765E+02  0.79469309517E+02  0.14010025021E+03  0.00000000000E+00 0.  1.
<mgrwt>
<rscale>  0 0.19451278E+04</rscale>
<asrwt>0</asrwt>
<pdfrwt beam="1">  1        1 0.27280676E+00 0.19451278E+04</pdfrwt>
<pdfrwt beam="2">  1       -2 0.82064337E-01 0.19451278E+04</pdfrwt>
<totfact> 0.45367932E+00</totfact>
</mgrwt>
</event>
<event>
12    5  0.5428626E-008  0.1657011E+04  0.7818608E-02  0.8786269E-01
         -4   -1    0    0    0  501 -0.00000000000E+00  0.00000000000E+00  0.19493354456E+03  0.19493354456E+03  0.00000000000E+00 0.  1.
          1   -1    0    0  501    0  0.00000000000E+00 -0.00000000000E+00 -0.35213110315E+04  0.35213110315E+04  0.00000000000E+00 0. -1.
        -24    2    1    2    0    0  0.19268098369E+03  0.37540110408E+02 -0.24139522186E+04  0.24232387968E+04  0.79910769521E+02 0.  0.
        254    2    1    2    0    0 -0.19268098369E+03 -0.37540110408E+02 -0.91242526832E+03  0.12930057793E+04  0.89487923967E+03 0.  0.
         23    2    4    4    0    0  0.19076045862E+03 -0.21386811636E+03 -0.78643332188E+03  0.84197964641E+03  0.91231745840E+02 0.  0.
         23    2    4    4    0    0 -0.38344144231E+03  0.17632800595E+03 -0.12599194645E+03  0.45102613286E+03  0.97116922277E+02 0.  0.
          1    1    3    3  502    0  0.14397824848E+03  0.62803334888E+02 -0.17921236302E+04  0.17989944693E+04  0.00000000000E+00 0. -1.
         -2    1    3    3    0  502  0.48702735215E+02 -0.25263224480E+02 -0.62182858846E+03  0.62424432745E+03  0.00000000000E+00 0.  1.
         13    1    5    5    0    0  0.59048460078E+02 -0.38330107648E+02 -0.10785762353E+03  0.12879900910E+03  0.00000000000E+00 0. -1.
        -13    1    5    5    0    0  0.13171199854E+03 -0.17553800871E+03 -0.67857569834E+03  0.71318063732E+03  0.00000000000E+00 0.  1.
          2    1    6    6  503    0 -0.38082583377E+03  0.18344585803E+03 -0.11572316323E+03  0.43826082303E+03  0.00000000000E+00 0.  1.
         -2    1    6    6    0  503 -0.26156085374E+01 -0.71178520835E+01 -0.10268783215E+02  0.12765309829E+02  0.00000000000E+00 0. -1.
<mgrwt>
<rscale>  0 0.16570113E+04</rscale>
<asrwt>0</asrwt>
<pdfrwt beam="1">  1        1 0.54174015E+00 0.16570113E+04</pdfrwt>
<pdfrwt beam="2">  1       -4 0.29989777E-01 0.16570113E+04</pdfrwt>
<totfact> 0.12502078E+00</totfact>
</mgrwt>
</event>
<event>
12    5  0.5428626E-008  0.2010773E+04  0.7818608E-02  0.8601601E-01
          1   -1    0    0  501    0  0.00000000000E+00  0.00000000000E+00  0.12017328940E+04  0.12017328940E+04  0.00000000000E+00 0. -1.
         -2   -1    0    0    0  501 -0.00000000000E+00 -0.00000000000E+00 -0.84112015515E+03  0.84112015515E+03  0.00000000000E+00 0.  1.
        -24    2    1    2    0    0  0.74605682157E+02  0.75795318871E+03  0.40889196508E+03  0.86814918623E+03  0.80195550707E+02 0.  0.
        254    2    1    2    0    0 -0.74605682157E+02 -0.75795318871E+03 -0.48279226228E+02  0.11747038629E+04  0.89305052366E+03 0.  0.
         23    2    4    4    0    0  0.18867191021E+02  0.97811405764E+02 -0.25095246782E+03  0.28562786160E+03  0.93183111260E+02 0.  0.
         23    2    4    4    0    0 -0.93472873178E+02 -0.85576459447E+03  0.20267324160E+03  0.88907600132E+03  0.91156316810E+02 0.  0.
          3    1    3    3  502    0  0.71448070360E+02  0.75789555111E+03  0.41018984362E+03  0.86473475757E+03  0.00000000000E+00 0. -1.
         -4    1    3    3    0  502  0.31576117965E+01  0.57637604145E-01 -0.12978785368E+01  0.34144286560E+01  0.00000000000E+00 0.  1.
         13    1    5    5    0    0  0.37162721014E+02  0.87568559135E+02 -0.12061257360E+03  0.15361221726E+03  0.00000000000E+00 0.  1.
        -13    1    5    5    0    0 -0.18295529993E+02  0.10242846629E+02 -0.13033989422E+03  0.13201564434E+03  0.00000000000E+00 0. -1.
          1    1    6    6  503    0 -0.31788655902E+02 -0.65826248349E+02  0.22791130068E+02  0.76570550641E+02  0.00000000000E+00 0. -1.
         -1    1    6    6    0  503 -0.61684217276E+02 -0.78993834613E+03  0.17988211153E+03  0.81250545068E+03  0.00000000000E+00 0.  1.
<mgrwt>
<rscale>  0 0.20107727E+04</rscale>
<asrwt>0</asrwt>
<pdfrwt beam="1">  1        1 0.18488198E+00 0.20107727E+04</pdfrwt>
<pdfrwt beam="2">  1       -2 0.12940310E+00 0.20107727E+04</pdfrwt>
<totfact> 0.38060336E+00</totfact>
</mgrwt>
</event>
<event>
12    5  0.5428626E-008  0.1343716E+04  0.7818608E-02  0.8995599E-01
         -2   -1    0    0    0  501 -0.00000000000E+00  0.00000000000E+00  0.43326083804E+03  0.43326083804E+03  0.00000000000E+00 0.  1.
          1   -1    0    0  501    0  0.00000000000E+00 -0.00000000000E+00 -0.10418509569E+04  0.10418509569E+04  0.00000000000E+00 0. -1.
        -24    2    1    2    0    0  0.23307527654E+02  0.31047563031E+03  0.50673757074E+02  0.32576290998E+03  0.81334408452E+02 0.  0.
        254    2    1    2    0    0 -0.23307527654E+02 -0.31047563031E+03 -0.65926387596E+03  0.11493488850E+04  0.88850190963E+03 0.  0.
         23    2    4    4    0    0  0.38829042345E+03  0.29476949064E+02 -0.27358063651E+03  0.48460575915E+03  0.91422282080E+02 0.  0.
         23    2    4    4    0    0 -0.41159795110E+03 -0.33995257937E+03 -0.38568323945E+03  0.66474312584E+03  0.90284176784E+02 0.  0.
          1    1    3    3  502    0  0.13530854349E+02  0.27046146213E+03  0.14905870146E+02  0.27120964489E+03  0.00000000000E+00 0. -1.
         -2    1    3    3    0  502  0.97766733053E+01  0.40014168176E+02  0.35767886928E+02  0.54553265081E+02  0.00000000000E+00 0.  1.
         13    1    5    5    0    0  0.54954069946E+02 -0.17301444128E+02 -0.72170323272E+02  0.92346333623E+02  0.00000000000E+00 0. -1.
        -13    1    5    5    0    0  0.33333635350E+03  0.46778393192E+02 -0.20141031323E+03  0.39225942553E+03  0.00000000000E+00 0.  1.
          4    1    6    6  503    0 -0.31828994666E+03 -0.21166050885E+03 -0.25889824769E+03  0.46166759016E+03  0.00000000000E+00 0. -1.
         -4    1    6    6    0  503 -0.93308004448E+02 -0.12829207053E+03 -0.12678499177E+03  0.20307553568E+03  0.00000000000E+00 0.  1.
<mgrwt>
<rscale>  0 0.13437161E+04</rscale>
<asrwt>0</asrwt>
<pdfrwt beam="1">  1        1 0.16028476E+00 0.13437161E+04</pdfrwt>
<pdfrwt beam="2">  1       -2 0.66655514E-01 0.13437161E+04</pdfrwt>
<totfact> 0.24928987E+01</totfact>
</mgrwt>
</event>
<event>
12    5  0.5428626E-008  0.2238321E+04  0.7818608E-02  0.8502645E-01
         -2   -1    0    0    0  501 -0.00000000000E+00  0.00000000000E+00  0.92894795363E+03  0.92894795363E+03  0.00000000000E+00 0.  1.
          1   -1    0    0  501    0  0.00000000000E+00 -0.00000000000E+00 -0.13483206644E+04  0.13483206644E+04  0.00000000000E+00 0. -1.
        -24    2    1    2    0    0 -0.32290641371E+03 -0.48465874685E+03  0.56619080250E+03  0.81615531875E+03  0.79842511030E+02 0.  0.
        254    2    1    2    0    0  0.32290641371E+03  0.48465874685E+03 -0.98556351330E+03  0.14611132993E+04  0.90793941524E+03 0.  0.
         23    2    4    4    0    0 -0.19839861138E+03 -0.80027706935E+02 -0.49071235489E+03  0.54251565807E+03  0.88080537768E+02 0.  0.
         23    2    4    4    0    0  0.52130502509E+03  0.56468645378E+03 -0.49485115841E+03  0.91859764124E+03  0.91182439269E+02 0.  0.
          3    1    3    3  502    0 -0.10534818246E+03 -0.20715631886E+03  0.18652135075E+03  0.29799697025E+03  0.00000000000E+00 0. -1.
         -4    1    3    3    0  502 -0.21755823125E+03 -0.27750242798E+03  0.37966945175E+03  0.51815834849E+03  0.00000000000E+00 0.  1.
         13    1    5    5    0    0 -0.51019212946E+02 -0.65574197979E+01 -0.21760049955E+03  0.22359771297E+03  0.00000000000E+00 0. -1.
        -13    1    5    5    0    0 -0.14737939844E+03 -0.73470287137E+02 -0.27311185534E+03  0.31891794510E+03  0.00000000000E+00 0.  1.
          2    1    6    6  503    0  0.47692557569E+03  0.51359626963E+03 -0.47948111993E+03  0.84920037523E+03  0.00000000000E+00 0.  1.
         -2    1    6    6    0  503  0.44379449405E+02  0.51090184150E+02 -0.15370038484E+02  0.69397266005E+02  0.00000000000E+00 0. -1.
<mgrwt>
<rscale>  0 0.22383206E+04</rscale>
<asrwt>0</asrwt>
<pdfrwt beam="1">  1        1 0.20743395E+00 0.22383206E+04</pdfrwt>
<pdfrwt beam="2">  1       -2 0.14291507E+00 0.22383206E+04</pdfrwt>
<totfact> 0.22683257E+00</totfact>
</mgrwt>
</event>
<event>
12    5  0.5428626E-008  0.2916710E+04  0.7818608E-02  0.8267923E-01
          3   -1    0    0  501    0  0.00000000000E+00  0.00000000000E+00  0.19618845700E+04  0.19618845700E+04  0.00000000000E+00 0. -1.
         -2   -1    0    0    0  501 -0.00000000000E+00 -0.00000000000E+00 -0.10840591006E+04  0.10840591006E+04  0.00000000000E+00 0.  1.
        -24    2    1    2    0    0  0.53987269992E+03  0.17728296116E+03 -0.84480808544E+03  0.10212841409E+04  0.80179890542E+02 0.  0.
        254    2    1    2    0    0 -0.53987269992E+03 -0.17728296116E+03  0.17226335548E+04  0.20246595297E+04  0.89938204713E+03 0.  0.
         23    2    4    4    0    0 -0.45631262924E+03  0.31126838883E+03  0.85373761892E+03  0.10209821615E+04  0.91801016145E+02 0.  0.
         23    2    4    4    0    0 -0.83560070678E+02 -0.48855134998E+03  0.86889593592E+03  0.10036773683E+04  0.81996372927E+02 0.  0.
          1    1    3    3  502    0  0.51617693374E+01  0.30427406559E+01  0.47573430207E+00  0.60106951775E+01  0.00000000000E+00 0. -1.
         -2    1    3    3    0  502  0.53471093058E+03  0.17424022050E+03 -0.84528381974E+03  0.10152734457E+04  0.00000000000E+00 0.  1.
         13    1    5    5    0    0 -0.40255505293E+03  0.23907706058E+03  0.74392402406E+03  0.87899451938E+03  0.00000000000E+00 0.  1.
        -13    1    5    5    0    0 -0.53757576317E+02  0.72191328248E+02  0.10981359485E+03  0.14198764207E+03  0.00000000000E+00 0. -1.
          1    1    6    6  503    0 -0.11981005110E+02 -0.14390601538E+03  0.32735258752E+03  0.35778792923E+03  0.00000000000E+00 0. -1.
         -1    1    6    6    0  503 -0.71579065568E+02 -0.34464533460E+03  0.54154334840E+03  0.64588943906E+03  0.00000000000E+00 0.  1.
<mgrwt>
<rscale>  0 0.29167097E+04</rscale>
<asrwt>0</asrwt>
<pdfrwt beam="1">  1        3 0.30182840E+00 0.29167097E+04</pdfrwt>
<pdfrwt beam="2">  1       -2 0.16677832E+00 0.29167097E+04</pdfrwt>
<totfact> 0.29980662E-02</totfact>
</mgrwt>
</event>
<event>
12    5  0.5428626E-008  0.1693593E+04  0.7818608E-02  0.8765027E-01
          1   -1    0    0  501    0  0.00000000000E+00  0.00000000000E+00  0.17281169901E+04  0.17281169901E+04  0.00000000000E+00 0. -1.
         -2   -1    0    0    0  501 -0.00000000000E+00 -0.00000000000E+00 -0.41493967485E+03  0.41493967485E+03  0.00000000000E+00 0.  1.
        -24    2    1    2    0    0 -0.28074548810E+03  0.34280449556E+03 -0.46576695380E+02  0.45257217988E+03  0.79493636145E+02 0.  0.
        254    2    1    2    0    0  0.28074548810E+03 -0.34280449556E+03  0.13597540106E+04  0.16904844851E+04  0.90137332643E+03 0.  0.
         23    2    4    4    0    0  0.16948670897E+03 -0.55128276886E+03  0.13088412488E+04  0.14331914833E+04  0.91290621814E+02 0.  0.
         23    2    4    4    0    0  0.11125877914E+03  0.20847827330E+03  0.50912761890E+02  0.25729300178E+03  0.88124191160E+02 0.  0.
          1    1    3    3  502    0 -0.10264750132E+03  0.14885387238E+03 -0.55388151819E+02  0.18910799087E+03  0.00000000000E+00 0. -1.
         -2    1    3    3    0  502 -0.17809798678E+03  0.19395062318E+03  0.88114564388E+01  0.26346418901E+03  0.00000000000E+00 0.  1.
         13    1    5    5    0    0  0.38847565784E+02 -0.45566469668E+02  0.10401380365E+03  0.12001794814E+03  0.00000000000E+00 0. -1.
        -13    1    5    5    0    0  0.13063914318E+03 -0.50571629919E+03  0.12048274451E+04  0.13131735352E+04  0.00000000000E+00 0.  1.
          4    1    6    6  503    0 -0.10211324535E+02  0.54026620859E+02  0.31331171549E+01  0.55072346357E+02  0.00000000000E+00 0. -1.
         -4    1    6    6    0  503  0.12147010367E+03  0.15445165244E+03  0.47779644735E+02  0.20222065542E+03  0.00000000000E+00 0.  1.
<mgrwt>
<rscale>  0 0.16935930E+04</rscale>
<asrwt>0</asrwt>
<pdfrwt beam="1">  1        1 0.26586415E+00 0.16935930E+04</pdfrwt>
<pdfrwt beam="2">  1       -2 0.63836874E-01 0.16935930E+04</pdfrwt>
<totfact> 0.86493202E+00</totfact>
</mgrwt>
</event>
<event>
12    5  0.5428626E-008  0.1639773E+04  0.7818608E-02  0.8796480E-01
          1   -1    0    0  501    0  0.00000000000E+00  0.00000000000E+00  0.57226582261E+03  0.57226582261E+03  0.00000000000E+00 0. -1.
         -2   -1    0    0    0  501 -0.00000000000E+00 -0.00000000000E+00 -0.11746528409E+04  0.11746528409E+04  0.00000000000E+00 0.  1.
        -24    2    1    2    0    0  0.64850660036E+02 -0.42511323900E+03 -0.61053526217E+03  0.75097773939E+03  0.79293030110E+02 0.  0.
        254    2    1    2    0    0 -0.64850660036E+02  0.42511323900E+03  0.81482439326E+01  0.99594092407E+03  0.89827894124E+03 0.  0.
         23    2    4    4    0    0  0.12071780996E+02 -0.21960293885E+03 -0.19705050547E+03  0.30928228674E+03  0.91953534657E+02 0.  0.
         23    2    4    4    0    0 -0.76922441032E+02  0.64471617785E+03  0.20519874940E+03  0.68665863733E+03  0.88416884974E+02 0.  0.
          1    1    3    3  502    0  0.39030537791E+02 -0.21778483520E+03 -0.24638873678E+03  0.33115106362E+03  0.00000000000E+00 0. -1.
         -4    1    3    3    0  502  0.25820122246E+02 -0.20732840380E+03 -0.36414652539E+03  0.41982667577E+03  0.00000000000E+00 0.  1.
         13    1    5    5    0    0 -0.53585335794E+01 -0.13814415058E+03 -0.64089356401E+02  0.15238098905E+03  0.00000000000E+00 0.  1.
        -13    1    5    5    0    0  0.17430314575E+02 -0.81458788269E+02 -0.13296114907E+03  0.15690129768E+03  0.00000000000E+00 0. -1.
          1    1    6    6  503    0 -0.55087652030E+02  0.23178041164E+03  0.10960444939E+03  0.26224024091E+03  0.00000000000E+00 0. -1.
         -1    1    6    6    0  503 -0.21834789002E+02  0.41293576621E+03  0.95594300015E+02  0.42441839642E+03  0.00000000000E+00 0.  1.
<mgrwt>
<rscale>  0 0.16397728E+04</rscale>
<asrwt>0</asrwt>
<pdfrwt beam="1">  1        1 0.88040896E-01 0.16397728E+04</pdfrwt>
<pdfrwt beam="2">  1       -2 0.18071582E+00 0.16397728E+04</pdfrwt>
<totfact> 0.54958911E+00</totfact>
</mgrwt>
</event>
<event>
12    5  0.5428626E-008  0.1608126E+04  0.7818608E-02  0.8815572E-01
          1   -1    0    0  501    0  0.00000000000E+00  0.00000000000E+00  0.72092440611E+03  0.72092440611E+03  0.00000000000E+00 0. -1.
         -2   -1    0    0    0  501 -0.00000000000E+00 -0.00000000000E+00 -0.89678888860E+03  0.89678888860E+03  0.00000000000E+00 0.  1.
        -24    2    1    2    0    0 -0.14945385003E+03  0.35319666058E+03 -0.44615020312E+03  0.59392522705E+03  0.81319353460E+02 0.  0.
        254    2    1    2    0    0  0.14945385003E+03 -0.35319666058E+03  0.27028572063E+03  0.10237880677E+04  0.90994686788E+03 0.  0.
         23    2    4    4    0    0 -0.10187242484E+02 -0.35794045505E+03 -0.26741083225E+03  0.45576530498E+03  0.89377350301E+02 0.  0.
         23    2    4    4    0    0  0.15964109252E+03  0.47437944683E+01  0.53769655287E+03  0.56802276268E+03  0.89579539782E+02 0.  0.
          1    1    3    3  502    0 -0.26120244433E+02  0.16401853936E+03 -0.18164509376E+03  0.24612860157E+03  0.00000000000E+00 0. -1.
         -2    1    3    3    0  502 -0.12333360560E+03  0.18917812122E+03 -0.26450510936E+03  0.34779662548E+03  0.00000000000E+00 0.  1.
         13    1    5    5    0    0 -0.13277703009E+02 -0.14171646470E+03 -0.16053786939E+03  0.21455130220E+03  0.00000000000E+00 0.  1.
        -13    1    5    5    0    0  0.30904605255E+01 -0.21622399035E+03 -0.10687296285E+03  0.24121400278E+03  0.00000000000E+00 0. -1.
          1    1    6    6  503    0  0.64086422959E+02  0.37621230457E+02  0.15036448412E+03  0.16772568281E+03  0.00000000000E+00 0. -1.
         -1    1    6    6    0  503  0.95554669559E+02 -0.32877435989E+02  0.38733206875E+03  0.40029707987E+03  0.00000000000E+00 0.  1.
<mgrwt>
<rscale>  0 0.16081256E+04</rscale>
<asrwt>0</asrwt>
<pdfrwt beam="1">  1        1 0.11091145E+00 0.16081256E+04</pdfrwt>
<pdfrwt beam="2">  1       -2 0.13796752E+00 0.16081256E+04</pdfrwt>
<totfact> 0.81545198E+00</totfact>
</mgrwt>
</event>
<event>
12    5  0.5428626E-008  0.1394145E+04  0.7818608E-02  0.8958068E-01
          1   -1    0    0  501    0  0.00000000000E+00  0.00000000000E+00  0.57359013341E+03  0.57359013341E+03  0.00000000000E+00 0. -1.
         -2   -1    0    0    0  501 -0.00000000000E+00 -0.00000000000E+00 -0.84713772730E+03  0.84713772730E+03  0.00000000000E+00 0.  1.
        -24    2    1    2    0    0  0.25485426277E+02 -0.31955043024E+03 -0.32505110819E+03  0.46312611922E+03  0.77881929542E+02 0.  0.
        254    2    1    2    0    0 -0.25485426277E+02  0.31955043024E+03  0.51503514306E+02  0.95760174149E+03  0.90088095712E+03 0.  0.
         23    2    4    4    0    0  0.16382470639E+03  0.13264530843E+03 -0.37918033020E+03  0.44332490689E+03  0.91246577959E+02 0.  0.
         23    2    4    4    0    0 -0.18931013266E+03  0.18690512181E+03  0.43068384451E+03  0.51427683460E+03  0.90665527055E+02 0.  0.
          1    1    3    3  502    0  0.34178495925E+02 -0.54880206380E+02 -0.54707412313E+02  0.84693019771E+02  0.00000000000E+00 0. -1.
         -2    1    3    3    0  502 -0.86930696480E+01 -0.26467022386E+03 -0.27034369588E+03  0.37843309945E+03  0.00000000000E+00 0.  1.
         13    1    5    5    0    0  0.14422507727E+03  0.14327901756E+03 -0.31065719021E+03  0.37126491837E+03  0.00000000000E+00 0. -1.
        -13    1    5    5    0    0  0.19599629116E+02 -0.10633709126E+02 -0.68523139991E+02  0.72059988520E+02  0.00000000000E+00 0.  1.
          1    1    6    6  503    0 -0.13869535432E+03  0.85322943342E+02  0.20630060990E+03  0.26282379575E+03  0.00000000000E+00 0. -1.
         -1    1    6    6    0  503 -0.50614778340E+02  0.10158217847E+03  0.22438323461E+03  0.25145303885E+03  0.00000000000E+00 0.  1.
<mgrwt>
<rscale>  0 0.13941447E+04</rscale>
<asrwt>0</asrwt>
<pdfrwt beam="1">  1        1 0.88244636E-01 0.13941447E+04</pdfrwt>
<pdfrwt beam="2">  1       -2 0.13032888E+00 0.13941447E+04</pdfrwt>
<totfact> 0.13452444E+01</totfact>
</mgrwt>
</event>
<event>
12    5  0.5428626E-008  0.1521975E+04  0.7818608E-02  0.8869970E-01
         -2   -1    0    0    0  501 -0.00000000000E+00  0.00000000000E+00  0.42907034476E+03  0.42907034476E+03  0.00000000000E+00 0.  1.
          1   -1    0    0  501    0  0.00000000000E+00 -0.00000000000E+00 -0.13496673502E+04  0.13496673502E+04  0.00000000000E+00 0. -1.
        -24    2    1    2    0    0  0.46251645341E+02 -0.31516518680E+03  0.13668508662E+03  0.35589870151E+03  0.80701692438E+02 0.  0.
        254    2    1    2    0    0 -0.46251645341E+02  0.31516518680E+03 -0.10572820921E+04  0.14228389935E+04  0.89730544934E+03 0.  0.
         23    2    4    4    0    0  0.11908417923E+03  0.34385938318E+03 -0.28496446735E+02  0.37652300325E+03  0.92397009436E+02 0.  0.
         23    2    4    4    0    0 -0.16533582457E+03 -0.28694196382E+02 -0.10287856453E+04  0.10463159902E+04  0.90652939981E+02 0.  0.
          3    1    3    3  502    0  0.21124084067E+02 -0.12634672299E+03  0.98582119378E+02  0.16164206012E+03  0.00000000000E+00 0. -1.
         -4    1    3    3    0  502  0.25127561274E+02 -0.18881846381E+03  0.38102967243E+02  0.19425664139E+03  0.00000000000E+00 0.  1.
         13    1    5    5    0    0  0.46990628109E+02  0.22076481068E+03  0.18146149881E+02  0.22643874121E+03  0.00000000000E+00 0. -1.
        -13    1    5    5    0    0  0.72093551123E+02  0.12309457250E+03 -0.46642596615E+02  0.15008426204E+03  0.00000000000E+00 0.  1.
          2    1    6    6  503    0 -0.66619691967E+02 -0.16465464865E+02 -0.68500858520E+03  0.68843740216E+03  0.00000000000E+00 0. -1.
         -2    1    6    6    0  503 -0.98716132606E+02 -0.12228731517E+02 -0.34377706013E+03  0.35787858805E+03  0.00000000000E+00 0.  1.
<mgrwt>
<rscale>  0 0.15219753E+04</rscale>
<asrwt>0</asrwt>
<pdfrwt beam="1">  1        1 0.20764113E+00 0.15219753E+04</pdfrwt>
<pdfrwt beam="2">  1       -2 0.66010822E-01 0.15219753E+04</pdfrwt>
<totfact> 0.14915437E+01</totfact>
</mgrwt>
</event>
<event>
12    5  0.5428626E-008  0.2526802E+04  0.7818608E-02  0.8393499E-01
         -2   -1    0    0    0  501 -0.00000000000E+00  0.00000000000E+00  0.16588620120E+04  0.16588620120E+04  0.00000000000E+00 0.  1.
          1   -1    0    0  501    0  0.00000000000E+00 -0.00000000000E+00 -0.96221494370E+03  0.96221494370E+03  0.00000000000E+00 0. -1.
        -24    2    1    2    0    0  0.41309570009E+03  0.61259820426E+03  0.11565036741E+04  0.13746367513E+04  0.78745366011E+02 0.  0.
        254    2    1    2    0    0 -0.41309570009E+03 -0.61259820426E+03 -0.45985660575E+03  0.12464402044E+04  0.89231186699E+03 0.  0.
         23    2    4    4    0    0  0.76777481926E+02  0.17403871656E+03 -0.17396945992E+03  0.27246427669E+03  0.88244843999E+02 0.  0.
         23    2    4    4    0    0 -0.48987318201E+03 -0.78663692083E+03 -0.28588714583E+03  0.97397592770E+03  0.90134721021E+02 0.  0.
          1    1    3    3  502    0  0.27250743184E+03  0.45631212474E+03  0.79052029243E+03  0.95257723484E+03  0.00000000000E+00 0. -1.
         -2    1    3    3    0  502  0.14058826825E+03  0.15628607952E+03  0.36598338163E+03  0.42205951648E+03  0.00000000000E+00 0.  1.
         13    1    5    5    0    0 -0.18020319287E+02  0.29217923846E+02 -0.45059902274E+02  0.56646392419E+02  0.00000000000E+00 0. -1.
        -13    1    5    5    0    0  0.94797801213E+02  0.14482079272E+03 -0.12890955765E+03  0.21581788427E+03  0.00000000000E+00 0.  1.
          4    1    6    6  503    0 -0.11577213625E+02 -0.57340310232E+02 -0.10900088029E+02  0.59504243310E+02  0.00000000000E+00 0. -1.
         -4    1    6    6    0  503 -0.47829596839E+03 -0.72929661059E+03 -0.27498705780E+03  0.91447168439E+03  0.00000000000E+00 0.  1.
<mgrwt>
<rscale>  0 0.25268018E+04</rscale>
<asrwt>0</asrwt>
<pdfrwt beam="1">  1        1 0.14803307E+00 0.25268018E+04</pdfrwt>
<pdfrwt beam="2">  1       -2 0.25520954E+00 0.25268018E+04</pdfrwt>
<totfact> 0.75200846E-01</totfact>
</mgrwt>
</event>
<event>
12    5  0.5428626E-008  0.2059565E+04  0.7818608E-02  0.8579267E-01
          1   -1    0    0  501    0  0.00000000000E+00  0.00000000000E+00  0.10720299982E+04  0.10720299982E+04  0.00000000000E+00 0. -1.
         -2   -1    0    0    0  501 -0.00000000000E+00 -0.00000000000E+00 -0.98919998537E+03  0.98919998537E+03  0.00000000000E+00 0.  1.
        -24    2    1    2    0    0 -0.46594883641E+03 -0.52714734659E+03  0.47414107450E+03  0.85219848696E+03  0.80248735081E+02 0.  0.
        254    2    1    2    0    0  0.46594883641E+03  0.52714734659E+03 -0.39131106164E+03  0.12090314966E+04  0.90202004952E+03 0.  0.
         23    2    4    4    0    0 -0.21084592472E+03  0.35161644837E+03 -0.25357741222E+03  0.49057234039E+03  0.90937266431E+02 0.  0.
         23    2    4    4    0    0  0.67679476114E+03  0.17553089822E+03 -0.13773364942E+03  0.71845915626E+03  0.91382471490E+02 0.  0.
          1    1    3    3  502    0 -0.16666232508E+03 -0.21394999018E+03  0.14069655022E+03  0.30552650972E+03  0.00000000000E+00 0. -1.
         -2    1    3    3    0  502 -0.29928651133E+03 -0.31319735641E+03  0.33344452428E+03  0.54667197724E+03  0.00000000000E+00 0.  1.
         13    1    5    5    0    0 -0.17439284081E+03  0.28118469553E+03 -0.15885037641E+03  0.36703015954E+03  0.00000000000E+00 0.  1.
        -13    1    5    5    0    0 -0.36453083911E+02  0.70431752841E+02 -0.94727035808E+02  0.12354218084E+03  0.00000000000E+00 0. -1.
          4    1    6    6  503    0  0.19686681168E+02  0.12152109317E+02 -0.21220947316E+02  0.31393753857E+02  0.00000000000E+00 0. -1.
         -4    1    6    6    0  503  0.65710807997E+03  0.16337878890E+03 -0.11651270210E+03  0.68706540240E+03  0.00000000000E+00 0.  1.
<mgrwt>
<rscale>  0 0.20595651E+04</rscale>
<asrwt>0</asrwt>
<pdfrwt beam="1">  1        1 0.16492769E+00 0.20595651E+04</pdfrwt>
<pdfrwt beam="2">  1       -2 0.15218461E+00 0.20595651E+04</pdfrwt>
<totfact> 0.31060467E+00</totfact>
</mgrwt>
</event>
<event>
12    5  0.5731316E-008  0.2167946E+04  0.7818608E-02  0.8531890E-01
          1   -1    0    0  501    0  0.00000000000E+00  0.00000000000E+00  0.86903227829E+03  0.86903227829E+03  0.00000000000E+00 0. -1.
         -2   -1    0    0    0  501 -0.00000000000E+00 -0.00000000000E+00 -0.13520751424E+04  0.13520751424E+04  0.00000000000E+00 0.  1.
        -24    2    1    2    0    0  0.73725795689E+03  0.13378893988E+03 -0.67614252511E+03  0.10127264014E+04  0.83649712465E+02 0.  0.
        254    2    1    2    0    0 -0.73725795689E+03 -0.13378893988E+03  0.19309966105E+03  0.12083810192E+04  0.92814246382E+03 0.  0.
         23    2    4    4    0    0 -0.61293745159E+03 -0.13608657465E+03 -0.29193555141E+03  0.69844848541E+03  0.91608106834E+02 0.  0.
         23    2    4    4    0    0 -0.12432050530E+03  0.22976347690E+01  0.48503521246E+03  0.50993253383E+03  0.96494375869E+02 0.  0.
          1    1    3    3  502    0  0.69604758594E+02  0.29955893431E+02 -0.94911740488E+02  0.12145129251E+03  0.00000000000E+00 0. -1.
         -2    1    3    3    0  502  0.66765319830E+03  0.10383304645E+03 -0.58123078463E+03  0.89127510889E+03  0.00000000000E+00 0.  1.
         13    1    5    5    0    0 -0.23528593995E+03 -0.69434239755E+01 -0.10848449540E+03  0.25918443320E+03  0.00000000000E+00 0. -1.
        -13    1    5    5    0    0 -0.37765151164E+03 -0.12914315067E+03 -0.18345105601E+03  0.43926405221E+03  0.00000000000E+00 0.  1.
          1    1    6    6  503    0 -0.95803583997E+01 -0.35348132381E+02  0.11530129002E+03  0.12097793687E+03  0.00000000000E+00 0. -1.
         -1    1    6    6    0  503 -0.11474014690E+03  0.37645767150E+02  0.36973392244E+03  0.38895459696E+03  0.00000000000E+00 0.  1.
<mgrwt>
<rscale>  0 0.21679455E+04</rscale>
<asrwt>0</asrwt>
<pdfrwt beam="1">  1        1 0.13369727E+00 0.21679455E+04</pdfrwt>
<pdfrwt beam="2">  1       -2 0.20801156E+00 0.21679455E+04</pdfrwt>
<totfact> 0.18238526E+00</totfact>
</mgrwt>
</event>
<event>
12    5  0.5428626E-008  0.1176110E+04  0.7818608E-02  0.9134028E-01
         -2   -1    0    0    0  501 -0.00000000000E+00  0.00000000000E+00  0.16658909849E+03  0.16658909849E+03  0.00000000000E+00 0.  1.
          1   -1    0    0  501    0  0.00000000000E+00 -0.00000000000E+00 -0.20758182464E+04  0.20758182464E+04  0.00000000000E+00 0. -1.
        -24    2    1    2    0    0  0.12055260776E+03  0.19762053669E+03 -0.50953660566E+03  0.56491850229E+03  0.76932138640E+02 0.  0.
        254    2    1    2    0    0 -0.12055260776E+03 -0.19762053669E+03 -0.13996925422E+04  0.16774888426E+04  0.89512166571E+03 0.  0.
         23    2    4    4    0    0  0.50067627324E+02  0.33773898957E+03 -0.49461927529E+03  0.60790673683E+03  0.91257771198E+02 0.  0.
         23    2    4    4    0    0 -0.17062023508E+03 -0.53535952626E+03 -0.90507326692E+03  0.10695821057E+04  0.95536251972E+02 0.  0.
          3    1    3    3  502    0  0.12808765757E+03  0.18746028996E+03 -0.49981386994E+03  0.54896421825E+03  0.00000000000E+00 0. -1.
         -4    1    3    3    0  502 -0.75350498061E+01  0.10160246734E+02 -0.97227357226E+01  0.15954284039E+02  0.00000000000E+00 0.  1.
         13    1    5    5    0    0 -0.63049104947E+01 -0.25973491035E+01 -0.33080951045E+01  0.75790244710E+01  0.00000000000E+00 0. -1.
        -13    1    5    5    0    0  0.56372537818E+02  0.34033633867E+03 -0.49131118019E+03  0.60032771235E+03  0.00000000000E+00 0.  1.
          1    1    6    6  503    0 -0.10220160050E+03 -0.34252397599E+03 -0.65765847431E+03  0.74852021356E+03  0.00000000000E+00 0. -1.
         -1    1    6    6    0  503 -0.68418634588E+02 -0.19283555027E+03 -0.24741479261E+03  0.32106189218E+03  0.00000000000E+00 0.  1.
<mgrwt>
<rscale>  0 0.11761100E+04</rscale>
<asrwt>0</asrwt>
<pdfrwt beam="1">  1        1 0.31935667E+00 0.11761100E+04</pdfrwt>
<pdfrwt beam="2">  1       -2 0.25629091E-01 0.11761100E+04</pdfrwt>
<totfact> 0.31670026E+01</totfact>
</mgrwt>
</event>
<event>
12    5  0.5428626E-008  0.1469135E+04  0.7818608E-02  0.8905242E-01
         -2   -1    0    0    0  501 -0.00000000000E+00  0.00000000000E+00  0.88457603534E+03  0.88457603534E+03  0.00000000000E+00 0.  1.
          1   -1    0    0  501    0  0.00000000000E+00 -0.00000000000E+00 -0.60999735982E+03  0.60999735982E+03  0.00000000000E+00 0. -1.
        -24    2    1    2    0    0  0.96536939818E+02  0.36872092935E+03 -0.13134719899E+03  0.41256608734E+03  0.87659484621E+02 0.  0.
        254    2    1    2    0    0 -0.96536939818E+02 -0.36872092935E+03  0.40592587451E+03  0.10820073078E+04  0.92773352536E+03 0.  0.
         23    2    4    4    0    0 -0.16108642598E+03 -0.26566105642E+03  0.68894273106E+03  0.76115166636E+03  0.90471758038E+02 0.  0.
         23    2    4    4    0    0  0.64549486158E+02 -0.10305987294E+03 -0.28301685655E+03  0.32085564145E+03  0.89787682842E+02 0.  0.
          1    1    3    3  502    0  0.10958906085E+03  0.34197817910E+03 -0.13253365956E+03  0.38278454534E+03  0.00000000000E+00 0. -1.
         -2    1    3    3    0  502 -0.13052121037E+02  0.26742750255E+02  0.11864605654E+01  0.29781541992E+02  0.00000000000E+00 0.  1.
         13    1    5    5    0    0 -0.17215075367E+02 -0.61930639006E+02  0.76802086357E+02  0.10015150192E+03  0.00000000000E+00 0.  1.
        -13    1    5    5    0    0 -0.14387135061E+03 -0.20373041741E+03  0.61214064470E+03  0.66100016445E+03  0.00000000000E+00 0. -1.
          2    1    6    6  503    0 -0.16629243375E+02  0.37026640136E+01 -0.32717424125E+02  0.36887278259E+02  0.00000000000E+00 0.  1.
         -2    1    6    6    0  503  0.81178729533E+02 -0.10676253695E+03 -0.25029943242E+03  0.28396836319E+03  0.00000000000E+00 0. -1.
<mgrwt>
<rscale>  0 0.14691345E+04</rscale>
<asrwt>0</asrwt>
<pdfrwt beam="1">  1        1 0.93845747E-01 0.14691345E+04</pdfrwt>
<pdfrwt beam="2">  1       -2 0.13608862E+00 0.14691345E+04</pdfrwt>
<totfact> 0.10961702E+01</totfact>
</mgrwt>
</event>
<event>
12    5  0.5428626E-008  0.1747667E+04  0.7818608E-02  0.8734635E-01
          1   -1    0    0  501    0  0.00000000000E+00  0.00000000000E+00  0.15061528356E+04  0.15061528356E+04  0.00000000000E+00 0. -1.
         -2   -1    0    0    0  501 -0.00000000000E+00 -0.00000000000E+00 -0.50697730014E+03  0.50697730014E+03  0.00000000000E+00 0.  1.
        -24    2    1    2    0    0 -0.35758663606E+03 -0.45469876399E+03  0.67593419862E+03  0.89322088314E+03  0.79607392562E+02 0.  0.
        254    2    1    2    0    0  0.35758663606E+03  0.45469876399E+03  0.32324133685E+03  0.11199092526E+04  0.90282479141E+03 0.  0.
         23    2    4    4    0    0  0.52376869832E+03  0.53318471301E+03  0.19261226980E+02  0.75352162410E+03  0.93830994809E+02 0.  0.
         23    2    4    4    0    0 -0.16618206226E+03 -0.78485949018E+02  0.30398010987E+03  0.36638762852E+03  0.89774523795E+02 0.  0.
          3    1    3    3  502    0 -0.29143374071E+03 -0.39910499692E+03  0.60667840460E+03  0.78248138022E+03  0.00000000000E+00 0. -1.
         -4    1    3    3    0  502 -0.66152895359E+02 -0.55593767078E+02  0.69255794023E+02  0.11073950292E+03  0.00000000000E+00 0.  1.
         13    1    5    5    0    0  0.36865889115E+03  0.43273742507E+03  0.14221767001E+02  0.56865922637E+03  0.00000000000E+00 0.  1.
        -13    1    5    5    0    0  0.15510980718E+03  0.10044728794E+03  0.50394599786E+01  0.18486239773E+03  0.00000000000E+00 0. -1.
          1    1    6    6  503    0 -0.18070726948E+02 -0.40595108041E+02  0.11515981635E+03  0.12343539716E+03  0.00000000000E+00 0. -1.
         -1    1    6    6    0  503 -0.14811133531E+03 -0.37890840978E+02  0.18882029352E+03  0.24295223136E+03  0.00000000000E+00 0.  1.
<mgrwt>
<rscale>  0 0.17476674E+04</rscale>
<asrwt>0</asrwt>
<pdfrwt beam="1">  1        1 0.23171582E+00 0.17476674E+04</pdfrwt>
<pdfrwt beam="2">  1       -2 0.77996509E-01 0.17476674E+04</pdfrwt>
<totfact> 0.78838146E+00</totfact>
</mgrwt>
</event>
<event>
12    5  0.5428626E-008  0.2246364E+04  0.7818608E-02  0.8499374E-01
         -2   -1    0    0    0  501 -0.00000000000E+00  0.00000000000E+00  0.65277618049E+03  0.65277618049E+03  0.00000000000E+00 0.  1.
          1   -1    0    0  501    0  0.00000000000E+00 -0.00000000000E+00 -0.19325734720E+04  0.19325734720E+04  0.00000000000E+00 0. -1.
        -24    2    1    2    0    0  0.93957326818E+02 -0.22326806881E+03 -0.15680910087E+04  0.15888011299E+04  0.81871905570E+02 0.  0.
        254    2    1    2    0    0 -0.93957326818E+02  0.22326806881E+03  0.28829371716E+03  0.99654852264E+03  0.92266954042E+03 0.  0.
         23    2    4    4    0    0 -0.75573053292E+02 -0.30265942253E+03  0.32861130311E+03  0.46203259166E+03  0.90414129387E+02 0.  0.
         23    2    4    4    0    0 -0.18384273526E+02  0.52592749134E+03 -0.40317585951E+02  0.53451593098E+03  0.84522571419E+02 0.  0.
          1    1    3    3  502    0  0.10685109560E+03 -0.17045984586E+03 -0.12114042525E+04  0.12279959196E+04  0.00000000000E+00 0. -1.
         -2    1    3    3    0  502 -0.12893768786E+02 -0.52808222952E+02 -0.35668675618E+03  0.36080521022E+03  0.00000000000E+00 0.  1.
         13    1    5    5    0    0  0.19396154240E+02 -0.86912742065E+02  0.88090632106E+02  0.12525971019E+03  0.00000000000E+00 0. -1.
        -13    1    5    5    0    0 -0.94969207532E+02 -0.21574668046E+03  0.24052067101E+03  0.33677288147E+03  0.00000000000E+00 0.  1.
          1    1    6    6  503    0 -0.39639582949E+02  0.20453005147E+03  0.96722451523E+01  0.20856028101E+03  0.00000000000E+00 0. -1.
         -1    1    6    6    0  503  0.21255309423E+02  0.32139743987E+03 -0.49989831103E+02  0.32595564997E+03  0.00000000000E+00 0.  1.
<mgrwt>
<rscale>  0 0.22463641E+04</rscale>
<asrwt>0</asrwt>
<pdfrwt beam="1">  1        1 0.29731899E+00 0.22463641E+04</pdfrwt>
<pdfrwt beam="2">  1       -2 0.10042711E+00 0.22463641E+04</pdfrwt>
<totfact> 0.21596012E+00</totfact>
</mgrwt>
</event>
<event>
12    5  0.5428626E-008  0.3384941E+04  0.7818608E-02  0.8141612E-01
          1   -1    0    0  501    0  0.00000000000E+00  0.00000000000E+00  0.16576419914E+04  0.16576419914E+04  0.00000000000E+00 0. -1.
         -2   -1    0    0    0  501 -0.00000000000E+00 -0.00000000000E+00 -0.17280309156E+04  0.17280309156E+04  0.00000000000E+00 0.  1.
        -24    2    1    2    0    0  0.15678016042E+03 -0.68765049687E+03  0.13700753797E+04  0.15428605525E+04  0.76608836848E+02 0.  0.
        254    2    1    2    0    0 -0.15678016042E+03  0.68765049687E+03 -0.14404643039E+04  0.18428123545E+04  0.90751128844E+03 0.  0.
         23    2    4    4    0    0 -0.26421937815E+02  0.59377329148E+03 -0.15241791867E+04  0.16391117367E+04  0.10149015644E+03 0.  0.
         23    2    4    4    0    0 -0.13035822261E+03  0.93877205387E+02  0.83714882775E+02  0.20370061782E+03  0.93164178789E+02 0.  0.
          1    1    3    3  502    0  0.11683973768E+03 -0.58120676625E+03  0.11973567277E+04  0.13360823189E+04  0.00000000000E+00 0. -1.
         -2    1    3    3    0  502  0.39940422740E+02 -0.10644373062E+03  0.17271865198E+03  0.20677823362E+03  0.00000000000E+00 0.  1.
         13    1    5    5    0    0  0.83849929972E+01  0.44797257082E+03 -0.12274742086E+04  0.13066914958E+04  0.00000000000E+00 0.  1.
        -13    1    5    5    0    0 -0.34806930812E+02  0.14580072067E+03 -0.29670497805E+03  0.33242024093E+03  0.00000000000E+00 0. -1.
          3    1    6    6  503    0 -0.18464001678E+02  0.52535905266E+02 -0.37060970191E+01  0.55809281085E+02  0.00000000000E+00 0. -1.
         -3    1    6    6    0  503 -0.11189422093E+03  0.41341300121E+02  0.87420979794E+02  0.14789133673E+03  0.00000000000E+00 0.  1.
<mgrwt>
<rscale>  0 0.33849411E+04</rscale>
<asrwt>0</asrwt>
<pdfrwt beam="1">  1        1 0.25502184E+00 0.33849411E+04</pdfrwt>
<pdfrwt beam="2">  1       -2 0.26585091E+00 0.33849411E+04</pdfrwt>
<totfact> 0.18945085E-01</totfact>
</mgrwt>
</event>
<event>
12    5  0.5428626E-008  0.2986650E+04  0.7818608E-02  0.8247553E-01
         -2   -1    0    0    0  501 -0.00000000000E+00  0.00000000000E+00  0.73833451795E+03  0.73833451795E+03  0.00000000000E+00 0.  1.
          1   -1    0    0  501    0  0.00000000000E+00 -0.00000000000E+00 -0.30203370836E+04  0.30203370836E+04  0.00000000000E+00 0. -1.
        -24    2    1    2    0    0  0.86943662056E+03  0.49680847122E+03 -0.21902179938E+04  0.24095926005E+04  0.79642613869E+02 0.  0.
        254    2    1    2    0    0 -0.86943662056E+03 -0.49680847122E+03 -0.91784571849E+02  0.13490790010E+04  0.89936146743E+03 0.  0.
         23    2    4    4    0    0  0.16628085832E+03 -0.35350880136E+01 -0.36493603930E+02  0.19690173744E+03  0.98877147953E+02 0.  0.
         23    2    4    4    0    0 -0.10357174789E+04 -0.49327338321E+03 -0.55290967920E+02  0.11521772636E+04  0.91793403407E+02 0.  0.
          1    1    3    3  502    0  0.85404477085E+03  0.48513046156E+03 -0.21152024098E+04  0.23321289136E+04  0.00000000000E+00 0. -1.
         -2    1    3    3    0  502  0.15391849712E+02  0.11678009666E+02 -0.75015583962E+02  0.77463686877E+02  0.00000000000E+00 0.  1.
         13    1    5    5    0    0  0.12005388240E+03  0.39333664259E+02 -0.50093770786E+01  0.12643245502E+03  0.00000000000E+00 0. -1.
        -13    1    5    5    0    0  0.46226975920E+02 -0.42868752273E+02 -0.31484226851E+02  0.70469282418E+02  0.00000000000E+00 0.  1.
          1    1    6    6  503    0 -0.43828711597E+03 -0.25891173981E+03 -0.29611139910E+02  0.50990950633E+03  0.00000000000E+00 0. -1.
         -1    1    6    6    0  503 -0.59743036291E+03 -0.23436164340E+03 -0.25679828010E+02  0.64226775724E+03  0.00000000000E+00 0.  1.
<mgrwt>
<rscale>  0 0.29866497E+04</rscale>
<asrwt>0</asrwt>
<pdfrwt beam="1">  1        1 0.46466724E+00 0.29866497E+04</pdfrwt>
<pdfrwt beam="2">  1       -2 0.11358993E+00 0.29866497E+04</pdfrwt>
<totfact> 0.26301925E-01</totfact>
</mgrwt>
</event>
<event>
12    5  0.5428626E-008  0.1733543E+04  0.7818608E-02  0.8742461E-01
         -2   -1    0    0    0  501 -0.00000000000E+00  0.00000000000E+00  0.28343184198E+04  0.28343184198E+04  0.00000000000E+00 0.  1.
          1   -1    0    0  501    0  0.00000000000E+00 -0.00000000000E+00 -0.26507013825E+03  0.26507013825E+03  0.00000000000E+00 0. -1.
        -24    2    1    2    0    0 -0.35727260588E+03 -0.48007221974E+03  0.56243800172E+03  0.82512361301E+03  0.79871270799E+02 0.  0.
        254    2    1    2    0    0  0.35727260588E+03  0.48007221974E+03  0.20068102798E+04  0.22742649450E+04  0.88706284439E+03 0.  0.
         23    2    4    4    0    0 -0.23725454398E+03  0.10222710364E+01  0.24949645246E+03  0.35583132992E+03  0.89870417164E+02 0.  0.
         23    2    4    4    0    0  0.59452714986E+03  0.47904994870E+03  0.17573138273E+04  0.19184336151E+04  0.96354877889E+02 0.  0.
          3    1    3    3  502    0 -0.21753636365E+03 -0.28336584358E+03  0.38782725758E+03  0.52728384438E+03  0.00000000000E+00 0. -1.
         -4    1    3    3    0  502 -0.13973624223E+03 -0.19670637615E+03  0.17461074414E+03  0.29783976863E+03  0.00000000000E+00 0.  1.
         13    1    5    5    0    0 -0.68773392163E+02 -0.13818418922E+02  0.13329636209E+03  0.15062751514E+03  0.00000000000E+00 0.  1.
        -13    1    5    5    0    0 -0.16848115182E+03  0.14840689959E+02  0.11620009038E+03  0.20520381478E+03  0.00000000000E+00 0. -1.
          3    1    6    6  503    0  0.52625088421E+03  0.44522963074E+03  0.15156262818E+04  0.16650202532E+04  0.00000000000E+00 0. -1.
         -3    1    6    6    0  503  0.68276265646E+02  0.33820317956E+02  0.24168754549E+03  0.25341336193E+03  0.00000000000E+00 0.  1.
<mgrwt>
<rscale>  0 0.17335434E+04</rscale>
<asrwt>0</asrwt>
<pdfrwt beam="1">  1        1 0.40780023E-01 0.17335434E+04</pdfrwt>
<pdfrwt beam="2">  1       -2 0.43604897E+00 0.17335434E+04</pdfrwt>
<totfact> 0.36860578E-01</totfact>
</mgrwt>
</event>
<event>
12    5  0.5428626E-008  0.2892106E+04  0.7818608E-02  0.8275230E-01
         -2   -1    0    0    0  501 -0.00000000000E+00  0.00000000000E+00  0.10522988479E+04  0.10522988479E+04  0.00000000000E+00 0.  1.
          1   -1    0    0  501    0  0.00000000000E+00 -0.00000000000E+00 -0.19871443905E+04  0.19871443905E+04  0.00000000000E+00 0. -1.
        -24    2    1    2    0    0 -0.76720237675E+02  0.10551019668E+04 -0.12241586242E+04  0.16198704948E+04  0.79309063051E+02 0.  0.
        254    2    1    2    0    0  0.76720237675E+02 -0.10551019668E+04  0.28931308162E+03  0.14195727436E+04  0.90130935870E+03 0.  0.
         23    2    4    4    0    0  0.13907970826E+03 -0.98492097125E+03  0.54134762292E+03  0.11357157390E+04  0.85909871495E+02 0.  0.
         23    2    4    4    0    0 -0.62359470583E+02 -0.70180995523E+02 -0.25203454130E+03  0.28385700466E+03  0.90770663669E+02 0.  0.
          1    1    3    3  502    0 -0.91624270643E+02  0.98102087306E+03 -0.11365380745E+04  0.15041661328E+04  0.00000000000E+00 0. -1.
         -2    1    3    3    0  502  0.14904032969E+02  0.74081093713E+02 -0.87620549692E+02  0.11570436194E+03  0.00000000000E+00 0.  1.
         13    1    5    5    0    0  0.34445050065E+02 -0.53799981651E+03  0.27880158516E+03  0.60692716855E+03  0.00000000000E+00 0. -1.
        -13    1    5    5    0    0  0.10463465819E+03 -0.44692115474E+03  0.26254603776E+03  0.52878857041E+03  0.00000000000E+00 0.  1.
          4    1    6    6  503    0 -0.39136589101E+02 -0.77830177760E+02 -0.24239649146E+03  0.25757575245E+03  0.00000000000E+00 0. -1.
         -4    1    6    6    0  503 -0.23222881482E+02  0.76491822377E+01 -0.96380498404E+01  0.26281252214E+02  0.00000000000E+00 0.  1.
<mgrwt>
<rscale>  0 0.28921063E+04</rscale>
<asrwt>0</asrwt>
<pdfrwt beam="1">  1        1 0.30571452E+00 0.28921063E+04</pdfrwt>
<pdfrwt beam="2">  1       -2 0.16189213E+00 0.28921063E+04</pdfrwt>
<totfact> 0.56000791E-01</totfact>
</mgrwt>
</event>
<event>
12    5  0.5428626E-008  0.1322907E+04  0.7818608E-02  0.9011595E-01
         -2   -1    0    0    0  501 -0.00000000000E+00  0.00000000000E+00  0.45342894421E+03  0.45342894421E+03  0.00000000000E+00 0.  1.
          1   -1    0    0  501    0  0.00000000000E+00 -0.00000000000E+00 -0.96491550011E+03  0.96491550011E+03  0.00000000000E+00 0. -1.
        -24    2    1    2    0    0  0.72492648433E+02 -0.12575641317E+03 -0.48125036125E+03  0.50918760599E+03  0.81241912562E+02 0.  0.
        254    2    1    2    0    0 -0.72492648433E+02  0.12575641317E+03 -0.30236194642E+02  0.90915683834E+03  0.89698498856E+03 0.  0.
         23    2    4    4    0    0  0.17458431939E+03 -0.22349494508E+03 -0.27722889376E+03  0.40670940659E+03  0.90149913041E+02 0.  0.
         23    2    4    4    0    0 -0.24707696782E+03  0.34925135825E+03  0.24699269912E+03  0.50244743174E+03  0.91785015020E+02 0.  0.
          3    1    3    3  502    0  0.60726924629E+02 -0.12214568629E+03 -0.47707177289E+03  0.49619029065E+03  0.00000000000E+00 0. -1.
         -4    1    3    3    0  502  0.11765723804E+02 -0.36107268718E+01 -0.41785883686E+01  0.12997315335E+02  0.00000000000E+00 0.  1.
         13    1    5    5    0    0  0.14993471932E+03 -0.22698333692E+03 -0.26099821507E+03  0.37699061469E+03  0.00000000000E+00 0. -1.
        -13    1    5    5    0    0  0.24649600070E+02  0.34883918390E+01 -0.16230678693E+02  0.29718791901E+02  0.00000000000E+00 0.  1.
          2    1    6    6  503    0 -0.10561792246E+03  0.22237053530E+03  0.15881412970E+03  0.29296028452E+03  0.00000000000E+00 0. -1.
         -2    1    6    6    0  503 -0.14145904536E+03  0.12688082295E+03  0.88178569414E+02  0.20948714722E+03  0.00000000000E+00 0.  1.
<mgrwt>
<rscale>  0 0.13229068E+04</rscale>
<asrwt>0</asrwt>
<pdfrwt beam="1">  1        1 0.14844854E+00 0.13229068E+04</pdfrwt>
<pdfrwt beam="2">  1       -2 0.69758300E-01 0.13229068E+04</pdfrwt>
<totfact> 0.25973240E+01</totfact>
</mgrwt>
</event>
<event>
12    5  0.5428626E-008  0.1656957E+04  0.7818608E-02  0.8786302E-01
          1   -1    0    0  501    0  0.00000000000E+00  0.00000000000E+00  0.57884183742E+03  0.57884183742E+03  0.00000000000E+00 0. -1.
         -2   -1    0    0    0  501 -0.00000000000E+00 -0.00000000000E+00 -0.11857753383E+04  0.11857753383E+04  0.00000000000E+00 0.  1.
        -24    2    1    2    0    0  0.37018197678E+03 -0.54842605459E+02 -0.69322127074E+03  0.79192204773E+03  0.80885055341E+02 0.  0.
        254    2    1    2    0    0 -0.37018197678E+03  0.54842605459E+02  0.86287769803E+02  0.97269512803E+03  0.89367098284E+03 0.  0.
         23    2    4    4    0    0  0.23269438834E+03  0.14949484862E+03  0.18878481415E+03  0.34713930595E+03  0.91491002585E+02 0.  0.
         23    2    4    4    0    0 -0.60287636512E+03 -0.94652243162E+02 -0.10249704434E+03  0.62555582208E+03  0.91626872089E+02 0.  0.
          3    1    3    3  502    0  0.84966921263E+02  0.21064865745E+02 -0.14851153158E+03  0.17239136083E+03  0.00000000000E+00 0. -1.
         -4    1    3    3    0  502  0.28521505552E+03 -0.75907471204E+02 -0.54470973916E+03  0.61953068690E+03  0.00000000000E+00 0.  1.
         13    1    5    5    0    0  0.14440602275E+03  0.12783135641E+03  0.16335393575E+03  0.25274189089E+03  0.00000000000E+00 0.  1.
        -13    1    5    5    0    0  0.88288365587E+02  0.21663492212E+02  0.25430878397E+02  0.94397415054E+02  0.00000000000E+00 0. -1.
          2    1    6    6  503    0 -0.39832486355E+03 -0.80264668339E+02 -0.27667653920E+02  0.40727216082E+03  0.00000000000E+00 0. -1.
         -2    1    6    6    0  503 -0.20455150157E+03 -0.14387574824E+02 -0.74829390424E+02  0.21828366126E+03  0.00000000000E+00 0.  1.
<mgrwt>
<rscale>  0 0.16569567E+04</rscale>
<asrwt>0</asrwt>
<pdfrwt beam="1">  1        1 0.89052590E-01 0.16569567E+04</pdfrwt>
<pdfrwt beam="2">  1       -2 0.18242698E+00 0.16569567E+04</pdfrwt>
<totfact> 0.52549239E+00</totfact>
</mgrwt>
</event>
<event>
12    5  0.5428626E-008  0.2013327E+04  0.7818608E-02  0.8600415E-01
          1   -1    0    0  501    0  0.00000000000E+00  0.00000000000E+00  0.21181697727E+04  0.21181697727E+04  0.00000000000E+00 0. -1.
         -2   -1    0    0    0  501 -0.00000000000E+00 -0.00000000000E+00 -0.47841852335E+03  0.47841852335E+03  0.00000000000E+00 0.  1.
        -24    2    1    2    0    0  0.74147796466E+03 -0.18884444698E+03  0.96375893142E+03  0.12331137875E+04  0.79287689435E+02 0.  0.
        254    2    1    2    0    0 -0.74147796466E+03  0.18884444698E+03  0.67599231795E+03  0.13634745086E+04  0.90368430577E+03 0.  0.
         23    2    4    4    0    0 -0.77664888013E+01  0.37887539632E+03  0.38118137241E+03  0.54527565397E+03  0.91757374893E+02 0.  0.
         23    2    4    4    0    0 -0.73371147586E+03 -0.19003094935E+03  0.29481094554E+03  0.81819885465E+03  0.89953213552E+02 0.  0.
          1    1    3    3  502    0  0.26866005569E+03 -0.75297450621E+02  0.41298335445E+03  0.49840062465E+03  0.00000000000E+00 0. -1.
         -2    1    3    3    0  502  0.47281790897E+03 -0.11354699635E+03  0.55077557697E+03  0.73471316281E+03  0.00000000000E+00 0.  1.
         13    1    5    5    0    0  0.13332315450E+02  0.78138328953E+02  0.13280384648E+03  0.15466160069E+03  0.00000000000E+00 0. -1.
        -13    1    5    5    0    0 -0.21098804251E+02  0.30073706737E+03  0.24837752593E+03  0.39061405328E+03  0.00000000000E+00 0.  1.
          3    1    6    6  503    0 -0.20053937814E+03 -0.20336821793E+02  0.10555018577E+03  0.22753125109E+03  0.00000000000E+00 0. -1.
         -3    1    6    6    0  503 -0.53317209772E+03 -0.16969412756E+03  0.18926075977E+03  0.59066760356E+03  0.00000000000E+00 0.  1.
<mgrwt>
<rscale>  0 0.20133273E+04</rscale>
<asrwt>0</asrwt>
<pdfrwt beam="1">  1        1 0.32587227E+00 0.20133273E+04</pdfrwt>
<pdfrwt beam="2">  1       -2 0.73602851E-01 0.20133273E+04</pdfrwt>
<totfact> 0.33558892E+00</totfact>
</mgrwt>
</event>
<event>
12    5  0.5428626E-008  0.1685923E+04  0.7818608E-02  0.8769434E-01
         -2   -1    0    0    0  501 -0.00000000000E+00  0.00000000000E+00  0.33560058389E+03  0.33560058389E+03  0.00000000000E+00 0.  1.
          1   -1    0    0  501    0  0.00000000000E+00 -0.00000000000E+00 -0.21173514522E+04  0.21173514522E+04  0.00000000000E+00 0. -1.
        -24    2    1    2    0    0 -0.19056696304E+02 -0.20702044786E+03  0.17933905058E+03  0.28578741561E+03  0.79317894263E+02 0.  0.
        254    2    1    2    0    0  0.19056696304E+02  0.20702044786E+03 -0.19610899189E+04  0.21671646204E+04  0.89861459969E+03 0.  0.
         23    2    4    4    0    0 -0.39498645806E+03  0.52117148660E+02 -0.13252836889E+04  0.13867207858E+04  0.88809811082E+02 0.  0.
         23    2    4    4    0    0  0.41404315437E+03  0.15490329920E+03 -0.63580623000E+03  0.78044383466E+03  0.97037369989E+02 0.  0.
          1    1    3    3  502    0 -0.11191965795E+02 -0.20040432976E+02  0.58955781623E+02  0.63266604453E+02  0.00000000000E+00 0. -1.
         -2    1    3    3    0  502 -0.78647305091E+01 -0.18698001488E+03  0.12038326896E+03  0.22252081115E+03  0.00000000000E+00 0.  1.
         13    1    5    5    0    0 -0.37206389317E+03  0.25964094765E+02 -0.12291365779E+04  0.12844774820E+04  0.00000000000E+00 0.  1.
        -13    1    5    5    0    0 -0.22922564895E+02  0.26153053895E+02 -0.96147111003E+02  0.10224330376E+03  0.00000000000E+00 0. -1.
          2    1    6    6  503    0  0.20041062022E+03  0.91607220226E+02 -0.39544846657E+03  0.45269834240E+03  0.00000000000E+00 0. -1.
         -2    1    6    6    0  503  0.21363253415E+03  0.63296078974E+02 -0.24035776342E+03  0.32774549226E+03  0.00000000000E+00 0.  1.
<mgrwt>
<rscale>  0 0.16859233E+04</rscale>
<asrwt>0</asrwt>
<pdfrwt beam="1">  1        1 0.32574637E+00 0.16859233E+04</pdfrwt>
<pdfrwt beam="2">  1       -2 0.51630860E-01 0.16859233E+04</pdfrwt>
<totfact> 0.73551244E+00</totfact>
</mgrwt>
</event>
<event>
12    5  0.5428626E-008  0.2214700E+04  0.7818608E-02  0.8512335E-01
          1   -1    0    0  501    0  0.00000000000E+00  0.00000000000E+00  0.13784129106E+04  0.13784129106E+04  0.00000000000E+00 0. -1.
         -2   -1    0    0    0  501 -0.00000000000E+00 -0.00000000000E+00 -0.88959112396E+03  0.88959112396E+03  0.00000000000E+00 0.  1.
        -24    2    1    2    0    0 -0.62246398551E+03 -0.96149436556E+02  0.88845726674E+03  0.10919783520E+04  0.79713731205E+02 0.  0.
        254    2    1    2    0    0  0.62246398551E+03  0.96149436556E+02 -0.39963548011E+03  0.11760256826E+04  0.90918741837E+03 0.  0.
         23    2    4    4    0    0  0.52774432670E+03 -0.15418553478E+03 -0.60769568097E+03  0.82459018793E+03  0.91475045026E+02 0.  0.
         23    2    4    4    0    0  0.94719658810E+02  0.25033497133E+03  0.20806020085E+03  0.35143549465E+03  0.92619911927E+02 0.  0.
          1    1    3    3  502    0 -0.31341158710E+03 -0.83511609667E+02  0.48845023471E+03  0.58633151345E+03  0.00000000000E+00 0. -1.
         -2    1    3    3    0  502 -0.30905239840E+03 -0.12637826888E+02  0.40000703203E+03  0.50564683851E+03  0.00000000000E+00 0.  1.
         13    1    5    5    0    0  0.40087514885E+03 -0.80310258527E+02 -0.41774605950E+03  0.58451894137E+03  0.00000000000E+00 0.  1.
        -13    1    5    5    0    0  0.12686917785E+03 -0.73875276250E+02 -0.18994962146E+03  0.24007124656E+03  0.00000000000E+00 0. -1.
          1    1    6    6  503    0  0.11254486464E+03  0.23082146473E+03  0.18888162092E+03  0.31878074261E+03  0.00000000000E+00 0. -1.
         -1    1    6    6    0  503 -0.17825205829E+02  0.19513506602E+02  0.19178579932E+02  0.32654752043E+02  0.00000000000E+00 0.  1.
<mgrwt>
<rscale>  0 0.22146999E+04</rscale>
<asrwt>0</asrwt>
<pdfrwt beam="1">  1        1 0.21206353E+00 0.22146999E+04</pdfrwt>
<pdfrwt beam="2">  1       -2 0.13686017E+00 0.22146999E+04</pdfrwt>
<totfact> 0.24222383E+00</totfact>
</mgrwt>
</event>
<event>
12    5  0.5428626E-008  0.1310478E+04  0.7818608E-02  0.9021297E-01
          1   -1    0    0  501    0  0.00000000000E+00  0.00000000000E+00  0.72200247092E+03  0.72200247092E+03  0.00000000000E+00 0. -1.
         -4   -1    0    0    0  501 -0.00000000000E+00 -0.00000000000E+00 -0.59464948005E+03  0.59464948005E+03  0.00000000000E+00 0.  1.
        -24    2    1    2    0    0 -0.27820462454E+03 -0.86428367002E+02  0.20342013431E+03  0.36449199630E+03  0.81283384458E+02 0.  0.
        254    2    1    2    0    0  0.27820462454E+03  0.86428367002E+02 -0.76067143443E+02  0.95215995466E+03  0.90330210517E+03 0.  0.
         23    2    4    4    0    0  0.53697570741E+03 -0.17029290048E+03 -0.70495483733E+02  0.57463803715E+03  0.88863255637E+02 0.  0.
         23    2    4    4    0    0 -0.25877108287E+03  0.25672126748E+03 -0.55716597102E+01  0.37752191751E+03  0.98099298169E+02 0.  0.
          1    1    3    3  502    0 -0.28197223003E+03 -0.81535776320E+02  0.20511297177E+03  0.35808902876E+03  0.00000000000E+00 0. -1.
         -2    1    3    3    0  502  0.37676054906E+01 -0.48925906829E+01 -0.16928374610E+01  0.64029675458E+01  0.00000000000E+00 0.  1.
         13    1    5    5    0    0  0.92068461977E+02 -0.10705059875E+01 -0.30339280798E+02  0.96944415173E+02  0.00000000000E+00 0. -1.
        -13    1    5    5    0    0  0.44490724544E+03 -0.16922239449E+03 -0.40156202935E+02  0.47769362197E+03  0.00000000000E+00 0.  1.
          4    1    6    6  503    0 -0.12852438583E+02 -0.85832939569E+01  0.26432704664E+01  0.15679444870E+02  0.00000000000E+00 0. -1.
         -4    1    6    6    0  503 -0.24591864429E+03  0.26530456144E+03 -0.82149301766E+01  0.36184247264E+03  0.00000000000E+00 0.  1.
<mgrwt>
<rscale>  0 0.13104784E+04</rscale>
<asrwt>0</asrwt>
<pdfrwt beam="1">  1        1 0.11107730E+00 0.13104784E+04</pdfrwt>
<pdfrwt beam="2">  1       -4 0.91484535E-01 0.13104784E+04</pdfrwt>
<totfact> 0.12565959E+01</totfact>
</mgrwt>
</event>
<event>
12    5  0.5428626E-008  0.2107953E+04  0.7818608E-02  0.8557748E-01
          1   -1    0    0  501    0  0.00000000000E+00  0.00000000000E+00  0.12995190935E+04  0.12995190935E+04  0.00000000000E+00 0. -1.
         -2   -1    0    0    0  501 -0.00000000000E+00 -0.00000000000E+00 -0.85482894249E+03  0.85482894249E+03  0.00000000000E+00 0.  1.
        -24    2    1    2    0    0 -0.64294789295E+03  0.72483551516E+02  0.75985294111E+03  0.10011377078E+04  0.79147706777E+02 0.  0.
        254    2    1    2    0    0  0.64294789295E+03 -0.72483551516E+02 -0.31516279009E+03  0.11532103283E+04  0.90107192756E+03 0.  0.
         23    2    4    4    0    0  0.57453509239E+03 -0.11161920275E+03 -0.60043450942E+03  0.84342897146E+03  0.91112079304E+02 0.  0.
         23    2    4    4    0    0  0.68412800560E+02  0.39135651238E+02  0.28527171933E+03  0.30978135679E+03  0.91502047450E+02 0.  0.
          3    1    3    3  502    0 -0.20521861877E+03  0.58011436615E+02  0.26948304042E+03  0.34365843121E+03  0.00000000000E+00 0. -1.
         -4    1    3    3    0  502 -0.43772927418E+03  0.14472114901E+02  0.49036990069E+03  0.65747927655E+03  0.00000000000E+00 0.  1.
         13    1    5    5    0    0  0.54943249567E+03 -0.86678262171E+02 -0.57373405841E+03  0.79909946703E+03  0.00000000000E+00 0. -1.
        -13    1    5    5    0    0  0.25102596724E+02 -0.24940940583E+02 -0.26700451005E+02  0.44329504434E+02  0.00000000000E+00 0.  1.
          2    1    6    6  503    0  0.61149631679E+02  0.49047054572E+02  0.28687240515E+03  0.29738975748E+03  0.00000000000E+00 0. -1.
         -2    1    6    6    0  503  0.72631688807E+01 -0.99114033340E+01 -0.16006858270E+01  0.12391599306E+02  0.00000000000E+00 0.  1.
<mgrwt>
<rscale>  0 0.21079531E+04</rscale>
<asrwt>0</asrwt>
<pdfrwt beam="1">  1        1 0.19992602E+00 0.21079531E+04</pdfrwt>
<pdfrwt beam="2">  1       -2 0.13151214E+00 0.21079531E+04</pdfrwt>
<totfact> 0.30789602E+00</totfact>
</mgrwt>
</event>
<event>
12    5  0.5428626E-008  0.3614891E+04  0.7818608E-02  0.8087089E-01
          1   -1    0    0  501    0  0.00000000000E+00  0.00000000000E+00  0.32370719712E+04  0.32370719712E+04  0.00000000000E+00 0. -1.
         -2   -1    0    0    0  501 -0.00000000000E+00 -0.00000000000E+00 -0.10092018719E+04  0.10092018719E+04  0.00000000000E+00 0.  1.
        -24    2    1    2    0    0  0.54939378393E+03  0.15972303719E+04  0.89822954790E+03  0.19143618772E+04  0.70616467745E+02 0.  0.
        254    2    1    2    0    0 -0.54939378393E+03 -0.15972303719E+04  0.13296405514E+04  0.23319119659E+04  0.90382024220E+03 0.  0.
         23    2    4    4    0    0 -0.70086707479E+03 -0.12525034747E+04  0.71755116586E+03  0.16072877217E+04  0.92274232665E+02 0.  0.
         23    2    4    4    0    0  0.15147329086E+03 -0.34472689713E+03  0.61208938558E+03  0.72462424422E+03  0.92984342329E+02 0.  0.
          1    1    3    3  502    0  0.41825912206E+03  0.11512673124E+04  0.62434341991E+03  0.13748315619E+04  0.00000000000E+00 0. -1.
         -4    1    3    3    0  502  0.13113466187E+03  0.44596305950E+03  0.27388612799E+03  0.53953031527E+03  0.00000000000E+00 0.  1.
         13    1    5    5    0    0 -0.38014764737E+03 -0.71517274625E+03  0.35738287323E+03  0.88527216654E+03  0.00000000000E+00 0. -1.
        -13    1    5    5    0    0 -0.32071942742E+03 -0.53733072849E+03  0.36016829263E+03  0.72201555518E+03  0.00000000000E+00 0.  1.
          4    1    6    6  503    0  0.14494204130E+03 -0.30816568396E+03  0.48787207323E+03  0.59497348172E+03  0.00000000000E+00 0. -1.
         -4    1    6    6    0  503  0.65312495543E+01 -0.36561213165E+02  0.12421731235E+03  0.12965076250E+03  0.00000000000E+00 0.  1.
<mgrwt>
<rscale>  0 0.36148909E+04</rscale>
<asrwt>0</asrwt>
<pdfrwt beam="1">  1        1 0.49801107E+00 0.36148909E+04</pdfrwt>
<pdfrwt beam="2">  1       -2 0.15526183E+00 0.36148909E+04</pdfrwt>
<totfact> 0.77450187E-02</totfact>
</mgrwt>
</event>
<event>
12    5  0.5428626E-008  0.1464599E+04  0.7818608E-02  0.8908341E-01
         -2   -1    0    0    0  501 -0.00000000000E+00  0.00000000000E+00  0.56411192127E+03  0.56411192127E+03  0.00000000000E+00 0.  1.
          1   -1    0    0  501    0  0.00000000000E+00 -0.00000000000E+00 -0.95063211337E+03  0.95063211337E+03  0.00000000000E+00 0. -1.
        -24    2    1    2    0    0 -0.40621581673E+02 -0.89521935466E+02  0.33667984740E+03  0.36170270924E+03  0.88381222001E+02 0.  0.
        254    2    1    2    0    0  0.40621581673E+02  0.89521935466E+02 -0.72320003950E+03  0.11530413254E+04  0.89264870531E+03 0.  0.
         23    2    4    4    0    0  0.42123665575E+03  0.12870318329E+03 -0.57932559005E+03  0.73316090939E+03  0.88892914423E+02 0.  0.
         23    2    4    4    0    0 -0.38061507408E+03 -0.39181247821E+02 -0.14387444945E+03  0.41988041600E+03  0.95899435538E+02 0.  0.
          1    1    3    3  502    0 -0.22279413019E+02  0.34485023777E+01  0.16895297517E+02  0.28172956737E+02  0.00000000000E+00 0. -1.
         -2    1    3    3    0  502 -0.18342168654E+02 -0.92970437843E+02  0.31978454988E+03  0.33352975251E+03  0.00000000000E+00 0.  1.
         13    1    5    5    0    0  0.39668160516E+03  0.96897452188E+02 -0.51392006657E+03  0.65639869511E+03  0.00000000000E+00 0.  1.
        -13    1    5    5    0    0  0.24555050592E+02  0.31805731099E+02 -0.65405523478E+02  0.76762214284E+02  0.00000000000E+00 0. -1.
          4    1    6    6  503    0 -0.28490341581E+03 -0.65473257744E+02 -0.84830659576E+02  0.30438946208E+03  0.00000000000E+00 0.  1.
         -4    1    6    6    0  503 -0.95711658267E+02  0.26292009923E+02 -0.59043789877E+02  0.11549095392E+03  0.00000000000E+00 0. -1.
<mgrwt>
<rscale>  0 0.14645995E+04</rscale>
<asrwt>0</asrwt>
<pdfrwt beam="1">  1        1 0.14625109E+00 0.14645995E+04</pdfrwt>
<pdfrwt beam="2">  1       -2 0.86786450E-01 0.14645995E+04</pdfrwt>
<totfact> 0.16175932E+01</totfact>
</mgrwt>
</event>
<event>
12    5  0.5428626E-008  0.2389147E+04  0.7818608E-02  0.8443578E-01
          1   -1    0    0  501    0  0.00000000000E+00  0.00000000000E+00  0.12117637818E+04  0.12117637818E+04  0.00000000000E+00 0. -1.
         -2   -1    0    0    0  501 -0.00000000000E+00 -0.00000000000E+00 -0.11776269912E+04  0.11776269912E+04  0.00000000000E+00 0.  1.
        -24    2    1    2    0    0 -0.47332234771E+03 -0.74558409110E+03  0.52046759143E+03  0.10282662444E+04  0.80717246080E+02 0.  0.
        254    2    1    2    0    0  0.47332234771E+03  0.74558409110E+03 -0.48633080079E+03  0.13611245286E+04  0.91444663754E+03 0.  0.
         23    2    4    4    0    0 -0.29087405560E+02  0.43915259540E+03  0.16432762031E+03  0.47893802093E+03  0.93150318737E+02 0.  0.
         23    2    4    4    0    0  0.50240975327E+03  0.30643149569E+03 -0.65065842111E+03  0.88218650771E+03  0.92632778707E+02 0.  0.
          3    1    3    3  502    0 -0.33168183858E+03 -0.53350897899E+03  0.32740848668E+03  0.70840736152E+03  0.00000000000E+00 0. -1.
         -4    1    3    3    0  502 -0.14164050912E+03 -0.21207511211E+03  0.19305910475E+03  0.31985888283E+03  0.00000000000E+00 0.  1.
         13    1    5    5    0    0 -0.10049054575E+02  0.40808352478E+03  0.16975617433E+03  0.44209761979E+03  0.00000000000E+00 0. -1.
        -13    1    5    5    0    0 -0.19038350985E+02  0.31069070620E+02 -0.54285540204E+01  0.36840401140E+02  0.00000000000E+00 0.  1.
          4    1    6    6  503    0  0.10917129418E+02  0.29793644866E+02 -0.33987952033E+02  0.46497589964E+02  0.00000000000E+00 0.  1.
         -4    1    6    6    0  503  0.49149262385E+03  0.27663785083E+03 -0.61667046907E+03  0.83568891774E+03  0.00000000000E+00 0. -1.
<mgrwt>
<rscale>  0 0.23891469E+04</rscale>
<asrwt>0</asrwt>
<pdfrwt beam="1">  1        1 0.18642520E+00 0.23891469E+04</pdfrwt>
<pdfrwt beam="2">  1       -2 0.18117338E+00 0.23891469E+04</pdfrwt>
<totfact> 0.14673448E+00</totfact>
</mgrwt>
</event>
<event>
12    5  0.5428626E-008  0.1075470E+04  0.7818608E-02  0.9229436E-01
         -2   -1    0    0    0  501 -0.00000000000E+00  0.00000000000E+00  0.10275901912E+04  0.10275901912E+04  0.00000000000E+00 0.  1.
          1   -1    0    0  501    0  0.00000000000E+00 -0.00000000000E+00 -0.28139529668E+03  0.28139529668E+03  0.00000000000E+00 0. -1.
        -24    2    1    2    0    0 -0.29187447128E+01  0.19482461498E+02  0.29099032871E+03  0.30200915851E+03  0.78396907112E+02 0.  0.
        254    2    1    2    0    0  0.29187447128E+01 -0.19482461498E+02  0.45520456586E+03  0.10069763294E+04  0.89799891195E+03 0.  0.
         23    2    4    4    0    0  0.14824194452E+03 -0.81861933563E+02  0.68668388988E+03  0.71333600790E+03  0.92932476914E+02 0.  0.
         23    2    4    4    0    0 -0.14532319981E+03  0.62379472065E+02 -0.23147932403E+03  0.29364032152E+03  0.87360918224E+02 0.  0.
          3    1    3    3  502    0  0.23363678317E+02  0.13590590324E+02  0.33180573526E+02  0.42796215596E+02  0.00000000000E+00 0. -1.
         -4    1    3    3    0  502 -0.26282423030E+02  0.58918711747E+01  0.25780975518E+03  0.25921294291E+03  0.00000000000E+00 0.  1.
         13    1    5    5    0    0  0.91279925595E+01  0.55566069539E+01  0.44141423504E+01  0.11562040551E+02  0.00000000000E+00 0. -1.
        -13    1    5    5    0    0  0.13911395196E+03 -0.87418540517E+02  0.68226974753E+03  0.70177396735E+03  0.00000000000E+00 0.  1.
          3    1    6    6  503    0 -0.21244395934E+02  0.51558356242E+02 -0.80297018177E+02  0.97760930770E+02  0.00000000000E+00 0. -1.
         -3    1    6    6    0  503 -0.12407880387E+03  0.10821115823E+02 -0.15118230585E+03  0.19587939075E+03  0.00000000000E+00 0.  1.
<mgrwt>
<rscale>  0 0.10754702E+04</rscale>
<asrwt>0</asrwt>
<pdfrwt beam="1">  1        1 0.43291585E-01 0.10754702E+04</pdfrwt>
<pdfrwt beam="2">  1       -2 0.15809080E+00 0.10754702E+04</pdfrwt>
<totfact> 0.21574827E+01</totfact>
</mgrwt>
</event>
<event>
12    5  0.5428626E-008  0.1106558E+04  0.7818608E-02  0.9198823E-01
          1   -1    0    0  501    0  0.00000000000E+00  0.00000000000E+00  0.71227548297E+03  0.71227548297E+03  0.00000000000E+00 0. -1.
         -2   -1    0    0    0  501 -0.00000000000E+00 -0.00000000000E+00 -0.42977426407E+03  0.42977426407E+03  0.00000000000E+00 0.  1.
        -24    2    1    2    0    0  0.83672107517E+02  0.11337373157E+03  0.63923480004E+01  0.16259935445E+03  0.80889204267E+02 0.  0.
        254    2    1    2    0    0 -0.83672107517E+02 -0.11337373157E+03  0.27610887090E+03  0.97945039259E+03  0.92910297512E+03 0.  0.
         23    2    4    4    0    0  0.16903127552E+03  0.16468208531E+03 -0.23083059374E+03  0.34185539238E+03  0.88828964707E+02 0.  0.
         23    2    4    4    0    0 -0.25270338304E+03 -0.27805581688E+03  0.50693946464E+03  0.63759500021E+03  0.91464344843E+02 0.  0.
          1    1    3    3  502    0  0.52285672289E+02  0.57598960618E+02  0.42985087533E+02  0.88877159839E+02  0.00000000000E+00 0. -1.
         -2    1    3    3    0  502  0.31386435228E+02  0.55774770954E+02 -0.36592739533E+02  0.73722194608E+02  0.00000000000E+00 0.  1.
         13    1    5    5    0    0  0.98776834834E+02  0.50990574649E+02 -0.64626203135E+02  0.12858245578E+03  0.00000000000E+00 0.  1.
        -13    1    5    5    0    0  0.70254440691E+02  0.11369151066E+03 -0.16620439060E+03  0.21327293660E+03  0.00000000000E+00 0. -1.
          1    1    6    6  503    0 -0.30753501043E+02 -0.62313425183E+02  0.14885509411E+03  0.16427592589E+03  0.00000000000E+00 0. -1.
         -1    1    6    6    0  503 -0.22194988200E+03 -0.21574239170E+03  0.35808437053E+03  0.47331907432E+03  0.00000000000E+00 0.  1.
<mgrwt>
<rscale>  0 0.11065580E+04</rscale>
<asrwt>0</asrwt>
<pdfrwt beam="1">  1        1 0.10958084E+00 0.11065580E+04</pdfrwt>
<pdfrwt beam="2">  1       -2 0.66119118E-01 0.11065580E+04</pdfrwt>
<totfact> 0.48716288E+01</totfact>
</mgrwt>
</event>
<event>
12    5  0.5428626E-008  0.1474859E+04  0.7818608E-02  0.8901346E-01
          1   -1    0    0  501    0  0.00000000000E+00  0.00000000000E+00  0.34090336012E+03  0.34090336012E+03  0.00000000000E+00 0. -1.
         -2   -1    0    0    0  501 -0.00000000000E+00 -0.00000000000E+00 -0.15951804590E+04  0.15951804590E+04  0.00000000000E+00 0.  1.
        -24    2    1    2    0    0  0.74393880799E+02  0.40797953570E+03 -0.12946770293E+03  0.44137873092E+03  0.77920131915E+02 0.  0.
        254    2    1    2    0    0 -0.74393880799E+02 -0.40797953570E+03 -0.11248093959E+04  0.14947050882E+04  0.89272917081E+03 0.  0.
         23    2    4    4    0    0  0.19788932327E+03 -0.44244436186E+03 -0.21131843666E+03  0.53663008819E+03  0.91646998173E+02 0.  0.
         23    2    4    4    0    0 -0.27228320407E+03  0.34464826158E+02 -0.91349095928E+03  0.95807499999E+03  0.90088875416E+02 0.  0.
          3    1    3    3  502    0  0.84986150240E+02  0.33312219331E+03 -0.12439690232E+03  0.36560584065E+03  0.00000000000E+00 0. -1.
         -4    1    3    3    0  502 -0.10592269442E+02  0.74857342393E+02 -0.50708006081E+01  0.75772890276E+02  0.00000000000E+00 0.  1.
         13    1    5    5    0    0  0.17023742444E+03 -0.38491230712E+03 -0.14647025632E+03  0.44563639981E+03  0.00000000000E+00 0.  1.
        -13    1    5    5    0    0  0.27651898824E+02 -0.57532054744E+02 -0.64848180336E+02  0.90993688377E+02  0.00000000000E+00 0. -1.
          3    1    6    6  503    0 -0.76936647294E+02 -0.20548491124E+02 -0.17613860653E+03  0.19330363912E+03  0.00000000000E+00 0. -1.
         -3    1    6    6    0  503 -0.19534655677E+03  0.55013317282E+02 -0.73735235274E+03  0.76477136088E+03  0.00000000000E+00 0.  1.
<mgrwt>
<rscale>  0 0.14748592E+04</rscale>
<asrwt>0</asrwt>
<pdfrwt beam="1">  1        1 0.52446670E-01 0.14748592E+04</pdfrwt>
<pdfrwt beam="2">  1       -2 0.24541238E+00 0.14748592E+04</pdfrwt>
<totfact> 0.43083628E+00</totfact>
</mgrwt>
</event>
<event>
12    5  0.5428626E-008  0.1379476E+04  0.7818608E-02  0.8968810E-01
         -2   -1    0    0    0  501 -0.00000000000E+00  0.00000000000E+00  0.41685023419E+03  0.41685023419E+03  0.00000000000E+00 0.  1.
          1   -1    0    0  501    0  0.00000000000E+00 -0.00000000000E+00 -0.11412698010E+04  0.11412698010E+04  0.00000000000E+00 0. -1.
        -24    2    1    2    0    0  0.31041346754E+03 -0.23885105886E+02  0.57486359623E+02  0.32617785301E+03  0.78487522153E+02 0.  0.
        254    2    1    2    0    0 -0.31041346754E+03  0.23885105886E+02 -0.78190592643E+03  0.12319421822E+04  0.89965417985E+03 0.  0.
         23    2    4    4    0    0 -0.55787141254E+03 -0.12303657951E+03 -0.72089881966E+03  0.92437555042E+03  0.91741687378E+02 0.  0.
         23    2    4    4    0    0  0.24745794500E+03  0.14692168539E+03 -0.61007106767E+02  0.30756663175E+03  0.89743800414E+02 0.  0.
          3    1    3    3  502    0  0.34888449347E+02 -0.23697095732E+01 -0.18496118084E+02  0.39559143134E+02  0.00000000000E+00 0. -1.
         -4    1    3    3    0  502  0.27552501819E+03 -0.21515396313E+02  0.75982477707E+02  0.28661870987E+03  0.00000000000E+00 0.  1.
         13    1    5    5    0    0  0.27830142978E+01  0.27227307646E+01 -0.65372781219E+01  0.76088393754E+01  0.00000000000E+00 0. -1.
        -13    1    5    5    0    0 -0.56065442684E+03 -0.12575931027E+03 -0.71436154154E+03  0.91676671105E+03  0.00000000000E+00 0.  1.
          2    1    6    6  503    0  0.13960873204E+03  0.11886084730E+03 -0.63962235319E+01  0.18346501236E+03  0.00000000000E+00 0. -1.
         -2    1    6    6    0  503  0.10784921296E+03  0.28060838088E+02 -0.54610883236E+02  0.12410161940E+03  0.00000000000E+00 0.  1.
<mgrwt>
<rscale>  0 0.13794761E+04</rscale>
<asrwt>0</asrwt>
<pdfrwt beam="1">  1        1 0.17557997E+00 0.13794761E+04</pdfrwt>
<pdfrwt beam="2">  1       -2 0.64130806E-01 0.13794761E+04</pdfrwt>
<totfact> 0.22725310E+01</totfact>
</mgrwt>
</event>
<event>
12    5  0.5428626E-008  0.2408051E+04  0.7818608E-02  0.8436496E-01
          1   -1    0    0  501    0  0.00000000000E+00  0.00000000000E+00  0.17371309735E+04  0.17371309735E+04  0.00000000000E+00 0. -1.
         -2   -1    0    0    0  501 -0.00000000000E+00 -0.00000000000E+00 -0.83452370988E+03  0.83452370988E+03  0.00000000000E+00 0.  1.
        -24    2    1    2    0    0  0.75127329000E+03  0.17777416705E+03 -0.34943984768E+03  0.85124836147E+03  0.80624779221E+02 0.  0.
        254    2    1    2    0    0 -0.75127329000E+03 -0.17777416705E+03  0.12520471113E+04  0.17204063219E+04  0.89227839424E+03 0.  0.
         23    2    4    4    0    0 -0.41132168445E+03 -0.11014587837E+03  0.12883891188E+04  0.13600091806E+04  0.91437449808E+02 0.  0.
         23    2    4    4    0    0 -0.33995160555E+03 -0.67628288674E+02 -0.36342007459E+02  0.36039714136E+03  0.91786047135E+02 0.  0.
          1    1    3    3  502    0  0.57109682139E+03  0.16463279665E+03 -0.24758824483E+03  0.64385982645E+03  0.00000000000E+00 0. -1.
         -2    1    3    3    0  502  0.18017646861E+03  0.13141370401E+02 -0.10185160285E+03  0.20738853502E+03  0.00000000000E+00 0.  1.
         13    1    5    5    0    0 -0.18694340298E+03 -0.13280461684E+02  0.64846568489E+03  0.67500514892E+03  0.00000000000E+00 0.  1.
        -13    1    5    5    0    0 -0.22437828147E+03 -0.96865416691E+02  0.63992343387E+03  0.68500403164E+03  0.00000000000E+00 0. -1.
          2    1    6    6  503    0 -0.19219840268E+03  0.21667015149E+01 -0.42576565282E+02  0.19686971453E+03  0.00000000000E+00 0. -1.
         -2    1    6    6    0  503 -0.14775320287E+03 -0.69794990189E+02  0.62345578229E+01  0.16352742683E+03  0.00000000000E+00 0.  1.
<mgrwt>
<rscale>  0 0.24080507E+04</rscale>
<asrwt>0</asrwt>
<pdfrwt beam="1">  1        1 0.26725092E+00 0.24080507E+04</pdfrwt>
<pdfrwt beam="2">  1       -2 0.12838826E+00 0.24080507E+04</pdfrwt>
<totfact> 0.15851929E+00</totfact>
</mgrwt>
</event>
<event>
12    5  0.5428626E-008  0.1916613E+04  0.7818608E-02  0.8646631E-01
          1   -1    0    0  501    0  0.00000000000E+00  0.00000000000E+00  0.15457620569E+04  0.15457620569E+04  0.00000000000E+00 0. -1.
         -2   -1    0    0    0  501 -0.00000000000E+00 -0.00000000000E+00 -0.59410893970E+03  0.59410893970E+03  0.00000000000E+00 0.  1.
        -24    2    1    2    0    0  0.44604439024E+03  0.19113025963E+03  0.99584455035E+03  0.11106698781E+04  0.79967714913E+02 0.  0.
        254    2    1    2    0    0 -0.44604439024E+03 -0.19113025963E+03 -0.44191433168E+02  0.10292011185E+04  0.90654050395E+03 0.  0.
         23    2    4    4    0    0 -0.66128604216E+03 -0.33054079394E+03  0.37934978205E+02  0.74562679374E+03  0.89240164483E+02 0.  0.
         23    2    4    4    0    0  0.21524165192E+03  0.13941053430E+03 -0.82126411373E+02  0.28357432474E+03  0.88912228712E+02 0.  0.
          3    1    3    3  502    0  0.37227656466E+03  0.18017071127E+03  0.88753581489E+03  0.97916860065E+03  0.00000000000E+00 0. -1.
         -4    1    3    3    0  502  0.73767825578E+02  0.10959548367E+02  0.10830873546E+03  0.13150127744E+03  0.00000000000E+00 0.  1.
         13    1    5    5    0    0 -0.58535437627E+02 -0.53478888706E+02  0.21048030298E+02  0.82032972486E+02  0.00000000000E+00 0.  1.
        -13    1    5    5    0    0 -0.60275060453E+03 -0.27706190523E+03  0.16886947907E+02  0.66359382125E+03  0.00000000000E+00 0. -1.
          4    1    6    6  503    0  0.14552960309E+03  0.65431652081E+02 -0.11860307598E+02  0.16000260425E+03  0.00000000000E+00 0. -1.
         -4    1    6    6    0  503  0.69712048822E+02  0.73978882223E+02 -0.70266103775E+02  0.12357172049E+03  0.00000000000E+00 0.  1.
<mgrwt>
<rscale>  0 0.19166127E+04</rscale>
<asrwt>0</asrwt>
<pdfrwt beam="1">  1        1 0.23780955E+00 0.19166127E+04</pdfrwt>
<pdfrwt beam="2">  1       -2 0.91401376E-01 0.19166127E+04</pdfrwt>
<totfact> 0.50852931E+00</totfact>
</mgrwt>
</event>
<event>
12    5  0.5428626E-008  0.2176280E+04  0.7818608E-02  0.8528366E-01
          1   -1    0    0  501    0  0.00000000000E+00  0.00000000000E+00  0.11903090570E+04  0.11903090570E+04  0.00000000000E+00 0. -1.
         -2   -1    0    0    0  501 -0.00000000000E+00 -0.00000000000E+00 -0.99474040198E+03  0.99474040198E+03  0.00000000000E+00 0.  1.
        -24    2    1    2    0    0 -0.19910676174E+03  0.73442875968E+03  0.56755912753E+03  0.95348810691E+03  0.89370583317E+02 0.  0.
        254    2    1    2    0    0  0.19910676174E+03 -0.73442875968E+03 -0.37199047253E+03  0.12315613520E+04  0.89405667973E+03 0.  0.
         23    2    4    4    0    0  0.47450903369E+03 -0.70719266026E+03 -0.38630440787E+03  0.93962055765E+03  0.91517293713E+02 0.  0.
         23    2    4    4    0    0 -0.27540227195E+03 -0.27236099426E+02  0.14313935338E+02  0.29194079439E+03  0.91849453872E+02 0.  0.
          3    1    3    3  502    0 -0.16033327156E+03  0.57043179766E+03  0.48559004050E+03  0.76609195348E+03  0.00000000000E+00 0. -1.
         -4    1    3    3    0  502 -0.38773490181E+02  0.16399696203E+03  0.81969087027E+02  0.18739615344E+03  0.00000000000E+00 0.  1.
         13    1    5    5    0    0  0.20560141733E+03 -0.36500905288E+03 -0.15432950488E+03  0.44645397026E+03  0.00000000000E+00 0.  1.
        -13    1    5    5    0    0  0.26890761637E+03 -0.34218360738E+03 -0.23197490299E+03  0.49316658739E+03  0.00000000000E+00 0. -1.
          4    1    6    6  503    0 -0.12307396886E+03 -0.58194269428E+02  0.77973035405E+01  0.13636191825E+03  0.00000000000E+00 0. -1.
         -4    1    6    6    0  503 -0.15232830309E+03  0.30958170002E+02  0.65166317979E+01  0.15557887614E+03  0.00000000000E+00 0.  1.
<mgrwt>
<rscale>  0 0.21762799E+04</rscale>
<asrwt>0</asrwt>
<pdfrwt beam="1">  1        1 0.18312447E+00 0.21762799E+04</pdfrwt>
<pdfrwt beam="2">  1       -2 0.15303698E+00 0.21762799E+04</pdfrwt>
<totfact> 0.24727617E+00</totfact>
</mgrwt>
</event>
<event>
12    5  0.5428626E-008  0.1762585E+04  0.7818608E-02  0.8726453E-01
          1   -1    0    0  501    0  0.00000000000E+00  0.00000000000E+00  0.71040308820E+03  0.71040308820E+03  0.00000000000E+00 0. -1.
         -2   -1    0    0    0  501 -0.00000000000E+00 -0.00000000000E+00 -0.10932899626E+04  0.10932899626E+04  0.00000000000E+00 0.  1.
        -24    2    1    2    0    0  0.55293596256E+03  0.25507288979E+03 -0.36319412885E+03  0.71373061254E+03  0.81859967292E+02 0.  0.
        254    2    1    2    0    0 -0.55293596256E+03 -0.25507288979E+03 -0.19692745600E+02  0.10899624383E+04  0.90378645425E+03 0.  0.
         23    2    4    4    0    0 -0.27273593046E+03  0.64009858778E+02 -0.41080999022E+03  0.50564287674E+03  0.91802619508E+02 0.  0.
         23    2    4    4    0    0 -0.28020003210E+03 -0.31908274857E+03  0.39111724462E+03  0.58431956156E+03  0.90170907511E+02 0.  0.
          3    1    3    3  502    0  0.25756873896E+03  0.77281118667E+02 -0.14171756390E+03  0.30397021978E+03  0.00000000000E+00 0. -1.
         -4    1    3    3    0  502  0.29536722360E+03  0.17779177112E+03 -0.22147656495E+03  0.40976039276E+03  0.00000000000E+00 0.  1.
         13    1    5    5    0    0  0.63953974718E+01  0.21251588070E+01 -0.25081015029E+01  0.71908262339E+01  0.00000000000E+00 0. -1.
        -13    1    5    5    0    0 -0.27913132793E+03  0.61884699971E+02 -0.40830188872E+03  0.49845205051E+03  0.00000000000E+00 0.  1.
          4    1    6    6  503    0 -0.13565921958E+03 -0.88545642895E+02  0.14362246495E+03  0.21649749923E+03  0.00000000000E+00 0. -1.
         -4    1    6    6    0  503 -0.14454081251E+03 -0.23053710567E+03  0.24749477967E+03  0.36782206233E+03  0.00000000000E+00 0.  1.
<mgrwt>
<rscale>  0 0.17625851E+04</rscale>
<asrwt>0</asrwt>
<pdfrwt beam="1">  1        1 0.10929278E+00 0.17625851E+04</pdfrwt>
<pdfrwt beam="2">  1       -2 0.16819846E+00 0.17625851E+04</pdfrwt>
<totfact> 0.48448230E+00</totfact>
</mgrwt>
</event>
<event>
12    5  0.5428626E-008  0.1174944E+04  0.7818608E-02  0.9135075E-01
          1   -1    0    0  501    0  0.00000000000E+00  0.00000000000E+00  0.70375834823E+03  0.70375834823E+03  0.00000000000E+00 0. -1.
         -2   -1    0    0    0  501 -0.00000000000E+00 -0.00000000000E+00 -0.49040014962E+03  0.49040014962E+03  0.00000000000E+00 0.  1.
        -24    2    1    2    0    0  0.17759370876E+03 -0.14679152496E+03  0.97771704524E+02  0.26247753738E+03  0.79043495847E+02 0.  0.
        254    2    1    2    0    0 -0.17759370876E+03  0.14679152496E+03  0.11558649408E+03  0.93168096047E+03  0.89531106175E+03 0.  0.
         23    2    4    4    0    0 -0.32732925075E+02  0.67249555214E+02 -0.38158921234E+03  0.39967254273E+03  0.92378933644E+02 0.  0.
         23    2    4    4    0    0 -0.14486078368E+03  0.79541969744E+02  0.49717570642E+03  0.53200841773E+03  0.92399685517E+02 0.  0.
          1    1    3    3  502    0  0.10216337149E+03 -0.12410274568E+03  0.87572184601E+02  0.18305117720E+03  0.00000000000E+00 0. -1.
         -2    1    3    3    0  502  0.75430337263E+02 -0.22688779281E+02  0.10199519923E+02  0.79426360181E+02  0.00000000000E+00 0.  1.
         13    1    5    5    0    0  0.72768713795E+01  0.54535813826E+02 -0.93079484644E+02  0.10812445749E+03  0.00000000000E+00 0. -1.
        -13    1    5    5    0    0 -0.40009796455E+02  0.12713741388E+02 -0.28850972769E+03  0.29154808524E+03  0.00000000000E+00 0.  1.
          1    1    6    6  503    0  0.59941729064E+01 -0.80322116133E+01  0.85242980721E+01  0.13157134561E+02  0.00000000000E+00 0. -1.
         -1    1    6    6    0  503 -0.15085495659E+03  0.87574181357E+02  0.48865140835E+03  0.51885128317E+03  0.00000000000E+00 0.  1.
<mgrwt>
<rscale>  0 0.11749437E+04</rscale>
<asrwt>0</asrwt>
<pdfrwt beam="1">  1        1 0.10827052E+00 0.11749437E+04</pdfrwt>
<pdfrwt beam="2">  1       -2 0.75446177E-01 0.11749437E+04</pdfrwt>
<totfact> 0.36986852E+01</totfact>
</mgrwt>
</event>
<event>
12    5  0.5428626E-008  0.1705293E+04  0.7818608E-02  0.8758351E-01
         -2   -1    0    0    0  501 -0.00000000000E+00  0.00000000000E+00  0.28298790612E+03  0.28298790612E+03  0.00000000000E+00 0.  1.
          1   -1    0    0  501    0  0.00000000000E+00 -0.00000000000E+00 -0.25690349117E+04  0.25690349117E+04  0.00000000000E+00 0. -1.
        -24    2    1    2    0    0  0.44242094153E+03  0.42321375113E+03 -0.73896114548E+03  0.96299153834E+03  0.80268049224E+02 0.  0.
        254    2    1    2    0    0 -0.44242094153E+03 -0.42321375113E+03 -0.15470858601E+04  0.18890312795E+04  0.89449334694E+03 0.  0.
         23    2    4    4    0    0  0.16711642915E+03 -0.32902037807E+03 -0.26599754287E+03  0.46427629785E+03  0.92819598494E+02 0.  0.
         23    2    4    4    0    0 -0.60953737068E+03 -0.94193373062E+02 -0.12810883173E+04  0.14247549817E+04  0.91275863965E+02 0.  0.
          3    1    3    3  502    0  0.30051741514E+02  0.56128585747E+01 -0.34712751285E+02  0.46255663990E+02  0.00000000000E+00 0. -1.
         -4    1    3    3    0  502  0.41236920002E+03  0.41760089255E+03 -0.70424839420E+03  0.91673587435E+03  0.00000000000E+00 0.  1.
         13    1    5    5    0    0  0.11150575600E+03 -0.17150764656E+03 -0.19551294607E+03  0.28297299965E+03  0.00000000000E+00 0.  1.
        -13    1    5    5    0    0  0.55610673146E+02 -0.15751273150E+03 -0.70484596795E+02  0.18130329820E+03  0.00000000000E+00 0. -1.
          3    1    6    6  503    0 -0.17438303175E+03 -0.58590216425E+02 -0.44514624482E+03  0.48166111998E+03  0.00000000000E+00 0. -1.
         -3    1    6    6    0  503 -0.43515433893E+03 -0.35603156637E+02 -0.83594207246E+03  0.94309386169E+03  0.00000000000E+00 0.  1.
<mgrwt>
<rscale>  0 0.17052927E+04</rscale>
<asrwt>0</asrwt>
<pdfrwt beam="1">  1        1 0.39523613E+00 0.17052927E+04</pdfrwt>
<pdfrwt beam="2">  1       -2 0.43536602E-01 0.17052927E+04</pdfrwt>
<totfact> 0.50773666E+00</totfact>
</mgrwt>
</event>
<event>
12    5  0.5428626E-008  0.1776319E+04  0.7818608E-02  0.8718995E-01
          1   -1    0    0  501    0  0.00000000000E+00  0.00000000000E+00  0.20403178259E+04  0.20403178259E+04  0.00000000000E+00 0. -1.
         -2   -1    0    0    0  501 -0.00000000000E+00 -0.00000000000E+00 -0.38661982654E+03  0.38661982654E+03  0.00000000000E+00 0.  1.
        -24    2    1    2    0    0  0.19783120703E+03  0.62047772040E+03  0.74608403340E+03  0.99366352706E+03  0.81215959781E+02 0.  0.
        254    2    1    2    0    0 -0.19783120703E+03 -0.62047772040E+03  0.90761396599E+03  0.14332741254E+04  0.89798764987E+03 0.  0.
         23    2    4    4    0    0 -0.61016304856E+02  0.32467938078E+02  0.72921893143E+03  0.73802924066E+03  0.90275986058E+02 0.  0.
         23    2    4    4    0    0 -0.13681490217E+03 -0.65294565848E+03  0.17839503456E+03  0.69524488475E+03  0.80525219790E+02 0.  0.
          1    1    3    3  502    0  0.12939609935E+03  0.46622517123E+03  0.59732801571E+03  0.76870671857E+03  0.00000000000E+00 0. -1.
         -4    1    3    3    0  502  0.68435107676E+02  0.15425254917E+03  0.14875601769E+03  0.22495680849E+03  0.00000000000E+00 0.  1.
         13    1    5    5    0    0  0.14097771427E+02  0.21046571246E+02  0.69928890279E+02  0.74375769011E+02  0.00000000000E+00 0.  1.
        -13    1    5    5    0    0 -0.75114076283E+02  0.11421366832E+02  0.65929004115E+03  0.66365347165E+03  0.00000000000E+00 0. -1.
          1    1    6    6  503    0 -0.69993667468E+02 -0.50246693764E+03  0.13527258705E+03  0.52504362648E+03  0.00000000000E+00 0. -1.
         -1    1    6    6    0  503 -0.66821234706E+02 -0.15047872085E+03  0.43122447509E+02  0.17020125826E+03  0.00000000000E+00 0.  1.
<mgrwt>
<rscale>  0 0.17763190E+04</rscale>
<asrwt>0</asrwt>
<pdfrwt beam="1">  1        1 0.31389504E+00 0.17763190E+04</pdfrwt>
<pdfrwt beam="2">  1       -2 0.59479974E-01 0.17763190E+04</pdfrwt>
<totfact> 0.61292809E+00</totfact>
</mgrwt>
</event>
<event>
12    5  0.5428626E-008  0.1438456E+04  0.7818608E-02  0.8926443E-01
         -2   -1    0    0    0  501 -0.00000000000E+00  0.00000000000E+00  0.61433287478E+03  0.61433287478E+03  0.00000000000E+00 0.  1.
          1   -1    0    0  501    0  0.00000000000E+00 -0.00000000000E+00 -0.84203356191E+03  0.84203356191E+03  0.00000000000E+00 0. -1.
        -24    2    1    2    0    0 -0.23702687532E+03 -0.13840074244E+03  0.27009795798E+03  0.39326904482E+03  0.79819355897E+02 0.  0.
        254    2    1    2    0    0  0.23702687532E+03  0.13840074244E+03 -0.49779864511E+03  0.10630973919E+04  0.89835186225E+03 0.  0.
         23    2    4    4    0    0  0.49033422261E+03  0.33933972870E+03 -0.33035360817E+03  0.68780740155E+03  0.91468102955E+02 0.  0.
         23    2    4    4    0    0 -0.25330734729E+03 -0.20093898626E+03 -0.16744503694E+03  0.37528999033E+03  0.90904609642E+02 0.  0.
          3    1    3    3  502    0 -0.35756103158E+02 -0.51610518390E+02  0.35156038715E+02  0.71958957605E+02  0.00000000000E+00 0. -1.
         -4    1    3    3    0  502 -0.20127077216E+03 -0.86790224052E+02  0.23494191926E+03  0.32131008721E+03  0.00000000000E+00 0.  1.
         13    1    5    5    0    0  0.42731687444E+03  0.32660888983E+03 -0.28145300773E+03  0.60703284397E+03  0.00000000000E+00 0.  1.
        -13    1    5    5    0    0  0.63017348168E+02  0.12730838868E+02 -0.48900600442E+02  0.80774557579E+02  0.00000000000E+00 0. -1.
          3    1    6    6  503    0 -0.29476676817E+02 -0.24811102726E+02 -0.59122904117E+02  0.70568995216E+02  0.00000000000E+00 0. -1.
         -3    1    6    6    0  503 -0.22383067047E+03 -0.17612788353E+03 -0.10832213282E+03  0.30472099511E+03  0.00000000000E+00 0.  1.
<mgrwt>
<rscale>  0 0.14384560E+04</rscale>
<asrwt>0</asrwt>
<pdfrwt beam="1">  1        1 0.12954362E+00 0.14384560E+04</pdfrwt>
<pdfrwt beam="2">  1       -2 0.94512750E-01 0.14384560E+04</pdfrwt>
<totfact> 0.16344533E+01</totfact>
</mgrwt>
</event>
<event>
12    5  0.5428626E-008  0.1831601E+04  0.7818608E-02  0.8689673E-01
         -2   -1    0    0    0  501 -0.00000000000E+00  0.00000000000E+00  0.27875923722E+03  0.27875923722E+03  0.00000000000E+00 0.  1.
          1   -1    0    0  501    0  0.00000000000E+00 -0.00000000000E+00 -0.30086553136E+04  0.30086553136E+04  0.00000000000E+00 0. -1.
        -24    2    1    2    0    0  0.27509197930E+03  0.59259193315E+03 -0.68435488985E+03  0.94959244003E+03  0.80891226924E+02 0.  0.
        254    2    1    2    0    0 -0.27509197930E+03 -0.59259193315E+03 -0.20455411865E+04  0.23378221108E+04  0.92430118447E+03 0.  0.
         23    2    4    4    0    0  0.26551297581E+02  0.22842546629E+03 -0.38509992019E+03  0.45892014390E+03  0.97069999949E+02 0.  0.
         23    2    4    4    0    0 -0.30164327688E+03 -0.82101739944E+03 -0.16604412664E+04  0.18789019669E+04  0.90272728800E+02 0.  0.
          1    1    3    3  502    0 -0.45371291014E+01  0.21804243020E+01 -0.49977570559E+01  0.70934734940E+01  0.00000000000E+00 0. -1.
         -2    1    3    3    0  502  0.27962910840E+03  0.59041150885E+03 -0.67935713279E+03  0.94249896654E+03  0.00000000000E+00 0.  1.
         13    1    5    5    0    0  0.57247329439E+02  0.19016027890E+03 -0.28398532221E+03  0.34653405551E+03  0.00000000000E+00 0. -1.
        -13    1    5    5    0    0 -0.30696031858E+02  0.38265187396E+02 -0.10111459798E+03  0.11238608838E+03  0.00000000000E+00 0.  1.
          3    1    6    6  503    0 -0.55124843926E+02 -0.76560992061E+02 -0.20381167308E+03  0.22458747073E+03  0.00000000000E+00 0. -1.
         -3    1    6    6    0  503 -0.24651843296E+03 -0.74445640738E+03 -0.14566295933E+04  0.16543144962E+04  0.00000000000E+00 0.  1.
<mgrwt>
<rscale>  0 0.18316009E+04</rscale>
<asrwt>0</asrwt>
<pdfrwt beam="1">  1        1 0.46287007E+00 0.18316009E+04</pdfrwt>
<pdfrwt beam="2">  1       -2 0.42886035E-01 0.18316009E+04</pdfrwt>
<totfact> 0.25175972E+00</totfact>
</mgrwt>
</event>
<event>
12    5  0.5428626E-008  0.1753957E+04  0.7818608E-02  0.8731175E-01
         -2   -1    0    0    0  501 -0.00000000000E+00  0.00000000000E+00  0.97836223819E+03  0.97836223819E+03  0.00000000000E+00 0.  1.
          1   -1    0    0  501    0  0.00000000000E+00 -0.00000000000E+00 -0.78610070302E+03  0.78610070302E+03  0.00000000000E+00 0. -1.
        -24    2    1    2    0    0  0.56157101568E+03  0.31944814173E+02 -0.17690566584E+03  0.59502173681E+03  0.79829667790E+02 0.  0.
        254    2    1    2    0    0 -0.56157101568E+03 -0.31944814173E+02  0.36916720101E+03  0.11694412044E+04  0.95651755417E+03 0.  0.
         23    2    4    4    0    0  0.53248866983E+02 -0.35741790512E+03  0.27147239392E+03  0.46092954636E+03  0.90420049275E+02 0.  0.
         23    2    4    4    0    0 -0.61481988267E+03  0.32547309095E+03  0.97694807092E+02  0.70851165804E+03  0.92240301363E+02 0.  0.
          1    1    3    3  502    0  0.54545043324E+03  0.39761533261E+02 -0.15865205814E+03  0.56944501948E+03  0.00000000000E+00 0. -1.
         -2    1    3    3    0  502  0.16120582441E+02 -0.78167190872E+01 -0.18253607700E+02  0.25576717334E+02  0.00000000000E+00 0.  1.
         13    1    5    5    0    0 -0.72801308654E+01 -0.12459927903E+03  0.51702819652E+02  0.13509686229E+03  0.00000000000E+00 0.  1.
        -13    1    5    5    0    0  0.60528997848E+02 -0.23281862609E+03  0.21976957427E+03  0.32583268407E+03  0.00000000000E+00 0. -1.
          1    1    6    6  503    0 -0.39747475062E+03  0.23505439792E+03  0.26315070882E+02  0.46252484292E+03  0.00000000000E+00 0. -1.
         -1    1    6    6    0  503 -0.21734513205E+03  0.90418693032E+02  0.71379736209E+02  0.24598681513E+03  0.00000000000E+00 0.  1.
<mgrwt>
<rscale>  0 0.17539569E+04</rscale>
<asrwt>0</asrwt>
<pdfrwt beam="1">  1        1 0.12093857E+00 0.17539569E+04</pdfrwt>
<pdfrwt beam="2">  1       -2 0.15051727E+00 0.17539569E+04</pdfrwt>
<totfact> 0.55998852E+00</totfact>
</mgrwt>
</event>
<event>
12    5  0.5428626E-008  0.2016641E+04  0.7818608E-02  0.8598880E-01
          1   -1    0    0  501    0  0.00000000000E+00  0.00000000000E+00  0.11651325986E+04  0.11651325986E+04  0.00000000000E+00 0. -1.
         -2   -1    0    0    0  501 -0.00000000000E+00 -0.00000000000E+00 -0.87261327283E+03  0.87261327283E+03  0.00000000000E+00 0.  1.
        -24    2    1    2    0    0 -0.13153522844E+03 -0.57896775478E+03 -0.42784447941E+03  0.73624773858E+03  0.80651451349E+02 0.  0.
        254    2    1    2    0    0  0.13153522844E+03  0.57896775478E+03  0.72036380518E+03  0.13014981328E+04  0.90690032561E+03 0.  0.
         23    2    4    4    0    0 -0.29797074533E+02  0.44194573172E+03 -0.88211856414E+02  0.46057130593E+03  0.90225832243E+02 0.  0.
         23    2    4    4    0    0  0.16133230298E+03  0.13702202306E+03  0.80857566159E+03  0.84092682691E+03  0.92521245712E+02 0.  0.
          3    1    3    3  502    0 -0.88661959266E+02 -0.24665847070E+03 -0.15812339691E+03  0.30611166727E+03  0.00000000000E+00 0. -1.
         -2    1    3    3    0  502 -0.42873269178E+02 -0.33230928408E+03 -0.26972108250E+03  0.43013607131E+03  0.00000000000E+00 0.  1.
         13    1    5    5    0    0 -0.41594155415E+01 -0.20344609452E+01  0.43137005047E+01  0.63283316149E+01  0.00000000000E+00 0.  1.
        -13    1    5    5    0    0 -0.25637658991E+02  0.44398019266E+03 -0.92525556919E+02  0.45424297432E+03  0.00000000000E+00 0. -1.
          1    1    6    6  503    0  0.13394909486E+03  0.69126705898E+02  0.43863788368E+03  0.46381467687E+03  0.00000000000E+00 0. -1.
         -1    1    6    6    0  503  0.27383208118E+02  0.67895317161E+02  0.36993777791E+03  0.37711215004E+03  0.00000000000E+00 0.  1.
<mgrwt>
<rscale>  0 0.20166409E+04</rscale>
<asrwt>0</asrwt>
<pdfrwt beam="1">  1        1 0.17925117E+00 0.20166409E+04</pdfrwt>
<pdfrwt beam="2">  1       -2 0.13424820E+00 0.20166409E+04</pdfrwt>
<totfact> 0.36858211E+00</totfact>
</mgrwt>
</event>
<event>
12    5  0.5428626E-008  0.1452134E+04  0.7818608E-02  0.8916922E-01
         -2   -1    0    0    0  501 -0.00000000000E+00  0.00000000000E+00  0.53900845713E+03  0.53900845713E+03  0.00000000000E+00 0.  1.
          1   -1    0    0  501    0  0.00000000000E+00 -0.00000000000E+00 -0.97804260496E+03  0.97804260496E+03  0.00000000000E+00 0. -1.
        -24    2    1    2    0    0  0.63634200006E+02 -0.37691107761E+03 -0.35554903920E+03  0.52842921675E+03  0.81920974156E+02 0.  0.
        254    2    1    2    0    0 -0.63634200006E+02  0.37691107761E+03 -0.83485108626E+02  0.98862184533E+03  0.90790534632E+03 0.  0.
         23    2    4    4    0    0 -0.29823138859E+03 -0.18644816441E+03 -0.79110710238E+02  0.37130824610E+03  0.88918108395E+02 0.  0.
         23    2    4    4    0    0  0.23459718858E+03  0.56335924201E+03 -0.43743983880E+01  0.61731359923E+03  0.92991762962E+02 0.  0.
          3    1    3    3  502    0  0.58974844334E+02 -0.38034790995E+03 -0.35233605435E+03  0.52180768494E+03  0.00000000000E+00 0. -1.
         -4    1    3    3    0  502  0.46593556718E+01  0.34368323468E+01 -0.32129848568E+01  0.66215318127E+01  0.00000000000E+00 0.  1.
         13    1    5    5    0    0 -0.23926080186E+03 -0.15939046872E+03 -0.28265430956E+02  0.28887711473E+03  0.00000000000E+00 0. -1.
        -13    1    5    5    0    0 -0.58970586723E+02 -0.27057695689E+02 -0.50845279282E+02  0.82431131374E+02  0.00000000000E+00 0.  1.
          4    1    6    6  503    0  0.11699765065E+03  0.37349551923E+03 -0.29868690498E+02  0.39252960629E+03  0.00000000000E+00 0. -1.
         -4    1    6    6    0  503  0.11759953793E+03  0.18986372278E+03  0.25494292110E+02  0.22478399293E+03  0.00000000000E+00 0.  1.
<mgrwt>
<rscale>  0 0.14521339E+04</rscale>
<asrwt>0</asrwt>
<pdfrwt beam="1">  1        1 0.15046809E+00 0.14521339E+04</pdfrwt>
<pdfrwt beam="2">  1       -2 0.82924378E-01 0.14521339E+04</pdfrwt>
<totfact> 0.17083728E+01</totfact>
</mgrwt>
</event>
<event>
12    5  0.5428626E-008  0.1576297E+04  0.7818608E-02  0.8835243E-01
         -2   -1    0    0    0  501 -0.00000000000E+00  0.00000000000E+00  0.43797431422E+03  0.43797431422E+03  0.00000000000E+00 0.  1.
          1   -1    0    0  501    0  0.00000000000E+00 -0.00000000000E+00 -0.14182982726E+04  0.14182982726E+04  0.00000000000E+00 0. -1.
        -24    2    1    2    0    0  0.38452190108E+03 -0.10856277325E+03 -0.74047199664E+03  0.84522819031E+03  0.80429768974E+02 0.  0.
        254    2    1    2    0    0 -0.38452190108E+03  0.10856277325E+03 -0.23985196177E+03  0.10110443965E+04  0.89723956670E+03 0.  0.
         23    2    4    4    0    0 -0.55168576064E+03 -0.10923028061E+03 -0.38407372015E+03  0.68778915971E+03  0.96191855239E+02 0.  0.
         23    2    4    4    0    0  0.16716385956E+03  0.21779305387E+03  0.14422175839E+03  0.32325523682E+03  0.91194639557E+02 0.  0.
          3    1    3    3  502    0  0.33114640264E+03 -0.73373085306E+02 -0.66351251154E+03  0.74517810126E+03  0.00000000000E+00 0. -1.
         -4    1    3    3    0  502  0.53375498443E+02 -0.35189687948E+02 -0.76959485104E+02  0.10005008905E+03  0.00000000000E+00 0.  1.
         13    1    5    5    0    0 -0.10404297481E+02 -0.16973467934E+01  0.58677659202E+01  0.12064869212E+02  0.00000000000E+00 0. -1.
        -13    1    5    5    0    0 -0.54128146316E+03 -0.10753293382E+03 -0.38994148607E+03  0.67572429050E+03  0.00000000000E+00 0.  1.
          3    1    6    6  503    0 -0.59810466039E+01  0.24183062668E+02  0.31374487554E+02  0.40061851027E+02  0.00000000000E+00 0. -1.
         -3    1    6    6    0  503  0.17314490616E+03  0.19360999120E+03  0.11284727083E+03  0.28319338579E+03  0.00000000000E+00 0.  1.
<mgrwt>
<rscale>  0 0.15762972E+04</rscale>
<asrwt>0</asrwt>
<pdfrwt beam="1">  1        1 0.21819973E+00 0.15762972E+04</pdfrwt>
<pdfrwt beam="2">  1       -2 0.67380664E-01 0.15762972E+04</pdfrwt>
<totfact> 0.12708169E+01</totfact>
</mgrwt>
</event>
<event>
12    5  0.5428626E-008  0.2051594E+04  0.7818608E-02  0.8582872E-01
          1   -1    0    0  501    0  0.00000000000E+00  0.00000000000E+00  0.30698136967E+04  0.30698136967E+04  0.00000000000E+00 0. -1.
         -2   -1    0    0    0  501 -0.00000000000E+00 -0.00000000000E+00 -0.34277621416E+03  0.34277621416E+03  0.00000000000E+00 0.  1.
        -24    2    1    2    0    0 -0.22895973749E+03 -0.47109047289E+03  0.41263307177E+02  0.53134903269E+03  0.79248589735E+02 0.  0.
        254    2    1    2    0    0  0.22895973749E+03  0.47109047289E+03  0.26857741753E+04  0.28812408782E+04  0.90211821949E+03 0.  0.
         23    2    4    4    0    0  0.23408775559E+03  0.49593899247E+03  0.70207054249E+03  0.89537551190E+03  0.89675521279E+02 0.  0.
         23    2    4    4    0    0 -0.51280180950E+01 -0.24848519581E+02  0.19837036329E+04  0.19858653662E+04  0.89092111624E+02 0.  0.
          3    1    3    3  502    0 -0.16296332284E+03 -0.27458159944E+03  0.53242903459E+02  0.32370805691E+03  0.00000000000E+00 0. -1.
         -4    1    3    3    0  502 -0.65996414649E+02 -0.19650887345E+03 -0.11979596282E+02  0.20764097577E+03  0.00000000000E+00 0.  1.
         13    1    5    5    0    0  0.15426871893E+03  0.24281194620E+03  0.40829257103E+03  0.49945900975E+03  0.00000000000E+00 0.  1.
        -13    1    5    5    0    0  0.79819036661E+02  0.25312704627E+03  0.29377797145E+03  0.39591650216E+03  0.00000000000E+00 0. -1.
          3    1    6    6  503    0  0.36410153411E+00 -0.40593009868E+02  0.39621416260E+03  0.39828832228E+03  0.00000000000E+00 0. -1.
         -3    1    6    6    0  503 -0.54921196291E+01  0.15744490287E+02  0.15874894703E+04  0.15875770440E+04  0.00000000000E+00 0.  1.
<mgrwt>
<rscale>  0 0.20515936E+04</rscale>
<asrwt>0</asrwt>
<pdfrwt beam="1">  1        1 0.47227901E+00 0.20515936E+04</pdfrwt>
<pdfrwt beam="2">  1       -2 0.52734804E-01 0.20515936E+04</pdfrwt>
<totfact> 0.14650656E+00</totfact>
</mgrwt>
</event>
<event>
12    5  0.5428626E-008  0.1277489E+04  0.7818608E-02  0.9047610E-01
         -2   -1    0    0    0  501 -0.00000000000E+00  0.00000000000E+00  0.15596763241E+03  0.15596763241E+03  0.00000000000E+00 0.  1.
          1   -1    0    0  501    0  0.00000000000E+00 -0.00000000000E+00 -0.26158906972E+04  0.26158906972E+04  0.00000000000E+00 0. -1.
        -24    2    1    2    0    0  0.13404974301E+03  0.25634811623E+03 -0.36898559585E+03  0.47466703858E+03  0.73991467616E+02 0.  0.
        254    2    1    2    0    0 -0.13404974301E+03 -0.25634811623E+03 -0.20909374689E+04  0.22971912910E+04  0.90630272989E+03 0.  0.
         23    2    4    4    0    0 -0.31086267684E+02  0.29845523505E+03 -0.37605761646E+03  0.48951701549E+03  0.90364230735E+02 0.  0.
         23    2    4    4    0    0 -0.10296347533E+03 -0.55480335127E+03 -0.17148798524E+04  0.18076742755E+04  0.92006206904E+02 0.  0.
          1    1    3    3  502    0  0.61478149620E+01 -0.21233536633E+01 -0.19383696382E+00  0.65070601930E+01  0.00000000000E+00 0. -1.
         -2    1    3    3    0  502  0.12790192805E+03  0.25847146989E+03 -0.36879175888E+03  0.46815997839E+03  0.00000000000E+00 0.  1.
         13    1    5    5    0    0 -0.22727829814E+02  0.27311653017E+03 -0.37271157752E+03  0.46262632147E+03  0.00000000000E+00 0.  1.
        -13    1    5    5    0    0 -0.83584378697E+01  0.25338704880E+02 -0.33460389395E+01  0.26890694026E+02  0.00000000000E+00 0. -1.
          4    1    6    6  503    0  0.11940724606E+02 -0.55079379016E+02 -0.22798329148E+03  0.23484612003E+03  0.00000000000E+00 0. -1.
         -4    1    6    6    0  503 -0.11490419993E+03 -0.49972397226E+03 -0.14868965610E+04  0.15728281555E+04  0.00000000000E+00 0.  1.
<mgrwt>
<rscale>  0 0.12774886E+04</rscale>
<asrwt>0</asrwt>
<pdfrwt beam="1">  1        1 0.40244469E+00 0.12774886E+04</pdfrwt>
<pdfrwt beam="2">  1       -2 0.23995022E-01 0.12774886E+04</pdfrwt>
<totfact> 0.15108302E+01</totfact>
</mgrwt>
</event>
<event>
12    5  0.5428626E-008  0.3579134E+04  0.7818608E-02  0.8095288E-01
          1   -1    0    0  501    0  0.00000000000E+00  0.00000000000E+00  0.20044921906E+04  0.20044921906E+04  0.00000000000E+00 0. -1.
         -2   -1    0    0    0  501 -0.00000000000E+00 -0.00000000000E+00 -0.15976866110E+04  0.15976866110E+04  0.00000000000E+00 0.  1.
        -24    2    1    2    0    0 -0.49611797703E+03  0.27522189780E+03 -0.13952280226E+04  0.15087105896E+04  0.87557226368E+02 0.  0.
        254    2    1    2    0    0  0.49611797703E+03 -0.27522189780E+03  0.18020336023E+04  0.20934682121E+04  0.90188907914E+03 0.  0.
         23    2    4    4    0    0 -0.11010245066E+03  0.22227789651E+03  0.59256691202E+03  0.64878987551E+03  0.90899639256E+02 0.  0.
         23    2    4    4    0    0  0.60622042769E+03 -0.49749979431E+03  0.12094666902E+04  0.14446783365E+04  0.96314947078E+02 0.  0.
          1    1    3    3  502    0 -0.22318640894E+03  0.74963798387E+02 -0.58643598865E+03  0.63193268074E+03  0.00000000000E+00 0. -1.
         -2    1    3    3    0  502 -0.27293156809E+03  0.20025809941E+03 -0.80879203393E+03  0.87677790882E+03  0.00000000000E+00 0.  1.
         13    1    5    5    0    0  0.15982230371E+02  0.33640060211E+02  0.87747538631E+02  0.95324266976E+02  0.00000000000E+00 0.  1.
        -13    1    5    5    0    0 -0.12608468103E+03  0.18863783629E+03  0.50481937339E+03  0.55346560853E+03  0.00000000000E+00 0. -1.
          4    1    6    6  503    0  0.47189079927E+03 -0.37560934531E+03  0.99783721830E+03  0.11659512944E+04  0.00000000000E+00 0. -1.
         -4    1    6    6    0  503  0.13432962842E+03 -0.12189044899E+03  0.21162947193E+03  0.27872704213E+03  0.00000000000E+00 0.  1.
<mgrwt>
<rscale>  0 0.35791342E+04</rscale>
<asrwt>0</asrwt>
<pdfrwt beam="1">  1        1 0.30838341E+00 0.35791342E+04</pdfrwt>
<pdfrwt beam="2">  1       -2 0.24579794E+00 0.35791342E+04</pdfrwt>
<totfact> 0.14383026E-01</totfact>
</mgrwt>
</event>
<event>
12    5  0.5428626E-008  0.1608083E+04  0.7818608E-02  0.8815598E-01
          1   -1    0    0  501    0  0.00000000000E+00  0.00000000000E+00  0.12775330310E+04  0.12775330310E+04  0.00000000000E+00 0. -1.
         -2   -1    0    0    0  501 -0.00000000000E+00 -0.00000000000E+00 -0.50604007514E+03  0.50604007514E+03  0.00000000000E+00 0.  1.
        -24    2    1    2    0    0 -0.65280654053E+02 -0.12773656977E+02  0.87021159779E+03  0.87645062683E+03  0.80453379291E+02 0.  0.
        254    2    1    2    0    0  0.65280654053E+02  0.12773656977E+02 -0.98718641929E+02  0.90712247930E+03  0.89927809497E+03 0.  0.
         23    2    4    4    0    0  0.13831711053E+03  0.43267799658E+03 -0.15066835704E+02  0.46344398277E+03  0.90617017379E+02 0.  0.
         23    2    4    4    0    0 -0.73036456479E+02 -0.41990433960E+03 -0.83651806225E+02  0.44367849654E+03  0.90548358437E+02 0.  0.
          1    1    3    3  502    0 -0.22671428836E+02 -0.65100197242E+01  0.71460423011E+03  0.71499341237E+03  0.00000000000E+00 0. -1.
         -2    1    3    3    0  502 -0.42609225217E+02 -0.62636372527E+01  0.15560736768E+03  0.16145721446E+03  0.00000000000E+00 0.  1.
         13    1    5    5    0    0  0.13872416200E+03  0.35331626056E+03  0.11511409714E+02  0.37974897716E+03  0.00000000000E+00 0.  1.
        -13    1    5    5    0    0 -0.40705147222E+00  0.79361736014E+02 -0.26578245418E+02  0.83695005607E+02  0.00000000000E+00 0. -1.
          1    1    6    6  503    0  0.22087162415E+01  0.23822484480E+01 -0.73106945386E+01  0.79999868587E+01  0.00000000000E+00 0. -1.
         -1    1    6    6    0  503 -0.75245172720E+02 -0.42228658805E+03 -0.76341111687E+02  0.43567850968E+03  0.00000000000E+00 0.  1.
<mgrwt>
<rscale>  0 0.16080832E+04</rscale>
<asrwt>0</asrwt>
<pdfrwt beam="1">  1        1 0.19654354E+00 0.16080832E+04</pdfrwt>
<pdfrwt beam="2">  1       -2 0.77852320E-01 0.16080832E+04</pdfrwt>
<totfact> 0.11602525E+01</totfact>
</mgrwt>
</event>
<event>
12    5  0.5428626E-008  0.2964190E+04  0.7818608E-02  0.8254031E-01
         -2   -1    0    0    0  501 -0.00000000000E+00  0.00000000000E+00  0.98671230642E+03  0.98671230642E+03  0.00000000000E+00 0.  1.
          1   -1    0    0  501    0  0.00000000000E+00 -0.00000000000E+00 -0.22261870082E+04  0.22261870082E+04  0.00000000000E+00 0. -1.
        -24    2    1    2    0    0  0.77363707665E+03 -0.10204341847E+04 -0.12233710407E+03  0.12881499535E+04  0.67555043643E+02 0.  0.
        254    2    1    2    0    0 -0.77363707665E+03  0.10204341847E+04 -0.11171375977E+04  0.19247493611E+04  0.90380497856E+03 0.  0.
         23    2    4    4    0    0 -0.58742924360E+03  0.11654325841E+04 -0.86601272383E+03  0.15688678860E+04  0.89789652537E+02 0.  0.
         23    2    4    4    0    0 -0.18620783304E+03 -0.14499839935E+03 -0.25112487385E+03  0.35588147511E+03  0.88825836095E+02 0.  0.
          3    1    3    3  502    0  0.86071891179E+01 -0.81193413386E+01  0.51071073130E+01  0.12887589123E+02  0.00000000000E+00 0. -1.
         -2    1    3    3    0  502  0.76502988753E+03 -0.10123148434E+04 -0.12744421138E+03  0.12752623643E+04  0.00000000000E+00 0.  1.
         13    1    5    5    0    0 -0.14198627955E+02  0.74181291030E+02 -0.48186057126E+02  0.89589960799E+02  0.00000000000E+00 0.  1.
        -13    1    5    5    0    0 -0.57323061565E+03  0.10912512930E+04 -0.81782666671E+03  0.14792779252E+04  0.00000000000E+00 0. -1.
          3    1    6    6  503    0 -0.19015233957E+03 -0.13621524790E+03 -0.21231734973E+03  0.31589739316E+03  0.00000000000E+00 0. -1.
         -3    1    6    6    0  503  0.39445065315E+01 -0.87831514419E+01 -0.38807524118E+02  0.39984081947E+02  0.00000000000E+00 0.  1.
<mgrwt>
<rscale>  0 0.29641904E+04</rscale>
<asrwt>0</asrwt>
<pdfrwt beam="1">  1        1 0.34249030E+00 0.29641904E+04</pdfrwt>
<pdfrwt beam="2">  1       -2 0.15180190E+00 0.29641904E+04</pdfrwt>
<totfact> 0.45551508E-01</totfact>
</mgrwt>
</event>
<event>
12    5  0.5428626E-008  0.3473183E+04  0.7818608E-02  0.8120175E-01
          1   -1    0    0  501    0  0.00000000000E+00  0.00000000000E+00  0.17774369940E+04  0.17774369940E+04  0.00000000000E+00 0. -1.
         -2   -1    0    0    0  501 -0.00000000000E+00 -0.00000000000E+00 -0.16966847201E+04  0.16966847201E+04  0.00000000000E+00 0.  1.
        -24    2    1    2    0    0 -0.32529536542E+03 -0.76464389177E+03 -0.13573358653E+04  0.15935001332E+04  0.79904111717E+02 0.  0.
        254    2    1    2    0    0  0.32529536542E+03  0.76464389177E+03  0.14380881393E+04  0.18806215810E+04  0.88212395866E+03 0.  0.
         23    2    4    4    0    0 -0.64618788244E+02  0.21846263570E+03 -0.43018951541E+02  0.25241065871E+03  0.99794786686E+02 0.  0.
         23    2    4    4    0    0  0.38991415366E+03  0.54618125608E+03  0.14811070908E+04  0.16282109223E+04  0.83937960022E+02 0.  0.
          1    1    3    3  502    0 -0.71396761658E+02 -0.97143200639E+02 -0.18845814541E+03  0.22372029764E+03  0.00000000000E+00 0. -1.
         -4    1    3    3    0  502 -0.25389860376E+03 -0.66750069113E+03 -0.11688777199E+04  0.13697798355E+04  0.00000000000E+00 0.  1.
         13    1    5    5    0    0 -0.24776114746E+02  0.20485498217E+03 -0.40093367160E+02  0.21020679739E+03  0.00000000000E+00 0.  1.
        -13    1    5    5    0    0 -0.39842673497E+02  0.13607653528E+02 -0.29255843813E+01  0.42203861315E+02  0.00000000000E+00 0. -1.
          2    1    6    6  503    0  0.53864603476E+02  0.11424058430E+03  0.22419047138E+03  0.25732017812E+03  0.00000000000E+00 0. -1.
         -2    1    6    6    0  503  0.33604955019E+03  0.43194067177E+03  0.12569166194E+04  0.13708907441E+04  0.00000000000E+00 0.  1.
<mgrwt>
<rscale>  0 0.34731831E+04</rscale>
<asrwt>0</asrwt>
<pdfrwt beam="1">  1        1 0.27345184E+00 0.34731831E+04</pdfrwt>
<pdfrwt beam="2">  1       -2 0.26102842E+00 0.34731831E+04</pdfrwt>
<totfact> 0.16677948E-01</totfact>
</mgrwt>
</event>
<event>
12    5  0.5428626E-008  0.1707415E+04  0.7818608E-02  0.8757147E-01
         -2   -1    0    0    0  501 -0.00000000000E+00  0.00000000000E+00  0.40781140238E+03  0.40781140238E+03  0.00000000000E+00 0.  1.
          1   -1    0    0  501    0  0.00000000000E+00 -0.00000000000E+00 -0.17871405639E+04  0.17871405639E+04  0.00000000000E+00 0. -1.
        -24    2    1    2    0    0 -0.20783888414E+02  0.24873191506E+03  0.21987950951E+03  0.34207962481E+03  0.79824403655E+02 0.  0.
        254    2    1    2    0    0  0.20783888414E+02 -0.24873191506E+03 -0.15992086710E+04  0.18528723415E+04  0.90186917272E+03 0.  0.
         23    2    4    4    0    0  0.30529213206E+03  0.13423244659E+03 -0.11137326267E+04  0.11660182507E+04  0.89311598523E+02 0.  0.
         23    2    4    4    0    0 -0.28450824364E+03 -0.38296436165E+03 -0.48547604433E+03  0.68685409075E+03  0.92059270929E+02 0.  0.
          1    1    3    3  502    0  0.22857597327E+02  0.30394061242E+02  0.20509425681E+02  0.43207699038E+02  0.00000000000E+00 0. -1.
         -2    1    3    3    0  502 -0.43641485741E+02  0.21833785382E+03  0.19937008383E+03  0.29887192577E+03  0.00000000000E+00 0.  1.
         13    1    5    5    0    0  0.17552672837E+03  0.80631648447E+02 -0.49042378963E+03  0.52709258061E+03  0.00000000000E+00 0. -1.
        -13    1    5    5    0    0  0.12976540369E+03  0.53600798147E+02 -0.62330883706E+03  0.63892567011E+03  0.00000000000E+00 0.  1.
          1    1    6    6  503    0 -0.24506452101E+03 -0.36993074148E+03 -0.45299931719E+03  0.63412439972E+03  0.00000000000E+00 0. -1.
         -1    1    6    6    0  503 -0.39443722636E+02 -0.13033620175E+02 -0.32476727143E+02  0.52729691031E+02  0.00000000000E+00 0.  1.
<mgrwt>
<rscale>  0 0.17074148E+04</rscale>
<asrwt>0</asrwt>
<pdfrwt beam="1">  1        1 0.27494471E+00 0.17074148E+04</pdfrwt>
<pdfrwt beam="2">  1       -2 0.62740215E-01 0.17074148E+04</pdfrwt>
<totfact> 0.81739479E+00</totfact>
</mgrwt>
</event>
<event>
12    5  0.5428626E-008  0.1883795E+04  0.7818608E-02  0.8662965E-01
          1   -1    0    0  501    0  0.00000000000E+00  0.00000000000E+00  0.56222193065E+03  0.56222193065E+03  0.00000000000E+00 0. -1.
         -2   -1    0    0    0  501 -0.00000000000E+00 -0.00000000000E+00 -0.15779719847E+04  0.15779719847E+04  0.00000000000E+00 0.  1.
        -24    2    1    2    0    0 -0.14250975053E+03 -0.15911112675E+03 -0.11637058823E+04  0.11858466928E+04  0.79972611827E+02 0.  0.
        254    2    1    2    0    0  0.14250975053E+03  0.15911112675E+03  0.14795582825E+03  0.95434722257E+03  0.91829315279E+03 0.  0.
         23    2    4    4    0    0  0.80673677404E+02 -0.21310093801E+03  0.41624492379E+03  0.48247065204E+03  0.87165598105E+02 0.  0.
         23    2    4    4    0    0  0.61836073130E+02  0.37221206476E+03 -0.26828909553E+03  0.47187657053E+03  0.91230137241E+02 0.  0.
          1    1    3    3  502    0 -0.65200878569E+01 -0.16525787608E+02 -0.27895561743E+02  0.33072277918E+02  0.00000000000E+00 0. -1.
         -2    1    3    3    0  502 -0.13598966268E+03 -0.14258533914E+03 -0.11358103206E+04  0.11527744149E+04  0.00000000000E+00 0.  1.
         13    1    5    5    0    0 -0.14484292020E+02 -0.61023413466E+02  0.83305222316E+02  0.10427565282E+03  0.00000000000E+00 0.  1.
        -13    1    5    5    0    0  0.95157969424E+02 -0.15207752454E+03  0.33293970147E+03  0.37819499921E+03  0.00000000000E+00 0. -1.
          3    1    6    6  503    0 -0.19525307831E+02  0.14853399661E+03 -0.11356353122E+03  0.18799005670E+03  0.00000000000E+00 0. -1.
         -3    1    6    6    0  503  0.81361380960E+02  0.22367806814E+03 -0.15472556431E+03  0.28388651382E+03  0.00000000000E+00 0.  1.
<mgrwt>
<rscale>  0 0.18837945E+04</rscale>
<asrwt>0</asrwt>
<pdfrwt beam="1">  1        1 0.86495682E-01 0.18837945E+04</pdfrwt>
<pdfrwt beam="2">  1       -2 0.24276492E+00 0.18837945E+04</pdfrwt>
<totfact> 0.21955079E+00</totfact>
</mgrwt>
</event>
<event>
12    5  0.5428626E-008  0.1796798E+04  0.7818608E-02  0.8708004E-01
          1   -1    0    0  501    0  0.00000000000E+00  0.00000000000E+00  0.73543411125E+03  0.73543411125E+03  0.00000000000E+00 0. -1.
         -2   -1    0    0    0  501 -0.00000000000E+00 -0.00000000000E+00 -0.10974756768E+04  0.10974756768E+04  0.00000000000E+00 0.  1.
        -24    2    1    2    0    0  0.16507701002E+03 -0.65147016436E+03 -0.99600156971E+02  0.68413932350E+03  0.80390474596E+02 0.  0.
        254    2    1    2    0    0 -0.16507701002E+03  0.65147016436E+03 -0.26244140857E+03  0.11487704645E+04  0.89394311508E+03 0.  0.
         23    2    4    4    0    0 -0.46357844203E+03  0.39866935892E+03 -0.38471377811E+03  0.72869420271E+03  0.95646852229E+02 0.  0.
         23    2    4    4    0    0  0.29850143201E+03  0.25280080544E+03  0.12227236954E+03  0.42007626183E+03  0.92207273379E+02 0.  0.
          3    1    3    3  502    0  0.13103659120E+03 -0.57442220408E+03 -0.63829559690E+02  0.59262607896E+03  0.00000000000E+00 0. -1.
         -4    1    3    3    0  502  0.34040418823E+02 -0.77047960279E+02 -0.35770597282E+02  0.91513244542E+02  0.00000000000E+00 0.  1.
         13    1    5    5    0    0 -0.40384790278E+03  0.31091078910E+03 -0.28981233991E+03  0.58630183329E+03  0.00000000000E+00 0.  1.
        -13    1    5    5    0    0 -0.59730539250E+02  0.87758569826E+02 -0.94901438204E+02  0.14239236942E+03  0.00000000000E+00 0. -1.
          1    1    6    6  503    0  0.15905252766E+03  0.16470396717E+03  0.11178933678E+03  0.25479787906E+03  0.00000000000E+00 0. -1.
         -1    1    6    6    0  503  0.13944890435E+03  0.88096838270E+02  0.10483032760E+02  0.16527838277E+03  0.00000000000E+00 0.  1.
<mgrwt>
<rscale>  0 0.17967983E+04</rscale>
<asrwt>0</asrwt>
<pdfrwt beam="1">  1        1 0.11314371E+00 0.17967983E+04</pdfrwt>
<pdfrwt beam="2">  1       -2 0.16884241E+00 0.17967983E+04</pdfrwt>
<totfact> 0.45320651E+00</totfact>
</mgrwt>
</event>
<event>
12    5  0.5428626E-008  0.2042680E+04  0.7818608E-02  0.8586922E-01
         -2   -1    0    0    0  501 -0.00000000000E+00  0.00000000000E+00  0.95034190950E+03  0.95034190950E+03  0.00000000000E+00 0.  1.
          1   -1    0    0  501    0  0.00000000000E+00 -0.00000000000E+00 -0.10976425316E+04  0.10976425316E+04  0.00000000000E+00 0. -1.
        -24    2    1    2    0    0 -0.20848655524E+03 -0.45636841775E+03 -0.71018931818E+03  0.87280361756E+03  0.75355893776E+02 0.  0.
        254    2    1    2    0    0  0.20848655524E+03  0.45636841775E+03  0.56288869613E+03  0.11751808235E+04  0.90136979494E+03 0.  0.
         23    2    4    4    0    0 -0.41370899229E+02  0.45178913243E+03 -0.88530464504E+02  0.47132080814E+03  0.92090659443E+02 0.  0.
         23    2    4    4    0    0  0.24985745447E+03  0.45792853162E+01  0.65141916063E+03  0.70386001535E+03  0.92856238088E+02 0.  0.
          1    1    3    3  502    0 -0.13259845222E+03 -0.31893683423E+03 -0.54223618413E+03  0.64290211785E+03  0.00000000000E+00 0. -1.
         -2    1    3    3    0  502 -0.75888103024E+02 -0.13743158352E+03 -0.16795313406E+03  0.22990149971E+03  0.00000000000E+00 0.  1.
         13    1    5    5    0    0 -0.17297288047E+02  0.42983914101E+03 -0.85505843448E+02  0.43860247672E+03  0.00000000000E+00 0.  1.
        -13    1    5    5    0    0 -0.24073611182E+02  0.21949991419E+02 -0.30246210558E+01  0.32718331424E+02  0.00000000000E+00 0. -1.
          1    1    6    6  503    0  0.39433334372E+01 -0.16124124292E+02  0.20400852925E+02  0.26300799662E+02  0.00000000000E+00 0. -1.
         -1    1    6    6    0  503  0.24591412104E+03  0.20703409609E+02  0.63101830771E+03  0.67755921568E+03  0.00000000000E+00 0.  1.
<mgrwt>
<rscale>  0 0.20426803E+04</rscale>
<asrwt>0</asrwt>
<pdfrwt beam="1">  1        1 0.16886808E+00 0.20426803E+04</pdfrwt>
<pdfrwt beam="2">  1       -2 0.14620645E+00 0.20426803E+04</pdfrwt>
<totfact> 0.33081049E+00</totfact>
</mgrwt>
</event>
<event>
12    5  0.5428626E-008  0.3101951E+04  0.7818608E-02  0.8215203E-01
         -4   -1    0    0    0  501 -0.00000000000E+00  0.00000000000E+00  0.11861949769E+04  0.11861949769E+04  0.00000000000E+00 0.  1.
          1   -1    0    0  501    0  0.00000000000E+00 -0.00000000000E+00 -0.20279337693E+04  0.20279337693E+04  0.00000000000E+00 0. -1.
        -24    2    1    2    0    0  0.10917066889E+02  0.13783626061E+04 -0.35410670958E+02  0.13811072945E+04  0.78745077514E+02 0.  0.
        254    2    1    2    0    0 -0.10917066889E+02 -0.13783626061E+04 -0.80632812135E+03  0.18330214517E+04  0.89988885253E+03 0.  0.
         23    2    4    4    0    0  0.22635840697E+03 -0.22561521479E+03  0.98863509568E+02  0.34573664250E+03  0.87289626467E+02 0.  0.
         23    2    4    4    0    0 -0.23727547386E+03 -0.11527473913E+04 -0.90519163092E+03  0.14872848092E+04  0.86706495500E+02 0.  0.
          1    1    3    3  502    0 -0.97733632767E+01  0.10596974995E+03  0.15423293265E+02  0.10753131874E+03  0.00000000000E+00 0. -1.
         -2    1    3    3    0  502  0.20690430165E+02  0.12723928561E+04 -0.50833964223E+02  0.12735759758E+04  0.00000000000E+00 0.  1.
         13    1    5    5    0    0  0.92061109176E+02 -0.81812987741E+02 -0.49660003138E+01  0.12326099929E+03  0.00000000000E+00 0. -1.
        -13    1    5    5    0    0  0.13429729780E+03 -0.14380222705E+03  0.10382950988E+03  0.22247564321E+03  0.00000000000E+00 0.  1.
          2    1    6    6  503    0 -0.10602257541E+03 -0.32540803405E+03 -0.25104730932E+03  0.42444779024E+03  0.00000000000E+00 0. -1.
         -2    1    6    6    0  503 -0.13125289845E+03 -0.82733935722E+03 -0.65414432160E+03  0.10628370189E+04  0.00000000000E+00 0.  1.
<mgrwt>
<rscale>  0 0.31019509E+04</rscale>
<asrwt>0</asrwt>
<pdfrwt beam="1">  1        1 0.31198981E+00 0.31019509E+04</pdfrwt>
<pdfrwt beam="2">  1       -4 0.18249153E+00 0.31019509E+04</pdfrwt>
<totfact> 0.20301990E-01</totfact>
</mgrwt>
</event>
<event>
12    5  0.5428626E-008  0.2132165E+04  0.7818608E-02  0.8547206E-01
          1   -1    0    0  501    0  0.00000000000E+00  0.00000000000E+00  0.20556908345E+04  0.20556908345E+04  0.00000000000E+00 0. -1.
         -2   -1    0    0    0  501 -0.00000000000E+00 -0.00000000000E+00 -0.55287078529E+03  0.55287078529E+03  0.00000000000E+00 0.  1.
        -24    2    1    2    0    0  0.21060561673E+03  0.30055658322E+03 -0.35304955311E+03  0.51586780466E+03  0.82380940911E+02 0.  0.
        254    2    1    2    0    0 -0.21060561673E+03 -0.30055658322E+03  0.18558696023E+04  0.20926938151E+04  0.89466554508E+03 0.  0.
         23    2    4    4    0    0 -0.37068319299E+03  0.15046230767E+03  0.47135324471E+03  0.62498618567E+03  0.91591022357E+02 0.  0.
         23    2    4    4    0    0  0.16007757626E+03 -0.45101889089E+03  0.13845163576E+04  0.14677076294E+04  0.90759411313E+02 0.  0.
          1    1    3    3  502    0  0.36149003155E+02  0.11069599084E+03 -0.86865406910E+02  0.14527887573E+03  0.00000000000E+00 0. -1.
         -2    1    3    3    0  502  0.17445661358E+03  0.18986059238E+03 -0.26618414620E+03  0.37058892893E+03  0.00000000000E+00 0.  1.
         13    1    5    5    0    0 -0.44613887353E+02  0.36451860874E+02  0.31342997859E+02  0.65585978842E+02  0.00000000000E+00 0. -1.
        -13    1    5    5    0    0 -0.32606930564E+03  0.11401044680E+03  0.44001024685E+03  0.55940020682E+03  0.00000000000E+00 0.  1.
          3    1    6    6  503    0  0.32008700138E+02 -0.83201317216E+02  0.38030388612E+03  0.39061241899E+03  0.00000000000E+00 0. -1.
         -3    1    6    6    0  503  0.12806887612E+03 -0.36781757367E+03  0.10042124715E+04  0.10770952105E+04  0.00000000000E+00 0.  1.
<mgrwt>
<rscale>  0 0.21321645E+04</rscale>
<asrwt>0</asrwt>
<pdfrwt beam="1">  1        1 0.31626012E+00 0.21321645E+04</pdfrwt>
<pdfrwt beam="2">  1       -2 0.85057045E-01 0.21321645E+04</pdfrwt>
<totfact> 0.26471611E+00</totfact>
</mgrwt>
</event>
<event>
12    5  0.5428626E-008  0.1468169E+04  0.7818608E-02  0.8905900E-01
         -2   -1    0    0    0  501 -0.00000000000E+00  0.00000000000E+00  0.14746093086E+04  0.14746093086E+04  0.00000000000E+00 0.  1.
          1   -1    0    0  501    0  0.00000000000E+00 -0.00000000000E+00 -0.36543931701E+03  0.36543931701E+03  0.00000000000E+00 0. -1.
        -24    2    1    2    0    0  0.46202019727E+02  0.42354553023E+03  0.53410895549E+03  0.68831688991E+03  0.83560288415E+02 0.  0.
        254    2    1    2    0    0 -0.46202019727E+02 -0.42354553023E+03  0.57506103607E+03  0.11517317357E+04  0.90236652914E+03 0.  0.
         23    2    4    4    0    0  0.15804150518E+03 -0.27181389299E+03 -0.16347981573E+03  0.36571764054E+03  0.90353930031E+02 0.  0.
         23    2    4    4    0    0 -0.20424352490E+03 -0.15173163724E+03  0.73854085179E+03  0.78601409512E+03  0.87393711193E+02 0.  0.
          1    1    3    3  502    0 -0.11728684604E+02  0.20210080136E+03  0.21168088975E+03  0.29290116940E+03  0.00000000000E+00 0. -1.
         -2    1    3    3    0  502  0.57930704330E+02  0.22144472887E+03  0.32242806574E+03  0.39541572051E+03  0.00000000000E+00 0.  1.
         13    1    5    5    0    0  0.16378242844E+03 -0.24219115450E+03 -0.12805898041E+03  0.31918700106E+03  0.00000000000E+00 0.  1.
        -13    1    5    5    0    0 -0.57409232649E+01 -0.29622738488E+02 -0.35420835318E+02  0.46530639476E+02  0.00000000000E+00 0. -1.
          3    1    6    6  503    0 -0.93752973838E+02 -0.29043459942E+02  0.20091637086E+03  0.22360798454E+03  0.00000000000E+00 0. -1.
         -3    1    6    6    0  503 -0.11049055107E+03 -0.12268817730E+03  0.53762448093E+03  0.56240611059E+03  0.00000000000E+00 0.  1.
<mgrwt>
<rscale>  0 0.14681692E+04</rscale>
<asrwt>0</asrwt>
<pdfrwt beam="1">  1        1 0.56221434E-01 0.14681692E+04</pdfrwt>
<pdfrwt beam="2">  1       -2 0.22686297E+00 0.14681692E+04</pdfrwt>
<totfact> 0.51270330E+00</totfact>
</mgrwt>
</event>
<event>
12    5  0.5428626E-008  0.1630589E+04  0.7818608E-02  0.8801973E-01
         -2   -1    0    0    0  501 -0.00000000000E+00  0.00000000000E+00  0.10109914783E+04  0.10109914783E+04  0.00000000000E+00 0.  1.
          1   -1    0    0  501    0  0.00000000000E+00 -0.00000000000E+00 -0.65747849881E+03  0.65747849881E+03  0.00000000000E+00 0. -1.
        -24    2    1    2    0    0  0.15152100442E+03  0.22981004770E+03 -0.38653946650E+03  0.48128031335E+03  0.80291394657E+02 0.  0.
        254    2    1    2    0    0 -0.15152100442E+03 -0.22981004770E+03  0.74005244595E+03  0.11871896637E+04  0.88654971778E+03 0.  0.
         23    2    4    4    0    0  0.13560321094E+02 -0.20190767425E+01 -0.18945172592E+03  0.21156742164E+03  0.93171124621E+02 0.  0.
         23    2    4    4    0    0 -0.16508132552E+03 -0.22779097096E+03  0.92950417187E+03  0.97562224209E+03  0.93381921424E+02 0.  0.
          3    1    3    3  502    0  0.14825366481E+03  0.16490617116E+03 -0.29859007950E+03  0.37192637711E+03  0.00000000000E+00 0. -1.
         -4    1    3    3    0  502  0.32673396143E+01  0.64903876543E+02 -0.87949387000E+02  0.10935393624E+03  0.00000000000E+00 0.  1.
         13    1    5    5    0    0 -0.31479132625E+02  0.14060008945E+02 -0.13389458934E+03  0.13826200019E+03  0.00000000000E+00 0. -1.
        -13    1    5    5    0    0  0.45039453719E+02 -0.16079085688E+02 -0.55557136585E+02  0.73305421446E+02  0.00000000000E+00 0.  1.
          1    1    6    6  503    0 -0.11032009523E+03 -0.19997950220E+03  0.63611516856E+03  0.67587338488E+03  0.00000000000E+00 0. -1.
         -1    1    6    6    0  503 -0.54761230288E+02 -0.27811468761E+02  0.29338900331E+03  0.29974885721E+03  0.00000000000E+00 0.  1.
<mgrwt>
<rscale>  0 0.16305890E+04</rscale>
<asrwt>0</asrwt>
<pdfrwt beam="1">  1        1 0.10115054E+00 0.16305890E+04</pdfrwt>
<pdfrwt beam="2">  1       -2 0.15553715E+00 0.16305890E+04</pdfrwt>
<totfact> 0.68191581E+00</totfact>
</mgrwt>
</event>
<event>
12    5  0.5428626E-008  0.1290928E+04  0.7818608E-02  0.9036790E-01
         -4   -1    0    0    0  501 -0.00000000000E+00  0.00000000000E+00  0.18715539821E+03  0.18715539821E+03  0.00000000000E+00 0.  1.
          3   -1    0    0  501    0  0.00000000000E+00 -0.00000000000E+00 -0.22260862341E+04  0.22260862341E+04  0.00000000000E+00 0. -1.
        -24    2    1    2    0    0 -0.71171998378E+02  0.11598477223E+03  0.24058807838E+02  0.15771585209E+03  0.76010150793E+02 0.  0.
        254    2    1    2    0    0  0.71171998378E+02 -0.11598477223E+03 -0.20629896437E+04  0.22555257802E+04  0.90163870500E+03 0.  0.
         23    2    4    4    0    0  0.20977309445E+03  0.34759603479E+03 -0.85480079088E+03  0.95094791651E+03  0.93753897291E+02 0.  0.
         23    2    4    4    0    0 -0.13860109608E+03 -0.46358080703E+03 -0.12081888528E+04  0.13045778637E+04  0.89920352868E+02 0.  0.
          3    1    3    3  502    0 -0.33382622385E+01  0.20445909134E+02 -0.23440326748E+02  0.31283032352E+02  0.00000000000E+00 0. -1.
         -4    1    3    3    0  502 -0.67833736139E+02  0.95538863097E+02  0.47499134587E+02  0.12643281974E+03  0.00000000000E+00 0.  1.
         13    1    5    5    0    0  0.14470568157E+03  0.22069218424E+03 -0.44894648460E+03  0.52076647405E+03  0.00000000000E+00 0. -1.
        -13    1    5    5    0    0  0.65067412885E+02  0.12690385055E+03 -0.40585430628E+03  0.43018144245E+03  0.00000000000E+00 0.  1.
          4    1    6    6  503    0 -0.39945061446E+02 -0.57184426496E+02 -0.23998471605E+03  0.24991664712E+03  0.00000000000E+00 0.  1.
         -4    1    6    6    0  503 -0.98656034631E+02 -0.40639638053E+03 -0.96820413678E+03  0.10546612166E+04  0.00000000000E+00 0. -1.
<mgrwt>
<rscale>  0 0.12909284E+04</rscale>
<asrwt>0</asrwt>
<pdfrwt beam="1">  1        3 0.34247479E+00 0.12909284E+04</pdfrwt>
<pdfrwt beam="2">  1       -4 0.28793140E-01 0.12909284E+04</pdfrwt>
<totfact> 0.60033998E-01</totfact>
</mgrwt>
</event>
<event>
12    5  0.5428626E-008  0.1311569E+04  0.7818608E-02  0.9020441E-01
         -2   -1    0    0    0  501 -0.00000000000E+00  0.00000000000E+00  0.28004851868E+03  0.28004851868E+03  0.00000000000E+00 0.  1.
          1   -1    0    0  501    0  0.00000000000E+00 -0.00000000000E+00 -0.15356385362E+04  0.15356385362E+04  0.00000000000E+00 0. -1.
        -24    2    1    2    0    0 -0.97718565535E+02  0.82082143569E+02 -0.71352745095E+03  0.72923535839E+03  0.79852290692E+02 0.  0.
        254    2    1    2    0    0  0.97718565535E+02 -0.82082143569E+02 -0.54206256656E+03  0.10864516965E+04  0.93287676911E+03 0.  0.
         23    2    4    4    0    0 -0.26244642594E+03 -0.13666846849E+03 -0.62876550852E+03  0.70083160062E+03  0.90898135039E+02 0.  0.
         23    2    4    4    0    0  0.36016499147E+03  0.54586324916E+02  0.86702941960E+02  0.38562009585E+03  0.92124753602E+02 0.  0.
          1    1    3    3  502    0 -0.98852295162E+02  0.81555034459E+02 -0.71550762749E+03  0.72689350314E+03  0.00000000000E+00 0. -1.
         -2    1    3    3    0  502  0.11337296274E+01  0.52710910987E+00  0.19801765443E+01  0.23418552534E+01  0.00000000000E+00 0.  1.
         13    1    5    5    0    0 -0.24617068144E+03 -0.14727261728E+03 -0.55759562385E+03  0.62705829708E+03  0.00000000000E+00 0. -1.
        -13    1    5    5    0    0 -0.16275744496E+02  0.10604148796E+02 -0.71169884667E+02  0.73773303532E+02  0.00000000000E+00 0.  1.
          3    1    6    6  503    0  0.33794159850E+03  0.61947141806E+02  0.57758952101E+02  0.34839355465E+03  0.00000000000E+00 0. -1.
         -3    1    6    6    0  503  0.22223392974E+02 -0.73608168901E+01  0.28943989858E+02  0.37226541197E+02  0.00000000000E+00 0.  1.
<mgrwt>
<rscale>  0 0.13115690E+04</rscale>
<asrwt>0</asrwt>
<pdfrwt beam="1">  1        1 0.23625208E+00 0.13115690E+04</pdfrwt>
<pdfrwt beam="2">  1       -2 0.43084389E-01 0.13115690E+04</pdfrwt>
<totfact> 0.27191708E+01</totfact>
</mgrwt>
</event>
<event>
12    5  0.5428626E-008  0.1074152E+04  0.7818608E-02  0.9230758E-01
         -2   -1    0    0    0  501 -0.00000000000E+00  0.00000000000E+00  0.17959505960E+04  0.17959505960E+04  0.00000000000E+00 0.  1.
          1   -1    0    0  501    0  0.00000000000E+00 -0.00000000000E+00 -0.16061164484E+03  0.16061164484E+03  0.00000000000E+00 0. -1.
        -24    2    1    2    0    0  0.48265180124E+02  0.14242411544E+03  0.28335443841E+03  0.33022688589E+03  0.78395804278E+02 0.  0.
        254    2    1    2    0    0 -0.48265180124E+02 -0.14242411544E+03  0.13519845128E+04  0.16263353550E+04  0.89134191408E+03 0.  0.
         23    2    4    4    0    0 -0.28476051608E+03 -0.25681116171E+03  0.20036278293E+03  0.44226826029E+03  0.91735734480E+02 0.  0.
         23    2    4    4    0    0  0.23649533595E+03  0.11438704627E+03  0.11516217299E+04  0.11840670947E+04  0.82266857148E+02 0.  0.
          1    1    3    3  502    0  0.31711871729E+02  0.13348115681E+03  0.18630622131E+03  0.23137171420E+03  0.00000000000E+00 0. -1.
         -2    1    3    3    0  502  0.16553308395E+02  0.89429586230E+01  0.97048217102E+02  0.98855171693E+02  0.00000000000E+00 0.  1.
         13    1    5    5    0    0 -0.21586613936E+03 -0.14172390318E+03  0.11090157271E+03  0.28103916753E+03  0.00000000000E+00 0. -1.
        -13    1    5    5    0    0 -0.68894376719E+02 -0.11508725852E+03  0.89461210227E+02  0.16122909276E+03  0.00000000000E+00 0.  1.
          2    1    6    6  503    0  0.12435000638E+03  0.37897492149E+02  0.40970958850E+03  0.42983844745E+03  0.00000000000E+00 0. -1.
         -2    1    6    6    0  503  0.11214532957E+03  0.76489554122E+02  0.74191214137E+03  0.75422864726E+03  0.00000000000E+00 0.  1.
<mgrwt>
<rscale>  0 0.10741519E+04</rscale>
<asrwt>0</asrwt>
<pdfrwt beam="1">  1        1 0.24709485E-01 0.10741519E+04</pdfrwt>
<pdfrwt beam="2">  1       -2 0.27630008E+00 0.10741519E+04</pdfrwt>
<totfact> 0.77113849E+00</totfact>
</mgrwt>
</event>
<event>
12    5  0.5428626E-008  0.1643530E+04  0.7818608E-02  0.8794243E-01
         -2   -1    0    0    0  501 -0.00000000000E+00  0.00000000000E+00  0.16475884386E+03  0.16475884386E+03  0.00000000000E+00 0.  1.
          1   -1    0    0  501    0  0.00000000000E+00 -0.00000000000E+00 -0.40987042805E+04  0.40987042805E+04  0.00000000000E+00 0. -1.
        -24    2    1    2    0    0 -0.72717826684E+02 -0.57129324956E+03 -0.14193021349E+04  0.15334406256E+04  0.73196603104E+02 0.  0.
        254    2    1    2    0    0  0.72717826684E+02  0.57129324956E+03 -0.25146433017E+04  0.27300224988E+04  0.89326818457E+03 0.  0.
         23    2    4    4    0    0  0.41219324705E+03  0.57273826272E+03 -0.17385772297E+04  0.18785978307E+04  0.92448014996E+02 0.  0.
         23    2    4    4    0    0 -0.33947542036E+03 -0.14450131554E+01 -0.77606607205E+03  0.85142466806E+03  0.86021904851E+02 0.  0.
          1    1    3    3  502    0 -0.64521492681E+02 -0.52877190010E+03 -0.13546746583E+04  0.14556463084E+04  0.00000000000E+00 0. -1.
         -2    1    3    3    0  502 -0.81963340025E+01 -0.42521349461E+02 -0.64627476642E+02  0.77794317197E+02  0.00000000000E+00 0.  1.
         13    1    5    5    0    0  0.21641241268E+03  0.37768383130E+03 -0.10568405277E+04  0.11429747634E+04  0.00000000000E+00 0.  1.
        -13    1    5    5    0    0  0.19578083436E+03  0.19505443142E+03 -0.68173670198E+03  0.73562306730E+03  0.00000000000E+00 0. -1.
          4    1    6    6  503    0 -0.14620326964E+03 -0.42456206913E+02 -0.35775831981E+03  0.38880450222E+03  0.00000000000E+00 0. -1.
         -4    1    6    6    0  503 -0.19327215073E+03  0.41011193757E+02 -0.41830775224E+03  0.46262016584E+03  0.00000000000E+00 0.  1.
<mgrwt>
<rscale>  0 0.16435301E+04</rscale>
<asrwt>0</asrwt>
<pdfrwt beam="1">  1        1 0.63056987E+00 0.16435301E+04</pdfrwt>
<pdfrwt beam="2">  1       -2 0.25347515E-01 0.16435301E+04</pdfrwt>
<totfact> 0.93587886E-01</totfact>
</mgrwt>
</event>
<event>
12    5  0.5428626E-008  0.1154301E+04  0.7818608E-02  0.9153824E-01
         -4   -1    0    0    0  501 -0.00000000000E+00  0.00000000000E+00  0.12973329896E+03  0.12973329896E+03  0.00000000000E+00 0.  1.
          1   -1    0    0  501    0  0.00000000000E+00 -0.00000000000E+00 -0.25675977462E+04  0.25675977462E+04  0.00000000000E+00 0. -1.
        -24    2    1    2    0    0 -0.18902439513E+03 -0.68840116771E+02 -0.62220513214E+03  0.65876140834E+03  0.79738215556E+02 0.  0.
        254    2    1    2    0    0  0.18902439513E+03  0.68840116771E+02 -0.18156593151E+04  0.20385696369E+04  0.90480839523E+03 0.  0.
         23    2    4    4    0    0 -0.20238682935E+03 -0.84317711404E+02 -0.83405791049E+02  0.25342584456E+03  0.95907390521E+02 0.  0.
         23    2    4    4    0    0  0.39141122448E+03  0.15315782817E+03 -0.17322535241E+04  0.17851437923E+04  0.96829853469E+02 0.  0.
          1    1    3    3  502    0 -0.11635794076E+03 -0.36006046598E+02 -0.24977633674E+03  0.27789174900E+03  0.00000000000E+00 0. -1.
         -2    1    3    3    0  502 -0.72666454363E+02 -0.32834070173E+02 -0.37242879541E+03  0.38086965933E+03  0.00000000000E+00 0.  1.
         13    1    5    5    0    0 -0.68853750488E+02  0.77914022593E+01 -0.55596679206E+02  0.88839943968E+02  0.00000000000E+00 0.  1.
        -13    1    5    5    0    0 -0.13353307887E+03 -0.92109113663E+02 -0.27809111843E+02  0.16458590059E+03  0.00000000000E+00 0. -1.
          3    1    6    6  503    0  0.32676878471E+03  0.85737722211E+02 -0.13421310310E+04  0.13839958453E+04  0.00000000000E+00 0. -1.
         -3    1    6    6    0  503  0.64642439770E+02  0.67420105963E+02 -0.39012249312E+03  0.40114794696E+03  0.00000000000E+00 0.  1.
<mgrwt>
<rscale>  0 0.11543014E+04</rscale>
<asrwt>0</asrwt>
<pdfrwt beam="1">  1        1 0.39501499E+00 0.11543014E+04</pdfrwt>
<pdfrwt beam="2">  1       -4 0.19958971E-01 0.11543014E+04</pdfrwt>
<totfact> 0.14121751E+01</totfact>
</mgrwt>
</event>
<event>
12    5  0.5428626E-008  0.1535949E+04  0.7818608E-02  0.8860893E-01
          1   -1    0    0  501    0  0.00000000000E+00  0.00000000000E+00  0.21691963507E+04  0.21691963507E+04  0.00000000000E+00 0. -1.
         -2   -1    0    0    0  501 -0.00000000000E+00 -0.00000000000E+00 -0.27189109332E+03  0.27189109332E+03  0.00000000000E+00 0.  1.
        -24    2    1    2    0    0 -0.13003291993E+02 -0.49242744435E+03  0.46023732991E+03  0.67876741170E+03  0.79075443680E+02 0.  0.
        254    2    1    2    0    0  0.13003291993E+02  0.49242744435E+03  0.14370679275E+04  0.17623200324E+04  0.89328259505E+03 0.  0.
         23    2    4    4    0    0 -0.28824035129E+03  0.60713755168E+02  0.10748521976E+04  0.11178131399E+04  0.86199239006E+02 0.  0.
         23    2    4    4    0    0  0.30124364328E+03  0.43171368918E+03  0.36221572988E+03  0.64450689246E+03  0.84050326627E+02 0.  0.
          3    1    3    3  502    0 -0.20111482674E+02 -0.43671881973E+03  0.43653214238E+03  0.61780912147E+03  0.00000000000E+00 0. -1.
         -4    1    3    3    0  502  0.71081906808E+01 -0.55708624624E+02  0.23705187528E+02  0.60958290232E+02  0.00000000000E+00 0.  1.
         13    1    5    5    0    0 -0.22795246219E+03  0.45087247411E+02  0.69312281473E+03  0.73103653889E+03  0.00000000000E+00 0. -1.
        -13    1    5    5    0    0 -0.60287889095E+02  0.15626507758E+02  0.38172938290E+03  0.38677660101E+03  0.00000000000E+00 0.  1.
          4    1    6    6  503    0  0.12505694290E+03  0.15427729596E+03  0.91261071403E+02  0.21856190466E+03  0.00000000000E+00 0. -1.
         -4    1    6    6    0  503  0.17618670038E+03  0.27743639322E+03  0.27095465848E+03  0.42594498779E+03  0.00000000000E+00 0.  1.
<mgrwt>
<rscale>  0 0.15359494E+04</rscale>
<asrwt>0</asrwt>
<pdfrwt beam="1">  1        1 0.33372250E+00 0.15359494E+04</pdfrwt>
<pdfrwt beam="2">  1       -2 0.41829400E-01 0.15359494E+04</pdfrwt>
<totfact> 0.10497621E+01</totfact>
</mgrwt>
</event>
<event>
12    5  0.5428626E-008  0.1424731E+04  0.7818608E-02  0.8936109E-01
          1   -1    0    0  501    0  0.00000000000E+00  0.00000000000E+00  0.48177746462E+03  0.48177746462E+03  0.00000000000E+00 0. -1.
         -2   -1    0    0    0  501 -0.00000000000E+00 -0.00000000000E+00 -0.10533180608E+04  0.10533180608E+04  0.00000000000E+00 0.  1.
        -24    2    1    2    0    0  0.63757155160E+02  0.21871615847E+03  0.21682154945E+03  0.32442577856E+03  0.79616384489E+02 0.  0.
        254    2    1    2    0    0 -0.63757155160E+02 -0.21871615847E+03 -0.78836214558E+03  0.12106697468E+04  0.89011495351E+03 0.  0.
         23    2    4    4    0    0  0.13402804603E+03 -0.52488571979E+02 -0.89887177362E+03  0.91486222379E+03  0.91015689833E+02 0.  0.
         23    2    4    4    0    0 -0.19778520119E+03 -0.16622758650E+03  0.11050962804E+03  0.29580752303E+03  0.92407339904E+02 0.  0.
          1    1    3    3  502    0  0.70608406458E+02  0.18023424178E+03  0.20842233821E+03  0.28444648010E+03  0.00000000000E+00 0. -1.
         -2    1    3    3    0  502 -0.68512512971E+01  0.38481916691E+02  0.83992112382E+01  0.39979298467E+02  0.00000000000E+00 0.  1.
         13    1    5    5    0    0  0.53013625850E+02 -0.15043454868E+02 -0.13529514508E+03  0.14608739282E+03  0.00000000000E+00 0. -1.
        -13    1    5    5    0    0  0.81014420180E+02 -0.37445117111E+02 -0.76357662854E+03  0.76877483097E+03  0.00000000000E+00 0.  1.
          2    1    6    6  503    0 -0.22762896773E+02  0.10904075260E+02  0.75303091949E+01  0.26339208100E+02  0.00000000000E+00 0. -1.
         -2    1    6    6    0  503 -0.17502230442E+03 -0.17713166176E+03  0.10297931884E+03  0.26946831493E+03  0.00000000000E+00 0.  1.
<mgrwt>
<rscale>  0 0.14247314E+04</rscale>
<asrwt>0</asrwt>
<pdfrwt beam="1">  1        1 0.74119611E-01 0.14247314E+04</pdfrwt>
<pdfrwt beam="2">  1       -2 0.16204893E+00 0.14247314E+04</pdfrwt>
<totfact> 0.96483293E+00</totfact>
</mgrwt>
</event>
<event>
12    5  0.5428626E-008  0.1764281E+04  0.7818608E-02  0.8725529E-01
          1   -1    0    0  501    0  0.00000000000E+00  0.00000000000E+00  0.56285070070E+03  0.56285070070E+03  0.00000000000E+00 0. -1.
         -2   -1    0    0    0  501 -0.00000000000E+00 -0.00000000000E+00 -0.13825544455E+04  0.13825544455E+04  0.00000000000E+00 0.  1.
        -24    2    1    2    0    0 -0.49856629819E+02  0.11600477378E+03  0.39713795266E+03  0.42414498349E+03  0.78978620486E+02 0.  0.
        254    2    1    2    0    0  0.49856629819E+02 -0.11600477378E+03 -0.12168416975E+04  0.15212601627E+04  0.90420460898E+03 0.  0.
         23    2    4    4    0    0  0.29097844470E+03 -0.30625582830E+03 -0.24319775453E+03  0.49603168607E+03  0.91875993171E+02 0.  0.
         23    2    4    4    0    0 -0.24112181488E+03  0.19025105452E+03 -0.97364394293E+03  0.10252284766E+04  0.93678750868E+02 0.  0.
          1    1    3    3  502    0 -0.72854147485E+01  0.93408628945E+02  0.19499927462E+03  0.21633993236E+03  0.00000000000E+00 0. -1.
         -2    1    3    3    0  502 -0.42571215071E+02  0.22596144835E+02  0.20213867804E+03  0.20780505113E+03  0.00000000000E+00 0.  1.
         13    1    5    5    0    0  0.72536040256E+01 -0.16255566929E+01 -0.24877896395E+02  0.25964724820E+02  0.00000000000E+00 0.  1.
        -13    1    5    5    0    0  0.28372484068E+03 -0.30463027161E+03 -0.21831985814E+03  0.47006696125E+03  0.00000000000E+00 0. -1.
          1    1    6    6  503    0 -0.21701576018E+03  0.14946589049E+03 -0.89896664723E+03  0.93679075861E+03  0.00000000000E+00 0. -1.
         -1    1    6    6    0  503 -0.24106054707E+02  0.40785164030E+02 -0.74677295700E+02  0.88437718036E+02  0.00000000000E+00 0.  1.
<mgrwt>
<rscale>  0 0.17642809E+04</rscale>
<asrwt>0</asrwt>
<pdfrwt beam="1">  1        1 0.86592416E-01 0.17642809E+04</pdfrwt>
<pdfrwt beam="2">  1       -2 0.21270068E+00 0.17642809E+04</pdfrwt>
<totfact> 0.34188129E+00</totfact>
</mgrwt>
</event>
<event>
12    5  0.5428626E-008  0.2033438E+04  0.7818608E-02  0.8591145E-01
         -2   -1    0    0    0  501 -0.00000000000E+00  0.00000000000E+00  0.52861713932E+03  0.52861713932E+03  0.00000000000E+00 0.  1.
          1   -1    0    0  501    0  0.00000000000E+00 -0.00000000000E+00 -0.19555129286E+04  0.19555129286E+04  0.00000000000E+00 0. -1.
        -24    2    1    2    0    0  0.30714198076E+03  0.64327049287E+03 -0.10033076581E+03  0.72410886350E+03  0.78321518675E+02 0.  0.
        254    2    1    2    0    0 -0.30714198076E+03 -0.64327049287E+03 -0.13265650234E+04  0.17600212044E+04  0.91091533920E+03 0.  0.
         23    2    4    4    0    0 -0.28498025884E+03 -0.86173837222E+03 -0.97053241309E+03  0.13319728543E+04  0.91715590832E+02 0.  0.
         23    2    4    4    0    0 -0.22161721913E+02  0.21846787935E+03 -0.35603261033E+03  0.42804835010E+03  0.90811971569E+02 0.  0.
          1    1    3    3  502    0  0.25319618097E+03  0.52508002321E+03 -0.51098563006E+02  0.58517382031E+03  0.00000000000E+00 0. -1.
         -2    1    3    3    0  502  0.53945799790E+02  0.11819046965E+03 -0.49232202808E+02  0.13893504319E+03  0.00000000000E+00 0.  1.
         13    1    5    5    0    0 -0.13216559192E+03 -0.43520119243E+03 -0.55113039830E+03  0.71457157620E+03  0.00000000000E+00 0.  1.
        -13    1    5    5    0    0 -0.15281466692E+03 -0.42653717980E+03 -0.41940201479E+03  0.61740127809E+03  0.00000000000E+00 0. -1.
          2    1    6    6  503    0  0.13719657360E+02  0.43262019459E+01 -0.48820680428E+01  0.15191432116E+02  0.00000000000E+00 0. -1.
         -2    1    6    6    0  503 -0.35881379273E+02  0.21414167741E+03 -0.35115054229E+03  0.41285691799E+03  0.00000000000E+00 0.  1.
<mgrwt>
<rscale>  0 0.20334381E+04</rscale>
<asrwt>0</asrwt>
<pdfrwt beam="1">  1        1 0.30084814E+00 0.20334381E+04</pdfrwt>
<pdfrwt beam="2">  1       -2 0.81325714E-01 0.20334381E+04</pdfrwt>
<totfact> 0.34565272E+00</totfact>
</mgrwt>
</event>
<event>
12    5  0.5428626E-008  0.1263933E+04  0.7818608E-02  0.9058666E-01
          1   -1    0    0  501    0  0.00000000000E+00  0.00000000000E+00  0.16513864134E+04  0.16513864134E+04  0.00000000000E+00 0. -1.
         -4   -1    0    0    0  501 -0.00000000000E+00 -0.00000000000E+00 -0.24184620561E+03  0.24184620561E+03  0.00000000000E+00 0.  1.
        -24    2    1    2    0    0 -0.13400888142E+03  0.24569456967E+03  0.52632104265E+03  0.60143662851E+03  0.79924816604E+02 0.  0.
        254    2    1    2    0    0  0.13400888142E+03 -0.24569456967E+03  0.88321916515E+03  0.12917959905E+04  0.90018697254E+03 0.  0.
         23    2    4    4    0    0  0.16750424436E+03 -0.12000767288E+03 -0.13431260742E+03  0.26195054194E+03  0.90103809483E+02 0.  0.
         23    2    4    4    0    0 -0.33495362936E+02 -0.12568689679E+03  0.10175317726E+04  0.10298454486E+04  0.91058247108E+02 0.  0.
          3    1    3    3  502    0 -0.61843905038E+02  0.17439476409E+03  0.38840226303E+03  0.43022612689E+03  0.00000000000E+00 0. -1.
         -4    1    3    3    0  502 -0.72164976383E+02  0.71299805586E+02  0.13791877962E+03  0.17121050162E+03  0.00000000000E+00 0.  1.
         13    1    5    5    0    0  0.82846581497E+02 -0.18260239826E+02 -0.20239309297E+02  0.87215950749E+02  0.00000000000E+00 0.  1.
        -13    1    5    5    0    0  0.84657662861E+02 -0.10174743306E+03 -0.11407329813E+03  0.17473459119E+03  0.00000000000E+00 0. -1.
          2    1    6    6  503    0 -0.29074693987E+02 -0.13997994012E+03  0.94821976754E+03  0.95893714550E+03  0.00000000000E+00 0. -1.
         -2    1    6    6    0  503 -0.44206689486E+01  0.14293043327E+02  0.69312005027E+02  0.70908303057E+02  0.00000000000E+00 0.  1.
<mgrwt>
<rscale>  0 0.12639328E+04</rscale>
<asrwt>0</asrwt>
<pdfrwt beam="1">  1        1 0.25405944E+00 0.12639328E+04</pdfrwt>
<pdfrwt beam="2">  1       -4 0.37207110E-01 0.12639328E+04</pdfrwt>
<totfact> 0.17643994E+01</totfact>
</mgrwt>
</event>
<event>
12    5  0.5428626E-008  0.1140599E+04  0.7818608E-02  0.9166501E-01
         -4   -1    0    0    0  501 -0.00000000000E+00  0.00000000000E+00  0.10973305787E+04  0.10973305787E+04  0.00000000000E+00 0.  1.
          3   -1    0    0  501    0  0.00000000000E+00 -0.00000000000E+00 -0.29639319343E+03  0.29639319343E+03  0.00000000000E+00 0. -1.
        -24    2    1    2    0    0  0.36107357976E+02  0.19779771372E+03  0.13038721996E+03  0.25292770222E+03  0.80894490349E+02 0.  0.
        254    2    1    2    0    0 -0.36107357976E+02 -0.19779771372E+03  0.67055016529E+03  0.11407960699E+04  0.90074994978E+03 0.  0.
         23    2    4    4    0    0 -0.21316123710E+03  0.17925991468E+03 -0.54130993997E+02  0.29932497628E+03  0.95359566394E+02 0.  0.
         23    2    4    4    0    0  0.17705387912E+03 -0.37705762840E+03  0.72468115928E+03  0.84147109360E+03  0.96903495748E+02 0.  0.
          1    1    3    3  502    0  0.45202304752E+02  0.20129601543E+03  0.11993318518E+03  0.23863634067E+03  0.00000000000E+00 0. -1.
         -2    1    3    3    0  502 -0.90949467760E+01 -0.34983017086E+01  0.10454034780E+02  0.14291361548E+02  0.00000000000E+00 0.  1.
         13    1    5    5    0    0 -0.17580084435E+03  0.18619562290E+03 -0.51745151050E+02  0.26125142587E+03  0.00000000000E+00 0. -1.
        -13    1    5    5    0    0 -0.37360392750E+02 -0.69357082143E+01 -0.23858429472E+01  0.38073550418E+02  0.00000000000E+00 0.  1.
          2    1    6    6  503    0  0.12249508420E+03 -0.34085992259E+03  0.61499468789E+03  0.71372893917E+03  0.00000000000E+00 0. -1.
         -2    1    6    6    0  503  0.54558794926E+02 -0.36197705814E+02  0.10968647140E+03  0.12774215443E+03  0.00000000000E+00 0.  1.
<mgrwt>
<rscale>  0 0.11405986E+04</rscale>
<asrwt>0</asrwt>
<pdfrwt beam="1">  1        3 0.45598953E-01 0.11405986E+04</pdfrwt>
<pdfrwt beam="2">  1       -4 0.16882009E+00 0.11405986E+04</pdfrwt>
<totfact> 0.23354948E+00</totfact>
</mgrwt>
</event>
<event>
12    5  0.5428626E-008  0.1393287E+04  0.7818608E-02  0.8958692E-01
          1   -1    0    0  501    0  0.00000000000E+00  0.00000000000E+00  0.34547639288E+03  0.34547639288E+03  0.00000000000E+00 0. -1.
         -2   -1    0    0    0  501 -0.00000000000E+00 -0.00000000000E+00 -0.14047621933E+04  0.14047621933E+04  0.00000000000E+00 0.  1.
        -24    2    1    2    0    0 -0.26569692063E+03  0.27832704703E+03 -0.16943132118E+03  0.42829981237E+03  0.81688175050E+02 0.  0.
        254    2    1    2    0    0  0.26569692063E+03 -0.27832704703E+03 -0.88985447920E+03  0.13219387738E+04  0.89867698798E+03 0.  0.
         23    2    4    4    0    0  0.55627426915E+03 -0.27379228012E+02 -0.64562759955E+03  0.85750933202E+03  0.91085523332E+02 0.  0.
         23    2    4    4    0    0 -0.29057734853E+03 -0.25094781901E+03 -0.24422687965E+03  0.46442944175E+03  0.92940487829E+02 0.  0.
          3    1    3    3  502    0 -0.18328650806E+03  0.17901552690E+03 -0.70604887186E+02  0.26575468576E+03  0.00000000000E+00 0. -1.
         -4    1    3    3    0  502 -0.82410412566E+02  0.99311520128E+02 -0.98826433996E+02  0.16254512661E+03  0.00000000000E+00 0.  1.
         13    1    5    5    0    0  0.46667646272E+03  0.10352398439E+02 -0.54528354687E+03  0.71779400910E+03  0.00000000000E+00 0. -1.
        -13    1    5    5    0    0  0.89597806431E+02 -0.37731626451E+02 -0.10034405268E+03  0.13971532293E+03  0.00000000000E+00 0.  1.
          2    1    6    6  503    0 -0.29747453957E+03 -0.24611453583E+03 -0.24219680883E+03  0.45576612494E+03  0.00000000000E+00 0. -1.
         -2    1    6    6    0  503  0.68971910417E+01 -0.48332831837E+01 -0.20300708207E+01  0.86633168092E+01  0.00000000000E+00 0.  1.
<mgrwt>
<rscale>  0 0.13932870E+04</rscale>
<asrwt>0</asrwt>
<pdfrwt beam="1">  1        1 0.53150215E-01 0.13932870E+04</pdfrwt>
<pdfrwt beam="2">  1       -2 0.21611726E+00 0.13932870E+04</pdfrwt>
<totfact> 0.64920027E+00</totfact>
</mgrwt>
</event>
<event>
12    5  0.5428626E-008  0.1140246E+04  0.7818608E-02  0.9166829E-01
         -2   -1    0    0    0  501 -0.00000000000E+00  0.00000000000E+00  0.10614343029E+04  0.10614343029E+04  0.00000000000E+00 0.  1.
          1   -1    0    0  501    0  0.00000000000E+00 -0.00000000000E+00 -0.30622763358E+03  0.30622763358E+03  0.00000000000E+00 0. -1.
        -24    2    1    2    0    0 -0.12962518469E+03  0.43172477882E+02  0.43196423994E+03  0.45998526469E+03  0.79541107597E+02 0.  0.
        254    2    1    2    0    0  0.12962518469E+03 -0.43172477882E+02  0.32324242938E+03  0.90767667180E+03  0.83709301814E+03 0.  0.
         23    2    4    4    0    0 -0.25697634195E+03  0.23783103939E+03  0.14293947957E+03  0.38888503847E+03  0.90550730009E+02 0.  0.
         23    2    4    4    0    0  0.38660152664E+03 -0.28100351727E+03  0.18030294982E+03  0.51879163333E+03  0.90619468022E+02 0.  0.
          3    1    3    3  502    0 -0.70719260753E+02  0.40903257111E+02  0.13969309983E+03  0.16182846605E+03  0.00000000000E+00 0. -1.
         -4    1    3    3    0  502 -0.58905923934E+02  0.22692207707E+01  0.29227114011E+03  0.29815679864E+03  0.00000000000E+00 0.  1.
         13    1    5    5    0    0 -0.25304979813E+03  0.24549696453E+03  0.13624272292E+03  0.37797491912E+03  0.00000000000E+00 0. -1.
        -13    1    5    5    0    0 -0.39265438170E+01 -0.76659251456E+01  0.66967566473E+01  0.10910119352E+02  0.00000000000E+00 0.  1.
          4    1    6    6  503    0  0.29760527655E+03 -0.25143685131E+03  0.12152525935E+03  0.40811490966E+03  0.00000000000E+00 0. -1.
         -4    1    6    6    0  503  0.88996250089E+02 -0.29566665956E+02  0.58777690461E+02  0.11067672367E+03  0.00000000000E+00 0.  1.
<mgrwt>
<rscale>  0 0.11402465E+04</rscale>
<asrwt>0</asrwt>
<pdfrwt beam="1">  1        1 0.47111944E-01 0.11402465E+04</pdfrwt>
<pdfrwt beam="2">  1       -2 0.16329758E+00 0.11402465E+04</pdfrwt>
<totfact> 0.17614463E+01</totfact>
</mgrwt>
</event>
<event>
12    5  0.5428626E-008  0.1798751E+04  0.7818608E-02  0.8706964E-01
         -4   -1    0    0    0  501 -0.00000000000E+00  0.00000000000E+00  0.26672965326E+03  0.26672965326E+03  0.00000000000E+00 0.  1.
          1   -1    0    0  501    0  0.00000000000E+00 -0.00000000000E+00 -0.30325709508E+04  0.30325709508E+04  0.00000000000E+00 0. -1.
        -24    2    1    2    0    0  0.28614498024E+03  0.56175482017E+03 -0.10522830352E+04  0.12294031182E+04  0.81761930097E+02 0.  0.
        254    2    1    2    0    0 -0.28614498024E+03 -0.56175482017E+03 -0.17135582623E+04  0.20698974858E+04  0.97506218044E+03 0.  0.
         23    2    4    4    0    0  0.18739960079E+03 -0.42327702065E+03 -0.27653466913E+03  0.54736786416E+03  0.94117527018E+02 0.  0.
         23    2    4    4    0    0 -0.47354458103E+03 -0.13847779952E+03 -0.14370235932E+04  0.15225296217E+04  0.98178766882E+02 0.  0.
          3    1    3    3  502    0  0.12944284634E+03  0.22865679175E+03 -0.51429542229E+03  0.57752849304E+03  0.00000000000E+00 0. -1.
         -4    1    3    3    0  502  0.15670213391E+03  0.33309802843E+03 -0.53798761286E+03  0.65187462514E+03  0.00000000000E+00 0.  1.
         13    1    5    5    0    0  0.10284049093E+03 -0.12558781780E+03 -0.10823647063E+03  0.19509894959E+03  0.00000000000E+00 0.  1.
        -13    1    5    5    0    0  0.84559109857E+02 -0.29768920285E+03 -0.16829819850E+03  0.35226891457E+03  0.00000000000E+00 0. -1.
          2    1    6    6  503    0 -0.30775499321E+03 -0.13019698549E+03 -0.88050396281E+03  0.94178108889E+03  0.00000000000E+00 0.  1.
         -2    1    6    6    0  503 -0.16578958782E+03 -0.82808140289E+01 -0.55651963040E+03  0.58074853279E+03  0.00000000000E+00 0. -1.
<mgrwt>
<rscale>  0 0.17987513E+04</rscale>
<asrwt>0</asrwt>
<pdfrwt beam="1">  1        1 0.46654935E+00 0.17987513E+04</pdfrwt>
<pdfrwt beam="2">  1       -4 0.41035334E-01 0.17987513E+04</pdfrwt>
<totfact> 0.15469220E+00</totfact>
</mgrwt>
</event>
<event>
12    5  0.5428626E-008  0.3035867E+04  0.7818608E-02  0.8233562E-01
         -2   -1    0    0    0  501 -0.00000000000E+00  0.00000000000E+00  0.16562526074E+04  0.16562526074E+04  0.00000000000E+00 0.  1.
          1   -1    0    0  501    0  0.00000000000E+00 -0.00000000000E+00 -0.13911663062E+04  0.13911663062E+04  0.00000000000E+00 0. -1.
        -24    2    1    2    0    0 -0.44632565329E+03 -0.10793471134E+04 -0.62390358734E+03  0.13258748912E+04  0.67020600368E+02 0.  0.
        254    2    1    2    0    0  0.44632565329E+03  0.10793471134E+04  0.88898988859E+03  0.17215440224E+04  0.89956323797E+03 0.  0.
         23    2    4    4    0    0  0.65805208830E+02  0.10710378255E+04  0.58096167533E+03  0.12235904445E+04  0.90580122094E+02 0.  0.
         23    2    4    4    0    0  0.38052044446E+03  0.83092878899E+01  0.30802821325E+03  0.49795357790E+03  0.90617507497E+02 0.  0.
          3    1    3    3  502    0 -0.35767166915E+03 -0.91157045508E+03 -0.54170768307E+03  0.11190786082E+04  0.00000000000E+00 0. -1.
         -4    1    3    3    0  502 -0.88653984139E+02 -0.16777665831E+03 -0.82195904270E+02  0.20679628299E+03  0.00000000000E+00 0.  1.
         13    1    5    5    0    0  0.83741611279E+02  0.98691139369E+03  0.52532377697E+03  0.11211475492E+04  0.00000000000E+00 0. -1.
        -13    1    5    5    0    0 -0.17936402449E+02  0.84126431816E+02  0.55637898361E+02  0.10244289530E+03  0.00000000000E+00 0.  1.
          2    1    6    6  503    0  0.33698248020E+03  0.59439104255E+01  0.30448682676E+03  0.45420782655E+03  0.00000000000E+00 0. -1.
         -2    1    6    6    0  503  0.43537964264E+02  0.23653774644E+01  0.35413864963E+01  0.43745751349E+02  0.00000000000E+00 0.  1.
<mgrwt>
<rscale>  0 0.30358675E+04</rscale>
<asrwt>0</asrwt>
<pdfrwt beam="1">  1        1 0.21402559E+00 0.30358675E+04</pdfrwt>
<pdfrwt beam="2">  1       -2 0.25480809E+00 0.30358675E+04</pdfrwt>
<totfact> 0.34858233E-01</totfact>
</mgrwt>
</event>
<event>
12    5  0.5428626E-008  0.2566487E+04  0.7818608E-02  0.8379675E-01
          1   -1    0    0  501    0  0.00000000000E+00  0.00000000000E+00  0.19468460361E+04  0.19468460361E+04  0.00000000000E+00 0. -1.
         -2   -1    0    0    0  501 -0.00000000000E+00 -0.00000000000E+00 -0.84583660434E+03  0.84583660434E+03  0.00000000000E+00 0.  1.
        -24    2    1    2    0    0  0.73523520624E+03 -0.78177303928E+03  0.88335231397E+03  0.13923217324E+04  0.80675909388E+02 0.  0.
        254    2    1    2    0    0 -0.73523520624E+03  0.78177303928E+03  0.21765711781E+03  0.14003609081E+04  0.87286663275E+03 0.  0.
         23    2    4    4    0    0 -0.24707891338E+03 -0.16221596327E+03 -0.10975277069E+02  0.30948800292E+03  0.91106306418E+02 0.  0.
         23    2    4    4    0    0 -0.48815629286E+03  0.94398900255E+03  0.22863239488E+03  0.10908729052E+04  0.91209210529E+02 0.  0.
          1    1    3    3  502    0  0.38530857882E+03 -0.46752534503E+03  0.49001161504E+03  0.77920089325E+03  0.00000000000E+00 0. -1.
         -2    1    3    3    0  502  0.34992662742E+03 -0.31424769425E+03  0.39334069893E+03  0.61312083911E+03  0.00000000000E+00 0.  1.
         13    1    5    5    0    0 -0.18224970019E+03 -0.11933918578E+03 -0.48498447187E+02  0.22317906233E+03  0.00000000000E+00 0. -1.
        -13    1    5    5    0    0 -0.64829213197E+02 -0.42876777483E+02  0.37523170118E+02  0.86308940595E+02  0.00000000000E+00 0.  1.
          1    1    6    6  503    0 -0.41962480739E+03  0.73541909938E+03  0.16958827478E+03  0.86353136229E+03  0.00000000000E+00 0. -1.
         -1    1    6    6    0  503 -0.68531485468E+02  0.20856990317E+03  0.59044120100E+02  0.22734154290E+03  0.00000000000E+00 0.  1.
<mgrwt>
<rscale>  0 0.25664868E+04</rscale>
<asrwt>0</asrwt>
<pdfrwt beam="1">  1        1 0.29951477E+00 0.25664868E+04</pdfrwt>
<pdfrwt beam="2">  1       -2 0.13012871E+00 0.25664868E+04</pdfrwt>
<totfact> 0.10888600E+00</totfact>
</mgrwt>
</event>
<event>
12    5  0.5428626E-008  0.1247921E+04  0.7818608E-02  0.9071915E-01
         -2   -1    0    0    0  501 -0.00000000000E+00  0.00000000000E+00  0.70162406670E+03  0.70162406670E+03  0.00000000000E+00 0.  1.
          1   -1    0    0  501    0  0.00000000000E+00 -0.00000000000E+00 -0.55489381599E+03  0.55489381599E+03  0.00000000000E+00 0. -1.
        -24    2    1    2    0    0  0.25388649740E+03 -0.16178682205E+03  0.72598148231E+02  0.31967580960E+03  0.79301972023E+02 0.  0.
        254    2    1    2    0    0 -0.25388649740E+03  0.16178682205E+03  0.74132102481E+02  0.93684207309E+03  0.88404986960E+03 0.  0.
         23    2    4    4    0    0 -0.10074173705E+03 -0.13169856238E+03  0.41322848386E+03  0.45441977816E+03  0.90808292542E+02 0.  0.
         23    2    4    4    0    0 -0.15314476035E+03  0.29348538443E+03 -0.33909638138E+03  0.48242229493E+03  0.90321239424E+02 0.  0.
          1    1    3    3  502    0  0.47934293042E+02 -0.64893233413E+01  0.33378280514E+02  0.58770038088E+02  0.00000000000E+00 0. -1.
         -2    1    3    3    0  502  0.20595220436E+03 -0.15529749871E+03  0.39219867717E+02  0.26090577151E+03  0.00000000000E+00 0.  1.
         13    1    5    5    0    0 -0.45305421029E+02 -0.98484135268E+02  0.16136482848E+03  0.19439730951E+03  0.00000000000E+00 0. -1.
        -13    1    5    5    0    0 -0.55436316022E+02 -0.33214427108E+02  0.25186365538E+03  0.26002246865E+03  0.00000000000E+00 0.  1.
          3    1    6    6  503    0 -0.22379477018E+02  0.13071180765E+03 -0.10849409499E+03  0.17133997286E+03  0.00000000000E+00 0. -1.
         -3    1    6    6    0  503 -0.13076528333E+03  0.16277357677E+03 -0.23060228639E+03  0.31108232207E+03  0.00000000000E+00 0.  1.
<mgrwt>
<rscale>  0 0.12479212E+04</rscale>
<asrwt>0</asrwt>
<pdfrwt beam="1">  1        1 0.85368279E-01 0.12479212E+04</pdfrwt>
<pdfrwt beam="2">  1       -2 0.10794216E+00 0.12479212E+04</pdfrwt>
<totfact> 0.22731996E+01</totfact>
</mgrwt>
</event>
<event>
12    5  0.5428626E-008  0.1369830E+04  0.7818608E-02  0.8975952E-01
          3   -1    0    0  501    0  0.00000000000E+00  0.00000000000E+00  0.32735527997E+03  0.32735527997E+03  0.00000000000E+00 0. -1.
         -4   -1    0    0    0  501 -0.00000000000E+00 -0.00000000000E+00 -0.14330248355E+04  0.14330248355E+04  0.00000000000E+00 0.  1.
        -24    2    1    2    0    0  0.12203410398E+02  0.28809927647E+03 -0.14473122969E+02  0.29935393086E+03  0.79077103570E+02 0.  0.
        254    2    1    2    0    0 -0.12203410398E+02 -0.28809927647E+03 -0.10911964326E+04  0.14610261846E+04  0.92775952777E+03 0.  0.
         23    2    4    4    0    0 -0.18849323810E+03  0.19585170791E+03 -0.43399955646E+02  0.28991120874E+03  0.90980000567E+02 0.  0.
         23    2    4    4    0    0  0.17628982770E+03 -0.48395098438E+03 -0.10477964770E+04  0.11711149759E+04  0.91357380819E+02 0.  0.
          1    1    3    3  502    0  0.11331697994E+01  0.27201404244E+03  0.46037503069E+01  0.27205535810E+03  0.00000000000E+00 0. -1.
         -2    1    3    3    0  502  0.11070240598E+02  0.16085234031E+02 -0.19076873276E+02  0.27298572759E+02  0.00000000000E+00 0.  1.
         13    1    5    5    0    0 -0.16818442481E+03  0.17814576562E+03 -0.76083730924E+01  0.24511181509E+03  0.00000000000E+00 0.  1.
        -13    1    5    5    0    0 -0.20308813283E+02  0.17705942295E+02 -0.35791582553E+02  0.44799393648E+02  0.00000000000E+00 0. -1.
          4    1    6    6  503    0 -0.71033785410E+01 -0.20138700335E+01 -0.17089434720E+02  0.18616187532E+02  0.00000000000E+00 0. -1.
         -4    1    6    6    0  503  0.18339320624E+03 -0.48193711435E+03 -0.10307070422E+04  0.11524987884E+04  0.00000000000E+00 0.  1.
<mgrwt>
<rscale>  0 0.13698295E+04</rscale>
<asrwt>0</asrwt>
<pdfrwt beam="1">  1        3 0.50362351E-01 0.13698295E+04</pdfrwt>
<pdfrwt beam="2">  1       -4 0.22046536E+00 0.13698295E+04</pdfrwt>
<totfact> 0.84595023E-01</totfact>
</mgrwt>
</event>
<event>
12    5  0.5428626E-008  0.1227935E+04  0.7818608E-02  0.9088750E-01
         -2   -1    0    0    0  501 -0.00000000000E+00  0.00000000000E+00  0.26189245458E+03  0.26189245458E+03  0.00000000000E+00 0.  1.
          1   -1    0    0  501    0  0.00000000000E+00 -0.00000000000E+00 -0.14393556313E+04  0.14393556313E+04  0.00000000000E+00 0. -1.
        -24    2    1    2    0    0  0.17538422040E+03 -0.25423362487E+02  0.25155252620E+02  0.19139532464E+03  0.67774710878E+02 0.  0.
        254    2    1    2    0    0 -0.17538422040E+03  0.25423362487E+02 -0.12026184293E+04  0.15098527612E+04  0.89552124593E+03 0.  0.
         23    2    4    4    0    0 -0.17494665117E+03  0.43297545536E+03 -0.48231544187E+03  0.67760437572E+03  0.91899014317E+02 0.  0.
         23    2    4    4    0    0 -0.43756922872E+00 -0.40755209287E+03 -0.72030298744E+03  0.83224838550E+03  0.87761503945E+02 0.  0.
          1    1    3    3  502    0  0.16586758402E+02 -0.12719109516E+02 -0.16619734295E+02  0.26704154531E+02  0.00000000000E+00 0. -1.
         -2    1    3    3    0  502  0.15879746200E+03 -0.12704252971E+02  0.41774986915E+02  0.16469117011E+03  0.00000000000E+00 0.  1.
         13    1    5    5    0    0 -0.16847330229E+03  0.34567959376E+03 -0.42406665200E+03  0.57245974572E+03  0.00000000000E+00 0. -1.
        -13    1    5    5    0    0 -0.64733488792E+01  0.87295861594E+02 -0.58248789872E+02  0.10514463000E+03  0.00000000000E+00 0.  1.
          4    1    6    6  503    0  0.15659724792E+02 -0.39694064887E+03 -0.69373378164E+03  0.79942083128E+03  0.00000000000E+00 0. -1.
         -4    1    6    6    0  503 -0.16097294020E+02 -0.10611444004E+02 -0.26569205802E+02  0.32827554212E+02  0.00000000000E+00 0.  1.
<mgrwt>
<rscale>  0 0.12279355E+04</rscale>
<asrwt>0</asrwt>
<pdfrwt beam="1">  1        1 0.22143933E+00 0.12279355E+04</pdfrwt>
<pdfrwt beam="2">  1       -2 0.40291146E-01 0.12279355E+04</pdfrwt>
<totfact> 0.36426251E+01</totfact>
</mgrwt>
</event>
<event>
12    5  0.5428626E-008  0.2913855E+04  0.7818608E-02  0.8268767E-01
         -2   -1    0    0    0  501 -0.00000000000E+00  0.00000000000E+00  0.27038368161E+04  0.27038368161E+04  0.00000000000E+00 0.  1.
          1   -1    0    0  501    0  0.00000000000E+00 -0.00000000000E+00 -0.78504662344E+03  0.78504662344E+03  0.00000000000E+00 0. -1.
        -24    2    1    2    0    0  0.83118552958E+03  0.42937782581E+03 -0.23655958805E+03  0.96845632859E+03  0.81929968913E+02 0.  0.
        254    2    1    2    0    0 -0.83118552958E+03 -0.42937782581E+03  0.21553497807E+04  0.25204271109E+04  0.91202272037E+03 0.  0.
         23    2    4    4    0    0 -0.86188431899E+03 -0.46670996376E+02  0.11515152244E+04  0.14419267744E+04  0.90237185701E+02 0.  0.
         23    2    4    4    0    0  0.30698789411E+02 -0.38270682943E+03  0.10038345563E+04  0.10785003365E+04  0.89845569433E+02 0.  0.
          3    1    3    3  502    0  0.78242882926E+03  0.40763978265E+03 -0.24188602388E+03  0.91480812950E+03  0.00000000000E+00 0. -1.
         -4    1    3    3    0  502  0.48756700318E+02  0.21738043164E+02  0.53264358326E+01  0.53648199086E+02  0.00000000000E+00 0.  1.
         13    1    5    5    0    0 -0.43556552384E+02  0.17557774646E+02  0.59067406997E+02  0.75461296540E+02  0.00000000000E+00 0.  1.
        -13    1    5    5    0    0 -0.81832776661E+03 -0.64228771022E+02  0.10924478174E+04  0.13664654779E+04  0.00000000000E+00 0. -1.
          3    1    6    6  503    0 -0.25996669698E+01 -0.15287051598E+03  0.51658753386E+03  0.53873818600E+03  0.00000000000E+00 0. -1.
         -3    1    6    6    0  503  0.33298456381E+02 -0.22983631346E+03  0.48724702247E+03  0.53976215048E+03  0.00000000000E+00 0.  1.
<mgrwt>
<rscale>  0 0.29138552E+04</rscale>
<asrwt>0</asrwt>
<pdfrwt beam="1">  1        1 0.12077640E+00 0.29138552E+04</pdfrwt>
<pdfrwt beam="2">  1       -2 0.41597489E+00 0.29138552E+04</pdfrwt>
<totfact> 0.99805270E-02</totfact>
</mgrwt>
</event>
<event>
12    5  0.5428626E-008  0.2245028E+04  0.7818608E-02  0.8499917E-01
         -2   -1    0    0    0  501 -0.00000000000E+00  0.00000000000E+00  0.31026696232E+03  0.31026696232E+03  0.00000000000E+00 0.  1.
          1   -1    0    0  501    0  0.00000000000E+00 -0.00000000000E+00 -0.40611407209E+04  0.40611407209E+04  0.00000000000E+00 0. -1.
        -24    2    1    2    0    0 -0.36562468594E+03 -0.15625010782E+01  0.10831521860E+03  0.38941574774E+03  0.78921388926E+02 0.  0.
        254    2    1    2    0    0  0.36562468594E+03  0.15625010782E+01 -0.38591889772E+04  0.39819919354E+04  0.91062415965E+03 0.  0.
         23    2    4    4    0    0  0.65027877239E+03 -0.83619228720E+02 -0.28551051869E+04  0.29308703737E+04  0.92308512787E+02 0.  0.
         23    2    4    4    0    0 -0.28465408645E+03  0.85181729798E+02 -0.10040837902E+04  0.10511215618E+04  0.91588229726E+02 0.  0.
          1    1    3    3  502    0 -0.75803470393E+02  0.92603858827E+01  0.56030918026E+02  0.94717393572E+02  0.00000000000E+00 0. -1.
         -2    1    3    3    0  502 -0.28982121555E+03 -0.10822886961E+02  0.52284300578E+02  0.29469835417E+03  0.00000000000E+00 0.  1.
         13    1    5    5    0    0  0.56762879887E+02 -0.27707617131E+02 -0.36299225744E+03  0.36844689651E+03  0.00000000000E+00 0.  1.
        -13    1    5    5    0    0  0.59351589250E+03 -0.55911611589E+02 -0.24921129295E+04  0.25624234772E+04  0.00000000000E+00 0. -1.
          3    1    6    6  503    0 -0.19414909992E+03  0.10103595403E+03 -0.69096543482E+03  0.72480022705E+03  0.00000000000E+00 0. -1.
         -3    1    6    6    0  503 -0.90504986532E+02 -0.15854224236E+02 -0.31311835540E+03  0.32632133473E+03  0.00000000000E+00 0.  1.
<mgrwt>
<rscale>  0 0.22450281E+04</rscale>
<asrwt>0</asrwt>
<pdfrwt beam="1">  1        1 0.62479086E+00 0.22450281E+04</pdfrwt>
<pdfrwt beam="2">  1       -2 0.47733380E-01 0.22450281E+04</pdfrwt>
<totfact> 0.28261766E-01</totfact>
</mgrwt>
</event>
<event>
12    5  0.5428626E-008  0.2572175E+04  0.7818608E-02  0.8377714E-01
         -2   -1    0    0    0  501 -0.00000000000E+00  0.00000000000E+00  0.91326268122E+03  0.91326268122E+03  0.00000000000E+00 0.  1.
          1   -1    0    0  501    0  0.00000000000E+00 -0.00000000000E+00 -0.18111125556E+04  0.18111125556E+04  0.00000000000E+00 0. -1.
        -24    2    1    2    0    0 -0.51776272121E+03 -0.85001922898E+03 -0.96455525629E+03  0.13884729791E+04  0.82942426775E+02 0.  0.
        254    2    1    2    0    0  0.51776272121E+03  0.85001922898E+03  0.66705381951E+02  0.13359022577E+04  0.88857993953E+03 0.  0.
         23    2    4    4    0    0  0.38829205885E+02  0.36100897227E+03 -0.36393506426E+03  0.52201806750E+03  0.90658405592E+02 0.  0.
         23    2    4    4    0    0  0.47893351533E+03  0.48901025671E+03  0.43064044621E+03  0.81388419016E+03  0.91912664053E+02 0.  0.
          3    1    3    3  502    0 -0.13941812211E+03 -0.30037047108E+03 -0.33652192268E+03  0.47213010613E+03  0.00000000000E+00 0. -1.
         -4    1    3    3    0  502 -0.37834459910E+03 -0.54964875790E+03 -0.62803333361E+03  0.91634287298E+03  0.00000000000E+00 0.  1.
         13    1    5    5    0    0 -0.11840117608E+02  0.26665147593E+03 -0.26776363587E+03  0.37807481097E+03  0.00000000000E+00 0.  1.
        -13    1    5    5    0    0  0.50669323493E+02  0.94357496347E+02 -0.96171428391E+02  0.14394325652E+03  0.00000000000E+00 0. -1.
          3    1    6    6  503    0  0.12774524569E+03  0.86249445693E+02  0.12370908405E+03  0.19764046184E+03  0.00000000000E+00 0. -1.
         -3    1    6    6    0  503  0.35118826963E+03  0.40276081102E+03  0.30693136216E+03  0.61624372832E+03  0.00000000000E+00 0.  1.
<mgrwt>
<rscale>  0 0.25721754E+04</rscale>
<asrwt>0</asrwt>
<pdfrwt beam="1">  1        1 0.27863270E+00 0.25721754E+04</pdfrwt>
<pdfrwt beam="2">  1       -2 0.14050195E+00 0.25721754E+04</pdfrwt>
<totfact> 0.11051272E+00</totfact>
</mgrwt>
</event>
<event>
12    5  0.5428626E-008  0.1543192E+04  0.7818608E-02  0.8856228E-01
          1   -1    0    0  501    0  0.00000000000E+00  0.00000000000E+00  0.70217346504E+03  0.70217346504E+03  0.00000000000E+00 0. -1.
         -2   -1    0    0    0  501 -0.00000000000E+00 -0.00000000000E+00 -0.84788275358E+03  0.84788275358E+03  0.00000000000E+00 0.  1.
        -24    2    1    2    0    0 -0.44934804401E+03 -0.23495155419E+03 -0.63099524078E+02  0.51720545646E+03  0.80025225889E+02 0.  0.
        254    2    1    2    0    0  0.44934804401E+03  0.23495155419E+03 -0.82609764465E+02  0.10328507622E+04  0.89601363062E+03 0.  0.
         23    2    4    4    0    0  0.67987591465E+03  0.11877372843E+02  0.11447514734E+02  0.68624815157E+03  0.91832176458E+02 0.  0.
         23    2    4    4    0    0 -0.23052787064E+03  0.22307418135E+03 -0.94057279199E+02  0.34660261059E+03  0.91550032076E+02 0.  0.
          3    1    3    3  502    0 -0.37324948880E+03 -0.22273358172E+03 -0.38759289075E+02  0.43638023764E+03  0.00000000000E+00 0. -1.
         -4    1    3    3    0  502 -0.76098555210E+02 -0.12217972467E+02 -0.24340235003E+02  0.80825218814E+02  0.00000000000E+00 0.  1.
         13    1    5    5    0    0  0.34668336816E+02  0.21636981642E+02  0.61730842870E-01  0.40866323089E+02  0.00000000000E+00 0. -1.
        -13    1    5    5    0    0  0.64520757784E+03 -0.97596087990E+01  0.11385783891E+02  0.64538182848E+03  0.00000000000E+00 0.  1.
          3    1    6    6  503    0 -0.27135234976E+02  0.48658577088E+02 -0.50412354813E+02  0.75135767909E+02  0.00000000000E+00 0. -1.
         -3    1    6    6    0  503 -0.20339263567E+03  0.17441560426E+03 -0.43644924386E+02  0.27146684268E+03  0.00000000000E+00 0.  1.
<mgrwt>
<rscale>  0 0.15431925E+04</rscale>
<asrwt>0</asrwt>
<pdfrwt beam="1">  1        1 0.10802669E+00 0.15431925E+04</pdfrwt>
<pdfrwt beam="2">  1       -2 0.13044350E+00 0.15431925E+04</pdfrwt>
<totfact> 0.98512770E+00</totfact>
</mgrwt>
</event>
<event>
12    5  0.5428626E-008  0.1125939E+04  0.7818608E-02  0.9180272E-01
         -2   -1    0    0    0  501 -0.00000000000E+00  0.00000000000E+00  0.16983480717E+03  0.16983480717E+03  0.00000000000E+00 0.  1.
          1   -1    0    0  501    0  0.00000000000E+00 -0.00000000000E+00 -0.18661347856E+04  0.18661347856E+04  0.00000000000E+00 0. -1.
        -24    2    1    2    0    0 -0.14300324942E+03  0.11733129052E+03 -0.39329150751E+03  0.44206169395E+03  0.80769860072E+02 0.  0.
        254    2    1    2    0    0  0.14300324942E+03 -0.11733129052E+03 -0.13030084709E+04  0.15939078988E+04  0.89916336312E+03 0.  0.
         23    2    4    4    0    0 -0.13070778909E+02 -0.39792376944E+03 -0.22655714058E+03  0.46697703399E+03  0.90693113156E+02 0.  0.
         23    2    4    4    0    0  0.15607402833E+03  0.28059247892E+03 -0.10764513303E+04  0.11269308648E+04  0.90191274546E+02 0.  0.
          1    1    3    3  502    0 -0.10674507577E+03  0.59905402166E+02 -0.31758052770E+03  0.34035358083E+03  0.00000000000E+00 0. -1.
         -2    1    3    3    0  502 -0.36258173648E+02  0.57425888358E+02 -0.75710979809E+02  0.10170811312E+03  0.00000000000E+00 0.  1.
         13    1    5    5    0    0  0.89606194689E+01 -0.13864420036E+03 -0.12742548656E+03  0.18851992367E+03  0.00000000000E+00 0.  1.
        -13    1    5    5    0    0 -0.22031398378E+02 -0.25927956908E+03 -0.99131654021E+02  0.27845711032E+03  0.00000000000E+00 0. -1.
          3    1    6    6  503    0  0.96082024554E+02  0.13681286558E+03 -0.69641709635E+03  0.71620268620E+03  0.00000000000E+00 0. -1.
         -3    1    6    6    0  503  0.59992003773E+02  0.14377961334E+03 -0.38003423398E+03  0.41072817864E+03  0.00000000000E+00 0.  1.
<mgrwt>
<rscale>  0 0.11259390E+04</rscale>
<asrwt>0</asrwt>
<pdfrwt beam="1">  1        1 0.28709766E+00 0.11259390E+04</pdfrwt>
<pdfrwt beam="2">  1       -2 0.26128432E-01 0.11259390E+04</pdfrwt>
<totfact> 0.42529856E+01</totfact>
</mgrwt>
</event>
<event>
12    5  0.5428626E-008  0.2247194E+04  0.7818608E-02  0.8499038E-01
          1   -1    0    0  501    0  0.00000000000E+00  0.00000000000E+00  0.18496586555E+04  0.18496586555E+04  0.00000000000E+00 0. -1.
         -2   -1    0    0    0  501 -0.00000000000E+00 -0.00000000000E+00 -0.68254222015E+03  0.68254222015E+03  0.00000000000E+00 0.  1.
        -24    2    1    2    0    0 -0.15260799663E+03  0.56193427720E+03 -0.33543651170E+03  0.67653346999E+03  0.78233944769E+02 0.  0.
        254    2    1    2    0    0  0.15260799663E+03 -0.56193427720E+03  0.15025529471E+04  0.18556674057E+04  0.92020477571E+03 0.  0.
         23    2    4    4    0    0 -0.14271669271E+03 -0.61325160317E+02  0.11624183973E+04  0.11761768271E+04  0.89702668266E+02 0.  0.
         23    2    4    4    0    0  0.29532468935E+03 -0.50060911688E+03  0.34013454983E+03  0.67949057858E+03  0.90497372064E+02 0.  0.
          3    1    3    3  502    0 -0.12944424750E+02  0.30397774194E+02 -0.71565855873E+00  0.33046860292E+02  0.00000000000E+00 0. -1.
         -4    1    3    3    0  502 -0.13966357189E+03  0.53153650300E+03 -0.33472085314E+03  0.64348660970E+03  0.00000000000E+00 0.  1.
         13    1    5    5    0    0 -0.48089347646E+02 -0.69341736929E+02  0.55643402943E+03  0.56279631391E+03  0.00000000000E+00 0.  1.
        -13    1    5    5    0    0 -0.94627345069E+02  0.80165766120E+01  0.60598436782E+03  0.61338051321E+03  0.00000000000E+00 0. -1.
          3    1    6    6  503    0  0.12841537518E+03 -0.19967598891E+03  0.18986807571E+03  0.30399160400E+03  0.00000000000E+00 0. -1.
         -3    1    6    6    0  503  0.16690931417E+03 -0.30093312797E+03  0.15026647412E+03  0.37549897458E+03  0.00000000000E+00 0.  1.
<mgrwt>
<rscale>  0 0.22471939E+04</rscale>
<asrwt>0</asrwt>
<pdfrwt beam="1">  1        1 0.28456287E+00 0.22471939E+04</pdfrwt>
<pdfrwt beam="2">  1       -2 0.10500650E+00 0.22471939E+04</pdfrwt>
<totfact> 0.22094806E+00</totfact>
</mgrwt>
</event>
<event>
12    5  0.5428626E-008  0.1471827E+04  0.7818608E-02  0.8903407E-01
          1   -1    0    0  501    0  0.00000000000E+00  0.00000000000E+00  0.52360810768E+03  0.52360810768E+03  0.00000000000E+00 0. -1.
         -2   -1    0    0    0  501 -0.00000000000E+00 -0.00000000000E+00 -0.10343021580E+04  0.10343021580E+04  0.00000000000E+00 0.  1.
        -24    2    1    2    0    0 -0.29409777621E+02 -0.14267313120E+03 -0.61013432613E+03  0.63532315411E+03  0.10075245325E+03 0.  0.
        254    2    1    2    0    0  0.29409777621E+02  0.14267313120E+03  0.99440275834E+02  0.92258711154E+03  0.90557056740E+03 0.  0.
         23    2    4    4    0    0 -0.23669686726E+03  0.22262845533E+03 -0.28161063791E+03  0.44173855613E+03  0.10119073326E+03 0.  0.
         23    2    4    4    0    0  0.26610664489E+03 -0.79955324127E+02  0.38105091374E+03  0.48084855541E+03  0.93861249032E+02 0.  0.
          3    1    3    3  502    0 -0.86447627593E+01  0.12911214601E+02 -0.11121742348E+03  0.11229758088E+03  0.00000000000E+00 0. -1.
         -4    1    3    3    0  502 -0.20765014862E+02 -0.15558434580E+03 -0.49891690265E+03  0.52302557323E+03  0.00000000000E+00 0.  1.
         13    1    5    5    0    0 -0.13290516535E+03  0.15205648125E+03 -0.11260443803E+03  0.23122438438E+03  0.00000000000E+00 0. -1.
        -13    1    5    5    0    0 -0.10379170191E+03  0.70571974071E+02 -0.16900619988E+03  0.21051417175E+03  0.00000000000E+00 0.  1.
          4    1    6    6  503    0  0.23149862167E+03 -0.62635719327E+02  0.36942042144E+03  0.44043875050E+03  0.00000000000E+00 0.  1.
         -4    1    6    6    0  503  0.34608023219E+02 -0.17319604800E+02  0.11630492303E+02  0.40409804909E+02  0.00000000000E+00 0. -1.
<mgrwt>
<rscale>  0 0.14718274E+04</rscale>
<asrwt>0</asrwt>
<pdfrwt beam="1">  1        1 0.80555095E-01 0.14718274E+04</pdfrwt>
<pdfrwt beam="2">  1       -2 0.15912341E+00 0.14718274E+04</pdfrwt>
<totfact> 0.90055879E+00</totfact>
</mgrwt>
</event>
<event>
12    5  0.5428626E-008  0.1367698E+04  0.7818608E-02  0.8977538E-01
          1   -1    0    0  501    0  0.00000000000E+00  0.00000000000E+00  0.10036859840E+04  0.10036859840E+04  0.00000000000E+00 0. -1.
         -2   -1    0    0    0  501 -0.00000000000E+00 -0.00000000000E+00 -0.46593176192E+03  0.46593176192E+03  0.00000000000E+00 0.  1.
        -24    2    1    2    0    0 -0.36558858666E+03  0.48031375536E+02  0.11499705369E+03  0.39853916934E+03  0.98219750609E+02 0.  0.
        254    2    1    2    0    0  0.36558858666E+03 -0.48031375536E+02  0.42275716842E+03  0.10710785766E+04  0.91242734838E+03 0.  0.
         23    2    4    4    0    0  0.11458330029E+03 -0.44913232000E+03  0.34006920929E+03  0.58205108266E+03  0.91034181222E+02 0.  0.
         23    2    4    4    0    0  0.25100528637E+03  0.40110094446E+03  0.82687959129E+02  0.48902749394E+03  0.91787634317E+02 0.  0.
          1    1    3    3  502    0 -0.12011539561E+03  0.27659942797E+02  0.86493160474E+02  0.15057837662E+03  0.00000000000E+00 0. -1.
         -2    1    3    3    0  502 -0.24547319105E+03  0.20371432739E+02  0.28503893216E+02  0.24796079271E+03  0.00000000000E+00 0.  1.
         13    1    5    5    0    0 -0.67252715112E+01 -0.55627025676E+02  0.69761829415E+02  0.89477975534E+02  0.00000000000E+00 0. -1.
        -13    1    5    5    0    0  0.12130857180E+03 -0.39350529432E+03  0.27030737987E+03  0.49257310712E+03  0.00000000000E+00 0.  1.
          2    1    6    6  503    0  0.40092257075E+01  0.22858642280E+01 -0.98533794874E+01  0.10880632030E+02  0.00000000000E+00 0. -1.
         -2    1    6    6    0  503  0.24699606066E+03  0.39881508023E+03  0.92541338617E+02  0.47814686191E+03  0.00000000000E+00 0.  1.
<mgrwt>
<rscale>  0 0.13676976E+04</rscale>
<asrwt>0</asrwt>
<pdfrwt beam="1">  1        1 0.15441323E+00 0.13676976E+04</pdfrwt>
<pdfrwt beam="2">  1       -2 0.71681810E-01 0.13676976E+04</pdfrwt>
<totfact> 0.22731598E+01</totfact>
</mgrwt>
</event>
<event>
12    5  0.5428626E-008  0.1484592E+04  0.7818608E-02  0.8894764E-01
          1   -1    0    0  501    0  0.00000000000E+00  0.00000000000E+00  0.30588778732E+04  0.30588778732E+04  0.00000000000E+00 0. -1.
         -2   -1    0    0    0  501 -0.00000000000E+00 -0.00000000000E+00 -0.18013247118E+03  0.18013247118E+03  0.00000000000E+00 0.  1.
        -24    2    1    2    0    0  0.30432682818E+03 -0.23176487460E+03  0.33853131869E+03  0.51721279385E+03  0.81091583596E+02 0.  0.
        254    2    1    2    0    0 -0.30432682818E+03  0.23176487460E+03  0.25402140834E+04  0.27217975506E+04  0.89953573666E+03 0.  0.
         23    2    4    4    0    0 -0.54687072494E+03  0.95222697621E+02  0.94718475963E+03  0.11020718174E+04  0.96272373554E+02 0.  0.
         23    2    4    4    0    0  0.24254389676E+03  0.13654217698E+03  0.15930293237E+04  0.16197257331E+04  0.91091802300E+02 0.  0.
          1    1    3    3  502    0  0.66758861308E+02 -0.16352197438E+02  0.42719860022E+02  0.80926672763E+02  0.00000000000E+00 0. -1.
         -2    1    3    3    0  502  0.23756796688E+03 -0.21541267716E+03  0.29581145867E+03  0.43628612108E+03  0.00000000000E+00 0.  1.
         13    1    5    5    0    0 -0.18931604630E+03 -0.98782460141E+01  0.28698189819E+03  0.34394295315E+03  0.00000000000E+00 0.  1.
        -13    1    5    5    0    0 -0.35755467864E+03  0.10510094364E+03  0.66020286145E+03  0.75812886426E+03  0.00000000000E+00 0. -1.
          2    1    6    6  503    0  0.13004294853E+03  0.23190914382E+02  0.65296833160E+03  0.66619563871E+03  0.00000000000E+00 0. -1.
         -2    1    6    6    0  503  0.11250094823E+03  0.11335126260E+03  0.94006099212E+03  0.95353009444E+03  0.00000000000E+00 0.  1.
<mgrwt>
<rscale>  0 0.14845918E+04</rscale>
<asrwt>0</asrwt>
<pdfrwt beam="1">  1        1 0.47059656E+00 0.14845918E+04</pdfrwt>
<pdfrwt beam="2">  1       -2 0.27712690E-01 0.14845918E+04</pdfrwt>
<totfact> 0.55074739E+00</totfact>
</mgrwt>
</event>
<event>
12    5  0.5428626E-008  0.1456244E+04  0.7818608E-02  0.8914083E-01
         -2   -1    0    0    0  501 -0.00000000000E+00  0.00000000000E+00  0.98728730245E+03  0.98728730245E+03  0.00000000000E+00 0.  1.
          1   -1    0    0  501    0  0.00000000000E+00 -0.00000000000E+00 -0.53698813288E+03  0.53698813288E+03  0.00000000000E+00 0. -1.
        -24    2    1    2    0    0 -0.27903901428E+03 -0.91390413051E+01 -0.22323311306E+03  0.36609136957E+03  0.79016292897E+02 0.  0.
        254    2    1    2    0    0  0.27903901428E+03  0.91390413051E+01  0.67353228262E+03  0.11581840658E+04  0.89988793797E+03 0.  0.
         23    2    4    4    0    0 -0.50376311114E+02  0.28079501600E+03  0.65535034909E+03  0.72070814501E+03  0.92479924833E+02 0.  0.
         23    2    4    4    0    0  0.32941532539E+03 -0.27165597469E+03  0.18181933533E+02  0.43747592076E+03  0.93504937571E+02 0.  0.
          3    1    3    3  502    0 -0.67124307826E+02  0.31743843854E+02 -0.60941457777E+02  0.96058344769E+02  0.00000000000E+00 0. -1.
         -4    1    3    3    0  502 -0.21191470645E+03 -0.40882885159E+02 -0.16229165528E+03  0.27003302480E+03  0.00000000000E+00 0.  1.
         13    1    5    5    0    0  0.33993328925E+01  0.20083790547E+03  0.39589113408E+03  0.44393378987E+03  0.00000000000E+00 0.  1.
        -13    1    5    5    0    0 -0.53775644007E+02  0.79957110520E+02  0.25945921501E+03  0.27677435514E+03  0.00000000000E+00 0. -1.
          2    1    6    6  503    0  0.32860679175E+03 -0.24597962761E+03  0.10291524892E+02  0.41060238220E+03  0.00000000000E+00 0. -1.
         -2    1    6    6    0  503  0.80853363831E+00 -0.25676347084E+02  0.78904086409E+01  0.26873538560E+02  0.00000000000E+00 0.  1.
<mgrwt>
<rscale>  0 0.14562439E+04</rscale>
<asrwt>0</asrwt>
<pdfrwt beam="1">  1        1 0.82613559E-01 0.14562439E+04</pdfrwt>
<pdfrwt beam="2">  1       -2 0.15189035E+00 0.14562439E+04</pdfrwt>
<totfact> 0.98663081E+00</totfact>
</mgrwt>
</event>
<event>
12    5  0.5428626E-008  0.1983406E+04  0.7818608E-02  0.8614419E-01
         -4   -1    0    0    0  501 -0.00000000000E+00  0.00000000000E+00  0.26015496621E+03  0.26015496621E+03  0.00000000000E+00 0.  1.
          3   -1    0    0  501    0  0.00000000000E+00 -0.00000000000E+00 -0.37803412051E+04  0.37803412051E+04  0.00000000000E+00 0. -1.
        -24    2    1    2    0    0 -0.57041060158E+02 -0.34016702315E+03  0.40213956156E+02  0.35634433290E+03  0.79980217127E+02 0.  0.
        254    2    1    2    0    0  0.57041060158E+02  0.34016702315E+03 -0.35604001950E+04  0.36841518384E+04  0.88179245485E+03 0.  0.
         23    2    4    4    0    0 -0.27181970150E+03  0.43200753463E+03 -0.13564833553E+04  0.14520642020E+04  0.89033101798E+02 0.  0.
         23    2    4    4    0    0  0.32886076165E+03 -0.91840511480E+02 -0.22039168397E+04  0.22320876364E+04  0.91551626670E+02 0.  0.
          3    1    3    3  502    0 -0.26493258599E+02 -0.23619107309E+02  0.10106440143E+02  0.36903863126E+02  0.00000000000E+00 0. -1.
         -4    1    3    3    0  502 -0.30547801558E+02 -0.31654791584E+03  0.30107516013E+02  0.31944046977E+03  0.00000000000E+00 0.  1.
         13    1    5    5    0    0 -0.23200626470E+02  0.14795285911E+02 -0.37551801594E+02  0.46554348419E+02  0.00000000000E+00 0.  1.
        -13    1    5    5    0    0 -0.24861907503E+03  0.41721224872E+03 -0.13189315538E+04  0.14055098536E+04  0.00000000000E+00 0. -1.
          4    1    6    6  503    0  0.15357798663E+03 -0.89064547956E+02 -0.10404655750E+04  0.10555033418E+04  0.00000000000E+00 0.  1.
         -4    1    6    6    0  503  0.17528277502E+03 -0.27759635232E+01 -0.11634512646E+04  0.11765842946E+04  0.00000000000E+00 0. -1.
<mgrwt>
<rscale>  0 0.19834057E+04</rscale>
<asrwt>0</asrwt>
<pdfrwt beam="1">  1        3 0.58159093E+00 0.19834057E+04</pdfrwt>
<pdfrwt beam="2">  1       -4 0.40023842E-01 0.19834057E+04</pdfrwt>
<totfact> 0.18158150E-02</totfact>
</mgrwt>
</event>
<event>
12    5  0.5428626E-008  0.2163770E+04  0.7818608E-02  0.8533661E-01
         -2   -1    0    0    0  501 -0.00000000000E+00  0.00000000000E+00  0.83187321069E+03  0.83187321069E+03  0.00000000000E+00 0.  1.
          1   -1    0    0  501    0  0.00000000000E+00 -0.00000000000E+00 -0.14070357581E+04  0.14070357581E+04  0.00000000000E+00 0. -1.
        -24    2    1    2    0    0  0.43298239058E+03  0.59729661382E+03  0.27443482606E+03  0.79102013809E+03  0.78494520124E+02 0.  0.
        254    2    1    2    0    0 -0.43298239058E+03 -0.59729661382E+03 -0.84959737350E+03  0.14478888307E+04  0.91122410728E+03 0.  0.
         23    2    4    4    0    0 -0.61322198057E+03 -0.49122357618E+03 -0.28874258899E+03  0.84209397228E+03  0.91696107936E+02 0.  0.
         23    2    4    4    0    0  0.18023958999E+03 -0.10607303764E+03 -0.56085478452E+03  0.60579485846E+03  0.93228333161E+02 0.  0.
          1    1    3    3  502    0  0.11763900204E+02  0.28353288666E+02  0.27719490074E+02  0.41360227951E+02  0.00000000000E+00 0. -1.
         -2    1    3    3    0  502  0.42121849037E+03  0.56894332515E+03  0.24671533599E+03  0.74965991014E+03  0.00000000000E+00 0.  1.
         13    1    5    5    0    0 -0.57015670682E+03 -0.48050511133E+03 -0.28214954702E+03  0.79722782141E+03  0.00000000000E+00 0. -1.
        -13    1    5    5    0    0 -0.43065273744E+02 -0.10718464851E+02 -0.65930419650E+01  0.44866150869E+02  0.00000000000E+00 0.  1.
          4    1    6    6  503    0  0.72854198469E+02 -0.86365958419E+02 -0.21166848741E+03  0.23993824532E+03  0.00000000000E+00 0.  1.
         -4    1    6    6    0  503  0.10738539152E+03 -0.19707079218E+02 -0.34918629711E+03  0.36585661313E+03  0.00000000000E+00 0. -1.
<mgrwt>
<rscale>  0 0.21637702E+04</rscale>
<asrwt>0</asrwt>
<pdfrwt beam="1">  1        1 0.21646704E+00 0.21637702E+04</pdfrwt>
<pdfrwt beam="2">  1       -2 0.12798050E+00 0.21637702E+04</pdfrwt>
<totfact> 0.27552936E+00</totfact>
</mgrwt>
</event>
<event>
12    5  0.5428626E-008  0.1458771E+04  0.7818608E-02  0.8912343E-01
          1   -1    0    0  501    0  0.00000000000E+00  0.00000000000E+00  0.10600557173E+04  0.10600557173E+04  0.00000000000E+00 0. -1.
         -2   -1    0    0    0  501 -0.00000000000E+00 -0.00000000000E+00 -0.50186310069E+03  0.50186310069E+03  0.00000000000E+00 0.  1.
        -24    2    1    2    0    0 -0.77202749311E+02  0.28622230555E+03  0.53712856198E+03  0.61867866798E+03  0.79829376970E+02 0.  0.
        254    2    1    2    0    0  0.77202749311E+02 -0.28622230555E+03  0.21064054654E+02  0.94324015003E+03  0.89519540523E+03 0.  0.
         23    2    4    4    0    0 -0.25785657585E+03 -0.46616663982E+03 -0.60008724116E+02  0.54361179149E+03  0.90063217185E+02 0.  0.
         23    2    4    4    0    0  0.33505932516E+03  0.17994433427E+03  0.81072778770E+02  0.39962835854E+03  0.92115767786E+02 0.  0.
          1    1    3    3  502    0 -0.91968379570E+02  0.22675091980E+03  0.40803672907E+03  0.47578160404E+03  0.00000000000E+00 0. -1.
         -2    1    3    3    0  502  0.14765630259E+02  0.59471385745E+02  0.12909183292E+03  0.14289706395E+03  0.00000000000E+00 0.  1.
         13    1    5    5    0    0 -0.22289307651E+03 -0.32611688041E+03 -0.29774908645E+02  0.39613140298E+03  0.00000000000E+00 0. -1.
        -13    1    5    5    0    0 -0.34963499340E+02 -0.14004975941E+03 -0.30233815472E+02  0.14748038851E+03  0.00000000000E+00 0.  1.
          2    1    6    6  503    0  0.30819962679E+03  0.13053202128E+03  0.63207343474E+02  0.34061824203E+03  0.00000000000E+00 0. -1.
         -2    1    6    6    0  503  0.26859698372E+02  0.49412312997E+02  0.17865435296E+02  0.59010116511E+02  0.00000000000E+00 0.  1.
<mgrwt>
<rscale>  0 0.14587705E+04</rscale>
<asrwt>0</asrwt>
<pdfrwt beam="1">  1        1 0.16308549E+00 0.14587705E+04</pdfrwt>
<pdfrwt beam="2">  1       -2 0.77209708E-01 0.14587705E+04</pdfrwt>
<totfact> 0.17318902E+01</totfact>
</mgrwt>
</event>
<event>
12    5  0.5428626E-008  0.2239982E+04  0.7818608E-02  0.8501969E-01
         -2   -1    0    0    0  501 -0.00000000000E+00  0.00000000000E+00  0.16980883668E+04  0.16980883668E+04  0.00000000000E+00 0.  1.
          1   -1    0    0  501    0  0.00000000000E+00 -0.00000000000E+00 -0.73870110995E+03  0.73870110995E+03  0.00000000000E+00 0. -1.
        -24    2    1    2    0    0 -0.66265794170E+03 -0.58401083184E+03  0.59737212647E+02  0.88885456514E+03  0.79433645201E+02 0.  0.
        254    2    1    2    0    0  0.66265794170E+03  0.58401083184E+03  0.89965004424E+03  0.15479349116E+04  0.89808022425E+03 0.  0.
         23    2    4    4    0    0  0.23433409975E+03  0.40884393642E+03  0.95910911143E+03  0.10725787059E+04  0.92026942243E+02 0.  0.
         23    2    4    4    0    0  0.42832384195E+03  0.17516689542E+03 -0.59459067189E+02  0.47535620574E+03  0.91013113468E+02 0.  0.
          1    1    3    3  502    0  0.72918838844E+00 -0.74063557051E+01 -0.20942833520E+01  0.77312252130E+01  0.00000000000E+00 0. -1.
         -2    1    3    3    0  502 -0.66338713009E+03 -0.57660447614E+03  0.61831495999E+02  0.88112333993E+03  0.00000000000E+00 0.  1.
         13    1    5    5    0    0  0.13602879594E+03  0.31862736330E+03  0.70811083938E+03  0.78831985312E+03  0.00000000000E+00 0. -1.
        -13    1    5    5    0    0  0.98305303803E+02  0.90216573119E+02  0.25099827205E+03  0.28425885279E+03  0.00000000000E+00 0.  1.
          3    1    6    6  503    0  0.98669661108E+01 -0.56189439355E+01 -0.12837743546E+02  0.17138763390E+02  0.00000000000E+00 0.  1.
         -3    1    6    6    0  503  0.41845687584E+03  0.18078583936E+03 -0.46621323644E+02  0.45821744235E+03  0.00000000000E+00 0. -1.
<mgrwt>
<rscale>  0 0.22399819E+04</rscale>
<asrwt>0</asrwt>
<pdfrwt beam="1">  1        1 0.11364633E+00 0.22399819E+04</pdfrwt>
<pdfrwt beam="2">  1       -2 0.26124436E+00 0.22399819E+04</pdfrwt>
<totfact> 0.10946664E+00</totfact>
</mgrwt>
</event>
<event>
12    5  0.5428626E-008  0.1220901E+04  0.7818608E-02  0.9094756E-01
          1   -1    0    0  501    0  0.00000000000E+00  0.00000000000E+00  0.94982799158E+03  0.94982799158E+03  0.00000000000E+00 0. -1.
         -2   -1    0    0    0  501 -0.00000000000E+00 -0.00000000000E+00 -0.39233378330E+03  0.39233378330E+03  0.00000000000E+00 0.  1.
        -24    2    1    2    0    0 -0.23348429190E+03  0.11128230060E+03  0.52349696524E+02  0.27558264698E+03  0.79414353851E+02 0.  0.
        254    2    1    2    0    0  0.23348429190E+03 -0.11128230060E+03  0.50514451176E+03  0.10665791279E+04  0.90306223114E+03 0.  0.
         23    2    4    4    0    0 -0.16696970008E+03  0.10948914448E+03 -0.14758104966E+03  0.26433054002E+03  0.90684699173E+02 0.  0.
         23    2    4    4    0    0  0.40045399198E+03 -0.22077144508E+03  0.65272556142E+03  0.80224858788E+03  0.91916851352E+02 0.  0.
          3    1    3    3  502    0 -0.10378748759E+03  0.76795376776E+01  0.28323176560E+02  0.10785647968E+03  0.00000000000E+00 0. -1.
         -4    1    3    3    0  502 -0.12969680431E+03  0.10360276292E+03  0.24026519964E+02  0.16772616730E+03  0.00000000000E+00 0.  1.
         13    1    5    5    0    0 -0.67969699035E+02  0.29345184250E+02 -0.65942083460E+01  0.74327003231E+02  0.00000000000E+00 0. -1.
        -13    1    5    5    0    0 -0.99000001049E+02  0.80143960231E+02 -0.14098684131E+03  0.19000353679E+03  0.00000000000E+00 0.  1.
          4    1    6    6  503    0  0.34579698494E+03 -0.21692114644E+03  0.54014925213E+03  0.67704619720E+03  0.00000000000E+00 0. -1.
         -4    1    6    6    0  503  0.54657007045E+02 -0.38502986463E+01  0.11257630929E+03  0.12520239068E+03  0.00000000000E+00 0.  1.
<mgrwt>
<rscale>  0 0.12209007E+04</rscale>
<asrwt>0</asrwt>
<pdfrwt beam="1">  1        1 0.14612738E+00 0.12209007E+04</pdfrwt>
<pdfrwt beam="2">  1       -2 0.60359044E-01 0.12209007E+04</pdfrwt>
<totfact> 0.36733641E+01</totfact>
</mgrwt>
</event>
<event>
12    5  0.5428626E-008  0.1725544E+04  0.7818608E-02  0.8746928E-01
          1   -1    0    0  501    0  0.00000000000E+00  0.00000000000E+00  0.25312877167E+04  0.25312877167E+04  0.00000000000E+00 0. -1.
         -2   -1    0    0    0  501 -0.00000000000E+00 -0.00000000000E+00 -0.29406984019E+03  0.29406984019E+03  0.00000000000E+00 0.  1.
        -24    2    1    2    0    0  0.46178962577E+03 -0.80396660198E+02  0.14769841549E+04  0.15516318818E+04  0.79787350326E+02 0.  0.
        254    2    1    2    0    0 -0.46178962577E+03  0.80396660198E+02  0.76023372161E+03  0.12737256751E+04  0.90813462799E+03 0.  0.
         23    2    4    4    0    0  0.80252533879E+02  0.37653194410E+03  0.25828712834E+03  0.47263919053E+03  0.91971678420E+02 0.  0.
         23    2    4    4    0    0 -0.54204215964E+03 -0.29613528391E+03  0.50194659327E+03  0.80108648460E+03  0.91012988652E+02 0.  0.
          3    1    3    3  502    0  0.29933072819E+03 -0.61896687880E+02  0.10765235726E+04  0.11190768906E+04  0.00000000000E+00 0. -1.
         -2    1    3    3    0  502  0.16245889757E+03 -0.18499972318E+02  0.40046058239E+03  0.43255499122E+03  0.00000000000E+00 0.  1.
         13    1    5    5    0    0  0.23881795728E+02  0.18712478884E+03  0.74668475859E+02  0.20288274459E+03  0.00000000000E+00 0. -1.
        -13    1    5    5    0    0  0.56370738150E+02  0.18940715526E+03  0.18361865248E+03  0.26975644594E+03  0.00000000000E+00 0.  1.
          4    1    6    6  503    0 -0.48198646510E+01 -0.19034361305E+02  0.19666114903E+02  0.27790179577E+02  0.00000000000E+00 0. -1.
         -4    1    6    6    0  503 -0.53722229499E+03 -0.27710092260E+03  0.48228047837E+03  0.77329630502E+03  0.00000000000E+00 0.  1.
<mgrwt>
<rscale>  0 0.17255438E+04</rscale>
<asrwt>0</asrwt>
<pdfrwt beam="1">  1        1 0.38942886E+00 0.17255438E+04</pdfrwt>
<pdfrwt beam="2">  1       -2 0.45241516E-01 0.17255438E+04</pdfrwt>
<totfact> 0.49863410E+00</totfact>
</mgrwt>
</event>
<event>
12    5  0.6926173E-008  0.1752923E+04  0.7818608E-02  0.8731743E-01
          1   -1    0    0  501    0  0.00000000000E+00  0.00000000000E+00  0.18450363504E+04  0.18450363504E+04  0.00000000000E+00 0. -1.
         -2   -1    0    0    0  501 -0.00000000000E+00 -0.00000000000E+00 -0.41635198575E+03  0.41635198575E+03  0.00000000000E+00 0.  1.
        -24    2    1    2    0    0  0.30333641524E+03 -0.47199850082E+03  0.88612094290E+03  0.10519091488E+04  0.80665769618E+02 0.  0.
        254    2    1    2    0    0 -0.30333641524E+03  0.47199850082E+03  0.54256342179E+03  0.12094791873E+04  0.92394224516E+03 0.  0.
         23    2    4    4    0    0 -0.84662052662E+02  0.72086677594E+03  0.30125199653E+03  0.79109595027E+03  0.90903604390E+02 0.  0.
         23    2    4    4    0    0 -0.21867436257E+03 -0.24886827512E+03  0.24131142525E+03  0.41838323708E+03  0.84020437438E+02 0.  0.
          3    1    3    3  502    0  0.27227167751E+03 -0.39446453624E+03  0.70555866067E+03  0.85296375091E+03  0.00000000000E+00 0. -1.
         -4    1    3    3    0  502  0.31064737726E+02 -0.77533964588E+02  0.18056228223E+03  0.19894539793E+03  0.00000000000E+00 0.  1.
         13    1    5    5    0    0 -0.63918636547E+02  0.67157110777E+03  0.29806090224E+03  0.73751857355E+03  0.00000000000E+00 0. -1.
        -13    1    5    5    0    0 -0.20743416115E+02  0.49295668175E+02  0.31910942943E+01  0.53577376716E+02  0.00000000000E+00 0.  1.
          4    1    6    6  503    0 -0.19602657071E+03 -0.24009459405E+03  0.19529235141E+03  0.36634810363E+03  0.00000000000E+00 0. -1.
         -4    1    6    6    0  503 -0.22647791863E+02 -0.87736810696E+01  0.46019073845E+02  0.52035133451E+02  0.00000000000E+00 0.  1.
<mgrwt>
<rscale>  0 0.17529228E+04</rscale>
<asrwt>0</asrwt>
<pdfrwt beam="1">  1        1 0.28385174E+00 0.17529228E+04</pdfrwt>
<pdfrwt beam="2">  1       -2 0.64054152E-01 0.17529228E+04</pdfrwt>
<totfact> 0.71150262E+00</totfact>
</mgrwt>
</event>
<event>
12    5  0.5428626E-008  0.1579995E+04  0.7818608E-02  0.8832933E-01
         -2   -1    0    0    0  501 -0.00000000000E+00  0.00000000000E+00  0.49981942530E+03  0.49981942530E+03  0.00000000000E+00 0.  1.
          1   -1    0    0  501    0  0.00000000000E+00 -0.00000000000E+00 -0.12486431418E+04  0.12486431418E+04  0.00000000000E+00 0. -1.
        -24    2    1    2    0    0 -0.31085175454E+03  0.41062676144E+03 -0.16614442247E+03  0.54749003046E+03  0.83055486405E+02 0.  0.
        254    2    1    2    0    0  0.31085175454E+03 -0.41062676144E+03 -0.58267929402E+03  0.12009725366E+04  0.91519217848E+03 0.  0.
         23    2    4    4    0    0 -0.43872072819E+01 -0.38820511495E+03  0.12721157082E+03  0.41842673861E+03  0.90419538668E+02 0.  0.
         23    2    4    4    0    0  0.31523896182E+03 -0.22421646493E+02 -0.70989086484E+03  0.78254579802E+03  0.92490825056E+02 0.  0.
          1    1    3    3  502    0 -0.19154363596E+03  0.27513131870E+03 -0.68239594888E+02  0.34211525736E+03  0.00000000000E+00 0. -1.
         -2    1    3    3    0  502 -0.11930811858E+03  0.13549544274E+03 -0.97904827581E+02  0.20537477310E+03  0.00000000000E+00 0.  1.
         13    1    5    5    0    0 -0.69008469327E+00 -0.38001735147E+03  0.10468272090E+03  0.39417272317E+03  0.00000000000E+00 0.  1.
        -13    1    5    5    0    0 -0.36971225887E+01 -0.81877634795E+01  0.22528849923E+02  0.24254015443E+02  0.00000000000E+00 0. -1.
          3    1    6    6  503    0  0.17749770729E+03 -0.38948721905E+02 -0.31075279787E+03  0.35998575029E+03  0.00000000000E+00 0. -1.
         -3    1    6    6    0  503  0.13774125454E+03  0.16527075412E+02 -0.39913806698E+03  0.42256004773E+03  0.00000000000E+00 0.  1.
<mgrwt>
<rscale>  0 0.15799951E+04</rscale>
<asrwt>0</asrwt>
<pdfrwt beam="1">  1        1 0.19209894E+00 0.15799951E+04</pdfrwt>
<pdfrwt beam="2">  1       -2 0.76895297E-01 0.15799951E+04</pdfrwt>
<totfact> 0.12542100E+01</totfact>
</mgrwt>
</event>
<event>
12    5  0.5428626E-008  0.2030771E+04  0.7818608E-02  0.8592368E-01
          1   -1    0    0  501    0  0.00000000000E+00  0.00000000000E+00  0.10504364340E+04  0.10504364340E+04  0.00000000000E+00 0. -1.
         -4   -1    0    0    0  501 -0.00000000000E+00 -0.00000000000E+00 -0.98150450651E+03  0.98150450651E+03  0.00000000000E+00 0.  1.
        -24    2    1    2    0    0  0.53648707740E+03  0.17738354779E+03  0.60912318764E+03  0.83477564846E+03  0.80845644843E+02 0.  0.
        254    2    1    2    0    0 -0.53648707740E+03 -0.17738354779E+03 -0.54019126017E+03  0.11971652920E+04  0.90670548232E+03 0.  0.
         23    2    4    4    0    0 -0.77339973341E+03 -0.16236333935E+03 -0.30987266156E+03  0.85381861053E+03  0.92066018113E+02 0.  0.
         23    2    4    4    0    0  0.23691265601E+03 -0.15020208439E+02 -0.23031859860E+03  0.34334668151E+03  0.92125314666E+02 0.  0.
          1    1    3    3  502    0  0.31388082014E+03  0.14526969071E+03  0.37309538058E+03  0.50874808629E+03  0.00000000000E+00 0. -1.
         -2    1    3    3    0  502  0.22260625726E+03  0.32113857080E+02  0.23602780706E+03  0.32602756216E+03  0.00000000000E+00 0.  1.
         13    1    5    5    0    0 -0.10910203858E+02  0.88930465269E+01 -0.66700516955E+01  0.15575892089E+02  0.00000000000E+00 0. -1.
        -13    1    5    5    0    0 -0.76248952955E+03 -0.17125638588E+03 -0.30320260987E+03  0.83824271844E+03  0.00000000000E+00 0.  1.
          3    1    6    6  503    0  0.32706435752E+02  0.31028451293E+02 -0.46402530734E+02  0.64696758711E+02  0.00000000000E+00 0. -1.
         -3    1    6    6    0  503  0.20420622026E+03 -0.46048659732E+02 -0.18391606787E+03  0.27864992280E+03  0.00000000000E+00 0.  1.
<mgrwt>
<rscale>  0 0.20307714E+04</rscale>
<asrwt>0</asrwt>
<pdfrwt beam="1">  1        1 0.16160561E+00 0.20307714E+04</pdfrwt>
<pdfrwt beam="2">  1       -4 0.15100069E+00 0.20307714E+04</pdfrwt>
<totfact> 0.18156505E+00</totfact>
</mgrwt>
</event>
<event>
12    5  0.5428626E-008  0.1291296E+04  0.7818608E-02  0.9036496E-01
         -2   -1    0    0    0  501 -0.00000000000E+00  0.00000000000E+00  0.53477944141E+03  0.53477944141E+03  0.00000000000E+00 0.  1.
          1   -1    0    0  501    0  0.00000000000E+00 -0.00000000000E+00 -0.77950113862E+03  0.77950113862E+03  0.00000000000E+00 0. -1.
        -24    2    1    2    0    0  0.28320535510E+03 -0.11801600480E+03 -0.15816381366E+03  0.35403921075E+03  0.78707815688E+02 0.  0.
        254    2    1    2    0    0 -0.28320535510E+03  0.11801600480E+03 -0.86557883548E+02  0.96024136927E+03  0.90578042014E+03 0.  0.
         23    2    4    4    0    0  0.53009832470E+02 -0.24174763385E+03 -0.31383506227E+03  0.41018428931E+03  0.92232012222E+02 0.  0.
         23    2    4    4    0    0 -0.33621518757E+03  0.35976363865E+03  0.22727717872E+03  0.55005707996E+03  0.91855033623E+02 0.  0.
          3    1    3    3  502    0  0.16927177133E+01 -0.67998195723E+01 -0.20225897270E+02  0.21405367548E+02  0.00000000000E+00 0. -1.
         -4    1    3    3    0  502  0.28151263739E+03 -0.11121618523E+03 -0.13793791639E+03  0.33263384320E+03  0.00000000000E+00 0.  1.
         13    1    5    5    0    0 -0.63875453238E+01 -0.17310012460E+03 -0.19991774847E+03  0.26452137915E+03  0.00000000000E+00 0. -1.
        -13    1    5    5    0    0  0.59397377793E+02 -0.68647509249E+02 -0.11391731379E+03  0.14566291016E+03  0.00000000000E+00 0.  1.
          3    1    6    6  503    0 -0.73586858141E+01  0.19725746055E+02  0.31967447250E+02  0.38277578267E+02  0.00000000000E+00 0. -1.
         -3    1    6    6    0  503 -0.32885650176E+03  0.34003789260E+03  0.19530973147E+03  0.51177950170E+03  0.00000000000E+00 0.  1.
<mgrwt>
<rscale>  0 0.12912958E+04</rscale>
<asrwt>0</asrwt>
<pdfrwt beam="1">  1        1 0.11992325E+00 0.12912958E+04</pdfrwt>
<pdfrwt beam="2">  1       -2 0.82273760E-01 0.12912958E+04</pdfrwt>
<totfact> 0.25760274E+01</totfact>
</mgrwt>
</event>
<event>
12    5  0.5428626E-008  0.1659216E+04  0.7818608E-02  0.8784973E-01
         -2   -1    0    0    0  501 -0.00000000000E+00  0.00000000000E+00  0.83492066203E+03  0.83492066203E+03  0.00000000000E+00 0.  1.
          1   -1    0    0  501    0  0.00000000000E+00 -0.00000000000E+00 -0.82432892806E+03  0.82432892806E+03  0.00000000000E+00 0. -1.
        -24    2    1    2    0    0 -0.35639568720E+02 -0.13400640455E+03 -0.55970630384E+03  0.58221684113E+03  0.80482347233E+02 0.  0.
        254    2    1    2    0    0  0.35639568720E+02  0.13400640455E+03  0.57029803781E+03  0.10770327490E+04  0.90306799029E+03 0.  0.
         23    2    4    4    0    0 -0.40156673614E+03 -0.48489820483E+02  0.16233153253E+03  0.44520523857E+03  0.90824400505E+02 0.  0.
         23    2    4    4    0    0  0.43720630486E+03  0.18249622504E+03  0.40796650528E+03  0.63182751039E+03  0.91187215645E+02 0.  0.
          3    1    3    3  502    0 -0.12312513468E+02 -0.13615507829E+03 -0.46726856905E+03  0.48685697997E+03  0.00000000000E+00 0. -1.
         -4    1    3    3    0  502 -0.23327055251E+02  0.21486737355E+01 -0.92437734793E+02  0.95359861153E+02  0.00000000000E+00 0.  1.
         13    1    5    5    0    0 -0.22228501752E+03 -0.54652595455E+02  0.12898517978E+03  0.26274457522E+03  0.00000000000E+00 0. -1.
        -13    1    5    5    0    0 -0.17928171862E+03  0.61627749719E+01  0.33346352748E+02  0.18246066335E+03  0.00000000000E+00 0.  1.
          3    1    6    6  503    0  0.19916719045E+03  0.12907277296E+03  0.17922620595E+03  0.29740441048E+03  0.00000000000E+00 0. -1.
         -3    1    6    6    0  503  0.23803911441E+03  0.53423452078E+02  0.22874029932E+03  0.33442309992E+03  0.00000000000E+00 0.  1.
<mgrwt>
<rscale>  0 0.16592158E+04</rscale>
<asrwt>0</asrwt>
<pdfrwt beam="1">  1        1 0.12681983E+00 0.16592158E+04</pdfrwt>
<pdfrwt beam="2">  1       -2 0.12844933E+00 0.16592158E+04</pdfrwt>
<totfact> 0.78864421E+00</totfact>
</mgrwt>
</event>
<event>
12    5  0.5428626E-008  0.1295861E+04  0.7818608E-02  0.9032854E-01
         -2   -1    0    0    0  501 -0.00000000000E+00  0.00000000000E+00  0.69383445104E+03  0.69383445104E+03  0.00000000000E+00 0.  1.
          1   -1    0    0  501    0  0.00000000000E+00 -0.00000000000E+00 -0.60506385082E+03  0.60506385082E+03  0.00000000000E+00 0. -1.
        -24    2    1    2    0    0  0.28181971186E+03  0.15548391718E+03  0.25151085930E+02  0.33230678859E+03  0.78725003181E+02 0.  0.
        254    2    1    2    0    0 -0.28181971186E+03 -0.15548391718E+03  0.63619514294E+02  0.96659151327E+03  0.90920520920E+03 0.  0.
         23    2    4    4    0    0 -0.23335918946E+03  0.35670191228E+03  0.79011306256E+02  0.44286490116E+03  0.90519437857E+02 0.  0.
         23    2    4    4    0    0 -0.48460522400E+02 -0.51218582947E+03 -0.15391791962E+02  0.52372661211E+03  0.96798299776E+02 0.  0.
          3    1    3    3  502    0  0.93522912739E+02  0.37624973109E+02 -0.26516459092E+02  0.10423673254E+03  0.00000000000E+00 0. -1.
         -4    1    3    3    0  502  0.18829679912E+03  0.11785894407E+03  0.51667545022E+02  0.22807005605E+03  0.00000000000E+00 0.  1.
         13    1    5    5    0    0 -0.11321247975E+03  0.94999554922E+02  0.25769956871E+02  0.15002023758E+03  0.00000000000E+00 0. -1.
        -13    1    5    5    0    0 -0.12014670971E+03  0.26170235736E+03  0.53241349385E+02  0.29284466358E+03  0.00000000000E+00 0.  1.
          3    1    6    6  503    0  0.15679840273E+02 -0.26268966711E+03  0.18950801538E+02  0.26383868457E+03  0.00000000000E+00 0. -1.
         -3    1    6    6    0  503 -0.64140362673E+02 -0.24949616236E+03 -0.34342593500E+02  0.25988792755E+03  0.00000000000E+00 0.  1.
<mgrwt>
<rscale>  0 0.12958613E+04</rscale>
<asrwt>0</asrwt>
<pdfrwt beam="1">  1        1 0.93086746E-01 0.12958613E+04</pdfrwt>
<pdfrwt beam="2">  1       -2 0.10674376E+00 0.12958613E+04</pdfrwt>
<totfact> 0.20560181E+01</totfact>
</mgrwt>
</event>
<event>
12    5  0.5428626E-008  0.1355070E+04  0.7818608E-02  0.8986999E-01
         -2   -1    0    0    0  501 -0.00000000000E+00  0.00000000000E+00  0.21983673138E+03  0.21983673138E+03  0.00000000000E+00 0.  1.
          1   -1    0    0  501    0  0.00000000000E+00 -0.00000000000E+00 -0.20881558410E+04  0.20881558410E+04  0.00000000000E+00 0. -1.
        -24    2    1    2    0    0 -0.90855786394E+02  0.28337207073E+03 -0.89027484829E+03  0.94233349025E+03  0.82756250287E+02 0.  0.
        254    2    1    2    0    0  0.90855786394E+02 -0.28337207073E+03 -0.97804426131E+03  0.13656590821E+04  0.90548310149E+03 0.  0.
         23    2    4    4    0    0  0.18243953633E+03 -0.35615929481E+03 -0.10981806930E+04  0.11724781819E+04  0.92577668822E+02 0.  0.
         23    2    4    4    0    0 -0.91583749940E+02  0.72787224074E+02  0.12013643171E+03  0.19318090024E+03  0.95919418019E+02 0.  0.
          3    1    3    3  502    0 -0.80024480283E+02  0.27912738731E+03 -0.88048215028E+03  0.92712719341E+03  0.00000000000E+00 0. -1.
         -4    1    3    3    0  502 -0.10831306111E+02  0.42446834221E+01 -0.97926980043E+01  0.15206296841E+02  0.00000000000E+00 0.  1.
         13    1    5    5    0    0  0.21522079628E+02 -0.21325067865E+02 -0.17063260659E+03  0.17330160087E+03  0.00000000000E+00 0.  1.
        -13    1    5    5    0    0  0.16091745671E+03 -0.33483422694E+03 -0.92754808643E+03  0.99917658101E+03  0.00000000000E+00 0. -1.
          3    1    6    6  503    0 -0.10815491838E+03  0.60515661226E+02  0.12007294136E+03  0.17256054842E+03  0.00000000000E+00 0. -1.
         -3    1    6    6    0  503  0.16571168441E+02  0.12271562848E+02  0.63490344974E-01  0.20620351822E+02  0.00000000000E+00 0.  1.
<mgrwt>
<rscale>  0 0.13550695E+04</rscale>
<asrwt>0</asrwt>
<pdfrwt beam="1">  1        1 0.32125473E+00 0.13550695E+04</pdfrwt>
<pdfrwt beam="2">  1       -2 0.33821037E-01 0.13550695E+04</pdfrwt>
<totfact> 0.18266233E+01</totfact>
</mgrwt>
</event>
<event>
12    5  0.5428626E-008  0.1938377E+04  0.7818608E-02  0.8635986E-01
         -2   -1    0    0    0  501 -0.00000000000E+00  0.00000000000E+00  0.72669872055E+03  0.72669872055E+03  0.00000000000E+00 0.  1.
          1   -1    0    0  501    0  0.00000000000E+00 -0.00000000000E+00 -0.12925943977E+04  0.12925943977E+04  0.00000000000E+00 0. -1.
        -24    2    1    2    0    0 -0.29535750906E+03  0.47152044361E+03  0.31493182170E+03  0.64431424348E+03  0.79945013180E+02 0.  0.
        254    2    1    2    0    0  0.29535750906E+03 -0.47152044361E+03 -0.88082749888E+03  0.13749788748E+04  0.89729718401E+03 0.  0.
         23    2    4    4    0    0 -0.10722345463E+03 -0.45592074391E+03 -0.93969076321E+02  0.48624641170E+03  0.90800835003E+02 0.  0.
         23    2    4    4    0    0  0.40258096369E+03 -0.15599699700E+02 -0.78685842256E+03  0.88873246309E+03  0.91566537735E+02 0.  0.
          1    1    3    3  502    0 -0.20350781091E+03  0.36191178755E+03  0.20008128139E+03  0.46089921917E+03  0.00000000000E+00 0. -1.
         -2    1    3    3    0  502 -0.91849698146E+02  0.10960865606E+03  0.11485054031E+03  0.18341502431E+03  0.00000000000E+00 0.  1.
         13    1    5    5    0    0 -0.70014126912E+02 -0.24231602236E+03 -0.94710775938E+02  0.26942376239E+03  0.00000000000E+00 0.  1.
        -13    1    5    5    0    0 -0.37209327719E+02 -0.21360472155E+03  0.74169961675E+00  0.21682264931E+03  0.00000000000E+00 0. -1.
          4    1    6    6  503    0  0.23592572373E+03 -0.48949577722E+02 -0.50626617597E+03  0.56068034495E+03  0.00000000000E+00 0. -1.
         -4    1    6    6    0  503  0.16665523996E+03  0.33349878021E+02 -0.28059224659E+03  0.32805211814E+03  0.00000000000E+00 0.  1.
<mgrwt>
<rscale>  0 0.19383774E+04</rscale>
<asrwt>0</asrwt>
<pdfrwt beam="1">  1        1 0.19886067E+00 0.19383774E+04</pdfrwt>
<pdfrwt beam="2">  1       -2 0.11179980E+00 0.19383774E+04</pdfrwt>
<totfact> 0.47323579E+00</totfact>
</mgrwt>
</event>
<event>
12    5  0.5428626E-008  0.1838284E+04  0.7818608E-02  0.8686201E-01
         -2   -1    0    0    0  501 -0.00000000000E+00  0.00000000000E+00  0.37235015774E+03  0.37235015774E+03  0.00000000000E+00 0.  1.
          1   -1    0    0  501    0  0.00000000000E+00 -0.00000000000E+00 -0.22688918642E+04  0.22688918642E+04  0.00000000000E+00 0. -1.
        -24    2    1    2    0    0 -0.66466195190E+03  0.64046315618E+02 -0.10133448666E+04  0.12161438371E+04  0.79123781527E+02 0.  0.
        254    2    1    2    0    0  0.66466195190E+03 -0.64046315618E+02 -0.88319683986E+03  0.14250981849E+04  0.89721276066E+03 0.  0.
         23    2    4    4    0    0  0.58572266702E+03  0.26748298573E+03 -0.24289539766E+03  0.69436012195E+03  0.92301757484E+02 0.  0.
         23    2    4    4    0    0  0.78939284880E+02 -0.33152930135E+03 -0.64030144220E+03  0.73073806297E+03  0.88595098337E+02 0.  0.
          1    1    3    3  502    0 -0.46613624427E+03  0.80850355458E+02 -0.70441154338E+03  0.84853721229E+03  0.00000000000E+00 0. -1.
         -2    1    3    3    0  502 -0.19852570763E+03 -0.16804039840E+02 -0.30893332326E+03  0.36760662476E+03  0.00000000000E+00 0.  1.
         13    1    5    5    0    0  0.35313822871E+03  0.11141906991E+03 -0.14432328226E+03  0.39742927361E+03  0.00000000000E+00 0. -1.
        -13    1    5    5    0    0  0.23258443831E+03  0.15606391582E+03 -0.98572115398E+02  0.29693084834E+03  0.00000000000E+00 0.  1.
          4    1    6    6  503    0 -0.18513124513E+02 -0.30161452916E+02 -0.63503556633E+02  0.72699042128E+02  0.00000000000E+00 0. -1.
         -4    1    6    6    0  503  0.97452409393E+02 -0.30136784843E+03 -0.57679788556E+03  0.65803902084E+03  0.00000000000E+00 0.  1.
<mgrwt>
<rscale>  0 0.18382842E+04</rscale>
<asrwt>0</asrwt>
<pdfrwt beam="1">  1        1 0.34906029E+00 0.18382842E+04</pdfrwt>
<pdfrwt beam="2">  1       -2 0.57284640E-01 0.18382842E+04</pdfrwt>
<totfact> 0.46124513E+00</totfact>
</mgrwt>
</event>
<event>
12    5  0.5428626E-008  0.1536063E+04  0.7818608E-02  0.8860819E-01
          1   -1    0    0  501    0  0.00000000000E+00  0.00000000000E+00  0.10336035699E+04  0.10336035699E+04  0.00000000000E+00 0. -1.
         -2   -1    0    0    0  501 -0.00000000000E+00 -0.00000000000E+00 -0.57069509422E+03  0.57069509422E+03  0.00000000000E+00 0.  1.
        -24    2    1    2    0    0 -0.36391611140E+03 -0.17150909325E+03 -0.17791278452E+03  0.44697860705E+03  0.79288152102E+02 0.  0.
        254    2    1    2    0    0  0.36391611140E+03  0.17150909325E+03  0.64082126018E+03  0.11573200570E+04  0.87572114382E+03 0.  0.
         23    2    4    4    0    0  0.32699717869E+03 -0.19109597006E+02  0.81281005338E+03  0.88099323301E+03  0.90534867153E+02 0.  0.
         23    2    4    4    0    0  0.36918932706E+02  0.19061869026E+03 -0.17198879320E+03  0.27632682403E+03  0.95277888450E+02 0.  0.
          1    1    3    3  502    0 -0.25732614996E+03 -0.92976987836E+02 -0.14867280012E+03  0.31139214701E+03  0.00000000000E+00 0. -1.
         -4    1    3    3    0  502 -0.10658996144E+03 -0.78532105417E+02 -0.29239984395E+02  0.13558646005E+03  0.00000000000E+00 0.  1.
         13    1    5    5    0    0  0.13197061254E+03  0.32056065580E+02  0.37953951525E+03  0.40310554145E+03  0.00000000000E+00 0.  1.
        -13    1    5    5    0    0  0.19502656615E+03 -0.51165662586E+02  0.43327053813E+03  0.47788769156E+03  0.00000000000E+00 0. -1.
          2    1    6    6  503    0  0.57161814702E+02  0.90011307395E+02 -0.52608567678E+02  0.11889983142E+03  0.00000000000E+00 0. -1.
         -2    1    6    6    0  503 -0.20242881996E+02  0.10060738286E+03 -0.11938022552E+03  0.15742699261E+03  0.00000000000E+00 0.  1.
<mgrwt>
<rscale>  0 0.15360631E+04</rscale>
<asrwt>0</asrwt>
<pdfrwt beam="1">  1        1 0.15901593E+00 0.15360631E+04</pdfrwt>
<pdfrwt beam="2">  1       -2 0.87799245E-01 0.15360631E+04</pdfrwt>
<totfact> 0.13480288E+01</totfact>
</mgrwt>
</event>
<event>
12    5  0.5428626E-008  0.2652112E+04  0.7818608E-02  0.8350712E-01
         -2   -1    0    0    0  501 -0.00000000000E+00  0.00000000000E+00  0.30219082855E+04  0.30219082855E+04  0.00000000000E+00 0.  1.
          1   -1    0    0  501    0  0.00000000000E+00 -0.00000000000E+00 -0.58189230283E+03  0.58189230283E+03  0.00000000000E+00 0. -1.
        -24    2    1    2    0    0  0.58228478539E+02 -0.44327814934E+03  0.25412632701E+04  0.25814893631E+04  0.78627287360E+02 0.  0.
        254    2    1    2    0    0 -0.58228478539E+02  0.44327814934E+03 -0.10124728744E+03  0.10223112253E+04  0.91377412672E+03 0.  0.
         23    2    4    4    0    0 -0.25413662676E+03 -0.10572586635E+03 -0.28232248058E+03  0.40521672708E+03  0.93441045507E+02 0.  0.
         23    2    4    4    0    0  0.19590814822E+03  0.54900401569E+03  0.18107519314E+03  0.61709449817E+03  0.90730272349E+02 0.  0.
          1    1    3    3  502    0  0.12681787369E+02 -0.79523144900E+02  0.65506656176E+03  0.65999769593E+03  0.00000000000E+00 0. -1.
         -2    1    3    3    0  502  0.45546691170E+02 -0.36375500444E+03  0.18861967084E+04  0.19214916672E+04  0.00000000000E+00 0.  1.
         13    1    5    5    0    0 -0.89793598320E+02 -0.12138907392E+02 -0.43303512072E+02  0.10042627908E+03  0.00000000000E+00 0.  1.
        -13    1    5    5    0    0 -0.16434302844E+03 -0.93586958960E+02 -0.23901896851E+03  0.30479044800E+03  0.00000000000E+00 0. -1.
          3    1    6    6  503    0  0.15710526909E+03  0.49226173808E+03  0.13411760177E+03  0.53384568507E+03  0.00000000000E+00 0. -1.
         -3    1    6    6    0  503  0.38802879130E+02  0.56742277608E+02  0.46957591368E+02  0.83248813109E+02  0.00000000000E+00 0.  1.
<mgrwt>
<rscale>  0 0.26521125E+04</rscale>
<asrwt>0</asrwt>
<pdfrwt beam="1">  1        1 0.89521894E-01 0.26521125E+04</pdfrwt>
<pdfrwt beam="2">  1       -2 0.46490896E+00 0.26521125E+04</pdfrwt>
<totfact> 0.76020807E-02</totfact>
</mgrwt>
</event>
<event>
12    5  0.5428626E-008  0.1554903E+04  0.7818608E-02  0.8848742E-01
          1   -1    0    0  501    0  0.00000000000E+00  0.00000000000E+00  0.10533163965E+04  0.10533163965E+04  0.00000000000E+00 0. -1.
         -2   -1    0    0    0  501 -0.00000000000E+00 -0.00000000000E+00 -0.57383611963E+03  0.57383611963E+03  0.00000000000E+00 0.  1.
        -24    2    1    2    0    0  0.11510890874E+03 -0.15358101290E+02 -0.36754106609E+03  0.39344617685E+03  0.78914679671E+02 0.  0.
        254    2    1    2    0    0 -0.11510890874E+03  0.15358101290E+02  0.84702134293E+03  0.12337063392E+04  0.88943816197E+03 0.  0.
         23    2    4    4    0    0 -0.60949508929E+02  0.43982414579E+03  0.35598262352E+03  0.57651422291E+03  0.92113512116E+02 0.  0.
         23    2    4    4    0    0 -0.54159399807E+02 -0.42446604450E+03  0.49103871941E+03  0.65719211633E+03  0.87623000920E+02 0.  0.
          1    1    3    3  502    0  0.25375218352E+02 -0.28239541342E+02 -0.47468888650E+02  0.60783787241E+02  0.00000000000E+00 0. -1.
         -2    1    3    3    0  502  0.89733690384E+02  0.12881440053E+02 -0.32007217744E+03  0.33266238961E+03  0.00000000000E+00 0.  1.
         13    1    5    5    0    0  0.18583705712E+02  0.13696518501E+03  0.13542716420E+03  0.19350796579E+03  0.00000000000E+00 0.  1.
        -13    1    5    5    0    0 -0.79533214641E+02  0.30285896078E+03  0.22055545932E+03  0.38300625712E+03  0.00000000000E+00 0. -1.
          1    1    6    6  503    0 -0.61911454021E+02 -0.39208992108E+03  0.41547077550E+03  0.57461595840E+03  0.00000000000E+00 0. -1.
         -1    1    6    6    0  503  0.77520542138E+01 -0.32376123413E+02  0.75567943910E+02  0.82576157931E+02  0.00000000000E+00 0.  1.
<mgrwt>
<rscale>  0 0.15549032E+04</rscale>
<asrwt>0</asrwt>
<pdfrwt beam="1">  1        1 0.16204868E+00 0.15549032E+04</pdfrwt>
<pdfrwt beam="2">  1       -2 0.88282480E-01 0.15549032E+04</pdfrwt>
<totfact> 0.12835434E+01</totfact>
</mgrwt>
</event>
<event>
12    5  0.5428626E-008  0.1616258E+04  0.7818608E-02  0.8810622E-01
          1   -1    0    0  501    0  0.00000000000E+00  0.00000000000E+00  0.33318792810E+04  0.33318792810E+04  0.00000000000E+00 0. -1.
         -2   -1    0    0    0  501 -0.00000000000E+00 -0.00000000000E+00 -0.19600727322E+03  0.19600727322E+03  0.00000000000E+00 0.  1.
        -24    2    1    2    0    0 -0.34629775017E+03  0.19990212130E+03  0.26551975898E+03  0.48653884437E+03  0.79600972336E+02 0.  0.
        254    2    1    2    0    0  0.34629775017E+03 -0.19990212130E+03  0.28703522488E+04  0.30413477099E+04  0.92249166402E+03 0.  0.
         23    2    4    4    0    0 -0.22034983244E+03 -0.24452112514E+03  0.53056905025E+03  0.63177858435E+03  0.96415938871E+02 0.  0.
         23    2    4    4    0    0  0.56664758261E+03  0.44619003834E+02  0.23397831986E+04  0.24095691255E+04  0.91419997797E+02 0.  0.
          1    1    3    3  502    0 -0.35781352914E+02  0.35587581174E+02  0.64102492888E+02  0.81583765202E+02  0.00000000000E+00 0. -1.
         -2    1    3    3    0  502 -0.31051639726E+03  0.16431454013E+03  0.20141726609E+03  0.40495507917E+03  0.00000000000E+00 0.  1.
         13    1    5    5    0    0 -0.99356886001E+02 -0.70579597675E+02  0.12730244181E+03  0.17623615434E+03  0.00000000000E+00 0. -1.
        -13    1    5    5    0    0 -0.12099294644E+03 -0.17394152746E+03  0.40326660844E+03  0.45554243002E+03  0.00000000000E+00 0.  1.
          3    1    6    6  503    0  0.26685216977E+03 -0.18354125810E+02  0.11884098221E+04  0.12181399179E+04  0.00000000000E+00 0. -1.
         -3    1    6    6    0  503  0.29979541284E+03  0.62973129644E+02  0.11513733765E+04  0.11914292076E+04  0.00000000000E+00 0.  1.
<mgrwt>
<rscale>  0 0.16162581E+04</rscale>
<asrwt>0</asrwt>
<pdfrwt beam="1">  1        1 0.51259677E+00 0.16162581E+04</pdfrwt>
<pdfrwt beam="2">  1       -2 0.30154968E-01 0.16162581E+04</pdfrwt>
<totfact> 0.29080573E+00</totfact>
</mgrwt>
</event>
<event>
12    5  0.5428626E-008  0.1825915E+04  0.7818608E-02  0.8692638E-01
          1   -1    0    0  501    0  0.00000000000E+00  0.00000000000E+00  0.22209097555E+04  0.22209097555E+04  0.00000000000E+00 0. -1.
         -2   -1    0    0    0  501 -0.00000000000E+00 -0.00000000000E+00 -0.37529281177E+03  0.37529281177E+03  0.00000000000E+00 0.  1.
        -24    2    1    2    0    0  0.50582848859E+03  0.46665789018E+03  0.79601230817E+03  0.10552798588E+04  0.79673955715E+02 0.  0.
        254    2    1    2    0    0 -0.50582848859E+03 -0.46665789018E+03  0.10496046356E+04  0.15409227085E+04  0.89394678604E+03 0.  0.
         23    2    4    4    0    0 -0.22746156687E+03 -0.50428191330E+03  0.11066700033E+04  0.12405202442E+04  0.90182967000E+02 0.  0.
         23    2    4    4    0    0 -0.27836692172E+03  0.37624023116E+02 -0.57065367665E+02  0.30040246439E+03  0.89897019956E+02 0.  0.
          3    1    3    3  502    0  0.42524041074E+03  0.42662315593E+03  0.70512942859E+03  0.92738569924E+03  0.00000000000E+00 0. -1.
         -4    1    3    3    0  502  0.80588077855E+02  0.40034734249E+02  0.90882879586E+02  0.12789415953E+03  0.00000000000E+00 0.  1.
         13    1    5    5    0    0 -0.58609516303E+02 -0.20681731321E+03  0.36123780829E+03  0.42035845487E+03  0.00000000000E+00 0.  1.
        -13    1    5    5    0    0 -0.16885205057E+03 -0.29746460009E+03  0.74543219498E+03  0.82016178928E+03  0.00000000000E+00 0. -1.
          2    1    6    6  503    0 -0.20548374742E+03  0.61189154466E+02 -0.20069655376E+02  0.21533804621E+03  0.00000000000E+00 0. -1.
         -2    1    6    6    0  503 -0.72883174308E+02 -0.23565131350E+02 -0.36995712289E+02  0.85064418181E+02  0.00000000000E+00 0.  1.
<mgrwt>
<rscale>  0 0.18259151E+04</rscale>
<asrwt>0</asrwt>
<pdfrwt beam="1">  1        1 0.34167842E+00 0.18259151E+04</pdfrwt>
<pdfrwt beam="2">  1       -2 0.57737357E-01 0.18259151E+04</pdfrwt>
<totfact> 0.48975483E+00</totfact>
</mgrwt>
</event>
<event>
12    5  0.5428626E-008  0.2035180E+04  0.7818608E-02  0.8590347E-01
          1   -1    0    0  501    0  0.00000000000E+00  0.00000000000E+00  0.26898902653E+04  0.26898902653E+04  0.00000000000E+00 0. -1.
         -2   -1    0    0    0  501 -0.00000000000E+00 -0.00000000000E+00 -0.38495601883E+03  0.38495601883E+03  0.00000000000E+00 0.  1.
        -24    2    1    2    0    0  0.29883457534E+03  0.72516805082E+03  0.58498862706E+03  0.98160624602E+03  0.78538672572E+02 0.  0.
        254    2    1    2    0    0 -0.29883457534E+03 -0.72516805082E+03  0.17199456194E+04  0.20932400381E+04  0.89903844078E+03 0.  0.
         23    2    4    4    0    0 -0.88164545017E+02 -0.58505606711E+03  0.34489430012E+03  0.69209472564E+03  0.99897158811E+02 0.  0.
         23    2    4    4    0    0 -0.21067003032E+03 -0.14011198372E+03  0.13750513193E+04  0.14011453124E+04  0.91808639609E+02 0.  0.
          3    1    3    3  502    0  0.17878859394E+03  0.41364747359E+03  0.38302310604E+03  0.59141888158E+03  0.00000000000E+00 0. -1.
         -4    1    3    3    0  502  0.12004598140E+03  0.31152057723E+03  0.20196552102E+03  0.39018736444E+03  0.00000000000E+00 0.  1.
         13    1    5    5    0    0 -0.68387004978E+02 -0.40990794740E+03  0.29257100817E+03  0.50823134753E+03  0.00000000000E+00 0. -1.
        -13    1    5    5    0    0 -0.19777540039E+02 -0.17514811971E+03  0.52323291950E+02  0.18386337810E+03  0.00000000000E+00 0.  1.
          2    1    6    6  503    0 -0.12633351258E+03 -0.13383867840E+03  0.98215221077E+03  0.99924767369E+03  0.00000000000E+00 0. -1.
         -2    1    6    6    0  503 -0.84336517740E+02 -0.62733053116E+01  0.39289910848E+03  0.40189763874E+03  0.00000000000E+00 0.  1.
<mgrwt>
<rscale>  0 0.20351800E+04</rscale>
<asrwt>0</asrwt>
<pdfrwt beam="1">  1        1 0.41382926E+00 0.20351800E+04</pdfrwt>
<pdfrwt beam="2">  1       -2 0.59224005E-01 0.20351800E+04</pdfrwt>
<totfact> 0.21597599E+00</totfact>
</mgrwt>
</event>
<event>
12    5  0.5428626E-008  0.3306282E+04  0.7818608E-02  0.8161299E-01
          1   -1    0    0  501    0  0.00000000000E+00  0.00000000000E+00  0.42491914612E+04  0.42491914612E+04  0.00000000000E+00 0. -1.
         -2   -1    0    0    0  501 -0.00000000000E+00 -0.00000000000E+00 -0.64315196079E+03  0.64315196079E+03  0.00000000000E+00 0.  1.
        -24    2    1    2    0    0  0.58782779811E+03 -0.71037573130E+03  0.35017131456E+04  0.36218933172E+04  0.77078187846E+02 0.  0.
        254    2    1    2    0    0 -0.58782779811E+03  0.71037573130E+03  0.10432635479E+03  0.12704501048E+04  0.86774666845E+03 0.  0.
         23    2    4    4    0    0 -0.37769023928E+03  0.68172409425E+03 -0.27125146132E+03  0.83004871121E+03  0.89475416633E+02 0.  0.
         23    2    4    4    0    0 -0.21013755882E+03  0.28651637056E+02  0.37557781611E+03  0.44040139359E+03  0.88971802167E+02 0.  0.
          1    1    3    3  502    0  0.47310899918E+03 -0.56641667005E+03  0.29155523410E+04  0.30075081750E+04  0.00000000000E+00 0. -1.
         -2    1    3    3    0  502  0.11471879893E+03 -0.14395906125E+03  0.58616080457E+03  0.61438514220E+03  0.00000000000E+00 0.  1.
         13    1    5    5    0    0 -0.66005204248E+01  0.19054824223E+02  0.67570578337E+01  0.21267605098E+02  0.00000000000E+00 0.  1.
        -13    1    5    5    0    0 -0.37108971886E+03  0.66266927002E+03 -0.27800851916E+03  0.80878110611E+03  0.00000000000E+00 0. -1.
          2    1    6    6  503    0 -0.16695131937E+03  0.53774694515E+02  0.25130716925E+03  0.30646329981E+03  0.00000000000E+00 0. -1.
         -2    1    6    6    0  503 -0.43186239454E+02 -0.25123057459E+02  0.12427064686E+03  0.13393809378E+03  0.00000000000E+00 0.  1.
<mgrwt>
<rscale>  0 0.33062824E+04</rscale>
<asrwt>0</asrwt>
<pdfrwt beam="1">  1        1 0.65372175E+00 0.33062824E+04</pdfrwt>
<pdfrwt beam="2">  1       -2 0.98946458E-01 0.33062824E+04</pdfrwt>
<totfact> 0.35098914E-02</totfact>
</mgrwt>
</event>
<event>
12    5  0.5428626E-008  0.1212817E+04  0.7818608E-02  0.9101711E-01
         -2   -1    0    0    0  501 -0.00000000000E+00  0.00000000000E+00  0.12796096837E+03  0.12796096837E+03  0.00000000000E+00 0.  1.
          1   -1    0    0  501    0  0.00000000000E+00 -0.00000000000E+00 -0.28737759658E+04  0.28737759658E+04  0.00000000000E+00 0. -1.
        -24    2    1    2    0    0  0.20533915297E+03 -0.90111277191E+02 -0.29190536008E+03  0.37667032640E+03  0.79922371864E+02 0.  0.
        254    2    1    2    0    0 -0.20533915297E+03  0.90111277191E+02 -0.24539096373E+04  0.26250666078E+04  0.90499611986E+03 0.  0.
         23    2    4    4    0    0 -0.53341805748E+03  0.82048478621E+02 -0.18781469943E+04  0.19562878750E+04  0.91429430398E+02 0.  0.
         23    2    4    4    0    0  0.32807890452E+03  0.80627985700E+01 -0.57576264300E+03  0.66877873274E+03  0.89786390842E+02 0.  0.
          3    1    3    3  502    0 -0.72689228557E+01 -0.36545990315E+01 -0.64065432442E+01  0.10355536196E+02  0.00000000000E+00 0. -1.
         -4    1    3    3    0  502  0.21260807583E+03 -0.86456678160E+02 -0.28549881684E+03  0.36631479020E+03  0.00000000000E+00 0.  1.
         13    1    5    5    0    0 -0.21426852504E+02 -0.20053312180E+01 -0.31595746023E+02  0.38228556450E+02  0.00000000000E+00 0. -1.
        -13    1    5    5    0    0 -0.51199120498E+03  0.84053809839E+02 -0.18465512483E+04  0.19180593186E+04  0.00000000000E+00 0.  1.
          3    1    6    6  503    0  0.37668492644E+02 -0.17026366267E+02 -0.33789018750E+02  0.53390170204E+02  0.00000000000E+00 0. -1.
         -3    1    6    6    0  503  0.29041041187E+03  0.25089164837E+02 -0.54197362425E+03  0.61538856254E+03  0.00000000000E+00 0.  1.
<mgrwt>
<rscale>  0 0.12128168E+04</rscale>
<asrwt>0</asrwt>
<pdfrwt beam="1">  1        1 0.44211940E+00 0.12128168E+04</pdfrwt>
<pdfrwt beam="2">  1       -2 0.19686302E-01 0.12128168E+04</pdfrwt>
<totfact> 0.14231996E+01</totfact>
</mgrwt>
</event>
<event>
12    5  0.5428626E-008  0.1811233E+04  0.7818608E-02  0.8700349E-01
         -2   -1    0    0    0  501 -0.00000000000E+00  0.00000000000E+00  0.14814622298E+04  0.14814622298E+04  0.00000000000E+00 0.  1.
          1   -1    0    0  501    0  0.00000000000E+00 -0.00000000000E+00 -0.55360254944E+03  0.55360254944E+03  0.00000000000E+00 0. -1.
        -24    2    1    2    0    0  0.28017282394E+03 -0.13255423673E+03  0.10348574883E+04  0.10833157078E+04  0.81089239228E+02 0.  0.
        254    2    1    2    0    0 -0.28017282394E+03  0.13255423673E+03 -0.10699780788E+03  0.95174907150E+03  0.89348213595E+03 0.  0.
         23    2    4    4    0    0 -0.74428611429E+02 -0.16398886694E+03  0.32435869355E+03  0.38207043589E+03  0.91308757649E+02 0.  0.
         23    2    4    4    0    0 -0.20574421251E+03  0.29654310367E+03 -0.43135650143E+03  0.56967863561E+03  0.90536308925E+02 0.  0.
          3    1    3    3  502    0 -0.18738727426E+01 -0.12859547669E+02  0.27947959012E+02  0.30821547304E+02  0.00000000000E+00 0. -1.
         -4    1    3    3    0  502  0.28204669669E+03 -0.11969468907E+03  0.10069095293E+04  0.10524941605E+04  0.00000000000E+00 0.  1.
         13    1    5    5    0    0 -0.10080397476E+02 -0.84101599424E+02  0.77747862576E+02  0.11497575211E+03  0.00000000000E+00 0.  1.
        -13    1    5    5    0    0 -0.64348213953E+02 -0.79887267513E+02  0.24661083097E+03  0.26709468378E+03  0.00000000000E+00 0. -1.
          4    1    6    6  503    0 -0.48303105922E+02  0.14786949655E+03 -0.17876129983E+03  0.23696873289E+03  0.00000000000E+00 0.  1.
         -4    1    6    6    0  503 -0.15744110659E+03  0.14867360712E+03 -0.25259520160E+03  0.33270990272E+03  0.00000000000E+00 0. -1.
<mgrwt>
<rscale>  0 0.18112330E+04</rscale>
<asrwt>0</asrwt>
<pdfrwt beam="1">  1        1 0.85169623E-01 0.18112330E+04</pdfrwt>
<pdfrwt beam="2">  1       -2 0.22791727E+00 0.18112330E+04</pdfrwt>
<totfact> 0.27926459E+00</totfact>
</mgrwt>
</event>
<event>
12    5  0.5428626E-008  0.1317107E+04  0.7818608E-02  0.9016108E-01
          1   -1    0    0  501    0  0.00000000000E+00  0.00000000000E+00  0.97273248208E+03  0.97273248208E+03  0.00000000000E+00 0. -1.
         -2   -1    0    0    0  501 -0.00000000000E+00 -0.00000000000E+00 -0.44584977453E+03  0.44584977453E+03  0.00000000000E+00 0.  1.
        -24    2    1    2    0    0  0.29449839892E+03 -0.13930711676E+03  0.26075476513E+03  0.42466405431E+03  0.78808195912E+02 0.  0.
        254    2    1    2    0    0 -0.29449839892E+03  0.13930711676E+03  0.26612794243E+03  0.99391820230E+03  0.90050737441E+03 0.  0.
         23    2    4    4    0    0 -0.46160863483E+03  0.12113726677E+03  0.49628601937E+03  0.69411369653E+03  0.87961591227E+02 0.  0.
         23    2    4    4    0    0  0.16711023591E+03  0.18169849987E+02 -0.23015807695E+03  0.29980450577E+03  0.93027022429E+02 0.  0.
          1    1    3    3  502    0  0.26272131687E+03 -0.10771299357E+03  0.19261698588E+03  0.34311205541E+03  0.00000000000E+00 0. -1.
         -2    1    3    3    0  502  0.31777082051E+02 -0.31594123189E+02  0.68137779245E+02  0.81551998898E+02  0.00000000000E+00 0.  1.
         13    1    5    5    0    0 -0.28493008124E+03  0.59632375536E+02  0.35831647688E+03  0.46166207231E+03  0.00000000000E+00 0.  1.
        -13    1    5    5    0    0 -0.17667855359E+03  0.61504891234E+02  0.13796954249E+03  0.23245162421E+03  0.00000000000E+00 0. -1.
          3    1    6    6  503    0  0.54650907809E+02 -0.35030054300E+02 -0.10419794634E+03  0.12276415784E+03  0.00000000000E+00 0. -1.
         -3    1    6    6    0  503  0.11245932810E+03  0.53199904287E+02 -0.12596013061E+03  0.17704034793E+03  0.00000000000E+00 0.  1.
<mgrwt>
<rscale>  0 0.13171068E+04</rscale>
<asrwt>0</asrwt>
<pdfrwt beam="1">  1        1 0.14965115E+00 0.13171068E+04</pdfrwt>
<pdfrwt beam="2">  1       -2 0.68592273E-01 0.13171068E+04</pdfrwt>
<totfact> 0.26575757E+01</totfact>
</mgrwt>
</event>
<event>
12    5  0.5428626E-008  0.2293969E+04  0.7818608E-02  0.8480303E-01
         -2   -1    0    0    0  501 -0.00000000000E+00  0.00000000000E+00  0.39937547661E+03  0.39937547661E+03  0.00000000000E+00 0.  1.
          1   -1    0    0  501    0  0.00000000000E+00 -0.00000000000E+00 -0.32940779323E+04  0.32940779323E+04  0.00000000000E+00 0. -1.
        -24    2    1    2    0    0  0.49190762673E+03 -0.78629930215E+03 -0.79776259114E+03  0.12262650211E+04  0.84030020755E+02 0.  0.
        254    2    1    2    0    0 -0.49190762673E+03  0.78629930215E+03 -0.20969398645E+04  0.24671883878E+04  0.91083590157E+03 0.  0.
         23    2    4    4    0    0 -0.16212382503E+02  0.47396832508E+03 -0.27289983401E+03  0.55426760931E+03  0.88484172597E+02 0.  0.
         23    2    4    4    0    0 -0.47569524423E+03  0.31233097707E+03 -0.18240400305E+04  0.19129207785E+04  0.91144210976E+02 0.  0.
          3    1    3    3  502    0  0.26317087491E+03 -0.42983429361E+03 -0.48794695330E+03  0.70150456777E+03  0.00000000000E+00 0. -1.
         -4    1    3    3    0  502  0.22873675181E+03 -0.35646500854E+03 -0.30981563784E+03  0.52476045334E+03  0.00000000000E+00 0.  1.
         13    1    5    5    0    0 -0.45642030229E+02  0.26079497285E+03 -0.12250571714E+03  0.29172737877E+03  0.00000000000E+00 0. -1.
        -13    1    5    5    0    0  0.29429647726E+02  0.21317335222E+03 -0.15039411687E+03  0.26254023054E+03  0.00000000000E+00 0.  1.
          1    1    6    6  503    0 -0.28732414625E+03  0.23203374185E+03 -0.12519842806E+04  0.13053196778E+04  0.00000000000E+00 0. -1.
         -1    1    6    6    0  503 -0.18837109798E+03  0.80297235224E+02 -0.57205574989E+03  0.60760110065E+03  0.00000000000E+00 0.  1.
<mgrwt>
<rscale>  0 0.22939694E+04</rscale>
<asrwt>0</asrwt>
<pdfrwt beam="1">  1        1 0.50678120E+00 0.22939694E+04</pdfrwt>
<pdfrwt beam="2">  1       -2 0.61442383E-01 0.22939694E+04</pdfrwt>
<totfact> 0.70736158E-01</totfact>
</mgrwt>
</event>
<event>
12    5  0.5428626E-008  0.2372720E+04  0.7818608E-02  0.8449788E-01
          1   -1    0    0  501    0  0.00000000000E+00  0.00000000000E+00  0.22676902185E+04  0.22676902185E+04  0.00000000000E+00 0. -1.
         -2   -1    0    0    0  501 -0.00000000000E+00 -0.00000000000E+00 -0.62065354365E+03  0.62065354365E+03  0.00000000000E+00 0.  1.
        -24    2    1    2    0    0  0.51659699276E+03  0.11822178669E+03 -0.34619728809E+03  0.63821111603E+03  0.81314344242E+02 0.  0.
        254    2    1    2    0    0 -0.51659699276E+03 -0.11822178669E+03  0.19932339629E+04  0.22501326461E+04  0.89959238007E+03 0.  0.
         23    2    4    4    0    0 -0.66020428938E+03 -0.12171260356E+03  0.81052038163E+03  0.10554958442E+04  0.80277807927E+02 0.  0.
         23    2    4    4    0    0  0.14360729662E+03  0.34908168752E+01  0.11827135813E+04  0.11946368019E+04  0.87809063799E+02 0.  0.
          3    1    3    3  502    0  0.13928750838E+03  0.67700502620E+02 -0.11405892898E+03  0.19233774286E+03  0.00000000000E+00 0. -1.
         -2    1    3    3    0  502  0.37730948437E+03  0.50521284069E+02 -0.23213835910E+03  0.44587337318E+03  0.00000000000E+00 0.  1.
         13    1    5    5    0    0 -0.22166659294E+03 -0.33520421130E+02  0.21436319804E+03  0.31017942829E+03  0.00000000000E+00 0. -1.
        -13    1    5    5    0    0 -0.43853769643E+03 -0.88192182434E+02  0.59615718360E+03  0.74531641589E+03  0.00000000000E+00 0.  1.
          1    1    6    6  503    0  0.94169338187E+02 -0.10013160918E+02  0.10113449917E+04  0.10157690780E+04  0.00000000000E+00 0. -1.
         -1    1    6    6    0  503  0.49437958435E+02  0.13503977793E+02  0.17136858955E+03  0.17886772385E+03  0.00000000000E+00 0.  1.
<mgrwt>
<rscale>  0 0.23727199E+04</rscale>
<asrwt>0</asrwt>
<pdfrwt beam="1">  1        1 0.34887541E+00 0.23727199E+04</pdfrwt>
<pdfrwt beam="2">  1       -2 0.95485162E-01 0.23727199E+04</pdfrwt>
<totfact> 0.14236157E+00</totfact>
</mgrwt>
</event>
<event>
12    5  0.5428626E-008  0.3193113E+04  0.7818608E-02  0.8190638E-01
         -2   -1    0    0    0  501 -0.00000000000E+00  0.00000000000E+00  0.12854604592E+04  0.12854604592E+04  0.00000000000E+00 0.  1.
          1   -1    0    0  501    0  0.00000000000E+00 -0.00000000000E+00 -0.19829412428E+04  0.19829412428E+04  0.00000000000E+00 0. -1.
        -24    2    1    2    0    0  0.76620524500E+03 -0.42540123314E+02  0.94670096147E+03  0.12212364268E+04  0.79344565625E+02 0.  0.
        254    2    1    2    0    0 -0.76620524500E+03  0.42540123314E+02 -0.16441817451E+04  0.20471652752E+04  0.94798307662E+03 0.  0.
         23    2    4    4    0    0  0.18517576642E+03  0.83467054766E+02 -0.13603571077E+03  0.26127784637E+03  0.92214883269E+02 0.  0.
         23    2    4    4    0    0 -0.95138101142E+03 -0.40926931452E+02 -0.15081460343E+04  0.17858874288E+04  0.89936672404E+02 0.  0.
          1    1    3    3  502    0  0.82355698536E+02  0.13276006849E+02  0.77507815610E+02  0.11386911311E+03  0.00000000000E+00 0. -1.
         -2    1    3    3    0  502  0.68384954646E+03 -0.55816130163E+02  0.86919314586E+03  0.11073673137E+04  0.00000000000E+00 0.  1.
         13    1    5    5    0    0  0.12738337548E+03  0.63233765304E+02 -0.40615599121E+02  0.14790084623E+03  0.00000000000E+00 0. -1.
        -13    1    5    5    0    0  0.57792390941E+02  0.20233289462E+02 -0.95420111651E+02  0.11337700014E+03  0.00000000000E+00 0.  1.
          1    1    6    6  503    0 -0.91035559682E+03 -0.36005005214E+02 -0.14712235324E+04  0.17304746040E+04  0.00000000000E+00 0. -1.
         -1    1    6    6    0  503 -0.41025414598E+02 -0.49219262374E+01 -0.36922501950E+02  0.55412824789E+02  0.00000000000E+00 0.  1.
<mgrwt>
<rscale>  0 0.31931129E+04</rscale>
<asrwt>0</asrwt>
<pdfrwt beam="1">  1        1 0.30506788E+00 0.31931129E+04</pdfrwt>
<pdfrwt beam="2">  1       -2 0.19776315E+00 0.31931129E+04</pdfrwt>
<totfact> 0.30994164E-01</totfact>
</mgrwt>
</event>
<event>
12    5  0.5428626E-008  0.1304691E+04  0.7818608E-02  0.9025853E-01
         -2   -1    0    0    0  501 -0.00000000000E+00  0.00000000000E+00  0.87720217744E+03  0.87720217744E+03  0.00000000000E+00 0.  1.
          1   -1    0    0  501    0  0.00000000000E+00 -0.00000000000E+00 -0.48512722449E+03  0.48512722449E+03  0.00000000000E+00 0. -1.
        -24    2    1    2    0    0  0.18008022286E+03 -0.36795247121E+02 -0.19442207162E+03  0.28036321710E+03  0.83790301896E+02 0.  0.
        254    2    1    2    0    0 -0.18008022286E+03  0.36795247121E+02  0.58649702457E+03  0.10819661848E+04  0.89044331004E+03 0.  0.
         23    2    4    4    0    0  0.26751770427E+03 -0.16041660538E+03  0.47122218358E+03  0.57136451143E+03  0.84308061528E+02 0.  0.
         23    2    4    4    0    0 -0.44759792713E+03  0.19721185250E+03  0.11527484099E+03  0.51060167340E+03  0.90495087025E+02 0.  0.
          3    1    3    3  502    0  0.12167734338E+03 -0.16176536089E+02 -0.17811879098E+03  0.21631772908E+03  0.00000000000E+00 0. -1.
         -4    1    3    3    0  502  0.58402879485E+02 -0.20618711031E+02 -0.16303280640E+02  0.64045488025E+02  0.00000000000E+00 0.  1.
         13    1    5    5    0    0  0.24480351137E+03 -0.16998693067E+03  0.44261895688E+03  0.53360646245E+03  0.00000000000E+00 0. -1.
        -13    1    5    5    0    0  0.22714192893E+02  0.95703252828E+01  0.28603226706E+02  0.37758048980E+02  0.00000000000E+00 0.  1.
          4    1    6    6  503    0 -0.25066707932E+03  0.15859262749E+03  0.74105332194E+02  0.30574042325E+03  0.00000000000E+00 0. -1.
         -4    1    6    6    0  503 -0.19693084781E+03  0.38619225016E+02  0.41169508798E+02  0.20486125015E+03  0.00000000000E+00 0.  1.
<mgrwt>
<rscale>  0 0.13046910E+04</rscale>
<asrwt>0</asrwt>
<pdfrwt beam="1">  1        1 0.74634958E-01 0.13046910E+04</pdfrwt>
<pdfrwt beam="2">  1       -2 0.13495418E+00 0.13046910E+04</pdfrwt>
<totfact> 0.15659072E+01</totfact>
</mgrwt>
</event>
<event>
12    5  0.5428626E-008  0.3617673E+04  0.7818608E-02  0.8086455E-01
         -2   -1    0    0    0  501 -0.00000000000E+00  0.00000000000E+00  0.99787623527E+03  0.99787623527E+03  0.00000000000E+00 0.  1.
          1   -1    0    0  501    0  0.00000000000E+00 -0.00000000000E+00 -0.32788532962E+04  0.32788532962E+04  0.00000000000E+00 0. -1.
        -24    2    1    2    0    0 -0.16560261957E+04 -0.29429121837E+03 -0.79769973970E+03  0.18632828165E+04  0.80423240980E+02 0.  0.
        254    2    1    2    0    0  0.16560261957E+04  0.29429121837E+03 -0.14832773212E+04  0.24134467150E+04  0.89195479279E+03 0.  0.
         23    2    4    4    0    0  0.14646913705E+04  0.47342724634E+03 -0.94618176246E+03  0.18092229614E+04  0.92593888158E+02 0.  0.
         23    2    4    4    0    0  0.19133482519E+03 -0.17913602797E+03 -0.53709555878E+03  0.60422375358E+03  0.88971755519E+02 0.  0.
          1    1    3    3  502    0 -0.10628826197E+04 -0.20663332275E+03 -0.55118129037E+03  0.12149969581E+04  0.00000000000E+00 0. -1.
         -2    1    3    3    0  502 -0.59314357597E+03 -0.87657895622E+02 -0.24651844933E+03  0.64828585843E+03  0.00000000000E+00 0.  1.
         13    1    5    5    0    0  0.11328198655E+04  0.37516177973E+03 -0.68830181254E+03  0.13776017544E+04  0.00000000000E+00 0. -1.
        -13    1    5    5    0    0  0.33187150498E+03  0.98265466609E+02 -0.25787994992E+03  0.43162120698E+03  0.00000000000E+00 0.  1.
          3    1    6    6  503    0  0.15991131314E+03 -0.11589584135E+03 -0.45450996005E+03  0.49556309175E+03  0.00000000000E+00 0. -1.
         -3    1    6    6    0  503  0.31423512054E+02 -0.63240186618E+02 -0.82585598727E+02  0.10866066183E+03  0.00000000000E+00 0.  1.
<mgrwt>
<rscale>  0 0.36176732E+04</rscale>
<asrwt>0</asrwt>
<pdfrwt beam="1">  1        1 0.50443896E+00 0.36176732E+04</pdfrwt>
<pdfrwt beam="2">  1       -2 0.15351942E+00 0.36176732E+04</pdfrwt>
<totfact> 0.74199223E-02</totfact>
</mgrwt>
</event>
<event>
12    5  0.5428626E-008  0.1788203E+04  0.7818608E-02  0.8712598E-01
          1   -1    0    0  501    0  0.00000000000E+00  0.00000000000E+00  0.55105585047E+03  0.55105585047E+03  0.00000000000E+00 0. -1.
         -2   -1    0    0    0  501 -0.00000000000E+00 -0.00000000000E+00 -0.14507021987E+04  0.14507021987E+04  0.00000000000E+00 0.  1.
        -24    2    1    2    0    0  0.53241735395E+02 -0.82353030417E+02  0.36912622442E+03  0.39037317459E+03  0.80748633902E+02 0.  0.
        254    2    1    2    0    0 -0.53241735395E+02  0.82353030417E+02 -0.12687725726E+04  0.16113848745E+04  0.98851437464E+03 0.  0.
         23    2    4    4    0    0 -0.17410737628E+03  0.44715711578E+03 -0.10540854833E+04  0.11617204891E+04  0.90749236297E+02 0.  0.
         23    2    4    4    0    0  0.12086564088E+03 -0.36480408536E+03 -0.21468708928E+03  0.44966438547E+03  0.91744151916E+02 0.  0.
          3    1    3    3  502    0  0.50378633969E+02 -0.71314957252E+02  0.36876827473E+03  0.37896420720E+03  0.00000000000E+00 0. -1.
         -4    1    3    3    0  502  0.28631014258E+01 -0.11038073165E+02  0.35794968903E+00  0.11408967392E+02  0.00000000000E+00 0.  1.
         13    1    5    5    0    0 -0.10853252124E+03  0.24560114141E+03 -0.48377079990E+03  0.55329324563E+03  0.00000000000E+00 0.  1.
        -13    1    5    5    0    0 -0.65574855043E+02  0.20155597437E+03 -0.57031468343E+03  0.60842724343E+03  0.00000000000E+00 0. -1.
          4    1    6    6  503    0  0.47664752399E+02 -0.27143403040E+03 -0.13617658269E+03  0.30739619899E+03  0.00000000000E+00 0. -1.
         -4    1    6    6    0  503  0.73200888485E+02 -0.93370054965E+02 -0.78510506589E+02  0.14226818648E+03  0.00000000000E+00 0.  1.
<mgrwt>
<rscale>  0 0.17882035E+04</rscale>
<asrwt>0</asrwt>
<pdfrwt beam="1">  1        1 0.84777824E-01 0.17882035E+04</pdfrwt>
<pdfrwt beam="2">  1       -2 0.22318495E+00 0.17882035E+04</pdfrwt>
<totfact> 0.30158284E+00</totfact>
</mgrwt>
</event>
<event>
12    5  0.5428626E-008  0.1607944E+04  0.7818608E-02  0.8815682E-01
          1   -1    0    0  501    0  0.00000000000E+00  0.00000000000E+00  0.13544860292E+04  0.13544860292E+04  0.00000000000E+00 0. -1.
         -2   -1    0    0    0  501 -0.00000000000E+00 -0.00000000000E+00 -0.47720771946E+03  0.47720771946E+03  0.00000000000E+00 0.  1.
        -24    2    1    2    0    0 -0.28038138843E+03  0.46925502200E+03  0.25215372448E+03  0.60729357736E+03  0.80062411186E+02 0.  0.
        254    2    1    2    0    0  0.28038138843E+03 -0.46925502200E+03  0.62512458524E+03  0.12244001713E+04  0.89975609679E+03 0.  0.
         23    2    4    4    0    0  0.16596171805E+03  0.84972354234E+02 -0.15260007399E+03  0.25817817021E+03  0.92766330893E+02 0.  0.
         23    2    4    4    0    0  0.11441967038E+03 -0.55422737624E+03  0.77772465923E+03  0.96622200108E+03  0.92029692243E+02 0.  0.
          1    1    3    3  502    0 -0.25512252223E+03  0.43137956908E+03  0.20421807986E+03  0.54118468023E+03  0.00000000000E+00 0. -1.
         -4    1    3    3    0  502 -0.25258866203E+02  0.37875452918E+02  0.47935644615E+02  0.66108897134E+02  0.00000000000E+00 0.  1.
         13    1    5    5    0    0  0.10620479790E+03  0.96047208286E+02 -0.81953380299E+02  0.16498752031E+03  0.00000000000E+00 0. -1.
        -13    1    5    5    0    0  0.59756920149E+02 -0.11074854053E+02 -0.70646693692E+02  0.93190649893E+02  0.00000000000E+00 0.  1.
          1    1    6    6  503    0  0.82237854752E+02 -0.32651793023E+03  0.38826918030E+03  0.51393577409E+03  0.00000000000E+00 0. -1.
         -1    1    6    6    0  503  0.32181815631E+02 -0.22770944601E+03  0.38945547893E+03  0.45228622699E+03  0.00000000000E+00 0.  1.
<mgrwt>
<rscale>  0 0.16079443E+04</rscale>
<asrwt>0</asrwt>
<pdfrwt beam="1">  1        1 0.20838246E+00 0.16079443E+04</pdfrwt>
<pdfrwt beam="2">  1       -2 0.73416573E-01 0.16079443E+04</pdfrwt>
<totfact> 0.11650435E+01</totfact>
</mgrwt>
</event>
<event>
12    5  0.5428626E-008  0.2482371E+04  0.7818608E-02  0.8409293E-01
          1   -1    0    0  501    0  0.00000000000E+00  0.00000000000E+00  0.18225003732E+04  0.18225003732E+04  0.00000000000E+00 0. -1.
         -4   -1    0    0    0  501 -0.00000000000E+00 -0.00000000000E+00 -0.84529015714E+03  0.84529015714E+03  0.00000000000E+00 0.  1.
        -24    2    1    2    0    0  0.14768382312E+03 -0.96160201012E+03 -0.69802248125E+02  0.97878489733E+03  0.81600146506E+02 0.  0.
        254    2    1    2    0    0 -0.14768382312E+03  0.96160201012E+03  0.10470124642E+04  0.16890056330E+04  0.90000888370E+03 0.  0.
         23    2    4    4    0    0 -0.38785608545E+03  0.98466657420E+03  0.90115022447E+03  0.13928533077E+04  0.89263678882E+02 0.  0.
         23    2    4    4    0    0  0.24017226233E+03 -0.23064564076E+02  0.14586223972E+03  0.29615232532E+03  0.90640593051E+02 0.  0.
          3    1    3    3  502    0 -0.29284021902E+01 -0.10616788680E+03  0.92101113098E+01  0.10660685661E+03  0.00000000000E+00 0. -1.
         -4    1    3    3    0  502  0.15061222531E+03 -0.85543412332E+03 -0.79012359435E+02  0.87217804071E+03  0.00000000000E+00 0.  1.
         13    1    5    5    0    0 -0.34267779004E+03  0.89841248619E+03  0.84723187689E+03  0.12815517611E+04  0.00000000000E+00 0.  1.
        -13    1    5    5    0    0 -0.45178295412E+02  0.86254088004E+02  0.53918347579E+02  0.11130154662E+03  0.00000000000E+00 0. -1.
          1    1    6    6  503    0 -0.30110250507E+01 -0.48148387859E+00  0.22183934077E+02  0.22392521737E+02  0.00000000000E+00 0. -1.
         -1    1    6    6    0  503  0.24318328738E+03 -0.22583080197E+02  0.12367830564E+03  0.27375980358E+03  0.00000000000E+00 0.  1.
<mgrwt>
<rscale>  0 0.24823711E+04</rscale>
<asrwt>0</asrwt>
<pdfrwt beam="1">  1        1 0.28038467E+00 0.24823711E+04</pdfrwt>
<pdfrwt beam="2">  1       -4 0.13004464E+00 0.24823711E+04</pdfrwt>
<totfact> 0.74084051E-01</totfact>
</mgrwt>
</event>
<event>
12    5  0.5428626E-008  0.1593149E+04  0.7818608E-02  0.8824768E-01
          3   -1    0    0  501    0  0.00000000000E+00  0.00000000000E+00  0.50499168463E+03  0.50499168463E+03  0.00000000000E+00 0. -1.
         -4   -1    0    0    0  501 -0.00000000000E+00 -0.00000000000E+00 -0.12565172005E+04  0.12565172005E+04  0.00000000000E+00 0.  1.
        -24    2    1    2    0    0 -0.40840574366E+03  0.25769417557E+03 -0.51373640169E+03  0.70979422007E+03  0.81738637381E+02 0.  0.
        254    2    1    2    0    0  0.40840574366E+03 -0.25769417557E+03 -0.23778911421E+03  0.10517146651E+04  0.90352561357E+03 0.  0.
         23    2    4    4    0    0  0.25496312193E+02  0.11657055301E+03  0.26984214506E+03  0.30889490741E+03  0.91446841440E+02 0.  0.
         23    2    4    4    0    0  0.38290943146E+03 -0.37426472858E+03 -0.50763125928E+03  0.74281975768E+03  0.86011494864E+02 0.  0.
          3    1    3    3  502    0  0.10659242274E-01  0.67544059444E+01  0.52219301261E+00  0.67745700103E+01  0.00000000000E+00 0. -1.
         -4    1    3    3    0  502 -0.40841640290E+03  0.25093976962E+03 -0.51425859471E+03  0.70301965006E+03  0.00000000000E+00 0.  1.
         13    1    5    5    0    0 -0.18921247769E+01  0.76042745681E+02  0.70753017550E+02  0.10388488244E+03  0.00000000000E+00 0. -1.
        -13    1    5    5    0    0  0.27388436970E+02  0.40527807331E+02  0.19908912751E+03  0.20501002497E+03  0.00000000000E+00 0.  1.
          4    1    6    6  503    0  0.25568332203E+03 -0.23412606846E+03 -0.38082953664E+03  0.51499525540E+03  0.00000000000E+00 0.  1.
         -4    1    6    6    0  503  0.12722610943E+03 -0.14013866012E+03 -0.12680172263E+03  0.22782450229E+03  0.00000000000E+00 0. -1.
<mgrwt>
<rscale>  0 0.15931488E+04</rscale>
<asrwt>0</asrwt>
<pdfrwt beam="1">  1        3 0.77691028E-01 0.15931488E+04</pdfrwt>
<pdfrwt beam="2">  1       -4 0.19331034E+00 0.15931488E+04</pdfrwt>
<totfact> 0.49689924E-01</totfact>
</mgrwt>
</event>
<event>
12    5  0.5428626E-008  0.1375028E+04  0.7818608E-02  0.8972095E-01
          1   -1    0    0  501    0  0.00000000000E+00  0.00000000000E+00  0.68217789927E+03  0.68217789927E+03  0.00000000000E+00 0. -1.
         -2   -1    0    0    0  501 -0.00000000000E+00 -0.00000000000E+00 -0.69289196180E+03  0.69289196180E+03  0.00000000000E+00 0.  1.
        -24    2    1    2    0    0  0.21045098167E+02 -0.75871956077E+02  0.36962939372E+03  0.38628559654E+03  0.79945128126E+02 0.  0.
        254    2    1    2    0    0 -0.21045098167E+02  0.75871956077E+02 -0.38034345625E+03  0.98878426453E+03  0.90930397954E+03 0.  0.
         23    2    4    4    0    0  0.60692030594E+02 -0.19303600409E+03 -0.58734862508E+03  0.62785509925E+03  0.90979100985E+02 0.  0.
         23    2    4    4    0    0 -0.81737128762E+02  0.26890796017E+03  0.20700516883E+03  0.36092916528E+03  0.91794733889E+02 0.  0.
          1    1    3    3  502    0  0.16263704894E+02 -0.87071356121E+02  0.36006809620E+03  0.37080313248E+03  0.00000000000E+00 0. -1.
         -2    1    3    3    0  502  0.47813932730E+01  0.11199400044E+02  0.95612975201E+01  0.15482464056E+02  0.00000000000E+00 0.  1.
         13    1    5    5    0    0  0.21839888879E+01 -0.46475427161E+02 -0.26382000310E+03  0.26789126371E+03  0.00000000000E+00 0.  1.
        -13    1    5    5    0    0  0.58508041706E+02 -0.14656057693E+03 -0.32352862199E+03  0.35996383554E+03  0.00000000000E+00 0. -1.
          3    1    6    6  503    0 -0.81524214549E+02  0.25439867195E+03  0.21627114803E+03  0.34371222166E+03  0.00000000000E+00 0. -1.
         -3    1    6    6    0  503 -0.21291421257E+00  0.14509288219E+02 -0.92659792038E+01  0.17216943622E+02  0.00000000000E+00 0.  1.
<mgrwt>
<rscale>  0 0.13750281E+04</rscale>
<asrwt>0</asrwt>
<pdfrwt beam="1">  1        1 0.10495045E+00 0.13750281E+04</pdfrwt>
<pdfrwt beam="2">  1       -2 0.10659876E+00 0.13750281E+04</pdfrwt>
<totfact> 0.17176846E+01</totfact>
</mgrwt>
</event>
<event>
12    5  0.5428626E-008  0.1469259E+04  0.7818608E-02  0.8905157E-01
          1   -1    0    0  501    0  0.00000000000E+00  0.00000000000E+00  0.26304979227E+04  0.26304979227E+04  0.00000000000E+00 0. -1.
         -2   -1    0    0    0  501 -0.00000000000E+00 -0.00000000000E+00 -0.20516283690E+03  0.20516283690E+03  0.00000000000E+00 0.  1.
        -24    2    1    2    0    0  0.28163170560E+01  0.13837890714E+03  0.15928163176E+04  0.16008477559E+04  0.80579541601E+02 0.  0.
        254    2    1    2    0    0 -0.28163170560E+01 -0.13837890714E+03  0.83251876824E+03  0.12348130037E+04  0.90139835867E+03 0.  0.
         23    2    4    4    0    0  0.27827570682E+03 -0.40997085174E+03  0.53597018982E+03  0.73543358852E+03  0.89916908624E+02 0.  0.
         23    2    4    4    0    0 -0.28109202388E+03  0.27159194460E+03  0.29654857841E+03  0.49937941517E+03  0.93079700641E+02 0.  0.
          1    1    3    3  502    0 -0.19998223885E+02  0.96795929829E+02  0.13386332282E+04  0.13422772815E+04  0.00000000000E+00 0. -1.
         -2    1    3    3    0  502  0.22814540941E+02  0.41582977312E+02  0.25418308942E+03  0.25857047439E+03  0.00000000000E+00 0.  1.
         13    1    5    5    0    0  0.43617143858E+02 -0.58049565811E+02  0.37617876829E+02  0.81775986612E+02  0.00000000000E+00 0.  1.
        -13    1    5    5    0    0  0.23465856296E+03 -0.35192128593E+03  0.49835231299E+03  0.65365760191E+03  0.00000000000E+00 0. -1.
          1    1    6    6  503    0 -0.18087414754E+03  0.12149090973E+03  0.12957831012E+03  0.25350746902E+03  0.00000000000E+00 0. -1.
         -1    1    6    6    0  503 -0.10021787634E+03  0.15010103487E+03  0.16697026829E+03  0.24587194615E+03  0.00000000000E+00 0.  1.
<mgrwt>
<rscale>  0 0.14692589E+04</rscale>
<asrwt>0</asrwt>
<pdfrwt beam="1">  1        1 0.40469196E+00 0.14692589E+04</pdfrwt>
<pdfrwt beam="2">  1       -2 0.31563515E-01 0.14692589E+04</pdfrwt>
<totfact> 0.87520102E+00</totfact>
</mgrwt>
</event>
<event>
12    5  0.5428626E-008  0.1324209E+04  0.7818608E-02  0.9010584E-01
          1   -1    0    0  501    0  0.00000000000E+00  0.00000000000E+00  0.13272986784E+04  0.13272986784E+04  0.00000000000E+00 0. -1.
         -2   -1    0    0    0  501 -0.00000000000E+00 -0.00000000000E+00 -0.33028182336E+03  0.33028182336E+03  0.00000000000E+00 0.  1.
        -24    2    1    2    0    0  0.29233732945E+03 -0.28192503639E+02  0.46902648901E+03  0.55930399630E+03  0.81112153406E+02 0.  0.
        254    2    1    2    0    0 -0.29233732945E+03  0.28192503639E+02  0.52799036602E+03  0.10982765054E+04  0.91715948687E+03 0.  0.
         23    2    4    4    0    0 -0.35267403744E+03  0.38460787783E+03  0.11633906178E+03  0.54225989111E+03  0.90602515632E+02 0.  0.
         23    2    4    4    0    0  0.60336707987E+02 -0.35641537419E+03  0.41165130424E+03  0.55601661433E+03  0.95001272825E+02 0.  0.
          3    1    3    3  502    0  0.21850009939E+03 -0.55828350860E+02  0.35868225778E+03  0.42368863596E+03  0.00000000000E+00 0. -1.
         -4    1    3    3    0  502  0.73837230061E+02  0.27635847221E+02  0.11034423123E+03  0.13561536034E+03  0.00000000000E+00 0.  1.
         13    1    5    5    0    0 -0.24358634395E+03  0.32172208047E+03  0.94729189904E+02  0.41450334551E+03  0.00000000000E+00 0.  1.
        -13    1    5    5    0    0 -0.10908769350E+03  0.62885797361E+02  0.21609871878E+02  0.12775654560E+03  0.00000000000E+00 0. -1.
          2    1    6    6  503    0  0.12300249585E+02 -0.23482275127E+03  0.31663236780E+03  0.39439710571E+03  0.00000000000E+00 0.  1.
         -2    1    6    6    0  503  0.48036458401E+02 -0.12159262292E+03  0.95018936439E+02  0.16161950862E+03  0.00000000000E+00 0. -1.
<mgrwt>
<rscale>  0 0.13242094E+04</rscale>
<asrwt>0</asrwt>
<pdfrwt beam="1">  1        1 0.20419979E+00 0.13242094E+04</pdfrwt>
<pdfrwt beam="2">  1       -2 0.50812589E-01 0.13242094E+04</pdfrwt>
<totfact> 0.27241889E+01</totfact>
</mgrwt>
</event>
<event>
12    5  0.5428626E-008  0.1324034E+04  0.7818608E-02  0.9010720E-01
         -2   -1    0    0    0  501 -0.00000000000E+00  0.00000000000E+00  0.21640385572E+04  0.21640385572E+04  0.00000000000E+00 0.  1.
          1   -1    0    0  501    0  0.00000000000E+00 -0.00000000000E+00 -0.20252253870E+03  0.20252253870E+03  0.00000000000E+00 0. -1.
        -24    2    1    2    0    0 -0.35175468556E+02 -0.28525380194E+03  0.15877612411E+03  0.33788032434E+03  0.79663108671E+02 0.  0.
        254    2    1    2    0    0  0.35175468556E+02  0.28525380194E+03  0.18027398944E+04  0.20286807715E+04  0.88491101302E+03 0.  0.
         23    2    4    4    0    0 -0.15803670456E+03 -0.73836239751E+02  0.20029862592E+02  0.19769236788E+03  0.90849802598E+02 0.  0.
         23    2    4    4    0    0  0.19321217312E+03  0.35909004169E+03  0.17827100318E+04  0.18309884036E+04  0.90481352055E+02 0.  0.
          1    1    3    3  502    0 -0.27876224039E+02 -0.11351246656E+03  0.23704036610E+02  0.11926460197E+03  0.00000000000E+00 0. -1.
         -2    1    3    3    0  502 -0.72992445172E+01 -0.17174133538E+03  0.13507208750E+03  0.21861572237E+03  0.00000000000E+00 0.  1.
         13    1    5    5    0    0  0.78655365750E+01 -0.19489106243E+02  0.87062082922E+01  0.22748406331E+02  0.00000000000E+00 0. -1.
        -13    1    5    5    0    0 -0.16590224114E+03 -0.54347133508E+02  0.11323654299E+02  0.17494396155E+03  0.00000000000E+00 0.  1.
          4    1    6    6  503    0 -0.10048297092E+02  0.18319099193E+02  0.91619988185E+02  0.93972229433E+02  0.00000000000E+00 0. -1.
         -4    1    6    6    0  503  0.20326047021E+03  0.34077094250E+03  0.16910900436E+04  0.17370161742E+04  0.00000000000E+00 0.  1.
<mgrwt>
<rscale>  0 0.13240341E+04</rscale>
<asrwt>0</asrwt>
<pdfrwt beam="1">  1        1 0.31157315E-01 0.13240341E+04</pdfrwt>
<pdfrwt beam="2">  1       -2 0.33292899E+00 0.13240341E+04</pdfrwt>
<totfact> 0.25142093E+00</totfact>
</mgrwt>
</event>
<event>
12    5  0.5428626E-008  0.1646570E+04  0.7818608E-02  0.8792438E-01
         -2   -1    0    0    0  501 -0.00000000000E+00  0.00000000000E+00  0.68813757088E+03  0.68813757088E+03  0.00000000000E+00 0.  1.
          1   -1    0    0  501    0  0.00000000000E+00 -0.00000000000E+00 -0.98497449622E+03  0.98497449622E+03  0.00000000000E+00 0. -1.
        -24    2    1    2    0    0  0.19910526147E+03 -0.17195390454E+03 -0.62850236545E+03  0.68634972834E+03  0.82762768065E+02 0.  0.
        254    2    1    2    0    0 -0.19910526147E+03  0.17195390454E+03  0.33166544011E+03  0.98676233876E+03  0.89133994559E+03 0.  0.
         23    2    4    4    0    0 -0.34380240715E+03 -0.61047925048E+02 -0.17707512999E+03  0.40177684091E+03  0.90233496638E+02 0.  0.
         23    2    4    4    0    0  0.14469714567E+03  0.23300182959E+03  0.50874057010E+03  0.58498549786E+03  0.90354570882E+02 0.  0.
          3    1    3    3  502    0  0.11799289617E+03 -0.15116944608E+03 -0.45172868467E+03  0.49074772494E+03  0.00000000000E+00 0. -1.
         -4    1    3    3    0  502  0.81112365297E+02 -0.20784458461E+02 -0.17677368078E+03  0.19560200340E+03  0.00000000000E+00 0.  1.
         13    1    5    5    0    0 -0.22065259637E+01 -0.12618186588E+02  0.21526251278E+01  0.12989271902E+02  0.00000000000E+00 0. -1.
        -13    1    5    5    0    0 -0.34159588118E+03 -0.48429738460E+02 -0.17922775512E+03  0.38878756901E+03  0.00000000000E+00 0.  1.
          3    1    6    6  503    0  0.12631767385E+02  0.70769341957E+02  0.19566208326E+03  0.20845026298E+03  0.00000000000E+00 0. -1.
         -3    1    6    6    0  503  0.13206537829E+03  0.16223248763E+03  0.31307848684E+03  0.37653523488E+03  0.00000000000E+00 0.  1.
<mgrwt>
<rscale>  0 0.16465697E+04</rscale>
<asrwt>0</asrwt>
<pdfrwt beam="1">  1        1 0.15153454E+00 0.16465697E+04</pdfrwt>
<pdfrwt beam="2">  1       -2 0.10586732E+00 0.16465697E+04</pdfrwt>
<totfact> 0.93887803E+00</totfact>
</mgrwt>
</event>
<event>
12    5  0.5428626E-008  0.1233910E+04  0.7818608E-02  0.9083682E-01
         -2   -1    0    0    0  501 -0.00000000000E+00  0.00000000000E+00  0.37443423637E+03  0.37443423637E+03  0.00000000000E+00 0.  1.
          1   -1    0    0  501    0  0.00000000000E+00 -0.00000000000E+00 -0.10165560900E+04  0.10165560900E+04  0.00000000000E+00 0. -1.
        -24    2    1    2    0    0 -0.13766553168E+03 -0.16141956796E+03  0.55393494545E+02  0.23334196863E+03  0.79824554824E+02 0.  0.
        254    2    1    2    0    0  0.13766553168E+03  0.16141956796E+03 -0.69751534818E+03  0.11576483577E+04  0.89922966127E+03 0.  0.
         23    2    4    4    0    0 -0.37511388133E+03  0.55546522390E+02 -0.32140609059E+03  0.50661507684E+03  0.97780984347E+02 0.  0.
         23    2    4    4    0    0  0.51277941300E+03  0.10587304557E+03 -0.37610925759E+03  0.65103328091E+03  0.90743214757E+02 0.  0.
          1    1    3    3  502    0 -0.59700663037E+02 -0.64005310554E+02 -0.16894780354E+02  0.89141923635E+02  0.00000000000E+00 0. -1.
         -2    1    3    3    0  502 -0.77964868641E+02 -0.97414257405E+02  0.72288274899E+02  0.14420004499E+03  0.00000000000E+00 0.  1.
         13    1    5    5    0    0 -0.12125302586E+02  0.20327371811E+01  0.70429651673E+01  0.14168921681E+02  0.00000000000E+00 0. -1.
        -13    1    5    5    0    0 -0.36298857874E+03  0.53513785209E+02 -0.32844905575E+03  0.49244615516E+03  0.00000000000E+00 0.  1.
          4    1    6    6  503    0  0.41580403837E+03  0.11921572379E+03 -0.29112830938E+03  0.52140299160E+03  0.00000000000E+00 0.  1.
         -4    1    6    6    0  503  0.96975374634E+02 -0.13342678225E+02 -0.84980948213E+02  0.12963028931E+03  0.00000000000E+00 0. -1.
<mgrwt>
<rscale>  0 0.12339099E+04</rscale>
<asrwt>0</asrwt>
<pdfrwt beam="1">  1        1 0.15639324E+00 0.12339099E+04</pdfrwt>
<pdfrwt beam="2">  1       -2 0.57605268E-01 0.12339099E+04</pdfrwt>
<totfact> 0.35880113E+01</totfact>
</mgrwt>
</event>
<event>
12    5  0.5428626E-008  0.1632179E+04  0.7818608E-02  0.8801020E-01
          1   -1    0    0  501    0  0.00000000000E+00  0.00000000000E+00  0.64332290430E+03  0.64332290430E+03  0.00000000000E+00 0. -1.
         -2   -1    0    0    0  501 -0.00000000000E+00 -0.00000000000E+00 -0.10352529014E+04  0.10352529014E+04  0.00000000000E+00 0.  1.
        -24    2    1    2    0    0  0.10575679671E+03 -0.75594287242E+02 -0.70266082770E+03  0.71911929597E+03  0.80630805139E+02 0.  0.
        254    2    1    2    0    0 -0.10575679671E+03  0.75594287242E+02  0.31073083066E+03  0.95945650968E+03  0.89838975313E+03 0.  0.
         23    2    4    4    0    0 -0.11632991576E+03  0.41824254184E+03 -0.55890318790E+02  0.44869361014E+03  0.98705394680E+02 0.  0.
         23    2    4    4    0    0  0.10573119047E+02 -0.34264825460E+03  0.36662114945E+03  0.51076289955E+03  0.94594160003E+02 0.  0.
          1    1    3    3  502    0 -0.96551471221E+01 -0.66579077530E+00 -0.15178010305E+02  0.18001031640E+02  0.00000000000E+00 0. -1.
         -2    1    3    3    0  502  0.11541194384E+03 -0.74928496467E+02 -0.68748281740E+03  0.70111826433E+03  0.00000000000E+00 0.  1.
         13    1    5    5    0    0 -0.71607899877E+02  0.35137150276E+03 -0.74196763799E+02  0.36618954660E+03  0.00000000000E+00 0. -1.
        -13    1    5    5    0    0 -0.44722015883E+02  0.66871039074E+02  0.18306445009E+02  0.82504063539E+02  0.00000000000E+00 0.  1.
          3    1    6    6  503    0  0.12993484799E+02 -0.30901526745E+03  0.36293060418E+03  0.47684157707E+03  0.00000000000E+00 0. -1.
         -3    1    6    6    0  503 -0.24203657523E+01 -0.33632987142E+02  0.36905452654E+01  0.33921322480E+02  0.00000000000E+00 0.  1.
<mgrwt>
<rscale>  0 0.16321788E+04</rscale>
<asrwt>0</asrwt>
<pdfrwt beam="1">  1        1 0.98972755E-01 0.16321788E+04</pdfrwt>
<pdfrwt beam="2">  1       -2 0.15926968E+00 0.16321788E+04</pdfrwt>
<totfact> 0.66032321E+00</totfact>
</mgrwt>
</event>
<event>
12    5  0.5428626E-008  0.2158044E+04  0.7818608E-02  0.8536097E-01
         -2   -1    0    0    0  501 -0.00000000000E+00  0.00000000000E+00  0.22470195425E+04  0.22470195425E+04  0.00000000000E+00 0.  1.
          1   -1    0    0  501    0  0.00000000000E+00 -0.00000000000E+00 -0.51814795395E+03  0.51814795395E+03  0.00000000000E+00 0. -1.
        -24    2    1    2    0    0 -0.56004847563E+03  0.69144904128E+03  0.74390367092E+03  0.11624708605E+04  0.78675016795E+02 0.  0.
        254    2    1    2    0    0  0.56004847563E+03 -0.69144904128E+03  0.98496791760E+03  0.16026966359E+04  0.89817517010E+03 0.  0.
         23    2    4    4    0    0  0.30046228772E+03  0.18630969273E+02 -0.49561781045E+02  0.31790875335E+03  0.89358300997E+02 0.  0.
         23    2    4    4    0    0  0.25958618791E+03 -0.71008001055E+03  0.10345296986E+04  0.12847878825E+04  0.93965926489E+02 0.  0.
          3    1    3    3  502    0 -0.18694089153E+03  0.21297957778E+03  0.28321119474E+03  0.40064420413E+03  0.00000000000E+00 0. -1.
         -4    1    3    3    0  502 -0.37310758410E+03  0.47846946351E+03  0.46069247618E+03  0.76182665642E+03  0.00000000000E+00 0.  1.
         13    1    5    5    0    0  0.13455146126E+03  0.45831553189E+02 -0.47172338417E+02  0.14976600584E+03  0.00000000000E+00 0.  1.
        -13    1    5    5    0    0  0.16591082646E+03 -0.27200583916E+02 -0.23894426283E+01  0.16814274751E+03  0.00000000000E+00 0. -1.
          1    1    6    6  503    0  0.39177235512E+02 -0.23181014490E+03  0.33103967295E+03  0.40602717166E+03  0.00000000000E+00 0. -1.
         -1    1    6    6    0  503  0.22040895239E+03 -0.47826986565E+03  0.70349002570E+03  0.87876071086E+03  0.00000000000E+00 0.  1.
<mgrwt>
<rscale>  0 0.21580441E+04</rscale>
<asrwt>0</asrwt>
<pdfrwt beam="1">  1        1 0.79715071E-01 0.21580441E+04</pdfrwt>
<pdfrwt beam="2">  1       -2 0.34569531E+00 0.21580441E+04</pdfrwt>
<totfact> 0.56059335E-01</totfact>
</mgrwt>
</event>
<event>
12    5  0.5428626E-008  0.1722081E+04  0.7818608E-02  0.8748870E-01
         -2   -1    0    0    0  501 -0.00000000000E+00  0.00000000000E+00  0.43349587958E+03  0.43349587958E+03  0.00000000000E+00 0.  1.
          1   -1    0    0  501    0  0.00000000000E+00 -0.00000000000E+00 -0.17102602032E+04  0.17102602032E+04  0.00000000000E+00 0. -1.
        -24    2    1    2    0    0  0.43226200731E+03  0.45492686245E+03 -0.52552475346E+03  0.82224069173E+03  0.78067890250E+02 0.  0.
        254    2    1    2    0    0 -0.43226200731E+03 -0.45492686245E+03 -0.75123957016E+03  0.13215153911E+04  0.88782495115E+03 0.  0.
         23    2    4    4    0    0 -0.58352749755E+03 -0.37457659239E+03 -0.18431834931E+03  0.72324219689E+03  0.91071716288E+02 0.  0.
         23    2    4    4    0    0  0.15126549023E+03 -0.80350270063E+02 -0.56692122085E+03  0.59827319417E+03  0.84815858052E+02 0.  0.
          3    1    3    3  502    0  0.42920534278E+03  0.45321926270E+03 -0.52831288006E+03  0.81776489628E+03  0.00000000000E+00 0. -1.
         -4    1    3    3    0  502  0.30566645319E+01  0.17075997531E+01  0.27881265971E+01  0.44757954487E+01  0.00000000000E+00 0.  1.
         13    1    5    5    0    0 -0.50824446958E+03 -0.34408056164E+03 -0.18807085125E+03  0.64193030684E+03  0.00000000000E+00 0.  1.
        -13    1    5    5    0    0 -0.75283027970E+02 -0.30496030750E+02  0.37525019410E+01  0.81311890045E+02  0.00000000000E+00 0. -1.
          3    1    6    6  503    0  0.73143315620E+02 -0.85059524537E+02 -0.35846935622E+03  0.37561329408E+03  0.00000000000E+00 0. -1.
         -3    1    6    6    0  503  0.78122174613E+02  0.47092544738E+01 -0.20845186463E+03  0.22265990010E+03  0.00000000000E+00 0.  1.
<mgrwt>
<rscale>  0 0.17220810E+04</rscale>
<asrwt>0</asrwt>
<pdfrwt beam="1">  1        1 0.26311696E+00 0.17220810E+04</pdfrwt>
<pdfrwt beam="2">  1       -2 0.66691674E-01 0.17220810E+04</pdfrwt>
<totfact> 0.80758036E+00</totfact>
</mgrwt>
</event>
<event>
12    5  0.5428626E-008  0.2797499E+04  0.7818608E-02  0.8304045E-01
         -2   -1    0    0    0  501 -0.00000000000E+00  0.00000000000E+00  0.96515908569E+03  0.96515908569E+03  0.00000000000E+00 0.  1.
          1   -1    0    0  501    0  0.00000000000E+00 -0.00000000000E+00 -0.20271274106E+04  0.20271274106E+04  0.00000000000E+00 0. -1.
        -24    2    1    2    0    0 -0.81835334343E+03 -0.93136472852E+03 -0.31305049652E+03  0.12812449377E+04  0.80284024928E+02 0.  0.
        254    2    1    2    0    0  0.81835334343E+03  0.93136472852E+03 -0.74891782841E+03  0.17110415587E+04  0.91084732502E+03 0.  0.
         23    2    4    4    0    0  0.35046800417E+03  0.99241914233E+03 -0.54709320677E+03  0.11896577806E+04  0.90835466657E+02 0.  0.
         23    2    4    4    0    0  0.46788533926E+03 -0.61054413808E+02 -0.20182462164E+03  0.52138377807E+03  0.91997467350E+02 0.  0.
          3    1    3    3  502    0 -0.43993926028E+03 -0.53327246339E+03 -0.13976462370E+03  0.70530860124E+03  0.00000000000E+00 0. -1.
         -4    1    3    3    0  502 -0.37841408314E+03 -0.39809226513E+03 -0.17328587282E+03  0.57593633641E+03  0.00000000000E+00 0.  1.
         13    1    5    5    0    0  0.27514647018E+03  0.82591441984E+03 -0.48572814452E+03  0.99688115607E+03  0.00000000000E+00 0. -1.
        -13    1    5    5    0    0  0.75321533986E+02  0.16650472248E+03 -0.61365062250E+02  0.19277662451E+03  0.00000000000E+00 0.  1.
          1    1    6    6  503    0  0.32721806762E+03 -0.45286530418E+01 -0.11615415537E+03  0.34725201264E+03  0.00000000000E+00 0. -1.
         -1    1    6    6    0  503  0.14066727164E+03 -0.56525760766E+02 -0.85670466272E+02  0.17413176543E+03  0.00000000000E+00 0.  1.
<mgrwt>
<rscale>  0 0.27974992E+04</rscale>
<asrwt>0</asrwt>
<pdfrwt beam="1">  1        1 0.31186575E+00 0.27974992E+04</pdfrwt>
<pdfrwt beam="2">  1       -2 0.14848602E+00 0.27974992E+04</pdfrwt>
<totfact> 0.66914028E-01</totfact>
</mgrwt>
</event>
<event>
12    5  0.5428626E-008  0.1455314E+04  0.7818608E-02  0.8914724E-01
          1   -1    0    0  501    0  0.00000000000E+00  0.00000000000E+00  0.28243665275E+04  0.28243665275E+04  0.00000000000E+00 0. -1.
         -2   -1    0    0    0  501 -0.00000000000E+00 -0.00000000000E+00 -0.18747038169E+03  0.18747038169E+03  0.00000000000E+00 0.  1.
        -24    2    1    2    0    0  0.74244802719E+02  0.36398193979E+03  0.30619105868E+03  0.48793984450E+03  0.79606433228E+02 0.  0.
        254    2    1    2    0    0 -0.74244802719E+02 -0.36398193979E+03  0.23307050871E+04  0.25238970646E+04  0.89435733727E+03 0.  0.
         23    2    4    4    0    0 -0.35231245394E+03 -0.23558228007E+03  0.20596314786E+04  0.21046466459E+04  0.88501980724E+02 0.  0.
         23    2    4    4    0    0  0.27806765122E+03 -0.12839965972E+03  0.27107360851E+03  0.41925041876E+03  0.92097345945E+02 0.  0.
          1    1    3    3  502    0  0.20342196645E+02  0.17618506670E+02  0.38070403609E+02  0.46621586980E+02  0.00000000000E+00 0. -1.
         -2    1    3    3    0  502  0.53902606074E+02  0.34636343313E+03  0.26812065507E+03  0.44131825752E+03  0.00000000000E+00 0.  1.
         13    1    5    5    0    0 -0.25009318523E+02 -0.98191056988E+01  0.27229907299E+03  0.27362139171E+03  0.00000000000E+00 0. -1.
        -13    1    5    5    0    0 -0.32730313542E+03 -0.22576317437E+03  0.17873324056E+04  0.18310252542E+04  0.00000000000E+00 0.  1.
          4    1    6    6  503    0  0.12395538310E+03 -0.10463252549E+03  0.15964595014E+03  0.22759554430E+03  0.00000000000E+00 0. -1.
         -4    1    6    6    0  503  0.15411226812E+03 -0.23767134232E+02  0.11142765837E+03  0.19165487446E+03  0.00000000000E+00 0.  1.
<mgrwt>
<rscale>  0 0.14553145E+04</rscale>
<asrwt>0</asrwt>
<pdfrwt beam="1">  1        1 0.43451790E+00 0.14553145E+04</pdfrwt>
<pdfrwt beam="2">  1       -2 0.28841599E-01 0.14553145E+04</pdfrwt>
<totfact> 0.75721265E+00</totfact>
</mgrwt>
</event>
<event>
12    5  0.5428626E-008  0.1217264E+04  0.7818608E-02  0.9097878E-01
         -2   -1    0    0    0  501 -0.00000000000E+00  0.00000000000E+00  0.45637323554E+03  0.45637323554E+03  0.00000000000E+00 0.  1.
          1   -1    0    0  501    0  0.00000000000E+00 -0.00000000000E+00 -0.81168821993E+03  0.81168821993E+03  0.00000000000E+00 0. -1.
        -24    2    1    2    0    0  0.22471574688E+03 -0.98616945191E+02 -0.11049564668E+03  0.28119979869E+03  0.81495828567E+02 0.  0.
        254    2    1    2    0    0 -0.22471574688E+03  0.98616945191E+02 -0.24481933772E+03  0.98686165678E+03  0.92397887029E+03 0.  0.
         23    2    4    4    0    0 -0.44354582208E+03 -0.13238171921E+03  0.12768564241E+03  0.48864588408E+03  0.90627594506E+02 0.  0.
         23    2    4    4    0    0  0.21883007520E+03  0.23099866440E+03 -0.37250498013E+03  0.49821577270E+03  0.90620147759E+02 0.  0.
          3    1    3    3  502    0  0.21470165560E+02 -0.40581563582E+01 -0.41085234961E+02  0.46534215090E+02  0.00000000000E+00 0. -1.
         -4    1    3    3    0  502  0.20324558132E+03 -0.94558788833E+02 -0.69410411714E+02  0.23466558360E+03  0.00000000000E+00 0.  1.
         13    1    5    5    0    0 -0.42118589831E+03 -0.14539318742E+03  0.12405848560E+03  0.46252269970E+03  0.00000000000E+00 0. -1.
        -13    1    5    5    0    0 -0.22359923768E+02  0.13011468209E+02  0.36271568100E+01  0.26123184385E+02  0.00000000000E+00 0.  1.
          4    1    6    6  503    0  0.11419945108E+03  0.62997446309E+02 -0.17848733352E+03  0.22106089906E+03  0.00000000000E+00 0. -1.
         -4    1    6    6    0  503  0.10463062413E+03  0.16800121810E+03 -0.19401764661E+03  0.27715487364E+03  0.00000000000E+00 0.  1.
<mgrwt>
<rscale>  0 0.12172638E+04</rscale>
<asrwt>0</asrwt>
<pdfrwt beam="1">  1        1 0.12487511E+00 0.12172638E+04</pdfrwt>
<pdfrwt beam="2">  1       -2 0.70211268E-01 0.12172638E+04</pdfrwt>
<totfact> 0.34551340E+01</totfact>
</mgrwt>
</event>
<event>
12    5  0.5428626E-008  0.1684996E+04  0.7818608E-02  0.8769968E-01
          1   -1    0    0  501    0  0.00000000000E+00  0.00000000000E+00  0.95768798099E+03  0.95768798099E+03  0.00000000000E+00 0. -1.
         -2   -1    0    0    0  501 -0.00000000000E+00 -0.00000000000E+00 -0.74116339719E+03  0.74116339719E+03  0.00000000000E+00 0.  1.
        -24    2    1    2    0    0 -0.48518110736E+03  0.31547129362E+03  0.22466851892E+03  0.62614756480E+03  0.81620986728E+02 0.  0.
        254    2    1    2    0    0  0.48518110736E+03 -0.31547129362E+03 -0.81439351094E+01  0.10727038134E+04  0.90316349768E+03 0.  0.
         23    2    4    4    0    0  0.23747135569E+03  0.13388574994E+03  0.34058101408E+03  0.44562481285E+03  0.90928586603E+02 0.  0.
         23    2    4    4    0    0  0.24770975167E+03 -0.44935704355E+03 -0.34872494919E+03  0.62707900054E+03  0.91307771127E+02 0.  0.
          3    1    3    3  502    0 -0.44655135510E+03  0.26574741825E+03  0.21533502363E+03  0.56249353370E+03  0.00000000000E+00 0. -1.
         -4    1    3    3    0  502 -0.38629752261E+02  0.49723875366E+02  0.93334952836E+01  0.63654031101E+02  0.00000000000E+00 0.  1.
         13    1    5    5    0    0  0.15490829910E+03  0.12610061381E+03  0.20169622363E+03  0.28386495480E+03  0.00000000000E+00 0. -1.
        -13    1    5    5    0    0  0.82563056590E+02  0.77851361227E+01  0.13888479045E+03  0.16175985805E+03  0.00000000000E+00 0.  1.
          1    1    6    6  503    0  0.19951100420E+03 -0.29564354005E+03 -0.20615826584E+03  0.41195991813E+03  0.00000000000E+00 0. -1.
         -1    1    6    6    0  503  0.48198747471E+02 -0.15371350351E+03 -0.14256668335E+03  0.21511908241E+03  0.00000000000E+00 0.  1.
<mgrwt>
<rscale>  0 0.16849965E+04</rscale>
<asrwt>0</asrwt>
<pdfrwt beam="1">  1        1 0.14733661E+00 0.16849965E+04</pdfrwt>
<pdfrwt beam="2">  1       -2 0.11402514E+00 0.16849965E+04</pdfrwt>
<totfact> 0.82162320E+00</totfact>
</mgrwt>
</event>
<event>
12    5  0.5428626E-008  0.1505786E+04  0.7818608E-02  0.8880614E-01
          1   -1    0    0  501    0  0.00000000000E+00  0.00000000000E+00  0.14741960793E+04  0.14741960793E+04  0.00000000000E+00 0. -1.
         -2   -1    0    0    0  501 -0.00000000000E+00 -0.00000000000E+00 -0.38451336672E+03  0.38451336672E+03  0.00000000000E+00 0.  1.
        -24    2    1    2    0    0  0.29221420396E+03 -0.16549712014E+03  0.78425184401E+03  0.85687127176E+03  0.79993648318E+02 0.  0.
        254    2    1    2    0    0 -0.29221420396E+03  0.16549712014E+03  0.30543086858E+03  0.10018381743E+04  0.89309197407E+03 0.  0.
         23    2    4    4    0    0 -0.45306271269E+03  0.42994872451E+03  0.21370187162E+03  0.66640429154E+03  0.91128823714E+02 0.  0.
         23    2    4    4    0    0  0.16084850873E+03 -0.26445160437E+03  0.91728996959E+02  0.33543388272E+03  0.91075721103E+02 0.  0.
          3    1    3    3  502    0  0.20566441434E+03 -0.14469566241E+03  0.63655303183E+03  0.68442271176E+03  0.00000000000E+00 0. -1.
         -4    1    3    3    0  502  0.86549789618E+02 -0.20801457728E+02  0.14769881218E+03  0.17244856000E+03  0.00000000000E+00 0.  1.
         13    1    5    5    0    0 -0.27507330762E+03  0.29474242447E+03  0.98842065973E+02  0.41510019917E+03  0.00000000000E+00 0. -1.
        -13    1    5    5    0    0 -0.17798940507E+03  0.13520630005E+03  0.11485980565E+03  0.25130409237E+03  0.00000000000E+00 0.  1.
          4    1    6    6  503    0  0.10681185167E+00 -0.30624607333E+02  0.34209042581E+02  0.45914448460E+02  0.00000000000E+00 0. -1.
         -4    1    6    6    0  503  0.16074169688E+03 -0.23382699704E+03  0.57519954379E+02  0.28951943426E+03  0.00000000000E+00 0.  1.
<mgrwt>
<rscale>  0 0.15057863E+04</rscale>
<asrwt>0</asrwt>
<pdfrwt beam="1">  1        1 0.22679939E+00 0.15057863E+04</pdfrwt>
<pdfrwt beam="2">  1       -2 0.59155903E-01 0.15057863E+04</pdfrwt>
<totfact> 0.15434992E+01</totfact>
</mgrwt>
</event>
<event>
12    5  0.5428626E-008  0.3358423E+04  0.7818608E-02  0.8148187E-01
         -2   -1    0    0    0  501 -0.00000000000E+00  0.00000000000E+00  0.10137716103E+04  0.10137716103E+04  0.00000000000E+00 0.  1.
          1   -1    0    0  501    0  0.00000000000E+00 -0.00000000000E+00 -0.27814470066E+04  0.27814470066E+04  0.00000000000E+00 0. -1.
        -24    2    1    2    0    0 -0.68187689283E+03  0.49815582909E+03  0.65905076846E+03  0.10741623020E+04  0.79758438716E+02 0.  0.
        254    2    1    2    0    0  0.68187689283E+03 -0.49815582909E+03 -0.24267261648E+04  0.27210563150E+04  0.89556254026E+03 0.  0.
         23    2    4    4    0    0  0.75473413338E+03 -0.33334083690E+03 -0.23726648017E+04  0.25137115674E+04  0.92020959996E+02 0.  0.
         23    2    4    4    0    0 -0.72857240555E+02 -0.16481499219E+03 -0.54061363057E+02  0.20734474760E+03  0.87161082088E+02 0.  0.
          3    1    3    3  502    0 -0.59060878308E+02  0.71800562945E+02  0.83852501195E+02  0.12519884242E+03  0.00000000000E+00 0. -1.
         -4    1    3    3    0  502 -0.62281601452E+03  0.42635526614E+03  0.57519826727E+03  0.94896345956E+03  0.00000000000E+00 0.  1.
         13    1    5    5    0    0  0.64887647649E+03 -0.30808460511E+03 -0.21272081188E+04  0.22452107221E+04  0.00000000000E+00 0.  1.
        -13    1    5    5    0    0  0.10585765689E+03 -0.25256231788E+02 -0.24545668288E+03  0.26850084532E+03  0.00000000000E+00 0. -1.
          1    1    6    6  503    0 -0.10634410523E+02 -0.35081809444E+02 -0.51780775082E+02  0.63443460728E+02  0.00000000000E+00 0. -1.
         -1    1    6    6    0  503 -0.62222830031E+02 -0.12973318275E+03 -0.22805879749E+01  0.14390128687E+03  0.00000000000E+00 0.  1.
<mgrwt>
<rscale>  0 0.33584234E+04</rscale>
<asrwt>0</asrwt>
<pdfrwt beam="1">  1        1 0.42791492E+00 0.33584234E+04</pdfrwt>
<pdfrwt beam="2">  1       -2 0.15596486E+00 0.33584234E+04</pdfrwt>
<totfact> 0.16847535E-01</totfact>
</mgrwt>
</event>
<event>
12    5  0.5428626E-008  0.1295796E+04  0.7818608E-02  0.9032906E-01
          1   -1    0    0  501    0  0.00000000000E+00  0.00000000000E+00  0.84935148515E+03  0.84935148515E+03  0.00000000000E+00 0. -1.
         -2   -1    0    0    0  501 -0.00000000000E+00 -0.00000000000E+00 -0.49422631853E+03  0.49422631853E+03  0.00000000000E+00 0.  1.
        -24    2    1    2    0    0  0.55674179798E+02  0.24233148889E+03  0.32978490098E+03  0.42190700497E+03  0.86158430378E+02 0.  0.
        254    2    1    2    0    0 -0.55674179798E+02 -0.24233148889E+03  0.25340265644E+02  0.92167079871E+03  0.88713627325E+03 0.  0.
         23    2    4    4    0    0 -0.41751560834E+03 -0.11988254973E+03 -0.17892426835E+03  0.47850071814E+03  0.90873178248E+02 0.  0.
         23    2    4    4    0    0  0.36184142854E+03 -0.12244893916E+03  0.20426453399E+03  0.44317008057E+03  0.93556177536E+02 0.  0.
          3    1    3    3  502    0  0.46153405828E+02  0.17432625957E+03  0.16930960420E+03  0.24735707736E+03  0.00000000000E+00 0. -1.
         -4    1    3    3    0  502  0.95207739704E+01  0.68005229313E+02  0.16047529678E+03  0.17454992761E+03  0.00000000000E+00 0.  1.
         13    1    5    5    0    0 -0.28804596804E+02 -0.36043779474E+02 -0.18440250338E+02  0.49688043515E+02  0.00000000000E+00 0. -1.
        -13    1    5    5    0    0 -0.38871101153E+03 -0.83838770252E+02 -0.16048401801E+03  0.42881267462E+03  0.00000000000E+00 0.  1.
          2    1    6    6  503    0  0.15597043297E+02 -0.31377751810E+02  0.14013306337E+02  0.37738625077E+02  0.00000000000E+00 0. -1.
         -2    1    6    6    0  503  0.34624438524E+03 -0.91071187352E+02  0.19025122765E+03  0.40543145549E+03  0.00000000000E+00 0.  1.
<mgrwt>
<rscale>  0 0.12957961E+04</rscale>
<asrwt>0</asrwt>
<pdfrwt beam="1">  1        1 0.13066946E+00 0.12957961E+04</pdfrwt>
<pdfrwt beam="2">  1       -2 0.76034818E-01 0.12957961E+04</pdfrwt>
<totfact> 0.26754373E+01</totfact>
</mgrwt>
</event>
<event>
12    5  0.5428626E-008  0.1380259E+04  0.7818608E-02  0.8968234E-01
         -2   -1    0    0    0  501 -0.00000000000E+00  0.00000000000E+00  0.20168698363E+03  0.20168698363E+03  0.00000000000E+00 0.  1.
          1   -1    0    0  501    0  0.00000000000E+00 -0.00000000000E+00 -0.23614731942E+04  0.23614731942E+04  0.00000000000E+00 0. -1.
        -24    2    1    2    0    0 -0.65626843829E+02  0.23532563272E+02  0.89764206570E+02  0.13725423045E+03  0.76944439900E+02 0.  0.
        254    2    1    2    0    0  0.65626843829E+02 -0.23532563272E+02 -0.22495504171E+04  0.24259059473E+04  0.90536286763E+03 0.  0.
         23    2    4    4    0    0  0.39084436537E+03 -0.67913066915E+02 -0.50539464494E+03  0.64890654844E+03  0.91019002888E+02 0.  0.
         23    2    4    4    0    0 -0.32521752154E+03  0.44380503642E+02 -0.17441557722E+04  0.17769993989E+04  0.88946279693E+02 0.  0.
          1    1    3    3  502    0 -0.29000773142E+02 -0.20081777270E+02  0.57281039521E+01  0.35737008773E+02  0.00000000000E+00 0. -1.
         -2    1    3    3    0  502 -0.36626070688E+02  0.43614340542E+02  0.84036102618E+02  0.10151722168E+03  0.00000000000E+00 0.  1.
         13    1    5    5    0    0  0.19190567921E+03 -0.76075716601E+02 -0.22970610476E+03  0.30883684841E+03  0.00000000000E+00 0.  1.
        -13    1    5    5    0    0  0.19893868616E+03  0.81626496861E+01 -0.27568854017E+03  0.34006970004E+03  0.00000000000E+00 0. -1.
          2    1    6    6  503    0 -0.11606058504E+03 -0.23116854693E+02 -0.52272848373E+03  0.53595663638E+03  0.00000000000E+00 0. -1.
         -2    1    6    6    0  503 -0.20915693650E+03  0.67497358336E+02 -0.12214272884E+04  0.12410427625E+04  0.00000000000E+00 0.  1.
<mgrwt>
<rscale>  0 0.13802585E+04</rscale>
<asrwt>0</asrwt>
<pdfrwt beam="1">  1        1 0.36330356E+00 0.13802585E+04</pdfrwt>
<pdfrwt beam="2">  1       -2 0.31028767E-01 0.13802585E+04</pdfrwt>
<totfact> 0.13978305E+01</totfact>
</mgrwt>
</event>
<event>
12    5  0.5428626E-008  0.1439373E+04  0.7818608E-02  0.8925801E-01
          1   -1    0    0  501    0  0.00000000000E+00  0.00000000000E+00  0.22498826381E+04  0.22498826381E+04  0.00000000000E+00 0. -1.
         -2   -1    0    0    0  501 -0.00000000000E+00 -0.00000000000E+00 -0.23021139825E+03  0.23021139825E+03  0.00000000000E+00 0.  1.
        -24    2    1    2    0    0  0.19057444503E+03 -0.37286192116E+03  0.43106642588E+03  0.60559796308E+03  0.74739534533E+02 0.  0.
        254    2    1    2    0    0 -0.19057444503E+03  0.37286192116E+03  0.15886048140E+04  0.18744960732E+04  0.90262153884E+03 0.  0.
         23    2    4    4    0    0  0.32879740099E+03  0.31519496714E+03  0.75728399335E+03  0.88831435884E+03  0.90375634563E+02 0.  0.
         23    2    4    4    0    0 -0.51937184602E+03  0.57666954026E+02  0.83132082060E+03  0.98618171441E+03  0.91583159264E+02 0.  0.
          3    1    3    3  502    0  0.87333415506E+02 -0.16586198667E+03  0.24647082847E+03  0.30965334387E+03  0.00000000000E+00 0. -1.
         -4    1    3    3    0  502  0.10324102952E+03 -0.20699993450E+03  0.18459559741E+03  0.29594461921E+03  0.00000000000E+00 0.  1.
         13    1    5    5    0    0  0.30458753965E+03  0.29185318810E+03  0.64171522986E+03  0.76795200953E+03  0.00000000000E+00 0. -1.
        -13    1    5    5    0    0  0.24209861341E+02  0.23341779039E+02  0.11556876349E+03  0.12036234930E+03  0.00000000000E+00 0.  1.
          1    1    6    6  503    0 -0.41815080624E+03  0.29884548932E+02  0.72019177992E+03  0.83331829626E+03  0.00000000000E+00 0. -1.
         -1    1    6    6    0  503 -0.10122103978E+03  0.27782405094E+02  0.11112904068E+03  0.15286341815E+03  0.00000000000E+00 0.  1.
<mgrwt>
<rscale>  0 0.14393730E+04</rscale>
<asrwt>0</asrwt>
<pdfrwt beam="1">  1        1 0.34613578E+00 0.14393730E+04</pdfrwt>
<pdfrwt beam="2">  1       -2 0.35417140E-01 0.14393730E+04</pdfrwt>
<totfact> 0.12895758E+01</totfact>
</mgrwt>
</event>
<event>
12    5  0.5428626E-008  0.3015035E+04  0.7818608E-02  0.8239451E-01
          1   -1    0    0  501    0  0.00000000000E+00  0.00000000000E+00  0.18205399909E+04  0.18205399909E+04  0.00000000000E+00 0. -1.
         -2   -1    0    0    0  501 -0.00000000000E+00 -0.00000000000E+00 -0.12483155114E+04  0.12483155114E+04  0.00000000000E+00 0.  1.
        -24    2    1    2    0    0 -0.10417759195E+04  0.94681433283E+02  0.11611984955E+04  0.15655777217E+04  0.91597034053E+02 0.  0.
        254    2    1    2    0    0  0.10417759195E+04 -0.94681433283E+02 -0.58897401601E+03  0.15032777806E+04  0.90481603313E+03 0.  0.
         23    2    4    4    0    0  0.11068741047E+04 -0.59430631326E+02 -0.24291775184E+03  0.11384038998E+04  0.90841187982E+02 0.  0.
         23    2    4    4    0    0 -0.65098185183E+02 -0.35250801957E+02 -0.34605626417E+03  0.36487388075E+03  0.88868544106E+02 0.  0.
          1    1    3    3  502    0 -0.10362788289E+04  0.92153849523E+02  0.11392388638E+04  0.15427998353E+04  0.00000000000E+00 0. -1.
         -2    1    3    3    0  502 -0.54970906272E+01  0.25275837608E+01  0.21959631685E+02  0.22777886398E+02  0.00000000000E+00 0.  1.
         13    1    5    5    0    0  0.67692917439E+02 -0.15758227718E+02  0.32223228783E+01  0.69577555123E+02  0.00000000000E+00 0.  1.
        -13    1    5    5    0    0  0.10391811872E+04 -0.43672403608E+02 -0.24614007472E+03  0.10688263447E+04  0.00000000000E+00 0. -1.
          2    1    6    6  503    0 -0.54345730909E+02  0.13204704415E+02 -0.25607548031E+03  0.26211156843E+03  0.00000000000E+00 0. -1.
         -2    1    6    6    0  503 -0.10752454274E+02 -0.48455506372E+02 -0.89980783860E+02  0.10276231233E+03  0.00000000000E+00 0.  1.
<mgrwt>
<rscale>  0 0.30150345E+04</rscale>
<asrwt>0</asrwt>
<pdfrwt beam="1">  1        1 0.28008308E+00 0.30150345E+04</pdfrwt>
<pdfrwt beam="2">  1       -2 0.19204854E+00 0.30150345E+04</pdfrwt>
<totfact> 0.44259981E-01</totfact>
</mgrwt>
</event>
<event>
12    5  0.5428626E-008  0.1004257E+04  0.7818608E-02  0.9303888E-01
          1   -1    0    0  501    0  0.00000000000E+00  0.00000000000E+00  0.26748650557E+04  0.26748650557E+04  0.00000000000E+00 0. -1.
         -2   -1    0    0    0  501 -0.00000000000E+00 -0.00000000000E+00 -0.94260091170E+02  0.94260091170E+02  0.00000000000E+00 0.  1.
        -24    2    1    2    0    0  0.58460443635E+02 -0.15263225012E+02  0.79037046533E+02  0.12608104127E+03  0.77453113141E+02 0.  0.
        254    2    1    2    0    0 -0.58460443635E+02  0.15263225012E+02  0.25015679180E+04  0.26430441056E+04  0.85099324692E+03 0.  0.
         23    2    4    4    0    0 -0.84765740536E+02  0.27386315313E+03  0.22497281040E+04  0.22696891816E+04  0.89588959878E+02 0.  0.
         23    2    4    4    0    0  0.26305296901E+02 -0.25859992812E+03  0.25183981408E+03  0.37335492408E+03  0.91677237702E+02 0.  0.
          3    1    3    3  502    0  0.26371818831E+02 -0.93953069278E+01  0.87922400794E+02  0.92271843929E+02  0.00000000000E+00 0. -1.
         -4    1    3    3    0  502  0.32088624804E+02 -0.58679180844E+01 -0.88853542610E+01  0.33809197340E+02  0.00000000000E+00 0.  1.
         13    1    5    5    0    0 -0.53219536874E+02  0.13575289422E+03  0.81105596205E+03  0.82405882130E+03  0.00000000000E+00 0. -1.
        -13    1    5    5    0    0 -0.31546203662E+02  0.13811025891E+03  0.14386721419E+04  0.14456303603E+04  0.00000000000E+00 0.  1.
          2    1    6    6  503    0  0.27040286968E+02 -0.29892931048E+02  0.71578976273E+02  0.82148124082E+02  0.00000000000E+00 0. -1.
         -2    1    6    6    0  503 -0.73499006671E+00 -0.22870699707E+03  0.18026083781E+03  0.29120680000E+03  0.00000000000E+00 0.  1.
<mgrwt>
<rscale>  0 0.10042570E+04</rscale>
<asrwt>0</asrwt>
<pdfrwt beam="1">  1        1 0.41151764E+00 0.10042570E+04</pdfrwt>
<pdfrwt beam="2">  1       -2 0.14501555E-01 0.10042570E+04</pdfrwt>
<totfact> 0.33979489E+01</totfact>
</mgrwt>
</event>
<event>
12    5  0.5428626E-008  0.1781920E+04  0.7818608E-02  0.8715974E-01
         -2   -1    0    0    0  501 -0.00000000000E+00  0.00000000000E+00  0.28283778247E+03  0.28283778247E+03  0.00000000000E+00 0.  1.
          1   -1    0    0  501    0  0.00000000000E+00 -0.00000000000E+00 -0.28065902967E+04  0.28065902967E+04  0.00000000000E+00 0. -1.
        -24    2    1    2    0    0 -0.19170746729E+03  0.56111214671E+03 -0.14729304043E+04  0.15898546562E+04  0.80717146952E+02 0.  0.
        254    2    1    2    0    0  0.19170746729E+03 -0.56111214671E+03 -0.10508221100E+04  0.14995734230E+04  0.89044637676E+03 0.  0.
         23    2    4    4    0    0 -0.75985888516E+02 -0.72578340474E+03 -0.64509807970E+03  0.97848762854E+03  0.93547319068E+02 0.  0.
         23    2    4    4    0    0  0.26769335580E+03  0.16467125803E+03 -0.40572403025E+03  0.52108579442E+03  0.90233366693E+02 0.  0.
          3    1    3    3  502    0 -0.16288285817E+03  0.42654015852E+03 -0.12059612808E+04  0.12894998810E+04  0.00000000000E+00 0. -1.
         -4    1    3    3    0  502 -0.28824609120E+02  0.13457198820E+03 -0.26696912347E+03  0.30035477520E+03  0.00000000000E+00 0.  1.
         13    1    5    5    0    0 -0.95330732227E+02 -0.60970262746E+03 -0.55928258632E+03  0.83283987284E+03  0.00000000000E+00 0. -1.
        -13    1    5    5    0    0  0.19344843712E+02 -0.11608077729E+03 -0.85815493381E+02  0.14564775569E+03  0.00000000000E+00 0.  1.
          3    1    6    6  503    0  0.25678297950E+03  0.15802825123E+03 -0.40878322588E+03  0.50795093514E+03  0.00000000000E+00 0. -1.
         -3    1    6    6    0  503  0.10910376301E+02  0.66430068032E+01  0.30591956332E+01  0.13134859282E+02  0.00000000000E+00 0.  1.
<mgrwt>
<rscale>  0 0.17819201E+04</rscale>
<asrwt>0</asrwt>
<pdfrwt beam="1">  1        1 0.43178313E+00 0.17819201E+04</pdfrwt>
<pdfrwt beam="2">  1       -2 0.43513504E-01 0.17819201E+04</pdfrwt>
<totfact> 0.34350938E+00</totfact>
</mgrwt>
</event>
<event>
12    5  0.5428626E-008  0.1492744E+04  0.7818608E-02  0.8889292E-01
          1   -1    0    0  501    0  0.00000000000E+00  0.00000000000E+00  0.24351470400E+04  0.24351470400E+04  0.00000000000E+00 0. -1.
         -2   -1    0    0    0  501 -0.00000000000E+00 -0.00000000000E+00 -0.22876289568E+03  0.22876289568E+03  0.00000000000E+00 0.  1.
        -24    2    1    2    0    0 -0.41524640887E+03  0.14789194058E+03  0.93636913511E+03  0.10380188756E+04  0.79965134452E+02 0.  0.
        254    2    1    2    0    0  0.41524640887E+03 -0.14789194058E+03  0.12700150092E+04  0.16258910601E+04  0.91448455945E+03 0.  0.
         23    2    4    4    0    0 -0.18367315514E+03 -0.32568643409E+03  0.44962896847E+03  0.59109647689E+03  0.86147283438E+02 0.  0.
         23    2    4    4    0    0  0.59891956401E+03  0.17779449351E+03  0.82038604074E+03  0.10347945832E+04  0.86319450179E+02 0.  0.
          3    1    3    3  502    0 -0.30478333637E+03  0.11691880874E+03  0.76562556824E+03  0.83231328279E+03  0.00000000000E+00 0. -1.
         -4    1    3    3    0  502 -0.11046307250E+03  0.30973131836E+02  0.17074356688E+03  0.20570559281E+03  0.00000000000E+00 0.  1.
         13    1    5    5    0    0 -0.45371245220E+01 -0.17996084711E+02  0.62234780953E+02  0.64943148400E+02  0.00000000000E+00 0.  1.
        -13    1    5    5    0    0 -0.17913603062E+03 -0.30769034938E+03  0.38739418751E+03  0.52615332849E+03  0.00000000000E+00 0. -1.
          3    1    6    6  503    0  0.43408253930E+03  0.16650665242E+03  0.58606465664E+03  0.74808014142E+03  0.00000000000E+00 0. -1.
         -3    1    6    6    0  503  0.16483702471E+03  0.11287841089E+02  0.23432138410E+03  0.28671444177E+03  0.00000000000E+00 0.  1.
<mgrwt>
<rscale>  0 0.14927442E+04</rscale>
<asrwt>0</asrwt>
<pdfrwt beam="1">  1        1 0.37463799E+00 0.14927442E+04</pdfrwt>
<pdfrwt beam="2">  1       -2 0.35194293E-01 0.14927442E+04</pdfrwt>
<totfact> 0.97012342E+00</totfact>
</mgrwt>
</event>
<event>
12    5  0.5428626E-008  0.1758176E+04  0.7818608E-02  0.8728863E-01
         -2   -1    0    0    0  501 -0.00000000000E+00  0.00000000000E+00  0.35655760511E+03  0.35655760511E+03  0.00000000000E+00 0.  1.
          1   -1    0    0  501    0  0.00000000000E+00 -0.00000000000E+00 -0.21673785840E+04  0.21673785840E+04  0.00000000000E+00 0. -1.
        -24    2    1    2    0    0  0.25696182962E+03  0.45941406286E+03 -0.81161992618E+02  0.53835040180E+03  0.78378715472E+02 0.  0.
        254    2    1    2    0    0 -0.25696182962E+03 -0.45941406286E+03 -0.17296589862E+04  0.19855857873E+04  0.82081669509E+03 0.  0.
         23    2    4    4    0    0 -0.31405100519E+03 -0.61576685543E+03 -0.92116489084E+03  0.11549031422E+04  0.86369309959E+02 0.  0.
         23    2    4    4    0    0  0.57089175573E+02  0.15635279257E+03 -0.80849409541E+03  0.83068264506E+03  0.93089122810E+02 0.  0.
          1    1    3    3  502    0  0.38143963314E+02  0.11176283226E+03 -0.43479886271E+02  0.12584273170E+03  0.00000000000E+00 0. -1.
         -4    1    3    3    0  502  0.21881786631E+03  0.34765123060E+03 -0.37682106348E+02  0.41250767010E+03  0.00000000000E+00 0.  1.
         13    1    5    5    0    0 -0.26741576274E+03 -0.49145490900E+03 -0.69014437766E+03  0.88844717331E+03  0.00000000000E+00 0. -1.
        -13    1    5    5    0    0 -0.46635242454E+02 -0.12431194643E+03 -0.23102051318E+03  0.26645596892E+03  0.00000000000E+00 0.  1.
          1    1    6    6  503    0  0.51256968112E+02  0.16772213110E+03 -0.70889140890E+03  0.73026366447E+03  0.00000000000E+00 0. -1.
         -1    1    6    6    0  503  0.58322074613E+01 -0.11369338530E+02 -0.99602686506E+02  0.10041898058E+03  0.00000000000E+00 0.  1.
<mgrwt>
<rscale>  0 0.17581756E+04</rscale>
<asrwt>0</asrwt>
<pdfrwt beam="1">  1        1 0.33344286E+00 0.17581756E+04</pdfrwt>
<pdfrwt beam="2">  1       -2 0.54855016E-01 0.17581756E+04</pdfrwt>
<totfact> 0.59633501E+00</totfact>
</mgrwt>
</event>
<event>
12    5  0.5428626E-008  0.1245758E+04  0.7818608E-02  0.9073722E-01
          1   -1    0    0  501    0  0.00000000000E+00  0.00000000000E+00  0.55283848342E+03  0.55283848342E+03  0.00000000000E+00 0. -1.
         -2   -1    0    0    0  501 -0.00000000000E+00 -0.00000000000E+00 -0.70179270344E+03  0.70179270344E+03  0.00000000000E+00 0.  1.
        -24    2    1    2    0    0  0.21382585122E+03 -0.53250783684E+02 -0.24246286302E+03  0.33670714111E+03  0.77629365060E+02 0.  0.
        254    2    1    2    0    0 -0.21382585122E+03  0.53250783684E+02  0.93508643002E+02  0.91792404575E+03  0.88616225763E+03 0.  0.
         23    2    4    4    0    0  0.25214470952E+03  0.27942228668E+03  0.32953016397E+02  0.38938381340E+03  0.94234197684E+02 0.  0.
         23    2    4    4    0    0 -0.46597056074E+03 -0.22617150299E+03  0.60555626605E+02  0.52854023236E+03  0.86056266857E+02 0.  0.
          1    1    3    3  502    0  0.26339463402E+02 -0.29690452002E+02 -0.18827621042E+02  0.43929142793E+02  0.00000000000E+00 0. -1.
         -2    1    3    3    0  502  0.18748638782E+03 -0.23560331682E+02 -0.22363524198E+03  0.29277799832E+03  0.00000000000E+00 0.  1.
         13    1    5    5    0    0  0.78840603223E+01  0.43870912142E+02 -0.14218564273E+02  0.46786567616E+02  0.00000000000E+00 0.  1.
        -13    1    5    5    0    0  0.24426064920E+03  0.23555137453E+03  0.47171580670E+02  0.34259724578E+03  0.00000000000E+00 0. -1.
          1    1    6    6  503    0 -0.88028794973E+02 -0.66132645536E+02 -0.15297158931E+02  0.11116023849E+03  0.00000000000E+00 0.  1.
         -1    1    6    6    0  503 -0.37794176577E+03 -0.16003885746E+03  0.75852785536E+02  0.41737999387E+03  0.00000000000E+00 0. -1.
<mgrwt>
<rscale>  0 0.12457576E+04</rscale>
<asrwt>0</asrwt>
<pdfrwt beam="1">  1        1 0.85052075E-01 0.12457576E+04</pdfrwt>
<pdfrwt beam="2">  1       -2 0.10796811E+00 0.12457576E+04</pdfrwt>
<totfact> 0.22841895E+01</totfact>
</mgrwt>
</event>
<event>
12    5  0.5428626E-008  0.2350393E+04  0.7818608E-02  0.8458313E-01
         -4   -1    0    0    0  501 -0.00000000000E+00  0.00000000000E+00  0.56554652697E+03  0.56554652697E+03  0.00000000000E+00 0.  1.
          1   -1    0    0  501    0  0.00000000000E+00 -0.00000000000E+00 -0.24420401933E+04  0.24420401933E+04  0.00000000000E+00 0. -1.
        -24    2    1    2    0    0 -0.31772956853E+03 -0.75420665669E+03 -0.62212861293E+02  0.82453570940E+03  0.78796803557E+02 0.  0.
        254    2    1    2    0    0  0.31772956853E+03  0.75420665669E+03 -0.18142808051E+04  0.21830510109E+04  0.89683728557E+03 0.  0.
         23    2    4    4    0    0  0.16406449971E+01  0.21350373797E+03  0.24835982947E+02  0.23814492956E+03  0.10251655275E+03 0.  0.
         23    2    4    4    0    0  0.31608892353E+03  0.54070291873E+03 -0.18391167880E+04  0.19449060813E+04  0.89650718458E+02 0.  0.
          1    1    3    3  502    0 -0.21775397626E+03 -0.49628611897E+03 -0.77626488034E+02  0.54748751375E+03  0.00000000000E+00 0. -1.
         -2    1    3    3    0  502 -0.99975592269E+02 -0.25792053772E+03  0.15413626741E+02  0.27704819565E+03  0.00000000000E+00 0.  1.
         13    1    5    5    0    0 -0.11490670089E+02  0.17624041906E+02 -0.27826533849E+02  0.34884929959E+02  0.00000000000E+00 0.  1.
        -13    1    5    5    0    0  0.13131315086E+02  0.19587969606E+03  0.52662516796E+02  0.20325999961E+03  0.00000000000E+00 0. -1.
          3    1    6    6  503    0  0.28274681055E+03  0.44630961640E+03 -0.14548599256E+04  0.15478228050E+04  0.00000000000E+00 0. -1.
         -3    1    6    6    0  503  0.33342112978E+02  0.94393302326E+02 -0.38425686243E+03  0.39708327634E+03  0.00000000000E+00 0.  1.
<mgrwt>
<rscale>  0 0.23503935E+04</rscale>
<asrwt>0</asrwt>
<pdfrwt beam="1">  1        1 0.37569849E+00 0.23503935E+04</pdfrwt>
<pdfrwt beam="2">  1       -4 0.87007158E-01 0.23503935E+04</pdfrwt>
<totfact> 0.75598623E-01</totfact>
</mgrwt>
</event>
<event>
12    5  0.5428626E-008  0.1579308E+04  0.7818608E-02  0.8833362E-01
          1   -1    0    0  501    0  0.00000000000E+00  0.00000000000E+00  0.26477936425E+04  0.26477936425E+04  0.00000000000E+00 0. -1.
         -2   -1    0    0    0  501 -0.00000000000E+00 -0.00000000000E+00 -0.23549932022E+03  0.23549932022E+03  0.00000000000E+00 0.  1.
        -24    2    1    2    0    0 -0.46984903980E+03 -0.20911100825E+03  0.10108513273E+04  0.11368789580E+04  0.78662731170E+02 0.  0.
        254    2    1    2    0    0  0.46984903980E+03  0.20911100825E+03  0.14014429950E+04  0.17464140047E+04  0.90632989231E+03 0.  0.
         23    2    4    4    0    0 -0.20381140589E+03  0.11487719820E+03  0.94649034866E+02  0.27047347466E+03  0.97270760541E+02 0.  0.
         23    2    4    4    0    0  0.67366044569E+03  0.94233810048E+02  0.13067939601E+04  0.14759405300E+04  0.89395676785E+02 0.  0.
          3    1    3    3  502    0 -0.32313453331E+03 -0.16132587652E+03  0.63389144775E+03  0.72956174007E+03  0.00000000000E+00 0. -1.
         -4    1    3    3    0  502 -0.14671450649E+03 -0.47785131728E+02  0.37695987957E+03  0.40731721795E+03  0.00000000000E+00 0.  1.
         13    1    5    5    0    0 -0.98542141365E+02  0.90377526666E+02  0.11685409359E+02  0.13422071279E+03  0.00000000000E+00 0. -1.
        -13    1    5    5    0    0 -0.10526926452E+03  0.24499671538E+02  0.82963625508E+02  0.13625276187E+03  0.00000000000E+00 0.  1.
          2    1    6    6  503    0  0.29318433013E+03  0.17533508192E+02  0.64507132022E+03  0.70878874392E+03  0.00000000000E+00 0. -1.
         -2    1    6    6    0  503  0.38047611556E+03  0.76700301856E+02  0.66172263987E+03  0.76715178611E+03  0.00000000000E+00 0.  1.
<mgrwt>
<rscale>  0 0.15793082E+04</rscale>
<asrwt>0</asrwt>
<pdfrwt beam="1">  1        1 0.40735285E+00 0.15793082E+04</pdfrwt>
<pdfrwt beam="2">  1       -2 0.36230667E-01 0.15793082E+04</pdfrwt>
<totfact> 0.64815445E+00</totfact>
</mgrwt>
</event>
<event>
12    5  0.5428626E-008  0.1154586E+04  0.7818608E-02  0.9153563E-01
          1   -1    0    0  501    0  0.00000000000E+00  0.00000000000E+00  0.31202745551E+04  0.31202745551E+04  0.00000000000E+00 0. -1.
         -2   -1    0    0    0  501 -0.00000000000E+00 -0.00000000000E+00 -0.10680705673E+03  0.10680705673E+03  0.00000000000E+00 0.  1.
        -24    2    1    2    0    0  0.17790608465E+03  0.30976739832E+01  0.27422836463E+03  0.33687917438E+03  0.81401545606E+02 0.  0.
        254    2    1    2    0    0 -0.17790608465E+03 -0.30976739832E+01  0.27392391338E+04  0.28902024375E+04  0.90453243562E+03 0.  0.
         23    2    4    4    0    0 -0.37161657331E+03  0.23605292362E+03  0.23163193640E+04  0.23594661583E+04  0.89024130605E+02 0.  0.
         23    2    4    4    0    0  0.19371048866E+03 -0.23915059760E+03  0.42291976978E+03  0.53073627918E+03  0.90017246245E+02 0.  0.
          1    1    3    3  502    0  0.17740785074E+02  0.24364958224E+02  0.71850202850E+02  0.77915584410E+02  0.00000000000E+00 0. -1.
         -2    1    3    3    0  502  0.16016529958E+03 -0.21267284241E+02  0.20237816178E+03  0.25896358997E+03  0.00000000000E+00 0.  1.
         13    1    5    5    0    0  0.41040118903E+01  0.27796748699E+01  0.10397885753E+02  0.11518920701E+02  0.00000000000E+00 0. -1.
        -13    1    5    5    0    0 -0.37572058520E+03  0.23327324875E+03  0.23059214782E+04  0.23479472376E+04  0.00000000000E+00 0.  1.
          3    1    6    6  503    0  0.12680241618E+03 -0.88830014881E+02  0.22889616273E+03  0.27633870089E+03  0.00000000000E+00 0. -1.
         -3    1    6    6    0  503  0.66908072472E+02 -0.15032058272E+03  0.19402360705E+03  0.25439757830E+03  0.00000000000E+00 0.  1.
<mgrwt>
<rscale>  0 0.11545862E+04</rscale>
<asrwt>0</asrwt>
<pdfrwt beam="1">  1        1 0.48004217E+00 0.11545862E+04</pdfrwt>
<pdfrwt beam="2">  1       -2 0.16431857E-01 0.11545862E+04</pdfrwt>
<totfact> 0.12995581E+01</totfact>
</mgrwt>
</event>
<event>
12    5  0.5428626E-008  0.1296741E+04  0.7818608E-02  0.9032153E-01
          1   -1    0    0  501    0  0.00000000000E+00  0.00000000000E+00  0.22822159997E+03  0.22822159997E+03  0.00000000000E+00 0. -1.
         -2   -1    0    0    0  501 -0.00000000000E+00 -0.00000000000E+00 -0.18420010248E+04  0.18420010248E+04  0.00000000000E+00 0.  1.
        -24    2    1    2    0    0 -0.77522560202E+02  0.29210119320E+03 -0.61090158044E+03  0.68606891096E+03  0.78466267796E+02 0.  0.
        254    2    1    2    0    0  0.77522560202E+02 -0.29210119320E+03 -0.10028778443E+04  0.13841537138E+04  0.90486721582E+03 0.  0.
         23    2    4    4    0    0 -0.57243216771E+02 -0.14987707853E+03 -0.11221380868E+04  0.11372511981E+04  0.91686843414E+02 0.  0.
         23    2    4    4    0    0  0.13476577697E+03 -0.14222411467E+03  0.11926024247E+03  0.24690251564E+03  0.91369214497E+02 0.  0.
          1    1    3    3  502    0 -0.51516715465E+02  0.27350368299E+03 -0.56845021013E+03  0.63292485966E+03  0.00000000000E+00 0. -1.
         -4    1    3    3    0  502 -0.26005844736E+02  0.18597510219E+02 -0.42451370317E+02  0.53144051300E+02  0.00000000000E+00 0.  1.
         13    1    5    5    0    0 -0.44110425136E+02 -0.79442246907E+02 -0.88155695835E+03  0.88622766320E+03  0.00000000000E+00 0.  1.
        -13    1    5    5    0    0 -0.13132791635E+02 -0.70434831626E+02 -0.24058112846E+03  0.25102353494E+03  0.00000000000E+00 0. -1.
          3    1    6    6  503    0  0.12302673778E+03 -0.10454714105E+03  0.12853250834E+03  0.20636445579E+03  0.00000000000E+00 0.  1.
         -3    1    6    6    0  503  0.11739039189E+02 -0.37676973617E+02 -0.92722658727E+01  0.40538059851E+02  0.00000000000E+00 0. -1.
<mgrwt>
<rscale>  0 0.12967412E+04</rscale>
<asrwt>0</asrwt>
<pdfrwt beam="1">  1        1 0.35111014E-01 0.12967412E+04</pdfrwt>
<pdfrwt beam="2">  1       -2 0.28338478E+00 0.12967412E+04</pdfrwt>
<totfact> 0.43310113E+00</totfact>
</mgrwt>
</event>
<event>
12    5  0.5428626E-008  0.1397932E+04  0.7818608E-02  0.8955317E-01
         -2   -1    0    0    0  501 -0.00000000000E+00  0.00000000000E+00  0.11726992285E+04  0.11726992285E+04  0.00000000000E+00 0.  1.
          1   -1    0    0  501    0  0.00000000000E+00 -0.00000000000E+00 -0.41660597976E+03  0.41660597976E+03  0.00000000000E+00 0. -1.
        -24    2    1    2    0    0  0.93275415366E+02 -0.21015760449E+03  0.57782625773E+03  0.62714641612E+03  0.81011858941E+02 0.  0.
        254    2    1    2    0    0 -0.93275415366E+02  0.21015760449E+03  0.17826699105E+03  0.96215879218E+03  0.91711716778E+03 0.  0.
         23    2    4    4    0    0 -0.24214718397E+03 -0.70147064772E+02  0.45700854974E+03  0.53002957631E+03  0.92296629559E+02 0.  0.
         23    2    4    4    0    0  0.14887176860E+03  0.28030466926E+03 -0.27874155869E+03  0.43212921587E+03  0.91133372457E+02 0.  0.
          1    1    3    3  502    0  0.17805980471E+02 -0.19772833178E+01  0.84845100900E+02  0.86715937039E+02  0.00000000000E+00 0. -1.
         -2    1    3    3    0  502  0.75469434896E+02 -0.20818032117E+03  0.49298115684E+03  0.54043047908E+03  0.00000000000E+00 0.  1.
         13    1    5    5    0    0 -0.15055575015E+03 -0.47761175606E+02  0.19125631232E+03  0.24804665045E+03  0.00000000000E+00 0. -1.
        -13    1    5    5    0    0 -0.91591433825E+02 -0.22385889166E+02  0.26575223742E+03  0.28198292586E+03  0.00000000000E+00 0.  1.
          4    1    6    6  503    0  0.13821884303E+03  0.28115659808E+03 -0.24796477910E+03  0.39954976271E+03  0.00000000000E+00 0.  1.
         -4    1    6    6    0  503  0.10652925571E+02 -0.85192882198E+00 -0.30776779594E+02  0.32579453159E+02  0.00000000000E+00 0. -1.
<mgrwt>
<rscale>  0 0.13979321E+04</rscale>
<asrwt>0</asrwt>
<pdfrwt beam="1">  1        1 0.64093228E-01 0.13979321E+04</pdfrwt>
<pdfrwt beam="2">  1       -2 0.18041526E+00 0.13979321E+04</pdfrwt>
<totfact> 0.87137538E+00</totfact>
</mgrwt>
</event>
<event>
12    5  0.5428626E-008  0.1032090E+04  0.7818608E-02  0.9274033E-01
          1   -1    0    0  501    0  0.00000000000E+00  0.00000000000E+00  0.20395830161E+04  0.20395830161E+04  0.00000000000E+00 0. -1.
         -2   -1    0    0    0  501 -0.00000000000E+00 -0.00000000000E+00 -0.13056707591E+03  0.13056707591E+03  0.00000000000E+00 0.  1.
        -24    2    1    2    0    0  0.51630696961E+02  0.44527520477E+02  0.93761900469E+02  0.14169493329E+03  0.81472272530E+02 0.  0.
        254    2    1    2    0    0 -0.51630696961E+02 -0.44527520477E+02  0.18152540397E+04  0.20284551587E+04  0.90268193360E+03 0.  0.
         23    2    4    4    0    0  0.10707879877E+03  0.23164596612E+03  0.11193533977E+03  0.29322859536E+03  0.91256594735E+02 0.  0.
         23    2    4    4    0    0 -0.15870949573E+03 -0.27617348660E+03  0.17033186999E+04  0.17352265633E+04  0.90863270045E+02 0.  0.
          3    1    3    3  502    0 -0.21820398250E+02  0.44376272004E+01  0.24120971956E+02  0.32827482436E+02  0.00000000000E+00 0. -1.
         -4    1    3    3    0  502  0.73451095212E+02  0.40089893276E+02  0.69640928513E+02  0.10886745085E+03  0.00000000000E+00 0.  1.
         13    1    5    5    0    0  0.87354358089E+02  0.21522771657E+03  0.67455157701E+02  0.24187590239E+03  0.00000000000E+00 0. -1.
        -13    1    5    5    0    0  0.19724440681E+02  0.16418249553E+02  0.44480182071E+02  0.51352692974E+02  0.00000000000E+00 0.  1.
          4    1    6    6  503    0 -0.10742534885E+03 -0.12022127985E+03  0.10064530923E+04  0.10192846456E+04  0.00000000000E+00 0. -1.
         -4    1    6    6    0  503 -0.51284146883E+02 -0.15595220675E+03  0.69686560759E+03  0.71594191772E+03  0.00000000000E+00 0.  1.
<mgrwt>
<rscale>  0 0.10320899E+04</rscale>
<asrwt>0</asrwt>
<pdfrwt beam="1">  1        1 0.31378198E+00 0.10320899E+04</pdfrwt>
<pdfrwt beam="2">  1       -2 0.20087244E-01 0.10320899E+04</pdfrwt>
<totfact> 0.52433263E+01</totfact>
</mgrwt>
</event>
<event>
12    5  0.5428626E-008  0.2119914E+04  0.7818608E-02  0.8552521E-01
         -2   -1    0    0    0  501 -0.00000000000E+00  0.00000000000E+00  0.99525568287E+03  0.99525568287E+03  0.00000000000E+00 0.  1.
          1   -1    0    0  501    0  0.00000000000E+00 -0.00000000000E+00 -0.11288646901E+04  0.11288646901E+04  0.00000000000E+00 0. -1.
        -24    2    1    2    0    0 -0.85033421812E+03  0.13076750140E+03 -0.10419463980E+02  0.86406525490E+03  0.79572467404E+02 0.  0.
        254    2    1    2    0    0  0.85033421812E+03 -0.13076750140E+03 -0.12318954323E+03  0.12600551181E+04  0.91235673673E+03 0.  0.
         23    2    4    4    0    0  0.10852276369E+02 -0.13089655966E+03  0.28143320299E+03  0.32357637292E+03  0.90803855291E+02 0.  0.
         23    2    4    4    0    0  0.83948194175E+03  0.12905826449E+00 -0.40462274622E+03  0.93647874513E+03  0.92427951138E+02 0.  0.
          3    1    3    3  502    0 -0.18839856901E+03  0.49366872799E+02 -0.28875217449E+02  0.19688800653E+03  0.00000000000E+00 0. -1.
         -4    1    3    3    0  502 -0.66193564911E+03  0.81400628598E+02  0.18455753469E+02  0.66717724836E+03  0.00000000000E+00 0.  1.
         13    1    5    5    0    0 -0.38778812225E+02 -0.76297764428E+02  0.16107259961E+03  0.18239936261E+03  0.00000000000E+00 0. -1.
        -13    1    5    5    0    0  0.49631088594E+02 -0.54598795234E+02  0.12036060338E+03  0.14117701031E+03  0.00000000000E+00 0.  1.
          3    1    6    6  503    0  0.66176778076E+03  0.34661669895E+02 -0.30040298467E+03  0.72758503298E+03  0.00000000000E+00 0. -1.
         -3    1    6    6    0  503  0.17771416099E+03 -0.34532611630E+02 -0.10421976155E+03  0.20889371216E+03  0.00000000000E+00 0.  1.
<mgrwt>
<rscale>  0 0.21199141E+04</rscale>
<asrwt>0</asrwt>
<pdfrwt beam="1">  1        1 0.17367149E+00 0.21199141E+04</pdfrwt>
<pdfrwt beam="2">  1       -2 0.15311626E+00 0.21199141E+04</pdfrwt>
<totfact> 0.27549118E+00</totfact>
</mgrwt>
</event>
<event>
12    5  0.5428626E-008  0.2024375E+04  0.7818608E-02  0.8595309E-01
         -2   -1    0    0    0  501 -0.00000000000E+00  0.00000000000E+00  0.11251610077E+04  0.11251610077E+04  0.00000000000E+00 0.  1.
          1   -1    0    0  501    0  0.00000000000E+00 -0.00000000000E+00 -0.91055715132E+03  0.91055715132E+03  0.00000000000E+00 0. -1.
        -24    2    1    2    0    0  0.10794826664E+03 -0.57841987970E+03 -0.44647684445E+03  0.74299362208E+03  0.80470891040E+02 0.  0.
        254    2    1    2    0    0 -0.10794826664E+03  0.57841987970E+03  0.66108070088E+03  0.12927245370E+04  0.94227737421E+03 0.  0.
         23    2    4    4    0    0  0.21460416624E+03  0.16039631616E+03  0.70174757235E+03  0.75534931640E+03  0.79504767701E+02 0.  0.
         23    2    4    4    0    0 -0.32255243288E+03  0.41802356355E+03 -0.40666871462E+02  0.53737522059E+03  0.91293820361E+02 0.  0.
          1    1    3    3  502    0  0.11981875107E+03 -0.52158140822E+03 -0.41274569675E+03  0.67584222175E+03  0.00000000000E+00 0. -1.
         -2    1    3    3    0  502 -0.11870484424E+02 -0.56838471479E+02 -0.33731147707E+02  0.67151400330E+02  0.00000000000E+00 0.  1.
         13    1    5    5    0    0  0.13864419121E+03  0.11106224819E+03  0.55659216103E+03  0.58425325711E+03  0.00000000000E+00 0.  1.
        -13    1    5    5    0    0  0.75959975026E+02  0.49334067966E+02  0.14515541132E+03  0.17109605929E+03  0.00000000000E+00 0. -1.
          3    1    6    6  503    0 -0.26589071143E+03  0.38844750435E+03 -0.47361182097E+02  0.47310930622E+03  0.00000000000E+00 0. -1.
         -3    1    6    6    0  503 -0.56661721452E+02  0.29576059192E+02  0.66943106354E+01  0.64265914373E+02  0.00000000000E+00 0.  1.
<mgrwt>
<rscale>  0 0.20243749E+04</rscale>
<asrwt>0</asrwt>
<pdfrwt beam="1">  1        1 0.14008572E+00 0.20243749E+04</pdfrwt>
<pdfrwt beam="2">  1       -2 0.17310169E+00 0.20243749E+04</pdfrwt>
<totfact> 0.29316482E+00</totfact>
</mgrwt>
</event>
<event>
12    5  0.5428626E-008  0.1357656E+04  0.7818608E-02  0.8985052E-01
          1   -1    0    0  501    0  0.00000000000E+00  0.00000000000E+00  0.23071244334E+04  0.23071244334E+04  0.00000000000E+00 0. -1.
         -2   -1    0    0    0  501 -0.00000000000E+00 -0.00000000000E+00 -0.19973250015E+03  0.19973250015E+03  0.00000000000E+00 0.  1.
        -24    2    1    2    0    0  0.19396372935E+03 -0.22285018835E+03  0.10091124179E+04  0.10546923152E+04  0.82364270574E+02 0.  0.
        254    2    1    2    0    0 -0.19396372935E+03  0.22285018835E+03  0.10982795153E+04  0.14521646183E+04  0.90292859637E+03 0.  0.
         23    2    4    4    0    0  0.32048693289E+03  0.13713582999E+03  0.20495891373E+03  0.41437419497E+03  0.90441733312E+02 0.  0.
         23    2    4    4    0    0 -0.51445066224E+03  0.85714358363E+02  0.89332060157E+03  0.10377904233E+04  0.83551364031E+02 0.  0.
          3    1    3    3  502    0  0.11356727623E+03 -0.15129022223E+03  0.50623855719E+03  0.54042921309E+03  0.00000000000E+00 0. -1.
         -4    1    3    3    0  502  0.80396453117E+02 -0.71559966118E+02  0.50287386074E+03  0.51426310215E+03  0.00000000000E+00 0.  1.
         13    1    5    5    0    0  0.30116292923E+03  0.13878748451E+03  0.16595130553E+03  0.37081115356E+03  0.00000000000E+00 0. -1.
        -13    1    5    5    0    0  0.19324003659E+02 -0.16516545155E+01  0.39007608194E+02  0.43563041412E+02  0.00000000000E+00 0.  1.
          2    1    6    6  503    0 -0.43680233589E+03  0.59590537447E+02  0.80145708504E+03  0.91470255928E+03  0.00000000000E+00 0. -1.
         -2    1    6    6    0  503 -0.77648326346E+02  0.26123820916E+02  0.91863516528E+02  0.12308786403E+03  0.00000000000E+00 0.  1.
<mgrwt>
<rscale>  0 0.13576564E+04</rscale>
<asrwt>0</asrwt>
<pdfrwt beam="1">  1        1 0.35494220E+00 0.13576564E+04</pdfrwt>
<pdfrwt beam="2">  1       -2 0.30728079E-01 0.13576564E+04</pdfrwt>
<totfact> 0.15537955E+01</totfact>
</mgrwt>
</event>
<event>
12    5  0.5428626E-008  0.1879180E+04  0.7818608E-02  0.8665290E-01
          1   -1    0    0  501    0  0.00000000000E+00  0.00000000000E+00  0.25213572653E+04  0.25213572653E+04  0.00000000000E+00 0. -1.
         -2   -1    0    0    0  501 -0.00000000000E+00 -0.00000000000E+00 -0.35014050538E+03  0.35014050538E+03  0.00000000000E+00 0.  1.
        -24    2    1    2    0    0 -0.33463974061E+03 -0.45006971899E+03  0.17143494622E+04  0.18055513825E+04  0.80468678653E+02 0.  0.
        254    2    1    2    0    0  0.33463974061E+03  0.45006971899E+03  0.45686729775E+03  0.10659463882E+04  0.78292238882E+03 0.  0.
         23    2    4    4    0    0  0.34252721679E+03  0.14198803697E+03  0.60248476580E+03  0.71332034056E+03  0.91392113147E+02 0.  0.
         23    2    4    4    0    0 -0.78874761804E+01  0.30808168202E+03 -0.14561746805E+03  0.35262604769E+03  0.90355671814E+02 0.  0.
          1    1    3    3  502    0 -0.33747842106E+03 -0.43502611178E+03  0.16512911542E+04  0.17406613337E+04  0.00000000000E+00 0. -1.
         -2    1    3    3    0  502  0.28386804516E+01 -0.15043607210E+02  0.63058308031E+02  0.64890048824E+02  0.00000000000E+00 0.  1.
         13    1    5    5    0    0  0.19332988482E+03  0.44977483414E+02  0.25735427933E+03  0.32500868214E+03  0.00000000000E+00 0. -1.
        -13    1    5    5    0    0  0.14919733197E+03  0.97010553560E+02  0.34513048647E+03  0.38831165841E+03  0.00000000000E+00 0.  1.
          2    1    6    6  503    0 -0.10222321775E+02  0.81157248768E+02  0.21399389276E+01  0.81826488552E+02  0.00000000000E+00 0. -1.
         -2    1    6    6    0  503  0.23348455943E+01  0.22692443325E+03 -0.14775740698E+03  0.27079955914E+03  0.00000000000E+00 0.  1.
<mgrwt>
<rscale>  0 0.18791799E+04</rscale>
<asrwt>0</asrwt>
<pdfrwt beam="1">  1        1 0.38790111E+00 0.18791799E+04</pdfrwt>
<pdfrwt beam="2">  1       -2 0.53867772E-01 0.18791799E+04</pdfrwt>
<totfact> 0.35019747E+00</totfact>
</mgrwt>
</event>
<event>
12    5  0.5428626E-008  0.2009596E+04  0.7818608E-02  0.8602147E-01
         -2   -1    0    0    0  501 -0.00000000000E+00  0.00000000000E+00  0.35894034714E+03  0.35894034714E+03  0.00000000000E+00 0.  1.
          1   -1    0    0  501    0  0.00000000000E+00 -0.00000000000E+00 -0.28127761476E+04  0.28127761476E+04  0.00000000000E+00 0. -1.
        -24    2    1    2    0    0  0.16506917129E+03  0.71879391572E+03 -0.48014161633E+03  0.88364220747E+03  0.79843938436E+02 0.  0.
        254    2    1    2    0    0 -0.16506917129E+03 -0.71879391572E+03 -0.19736941842E+04  0.22880742873E+04  0.89213378313E+03 0.  0.
         23    2    4    4    0    0 -0.17596136759E+03 -0.89600137847E+03 -0.13448103801E+04  0.16280733066E+04  0.91251631270E+02 0.  0.
         23    2    4    4    0    0  0.10892196299E+02  0.17720746275E+03 -0.62888380405E+03  0.66000098066E+03  0.92657059529E+02 0.  0.
          3    1    3    3  502    0  0.10548859277E+03  0.28617692747E+03 -0.18986292586E+03  0.35926732058E+03  0.00000000000E+00 0. -1.
         -4    1    3    3    0  502  0.59580578513E+02  0.43261698825E+03 -0.29027869047E+03  0.52437488689E+03  0.00000000000E+00 0.  1.
         13    1    5    5    0    0 -0.49896725892E+02 -0.10116319957E+03 -0.15786227560E+03  0.19402106653E+03  0.00000000000E+00 0. -1.
        -13    1    5    5    0    0 -0.12606464169E+03 -0.79483817891E+03 -0.11869481045E+04  0.14340522401E+04  0.00000000000E+00 0.  1.
          1    1    6    6  503    0  0.43810612511E+02  0.42453435149E+02 -0.17035499690E+03  0.18094885712E+03  0.00000000000E+00 0. -1.
         -1    1    6    6    0  503 -0.32918416211E+02  0.13475402761E+03 -0.45852880715E+03  0.47905212354E+03  0.00000000000E+00 0.  1.
<mgrwt>
<rscale>  0 0.20095958E+04</rscale>
<asrwt>0</asrwt>
<pdfrwt beam="1">  1        1 0.43273478E+00 0.20095958E+04</pdfrwt>
<pdfrwt beam="2">  1       -2 0.55221594E-01 0.20095958E+04</pdfrwt>
<totfact> 0.20513066E+00</totfact>
</mgrwt>
</event>
<event>
12    5  0.5428626E-008  0.2168526E+04  0.7818608E-02  0.8531644E-01
          1   -1    0    0  501    0  0.00000000000E+00  0.00000000000E+00  0.10504505799E+04  0.10504505799E+04  0.00000000000E+00 0. -1.
         -2   -1    0    0    0  501 -0.00000000000E+00 -0.00000000000E+00 -0.11191640501E+04  0.11191640501E+04  0.00000000000E+00 0.  1.
        -24    2    1    2    0    0  0.19125717957E+03 -0.49821366540E+03 -0.73929898690E+03  0.91551537581E+03  0.82518156742E+02 0.  0.
        254    2    1    2    0    0 -0.19125717957E+03  0.49821366540E+03  0.67058551670E+03  0.12540992542E+04  0.91557841774E+03 0.  0.
         23    2    4    4    0    0  0.22030782572E+03 -0.13992620971E+03  0.79640050120E+02  0.28738829645E+03  0.90192090083E+02 0.  0.
         23    2    4    4    0    0 -0.41156500529E+03  0.63813987511E+03  0.59094546658E+03  0.96671095775E+03  0.93302077029E+02 0.  0.
          3    1    3    3  502    0  0.35708897543E+02 -0.49029872836E+02 -0.52274303850E+02  0.80072820839E+02  0.00000000000E+00 0. -1.
         -4    1    3    3    0  502  0.15554828203E+03 -0.44918379256E+03 -0.68702468305E+03  0.83544255497E+03  0.00000000000E+00 0.  1.
         13    1    5    5    0    0  0.12643698847E+03 -0.91215739055E+02  0.15297076609E+01  0.15591331922E+03  0.00000000000E+00 0. -1.
        -13    1    5    5    0    0  0.93870837252E+02 -0.48710470656E+02  0.78110342459E+02  0.13147497723E+03  0.00000000000E+00 0.  1.
          1    1    6    6  503    0 -0.23844114925E+02  0.39152850516E+02  0.68266498162E+02  0.82230178714E+02  0.00000000000E+00 0. -1.
         -1    1    6    6    0  503 -0.38772089037E+03  0.59898702459E+03  0.52267896842E+03  0.88448077903E+03  0.00000000000E+00 0.  1.
<mgrwt>
<rscale>  0 0.21685263E+04</rscale>
<asrwt>0</asrwt>
<pdfrwt beam="1">  1        1 0.16160778E+00 0.21685263E+04</pdfrwt>
<pdfrwt beam="2">  1       -2 0.17217908E+00 0.21685263E+04</pdfrwt>
<totfact> 0.22799013E+00</totfact>
</mgrwt>
</event>
<event>
12    5  0.5428626E-008  0.3608685E+04  0.7818608E-02  0.8088505E-01
          1   -1    0    0  501    0  0.00000000000E+00  0.00000000000E+00  0.23816899773E+04  0.23816899773E+04  0.00000000000E+00 0. -1.
         -2   -1    0    0    0  501 -0.00000000000E+00 -0.00000000000E+00 -0.13669500498E+04  0.13669500498E+04  0.00000000000E+00 0.  1.
        -24    2    1    2    0    0  0.70874670308E+03  0.74191496624E+03 -0.93144790049E+03  0.13880708818E+04  0.79911671488E+02 0.  0.
        254    2    1    2    0    0 -0.70874670308E+03 -0.74191496624E+03  0.19461878280E+04  0.23605691453E+04  0.85549980801E+03 0.  0.
         23    2    4    4    0    0 -0.84521186557E+03 -0.44270987548E+03  0.16520439889E+04  0.19099902421E+04  0.91859958655E+02 0.  0.
         23    2    4    4    0    0  0.13646516249E+03 -0.29920509077E+03  0.29414383914E+03  0.45057890324E+03  0.91401985877E+02 0.  0.
          1    1    3    3  502    0  0.14086546095E+02  0.43664290922E+01 -0.62386451131E+01  0.16013031467E+02  0.00000000000E+00 0. -1.
         -2    1    3    3    0  502  0.69466015699E+03  0.73754853715E+03 -0.92520925538E+03  0.13720578503E+04  0.00000000000E+00 0.  1.
         13    1    5    5    0    0 -0.69449760890E+02 -0.16629375194E+02  0.93260411590E+02  0.11746195034E+03  0.00000000000E+00 0.  1.
        -13    1    5    5    0    0 -0.77576210468E+03 -0.42608050028E+03  0.15587835773E+04  0.17925282917E+04  0.00000000000E+00 0. -1.
          1    1    6    6  503    0  0.12909313371E+03 -0.18237454800E+03  0.17797824303E+03  0.28566023161E+03  0.00000000000E+00 0. -1.
         -1    1    6    6    0  503  0.73720287752E+01 -0.11683054277E+03  0.11616559611E+03  0.16491867163E+03  0.00000000000E+00 0.  1.
<mgrwt>
<rscale>  0 0.36086847E+04</rscale>
<asrwt>0</asrwt>
<pdfrwt beam="1">  1        1 0.36641384E+00 0.36086847E+04</pdfrwt>
<pdfrwt beam="2">  1       -2 0.21030001E+00 0.36086847E+04</pdfrwt>
<totfact> 0.13261501E-01</totfact>
</mgrwt>
</event>
<event>
12    5  0.5428626E-008  0.1284544E+04  0.7818608E-02  0.9041912E-01
          1   -1    0    0  501    0  0.00000000000E+00  0.00000000000E+00  0.72984470455E+03  0.72984470455E+03  0.00000000000E+00 0. -1.
         -2   -1    0    0    0  501 -0.00000000000E+00 -0.00000000000E+00 -0.56520720586E+03  0.56520720586E+03  0.00000000000E+00 0.  1.
        -24    2    1    2    0    0  0.17904219404E+03  0.22269339791E+03  0.18512496406E+03  0.34976408811E+03  0.80094995424E+02 0.  0.
        254    2    1    2    0    0 -0.17904219404E+03 -0.22269339791E+03 -0.20487465371E+02  0.94528782230E+03  0.90083343301E+03 0.  0.
         23    2    4    4    0    0 -0.24077001253E+02 -0.59357351739E+02  0.42362391842E+03  0.43802534110E+03  0.91137138357E+02 0.  0.
         23    2    4    4    0    0 -0.15496519278E+03 -0.16333604617E+03 -0.44411138379E+03  0.50726248121E+03  0.96888743784E+02 0.  0.
          3    1    3    3  502    0  0.64764097639E+02  0.12761897253E+03  0.12278399064E+03  0.18856537023E+03  0.00000000000E+00 0. -1.
         -4    1    3    3    0  502  0.11427809640E+03  0.95074425388E+02  0.62340973415E+02  0.16119871788E+03  0.00000000000E+00 0.  1.
         13    1    5    5    0    0  0.34202067714E+02 -0.32475497163E+02  0.17288928934E+03  0.17920699127E+03  0.00000000000E+00 0.  1.
        -13    1    5    5    0    0 -0.58279068967E+02 -0.26881854576E+02  0.25073462908E+03  0.25881834982E+03  0.00000000000E+00 0. -1.
          3    1    6    6  503    0 -0.26266163061E+02 -0.60669075608E+02 -0.21638166973E+03  0.22625577352E+03  0.00000000000E+00 0. -1.
         -3    1    6    6    0  503 -0.12869902972E+03 -0.10266697057E+03 -0.22772971406E+03  0.28100670768E+03  0.00000000000E+00 0.  1.
<mgrwt>
<rscale>  0 0.12845443E+04</rscale>
<asrwt>0</asrwt>
<pdfrwt beam="1">  1        1 0.11228380E+00 0.12845443E+04</pdfrwt>
<pdfrwt beam="2">  1       -2 0.86954954E-01 0.12845443E+04</pdfrwt>
<totfact> 0.25185899E+01</totfact>
</mgrwt>
</event>
<event>
12    5  0.5428626E-008  0.1206175E+04  0.7818608E-02  0.9107469E-01
          1   -1    0    0  501    0  0.00000000000E+00  0.00000000000E+00  0.54415189238E+03  0.54415189238E+03  0.00000000000E+00 0. -1.
         -2   -1    0    0    0  501 -0.00000000000E+00 -0.00000000000E+00 -0.66840624610E+03  0.66840624610E+03  0.00000000000E+00 0.  1.
        -24    2    1    2    0    0 -0.73534613892E+02 -0.14862525874E+03  0.15489160727E+03  0.24011497863E+03  0.78530159704E+02 0.  0.
        254    2    1    2    0    0  0.73534613892E+02  0.14862525874E+03 -0.27914596100E+03  0.97244315985E+03  0.91663865543E+03 0.  0.
         23    2    4    4    0    0  0.47987492071E+03 -0.25912403804E+01 -0.14577617145E+03  0.50972234438E+03  0.90991879576E+02 0.  0.
         23    2    4    4    0    0 -0.40634030681E+03  0.15121649912E+03 -0.13336978955E+03  0.46272081547E+03  0.91346470951E+02 0.  0.
          1    1    3    3  502    0 -0.60309483930E+02 -0.14708730235E+03  0.16028456602E+03  0.22574997336E+03  0.00000000000E+00 0. -1.
         -2    1    3    3    0  502 -0.13225129962E+02 -0.15379563882E+01 -0.53929587530E+01  0.14365005272E+02  0.00000000000E+00 0.  1.
         13    1    5    5    0    0  0.96278638973E+02  0.22026405648E+02 -0.61045783350E+02  0.11610911477E+03  0.00000000000E+00 0. -1.
        -13    1    5    5    0    0  0.38359628173E+03 -0.24617646029E+02 -0.84730388100E+02  0.39361322961E+03  0.00000000000E+00 0.  1.
          1    1    6    6  503    0 -0.70423023344E+02 -0.78818097821E+01 -0.13143848264E+02  0.72071394391E+02  0.00000000000E+00 0. -1.
         -1    1    6    6    0  503 -0.33591728347E+03  0.15909830890E+03 -0.12022594128E+03  0.39064942108E+03  0.00000000000E+00 0.  1.
<mgrwt>
<rscale>  0 0.12061750E+04</rscale>
<asrwt>0</asrwt>
<pdfrwt beam="1">  1        1 0.83715676E-01 0.12061750E+04</pdfrwt>
<pdfrwt beam="2">  1       -2 0.10283173E+00 0.12061750E+04</pdfrwt>
<totfact> 0.26339846E+01</totfact>
</mgrwt>
</event>
<event>
12    5  0.5428626E-008  0.2007148E+04  0.7818608E-02  0.8603286E-01
         -2   -1    0    0    0  501 -0.00000000000E+00  0.00000000000E+00  0.50981427109E+03  0.50981427109E+03  0.00000000000E+00 0.  1.
          1   -1    0    0  501    0  0.00000000000E+00 -0.00000000000E+00 -0.19755451258E+04  0.19755451258E+04  0.00000000000E+00 0. -1.
        -24    2    1    2    0    0  0.18275966684E+03 -0.21383303529E+03 -0.13293710138E+04  0.13614131118E+04  0.84218202957E+02 0.  0.
        254    2    1    2    0    0 -0.18275966684E+03  0.21383303529E+03 -0.13635984091E+03  0.11239462851E+04  0.10795997327E+04 0.  0.
         23    2    4    4    0    0 -0.31177974773E+03  0.43681008716E+03  0.28996416237E+03  0.61672716924E+03  0.90903918933E+02 0.  0.
         23    2    4    4    0    0  0.12902008089E+03 -0.22297705187E+03 -0.42632400328E+03  0.50721911590E+03  0.95677211635E+02 0.  0.
          3    1    3    3  502    0  0.77128556650E+02 -0.32531659253E+02 -0.36386695771E+03  0.37337151206E+03  0.00000000000E+00 0. -1.
         -4    1    3    3    0  502  0.10563111019E+03 -0.18130137604E+03 -0.96550405610E+03  0.98804159971E+03  0.00000000000E+00 0.  1.
         13    1    5    5    0    0 -0.17481944357E+03  0.17470376750E+03  0.10985159262E+03  0.27046370668E+03  0.00000000000E+00 0.  1.
        -13    1    5    5    0    0 -0.13696030416E+03  0.26210631966E+03  0.18011256975E+03  0.34626346256E+03  0.00000000000E+00 0. -1.
          1    1    6    6  503    0  0.13408948202E+03 -0.19894951829E+03 -0.41672327113E+03  0.48085256027E+03  0.00000000000E+00 0. -1.
         -1    1    6    6    0  503 -0.50694011353E+01 -0.24027533582E+02 -0.96007321504E+01  0.26366555628E+02  0.00000000000E+00 0.  1.
<mgrwt>
<rscale>  0 0.20071483E+04</rscale>
<asrwt>0</asrwt>
<pdfrwt beam="1">  1        1 0.30393002E+00 0.20071483E+04</pdfrwt>
<pdfrwt beam="2">  1       -2 0.78432964E-01 0.20071483E+04</pdfrwt>
<totfact> 0.36426884E+00</totfact>
</mgrwt>
</event>
<event>
12    5  0.5428626E-008  0.1427542E+04  0.7818608E-02  0.8934120E-01
         -4   -1    0    0    0  501 -0.00000000000E+00  0.00000000000E+00  0.71507078552E+03  0.71507078552E+03  0.00000000000E+00 0.  1.
          1   -1    0    0  501    0  0.00000000000E+00 -0.00000000000E+00 -0.71247373474E+03  0.71247373474E+03  0.00000000000E+00 0. -1.
        -24    2    1    2    0    0 -0.55411433739E+02  0.32616159626E+03 -0.26745319480E+03  0.43260293972E+03  0.78500179489E+02 0.  0.
        254    2    1    2    0    0  0.55411433739E+02 -0.32616159626E+03  0.27005024558E+03  0.99494158053E+03  0.89862661861E+03 0.  0.
         23    2    4    4    0    0 -0.20339325049E+03 -0.66118448311E+02 -0.25682996636E+03  0.34658573133E+03  0.91758236642E+02 0.  0.
         23    2    4    4    0    0  0.25880468423E+03 -0.26004314795E+03  0.52688021194E+03  0.64835584920E+03  0.90334080392E+02 0.  0.
          1    1    3    3  502    0 -0.63434363552E+02  0.32042565208E+03 -0.26829574990E+03  0.42270453795E+03  0.00000000000E+00 0. -1.
         -2    1    3    3    0  502  0.80229298126E+01  0.57359441841E+01  0.84255510251E+00  0.98984017681E+01  0.00000000000E+00 0.  1.
         13    1    5    5    0    0 -0.11048812474E+03 -0.69383836488E+02 -0.10043540720E+03  0.16464815059E+03  0.00000000000E+00 0. -1.
        -13    1    5    5    0    0 -0.92905125752E+02  0.32653881768E+01 -0.15639455916E+03  0.18193758075E+03  0.00000000000E+00 0.  1.
          3    1    6    6  503    0  0.12956389726E+03 -0.87811789989E+02  0.27989002466E+03  0.32068074442E+03  0.00000000000E+00 0. -1.
         -3    1    6    6    0  503  0.12924078696E+03 -0.17223135796E+03  0.24699018728E+03  0.32767510478E+03  0.00000000000E+00 0.  1.
<mgrwt>
<rscale>  0 0.14275422E+04</rscale>
<asrwt>0</asrwt>
<pdfrwt beam="1">  1        1 0.10961134E+00 0.14275422E+04</pdfrwt>
<pdfrwt beam="2">  1       -4 0.11001089E+00 0.14275422E+04</pdfrwt>
<totfact> 0.81704231E+00</totfact>
</mgrwt>
</event>
<event>
12    5  0.5428626E-008  0.1640429E+04  0.7818608E-02  0.8796089E-01
          1   -1    0    0  501    0  0.00000000000E+00  0.00000000000E+00  0.29722738291E+04  0.29722738291E+04  0.00000000000E+00 0. -1.
         -2   -1    0    0    0  501 -0.00000000000E+00 -0.00000000000E+00 -0.22634234123E+03  0.22634234123E+03  0.00000000000E+00 0.  1.
        -24    2    1    2    0    0 -0.56460859695E+03 -0.36924534426E+02  0.11090273719E+04  0.12475283083E+04  0.78986577854E+02 0.  0.
        254    2    1    2    0    0  0.56460859695E+03  0.36924534426E+02  0.16369041160E+04  0.19510878620E+04  0.89841108151E+03 0.  0.
         23    2    4    4    0    0  0.18819900008E+03 -0.22132841426E+02 -0.54812071970E+02  0.21451885398E+03  0.84292640140E+02 0.  0.
         23    2    4    4    0    0  0.37640959688E+03  0.59057375853E+02  0.16917161880E+04  0.17365690080E+04  0.92716238048E+02 0.  0.
          1    1    3    3  502    0 -0.51809116035E+03 -0.33048795610E+02  0.10571471964E+04  0.11777397285E+04  0.00000000000E+00 0. -1.
         -2    1    3    3    0  502 -0.46517436604E+02 -0.38757388166E+01  0.51880175470E+02  0.69788579770E+02  0.00000000000E+00 0.  1.
         13    1    5    5    0    0  0.97156927017E+02  0.95763746806E+01 -0.65436365569E+02  0.11752911707E+03  0.00000000000E+00 0. -1.
        -13    1    5    5    0    0  0.91042073058E+02 -0.31709216107E+02  0.10624293599E+02  0.96989736917E+02  0.00000000000E+00 0.  1.
          3    1    6    6  503    0  0.15305660921E+03  0.28105226024E+02  0.49816262079E+03  0.52190250632E+03  0.00000000000E+00 0. -1.
         -3    1    6    6    0  503  0.22335298766E+03  0.30952149829E+02  0.11935535672E+04  0.12146665017E+04  0.00000000000E+00 0.  1.
<mgrwt>
<rscale>  0 0.16404285E+04</rscale>
<asrwt>0</asrwt>
<pdfrwt beam="1">  1        1 0.45727287E+00 0.16404285E+04</pdfrwt>
<pdfrwt beam="2">  1       -2 0.34821901E-01 0.16404285E+04</pdfrwt>
<totfact> 0.40867184E+00</totfact>
</mgrwt>
</event>
<event>
12    5  0.5428626E-008  0.1850253E+04  0.7818608E-02  0.8680022E-01
         -2   -1    0    0    0  501 -0.00000000000E+00  0.00000000000E+00  0.46751637711E+03  0.46751637711E+03  0.00000000000E+00 0.  1.
          1   -1    0    0  501    0  0.00000000000E+00 -0.00000000000E+00 -0.18306513200E+04  0.18306513200E+04  0.00000000000E+00 0. -1.
        -24    2    1    2    0    0 -0.50115366054E+03 -0.25860219109E+03  0.79487902182E+01  0.56978239552E+03  0.80985864587E+02 0.  0.
        254    2    1    2    0    0  0.50115366054E+03  0.25860219109E+03 -0.13710837331E+04  0.17283853015E+04  0.88849032793E+03 0.  0.
         23    2    4    4    0    0 -0.19520691953E+03  0.27108405222E+03 -0.38379958149E+03  0.51686051067E+03  0.90831514012E+02 0.  0.
         23    2    4    4    0    0  0.69636058007E+03 -0.12481861125E+02 -0.98728415157E+03  0.12115247909E+04  0.89378233578E+02 0.  0.
          3    1    3    3  502    0 -0.16506338258E+03 -0.57215411964E+02 -0.25499294097E+02  0.17654953309E+03  0.00000000000E+00 0. -1.
         -4    1    3    3    0  502 -0.33609027797E+03 -0.20138677913E+03  0.33448084315E+02  0.39323286243E+03  0.00000000000E+00 0.  1.
         13    1    5    5    0    0 -0.10553811821E+03  0.21736699502E+03 -0.26522148389E+03  0.35878843409E+03  0.00000000000E+00 0. -1.
        -13    1    5    5    0    0 -0.89668801316E+02  0.53717057199E+02 -0.11857809760E+03  0.15807207658E+03  0.00000000000E+00 0.  1.
          1    1    6    6  503    0  0.28321042764E+03 -0.40145127797E+02 -0.44956666476E+03  0.53285078931E+03  0.00000000000E+00 0. -1.
         -1    1    6    6    0  503  0.41315015244E+03  0.27663266671E+02 -0.53771748681E+03  0.67867400157E+03  0.00000000000E+00 0.  1.
<mgrwt>
<rscale>  0 0.18502535E+04</rscale>
<asrwt>0</asrwt>
<pdfrwt beam="1">  1        1 0.28163866E+00 0.18502535E+04</pdfrwt>
<pdfrwt beam="2">  1       -2 0.71925597E-01 0.18502535E+04</pdfrwt>
<totfact> 0.56105107E+00</totfact>
</mgrwt>
</event>
<event>
12    5  0.5428626E-008  0.1617706E+04  0.7818608E-02  0.8809744E-01
          1   -1    0    0  501    0  0.00000000000E+00  0.00000000000E+00  0.15868411238E+04  0.15868411238E+04  0.00000000000E+00 0. -1.
         -2   -1    0    0    0  501 -0.00000000000E+00 -0.00000000000E+00 -0.41229291925E+03  0.41229291925E+03  0.00000000000E+00 0.  1.
        -24    2    1    2    0    0 -0.18490603170E+02  0.27346300265E+02 -0.27652100033E+03  0.28989578213E+03  0.80535571851E+02 0.  0.
        254    2    1    2    0    0  0.18490603170E+02 -0.27346300265E+02  0.14510692049E+04  0.17092382609E+04  0.90266487286E+03 0.  0.
         23    2    4    4    0    0 -0.28058621080E+03 -0.26367499850E+03  0.31169484600E+03  0.50426709236E+03  0.94225776165E+02 0.  0.
         23    2    4    4    0    0  0.29907681397E+03  0.23632869823E+03  0.11393743589E+04  0.12049711685E+04  0.92105337153E+02 0.  0.
          3    1    3    3  502    0  0.17486783103E+02 -0.17345813521E+02 -0.13426776821E+03  0.13650823569E+03  0.00000000000E+00 0. -1.
         -4    1    3    3    0  502 -0.35977386272E+02  0.44692113785E+02 -0.14225323212E+03  0.15338754645E+03  0.00000000000E+00 0.  1.
         13    1    5    5    0    0 -0.22666669611E+03 -0.19911813750E+03  0.28748107875E+03  0.41673876043E+03  0.00000000000E+00 0. -1.
        -13    1    5    5    0    0 -0.53919514687E+02 -0.64556860998E+02  0.24213767249E+02  0.87528331929E+02  0.00000000000E+00 0.  1.
          1    1    6    6  503    0  0.17286141353E+03  0.10455478866E+03  0.47918601562E+03  0.52003077763E+03  0.00000000000E+00 0. -1.
         -1    1    6    6    0  503  0.12621540044E+03  0.13177390957E+03  0.66018834325E+03  0.68494039092E+03  0.00000000000E+00 0.  1.
<mgrwt>
<rscale>  0 0.16177062E+04</rscale>
<asrwt>0</asrwt>
<pdfrwt beam="1">  1        1 0.24412940E+00 0.16177062E+04</pdfrwt>
<pdfrwt beam="2">  1       -2 0.63429681E-01 0.16177062E+04</pdfrwt>
<totfact> 0.11022924E+01</totfact>
</mgrwt>
</event>
<event>
12    5  0.5428626E-008  0.1984501E+04  0.7818608E-02  0.8613901E-01
          1   -1    0    0  501    0  0.00000000000E+00  0.00000000000E+00  0.10449923912E+04  0.10449923912E+04  0.00000000000E+00 0. -1.
         -2   -1    0    0    0  501 -0.00000000000E+00 -0.00000000000E+00 -0.94217052664E+03  0.94217052664E+03  0.00000000000E+00 0.  1.
        -24    2    1    2    0    0  0.69038473774E+03  0.33117557515E+03 -0.15608113431E+03  0.78620871059E+03  0.86339263641E+02 0.  0.
        254    2    1    2    0    0 -0.69038473774E+03 -0.33117557515E+03  0.25890299890E+03  0.12009542073E+04  0.88822964230E+03 0.  0.
         23    2    4    4    0    0 -0.71487778891E+02 -0.48203098370E+03  0.25264000029E+03  0.55635177771E+03  0.90752184767E+02 0.  0.
         23    2    4    4    0    0 -0.61889695885E+03  0.15085540856E+03  0.62629986157E+01  0.64460242956E+03  0.98398511610E+02 0.  0.
          1    1    3    3  502    0  0.20674921472E+02  0.28155235701E+02 -0.94752078706E+00  0.34943775853E+02  0.00000000000E+00 0. -1.
         -4    1    3    3    0  502  0.66970981627E+03  0.30302033944E+03 -0.15513361352E+03  0.75126493474E+03  0.00000000000E+00 0.  1.
         13    1    5    5    0    0 -0.51356804253E+02 -0.42846339161E+03  0.25075439928E+03  0.49909534966E+03  0.00000000000E+00 0.  1.
        -13    1    5    5    0    0 -0.20130974638E+02 -0.53567592091E+02  0.18856010081E+01  0.57256428054E+02  0.00000000000E+00 0. -1.
          3    1    6    6  503    0 -0.14583159938E+03  0.58298859988E+02  0.37797682491E+02  0.16153723179E+03  0.00000000000E+00 0. -1.
         -3    1    6    6    0  503 -0.47306535946E+03  0.92556548570E+02 -0.31534683875E+02  0.48306519777E+03  0.00000000000E+00 0.  1.
<mgrwt>
<rscale>  0 0.19845010E+04</rscale>
<asrwt>0</asrwt>
<pdfrwt beam="1">  1        1 0.16076806E+00 0.19845010E+04</pdfrwt>
<pdfrwt beam="2">  1       -2 0.14494931E+00 0.19845010E+04</pdfrwt>
<totfact> 0.37293317E+00</totfact>
</mgrwt>
</event>
<event>
12    5  0.5428626E-008  0.1549643E+04  0.7818608E-02  0.8852096E-01
         -2   -1    0    0    0  501 -0.00000000000E+00  0.00000000000E+00  0.41047170889E+03  0.41047170889E+03  0.00000000000E+00 0.  1.
          1   -1    0    0  501    0  0.00000000000E+00 -0.00000000000E+00 -0.14625806496E+04  0.14625806496E+04  0.00000000000E+00 0. -1.
        -24    2    1    2    0    0  0.93662776637E+01  0.20205405592E+03  0.20916395851E+03  0.30143381748E+03  0.78735100907E+02 0.  0.
        254    2    1    2    0    0 -0.93662776637E+01 -0.20205405592E+03 -0.12612728992E+04  0.15716185410E+04  0.91556646043E+03 0.  0.
         23    2    4    4    0    0  0.21523840554E+03  0.55951328546E+01 -0.12287244987E+04  0.12510788709E+04  0.95265789866E+02 0.  0.
         23    2    4    4    0    0 -0.22460468321E+03 -0.20764918877E+03 -0.32548400485E+02  0.32053967010E+03  0.90115661344E+02 0.  0.
          3    1    3    3  502    0 -0.34133863900E+02  0.10887458040E+03  0.10496971772E+03  0.15504011274E+03  0.00000000000E+00 0. -1.
         -4    1    3    3    0  502  0.43500141564E+02  0.93179475519E+02  0.10419424079E+03  0.14639370474E+03  0.00000000000E+00 0.  1.
         13    1    5    5    0    0  0.92233670677E+01 -0.73373132975E+01 -0.27588060097E+03  0.27613223763E+03  0.00000000000E+00 0.  1.
        -13    1    5    5    0    0  0.20601503847E+03  0.12932446152E+02 -0.95284389772E+03  0.97494663324E+03  0.00000000000E+00 0. -1.
          2    1    6    6  503    0 -0.22666408712E+03 -0.17601992374E+03 -0.32720570988E+02  0.28884296375E+03  0.00000000000E+00 0. -1.
         -2    1    6    6    0  503  0.20594039096E+01 -0.31629265034E+02  0.17217050309E+00  0.31696706355E+02  0.00000000000E+00 0.  1.
<mgrwt>
<rscale>  0 0.15496425E+04</rscale>
<asrwt>0</asrwt>
<pdfrwt beam="1">  1        1 0.22501241E+00 0.15496425E+04</pdfrwt>
<pdfrwt beam="2">  1       -2 0.63149494E-01 0.15496425E+04</pdfrwt>
<totfact> 0.13638227E+01</totfact>
</mgrwt>
</event>
<event>
12    5  0.5428626E-008  0.1543350E+04  0.7818608E-02  0.8856127E-01
          1   -1    0    0  501    0  0.00000000000E+00  0.00000000000E+00  0.44559073988E+03  0.44559073988E+03  0.00000000000E+00 0. -1.
         -2   -1    0    0    0  501 -0.00000000000E+00 -0.00000000000E+00 -0.13363878024E+04  0.13363878024E+04  0.00000000000E+00 0.  1.
        -24    2    1    2    0    0 -0.23052863684E+03  0.44855153338E+03 -0.21861950938E+03  0.55515995193E+03  0.77885504728E+02 0.  0.
        254    2    1    2    0    0  0.23052863684E+03 -0.44855153338E+03 -0.67217755313E+03  0.12268185903E+04  0.89382283489E+03 0.  0.
         23    2    4    4    0    0  0.90992519931E+02 -0.29972680516E+03 -0.86871017674E+03  0.92796777687E+03  0.91383955500E+02 0.  0.
         23    2    4    4    0    0  0.13953611691E+03 -0.14882472822E+03  0.19653262361E+03  0.29885081347E+03  0.95223993400E+02 0.  0.
          3    1    3    3  502    0 -0.13690212779E+03  0.27916069263E+03 -0.93429140842E+02  0.32465657126E+03  0.00000000000E+00 0. -1.
         -4    1    3    3    0  502 -0.93626509046E+02  0.16939084075E+03 -0.12519036854E+03  0.23050338067E+03  0.00000000000E+00 0.  1.
         13    1    5    5    0    0  0.48761851922E+02 -0.26962443867E+03 -0.74717233578E+03  0.79582759156E+03  0.00000000000E+00 0.  1.
        -13    1    5    5    0    0  0.42230668010E+02 -0.30102366486E+02 -0.12153784096E+03  0.13214018531E+03  0.00000000000E+00 0. -1.
          1    1    6    6  503    0  0.72158451672E+00 -0.15294032472E+02  0.62109625933E+02  0.63969006143E+02  0.00000000000E+00 0. -1.
         -1    1    6    6    0  503  0.13881453239E+03 -0.13353069575E+03  0.13442299768E+03  0.23488180733E+03  0.00000000000E+00 0.  1.
<mgrwt>
<rscale>  0 0.15433496E+04</rscale>
<asrwt>0</asrwt>
<pdfrwt beam="1">  1        1 0.68552423E-01 0.15433496E+04</pdfrwt>
<pdfrwt beam="2">  1       -2 0.20559812E+00 0.15433496E+04</pdfrwt>
<totfact> 0.53428414E+00</totfact>
</mgrwt>
</event>
<event>
12    5  0.5428626E-008  0.1224042E+04  0.7818608E-02  0.9092069E-01
         -4   -1    0    0    0  501 -0.00000000000E+00  0.00000000000E+00  0.22525358134E+04  0.22525358134E+04  0.00000000000E+00 0.  1.
          3   -1    0    0  501    0  0.00000000000E+00 -0.00000000000E+00 -0.16628796863E+03  0.16628796863E+03  0.00000000000E+00 0. -1.
        -24    2    1    2    0    0  0.24268147032E+02 -0.35658883337E+02 -0.48266298109E+02  0.10280639792E+03  0.79868773615E+02 0.  0.
        254    2    1    2    0    0 -0.24268147032E+02  0.35658883337E+02  0.21345141429E+04  0.23160173841E+04  0.89773347853E+03 0.  0.
         23    2    4    4    0    0  0.40089426082E+03 -0.71620805016E+02  0.13457190935E+04  0.14089745169E+04  0.91670947722E+02 0.  0.
         23    2    4    4    0    0 -0.42516240785E+03  0.10727968835E+03  0.78879504938E+03  0.90704286720E+03  0.90868742855E+02 0.  0.
          1    1    3    3  502    0 -0.98936970906E-01 -0.20254442242E+02 -0.65947669427E+02  0.68988023033E+02  0.00000000000E+00 0. -1.
         -2    1    3    3    0  502  0.24367084003E+02 -0.15404441094E+02  0.17681371319E+02  0.33818374887E+02  0.00000000000E+00 0.  1.
         13    1    5    5    0    0  0.72241503390E+02 -0.19844019808E+02  0.38650046729E+03  0.39369433721E+03  0.00000000000E+00 0. -1.
        -13    1    5    5    0    0  0.32865275743E+03 -0.51776785208E+02  0.95921862621E+03  0.10152801797E+04  0.00000000000E+00 0.  1.
          2    1    6    6  503    0 -0.39751524695E+03  0.10501915301E+03  0.77187485319E+03  0.87455027474E+03  0.00000000000E+00 0.  1.
         -2    1    6    6    0  503 -0.27647160900E+02  0.22605353450E+01  0.16920196195E+02  0.32492592466E+02  0.00000000000E+00 0. -1.
<mgrwt>
<rscale>  0 0.12240418E+04</rscale>
<asrwt>0</asrwt>
<pdfrwt beam="1">  1        3 0.25582766E-01 0.12240418E+04</pdfrwt>
<pdfrwt beam="2">  1       -4 0.34654395E+00 0.12240418E+04</pdfrwt>
<totfact> 0.52393389E-01</totfact>
</mgrwt>
</event>
<event>
12    5  0.5428626E-008  0.1467087E+04  0.7818608E-02  0.8906640E-01
         -2   -1    0    0    0  501 -0.00000000000E+00  0.00000000000E+00  0.23417927806E+03  0.23417927806E+03  0.00000000000E+00 0.  1.
          1   -1    0    0  501    0  0.00000000000E+00 -0.00000000000E+00 -0.22977521837E+04  0.22977521837E+04  0.00000000000E+00 0. -1.
        -24    2    1    2    0    0  0.40200413955E+03 -0.20139464678E+03 -0.64802294408E+03  0.79273680870E+03  0.79566197931E+02 0.  0.
        254    2    1    2    0    0 -0.40200413955E+03  0.20139464678E+03 -0.14155499615E+04  0.17391946530E+04  0.90490287632E+03 0.  0.
         23    2    4    4    0    0 -0.19539682013E+02  0.48884089770E+03 -0.90983697550E+03  0.10371255228E+04  0.92080430308E+02 0.  0.
         23    2    4    4    0    0 -0.38246445753E+03 -0.28744625092E+03 -0.50571298604E+03  0.70206913022E+03  0.90835185480E+02 0.  0.
          1    1    3    3  502    0  0.37180681118E+03 -0.19858091661E+03 -0.56921048492E+03  0.70829037931E+03  0.00000000000E+00 0. -1.
         -2    1    3    3    0  502  0.30197328370E+02 -0.28137301667E+01 -0.78812459166E+02  0.84446429397E+02  0.00000000000E+00 0.  1.
         13    1    5    5    0    0 -0.23322257162E+02  0.70623521259E+02 -0.89863936224E+02  0.11664963124E+03  0.00000000000E+00 0. -1.
        -13    1    5    5    0    0  0.37825751483E+01  0.41821737644E+03 -0.81997303928E+03  0.92047589157E+03  0.00000000000E+00 0.  1.
          2    1    6    6  503    0 -0.19491728144E+03 -0.19025202871E+03 -0.32530719787E+03  0.42427980629E+03  0.00000000000E+00 0. -1.
         -2    1    6    6    0  503 -0.18754717609E+03 -0.97194222204E+02 -0.18040578817E+03  0.27778932394E+03  0.00000000000E+00 0.  1.
<mgrwt>
<rscale>  0 0.14670868E+04</rscale>
<asrwt>0</asrwt>
<pdfrwt beam="1">  1        1 0.35350033E+00 0.14670868E+04</pdfrwt>
<pdfrwt beam="2">  1       -2 0.36027582E-01 0.14670868E+04</pdfrwt>
<totfact> 0.11547648E+01</totfact>
</mgrwt>
</event>
<event>
12    5  0.5428626E-008  0.1578979E+04  0.7818608E-02  0.8833567E-01
          3   -1    0    0  501    0  0.00000000000E+00  0.00000000000E+00  0.74964534830E+03  0.74964534830E+03  0.00000000000E+00 0. -1.
         -4   -1    0    0    0  501 -0.00000000000E+00 -0.00000000000E+00 -0.83145109594E+03  0.83145109594E+03  0.00000000000E+00 0.  1.
        -24    2    1    2    0    0  0.35267143220E+03 -0.39338372282E+03  0.11101531265E+03  0.54586415494E+03  0.80717925731E+02 0.  0.
        254    2    1    2    0    0 -0.35267143220E+03  0.39338372282E+03 -0.19282106030E+03  0.10352322893E+04  0.86913637540E+03 0.  0.
         23    2    4    4    0    0 -0.29349782840E+03  0.31490686007E+03 -0.52010863811E+03  0.68142698952E+03  0.92317066739E+02 0.  0.
         23    2    4    4    0    0 -0.59173603802E+02  0.78476862749E+02  0.32728757781E+03  0.35380529978E+03  0.91656413807E+02 0.  0.
          1    1    3    3  502    0  0.31501675027E+03 -0.36505776986E+03  0.78300866630E+02  0.48850153940E+03  0.00000000000E+00 0. -1.
         -2    1    3    3    0  502  0.37654681933E+02 -0.28325952959E+02  0.32714446023E+02  0.57362615536E+02  0.00000000000E+00 0.  1.
         13    1    5    5    0    0 -0.11950029800E+03  0.70966280887E+02 -0.13815504706E+03  0.19596773019E+03  0.00000000000E+00 0. -1.
        -13    1    5    5    0    0 -0.17399753040E+03  0.24394057918E+03 -0.38195359104E+03  0.48545925933E+03  0.00000000000E+00 0.  1.
          2    1    6    6  503    0 -0.32689745152E+02 -0.13770121323E+02  0.58693176785E+02  0.68579331292E+02  0.00000000000E+00 0. -1.
         -2    1    6    6    0  503 -0.26483858649E+02  0.92246984072E+02  0.26859440102E+03  0.28522596849E+03  0.00000000000E+00 0.  1.
<mgrwt>
<rscale>  0 0.15789787E+04</rscale>
<asrwt>0</asrwt>
<pdfrwt beam="1">  1        3 0.11533005E+00 0.15789787E+04</pdfrwt>
<pdfrwt beam="2">  1       -4 0.12791555E+00 0.15789787E+04</pdfrwt>
<totfact> 0.61798402E-01</totfact>
</mgrwt>
</event>
<event>
12    5  0.5428626E-008  0.2099254E+04  0.7818608E-02  0.8561572E-01
         -2   -1    0    0    0  501 -0.00000000000E+00  0.00000000000E+00  0.56006171987E+03  0.56006171987E+03  0.00000000000E+00 0.  1.
          1   -1    0    0  501    0  0.00000000000E+00 -0.00000000000E+00 -0.19671341137E+04  0.19671341137E+04  0.00000000000E+00 0. -1.
        -24    2    1    2    0    0  0.46261919805E+03 -0.18587078857E+03 -0.14049131375E+04  0.14945353150E+04  0.10625634794E+03 0.  0.
        254    2    1    2    0    0 -0.46261919805E+03  0.18587078857E+03 -0.21592564189E+01  0.10326605186E+04  0.90433324164E+03 0.  0.
         23    2    4    4    0    0 -0.20508914854E+03  0.94139342712E+02 -0.44295898319E+03  0.50523616735E+03  0.90150703367E+02 0.  0.
         23    2    4    4    0    0 -0.25753004951E+03  0.91731445856E+02  0.44079972677E+03  0.52742435129E+03  0.95580660482E+02 0.  0.
          3    1    3    3  502    0  0.28039021220E+03 -0.15576876972E+03 -0.79492906138E+03  0.85720172267E+03  0.00000000000E+00 0. -1.
         -4    1    3    3    0  502  0.18222898585E+03 -0.30102018845E+02 -0.60998407608E+03  0.63733359231E+03  0.00000000000E+00 0.  1.
         13    1    5    5    0    0 -0.15937093106E+03  0.96062664039E+02 -0.40528859472E+03  0.44596633740E+03  0.00000000000E+00 0. -1.
        -13    1    5    5    0    0 -0.45718217479E+02 -0.19233213276E+01 -0.37670388469E+02  0.59269829946E+02  0.00000000000E+00 0.  1.
          2    1    6    6  503    0 -0.16876631885E+03  0.97383143874E+02  0.34831951808E+03  0.39911406110E+03  0.00000000000E+00 0. -1.
         -2    1    6    6    0  503 -0.88763730662E+02 -0.56516980184E+01  0.92480208686E+02  0.12831029020E+03  0.00000000000E+00 0.  1.
<mgrwt>
<rscale>  0 0.20992537E+04</rscale>
<asrwt>0</asrwt>
<pdfrwt beam="1">  1        1 0.30263603E+00 0.20992537E+04</pdfrwt>
<pdfrwt beam="2">  1       -2 0.86163339E-01 0.20992537E+04</pdfrwt>
<totfact> 0.29599665E+00</totfact>
</mgrwt>
</event>
<event>
12    5  0.5428626E-008  0.1321898E+04  0.7818608E-02  0.9012378E-01
         -2   -1    0    0    0  501 -0.00000000000E+00  0.00000000000E+00  0.58559783344E+03  0.58559783344E+03  0.00000000000E+00 0.  1.
          1   -1    0    0  501    0  0.00000000000E+00 -0.00000000000E+00 -0.74599544296E+03  0.74599544296E+03  0.00000000000E+00 0. -1.
        -24    2    1    2    0    0  0.18279884972E+03 -0.29127641407E+03 -0.10096494756E+03  0.36709475654E+03  0.79418327810E+02 0.  0.
        254    2    1    2    0    0 -0.18279884972E+03  0.29127641407E+03 -0.59432661966E+02  0.96449851986E+03  0.89914836631E+03 0.  0.
         23    2    4    4    0    0  0.71687874584E+02  0.36884290239E+03  0.31331115881E+03  0.49779626275E+03  0.91940192307E+02 0.  0.
         23    2    4    4    0    0 -0.25448672430E+03 -0.77566488322E+02 -0.37274382078E+03  0.46670225711E+03  0.89961035478E+02 0.  0.
          3    1    3    3  502    0  0.16777012573E+03 -0.29317897058E+03 -0.96756758023E+02  0.35137244357E+03  0.00000000000E+00 0. -1.
         -4    1    3    3    0  502  0.15028723989E+02  0.19025565080E+01 -0.42081895392E+01  0.15722312972E+02  0.00000000000E+00 0.  1.
         13    1    5    5    0    0  0.86870876862E+02  0.35240960903E+03  0.28367607374E+03  0.46066386508E+03  0.00000000000E+00 0.  1.
        -13    1    5    5    0    0 -0.15183002278E+02  0.16433293368E+02  0.29635085076E+02  0.37132397668E+02  0.00000000000E+00 0. -1.
          3    1    6    6  503    0 -0.64976761979E+02  0.14872444273E+02 -0.61056696917E+02  0.90394078535E+02  0.00000000000E+00 0. -1.
         -3    1    6    6    0  503 -0.18950996232E+03 -0.92438932595E+02 -0.31168712386E+03  0.37630817857E+03  0.00000000000E+00 0.  1.
<mgrwt>
<rscale>  0 0.13218976E+04</rscale>
<asrwt>0</asrwt>
<pdfrwt beam="1">  1        1 0.11476853E+00 0.13218976E+04</pdfrwt>
<pdfrwt beam="2">  1       -2 0.90091975E-01 0.13218976E+04</pdfrwt>
<totfact> 0.22375439E+01</totfact>
</mgrwt>
</event>
<event>
12    5  0.5428626E-008  0.1237951E+04  0.7818608E-02  0.9080272E-01
         -2   -1    0    0    0  501 -0.00000000000E+00  0.00000000000E+00  0.32041321278E+03  0.32041321278E+03  0.00000000000E+00 0.  1.
          1   -1    0    0  501    0  0.00000000000E+00 -0.00000000000E+00 -0.11957385352E+04  0.11957385352E+04  0.00000000000E+00 0. -1.
        -24    2    1    2    0    0 -0.22051373682E+02 -0.19970206442E+03 -0.45024978720E+03  0.49919290029E+03  0.78112119495E+02 0.  0.
        254    2    1    2    0    0  0.22051373682E+02  0.19970206442E+03 -0.42507553524E+03  0.10169588477E+04  0.90174769733E+03 0.  0.
         23    2    4    4    0    0  0.39391731060E+03 -0.11908739730E+03 -0.23725073008E+03  0.48462788606E+03  0.96039696142E+02 0.  0.
         23    2    4    4    0    0 -0.37186593692E+03  0.31878946173E+03 -0.18782480516E+03  0.53233096164E+03  0.90482591356E+02 0.  0.
          1    1    3    3  502    0 -0.22676907191E+02 -0.80799161594E+02 -0.27416445298E+03  0.28672093386E+03  0.00000000000E+00 0. -1.
         -2    1    3    3    0  502  0.62553350818E+00 -0.11890290283E+03 -0.17608533422E+03  0.21247196644E+03  0.00000000000E+00 0.  1.
         13    1    5    5    0    0  0.18574458060E+03 -0.79144509705E+02 -0.16478633735E+03  0.26061358294E+03  0.00000000000E+00 0. -1.
        -13    1    5    5    0    0  0.20817273000E+03 -0.39942887597E+02 -0.72464392732E+02  0.22401430311E+03  0.00000000000E+00 0.  1.
          2    1    6    6  503    0 -0.72042955076E+01 -0.56630267975E+01  0.44436696899E+00  0.91743778139E+01  0.00000000000E+00 0. -1.
         -2    1    6    6    0  503 -0.36466164141E+03  0.32445248852E+03 -0.18826917213E+03  0.52315658383E+03  0.00000000000E+00 0.  1.
<mgrwt>
<rscale>  0 0.12379506E+04</rscale>
<asrwt>0</asrwt>
<pdfrwt beam="1">  1        1 0.18395978E+00 0.12379506E+04</pdfrwt>
<pdfrwt beam="2">  1       -2 0.49294340E-01 0.12379506E+04</pdfrwt>
<totfact> 0.36289759E+01</totfact>
</mgrwt>
</event>
<event>
12    5  0.5428626E-008  0.1349593E+04  0.7818608E-02  0.8991136E-01
          1   -1    0    0  501    0  0.00000000000E+00  0.00000000000E+00  0.27987257572E+04  0.27987257572E+04  0.00000000000E+00 0. -1.
         -2   -1    0    0    0  501 -0.00000000000E+00 -0.00000000000E+00 -0.16269919375E+03  0.16269919375E+03  0.00000000000E+00 0.  1.
        -24    2    1    2    0    0  0.22129621779E+03  0.13115982359E+03  0.15417329302E+03  0.31042405229E+03  0.80117243007E+02 0.  0.
        254    2    1    2    0    0 -0.22129621779E+03 -0.13115982359E+03  0.24818532705E+04  0.26510008987E+04  0.89556417603E+03 0.  0.
         23    2    4    4    0    0  0.31892835948E+03  0.21231216324E+02  0.12610878776E+04  0.13043917778E+04  0.94494507319E+02 0.  0.
         23    2    4    4    0    0 -0.54022457726E+03 -0.15239103992E+03  0.12207653929E+04  0.13466091209E+04  0.89567612094E+02 0.  0.
          1    1    3    3  502    0  0.21367185440E+03  0.10395567888E+03  0.15202803142E+03  0.28209035232E+03  0.00000000000E+00 0. -1.
         -2    1    3    3    0  502  0.76243633866E+01  0.27204144714E+02  0.21452616016E+01  0.28333699971E+02  0.00000000000E+00 0.  1.
         13    1    5    5    0    0  0.31721036086E+03  0.52941673014E+01  0.11968834375E+04  0.12382166225E+04  0.00000000000E+00 0. -1.
        -13    1    5    5    0    0  0.17179986179E+01  0.15937049023E+02  0.64204440098E+02  0.66175155301E+02  0.00000000000E+00 0.  1.
          2    1    6    6  503    0 -0.48291005799E+03 -0.13761640310E+03  0.10137021474E+04  0.11312525987E+04  0.00000000000E+00 0. -1.
         -2    1    6    6    0  503 -0.57314519275E+02 -0.14774636814E+02  0.20706324548E+03  0.21535652217E+03  0.00000000000E+00 0.  1.
<mgrwt>
<rscale>  0 0.13495932E+04</rscale>
<asrwt>0</asrwt>
<pdfrwt beam="1">  1        1 0.43057316E+00 0.13495932E+04</pdfrwt>
<pdfrwt beam="2">  1       -2 0.25030647E-01 0.13495932E+04</pdfrwt>
<totfact> 0.10344003E+01</totfact>
</mgrwt>
</event>
<event>
12    5  0.5428626E-008  0.1566771E+04  0.7818608E-02  0.8841226E-01
          1   -1    0    0  501    0  0.00000000000E+00  0.00000000000E+00  0.20628891320E+04  0.20628891320E+04  0.00000000000E+00 0. -1.
         -2   -1    0    0    0  501 -0.00000000000E+00 -0.00000000000E+00 -0.29749209512E+03  0.29749209512E+03  0.00000000000E+00 0.  1.
        -24    2    1    2    0    0 -0.33046362654E+03 -0.33712865450E+03  0.25968788034E+03  0.54475255851E+03  0.80346852167E+02 0.  0.
        254    2    1    2    0    0  0.33046362654E+03  0.33712865450E+03  0.15057091565E+04  0.18156286686E+04  0.89804535521E+03 0.  0.
         23    2    4    4    0    0  0.61803764296E+03  0.26407918270E+03  0.82674198777E+03  0.10691535969E+04  0.88762359559E+02 0.  0.
         23    2    4    4    0    0 -0.28757401642E+03  0.73049471803E+02  0.67896716873E+03  0.74647507171E+03  0.90518375108E+02 0.  0.
          1    1    3    3  502    0 -0.22836649812E+03 -0.22851941562E+03  0.21878833674E+03  0.39018036480E+03  0.00000000000E+00 0. -1.
         -2    1    3    3    0  502 -0.10209712842E+03 -0.10860923888E+03  0.40899543601E+02  0.15457219371E+03  0.00000000000E+00 0.  1.
         13    1    5    5    0    0  0.44257325911E+03  0.14449852410E+03  0.57209129532E+03  0.73759024080E+03  0.00000000000E+00 0.  1.
        -13    1    5    5    0    0  0.17546438385E+03  0.11958065860E+03  0.25465069245E+03  0.33156335605E+03  0.00000000000E+00 0. -1.
          1    1    6    6  503    0  0.17539359709E+01 -0.91744885636E+01  0.23558078855E+02  0.25342269258E+02  0.00000000000E+00 0. -1.
         -1    1    6    6    0  503 -0.28932795239E+03  0.82223960366E+02  0.65540908987E+03  0.72113280246E+03  0.00000000000E+00 0.  1.
<mgrwt>
<rscale>  0 0.15667715E+04</rscale>
<asrwt>0</asrwt>
<pdfrwt beam="1">  1        1 0.31736755E+00 0.15667715E+04</pdfrwt>
<pdfrwt beam="2">  1       -2 0.45768016E-01 0.15667715E+04</pdfrwt>
<totfact> 0.10334400E+01</totfact>
</mgrwt>
</event>
<event>
12    5  0.5428626E-008  0.1162431E+04  0.7818608E-02  0.9146391E-01
          1   -1    0    0  501    0  0.00000000000E+00  0.00000000000E+00  0.57413427678E+03  0.57413427678E+03  0.00000000000E+00 0. -1.
         -2   -1    0    0    0  501 -0.00000000000E+00 -0.00000000000E+00 -0.58838441006E+03  0.58838441006E+03  0.00000000000E+00 0.  1.
        -24    2    1    2    0    0  0.18485687422E+03 -0.11579892887E+03 -0.28278677549E+02  0.23409083043E+03  0.80108535188E+02 0.  0.
        254    2    1    2    0    0 -0.18485687422E+03  0.11579892887E+03  0.14028544279E+02  0.92842785641E+03  0.90233033232E+03 0.  0.
         23    2    4    4    0    0  0.26050706595E+03  0.87279606310E+02  0.27880656607E+03  0.40142101899E+03  0.89017257423E+02 0.  0.
         23    2    4    4    0    0 -0.44536394017E+03  0.28519322564E+02 -0.26477802179E+03  0.52700683742E+03  0.92013123555E+02 0.  0.
          1    1    3    3  502    0  0.61882760289E+02 -0.59682490508E+02  0.23840782665E+02  0.89218039724E+02  0.00000000000E+00 0. -1.
         -2    1    3    3    0  502  0.12297411393E+03 -0.56116438366E+02 -0.52119460214E+02  0.14487279070E+03  0.00000000000E+00 0.  1.
         13    1    5    5    0    0  0.20406012127E+03  0.45687682851E+02  0.24919544494E+03  0.32530949453E+03  0.00000000000E+00 0.  1.
        -13    1    5    5    0    0  0.56446944677E+02  0.41591923459E+02  0.29611121130E+02  0.76111524456E+02  0.00000000000E+00 0. -1.
          4    1    6    6  503    0 -0.42531842114E+03  0.18478383135E+02 -0.26982440481E+03  0.50402620908E+03  0.00000000000E+00 0. -1.
         -4    1    6    6    0  503 -0.20045519025E+02  0.10040939429E+02  0.50463830182E+01  0.22980628346E+02  0.00000000000E+00 0.  1.
<mgrwt>
<rscale>  0 0.11624313E+04</rscale>
<asrwt>0</asrwt>
<pdfrwt beam="1">  1        1 0.88328350E-01 0.11624313E+04</pdfrwt>
<pdfrwt beam="2">  1       -2 0.90520679E-01 0.11624313E+04</pdfrwt>
<totfact> 0.33051311E+01</totfact>
</mgrwt>
</event>
<event>
12    5  0.5428626E-008  0.1257647E+04  0.7818608E-02  0.9063843E-01
          1   -1    0    0  501    0  0.00000000000E+00  0.00000000000E+00  0.57476068946E+03  0.57476068946E+03  0.00000000000E+00 0. -1.
         -2   -1    0    0    0  501 -0.00000000000E+00 -0.00000000000E+00 -0.68797134718E+03  0.68797134718E+03  0.00000000000E+00 0.  1.
        -24    2    1    2    0    0  0.34942994052E+02 -0.56347845393E+02  0.26671590012E+03  0.28661362695E+03  0.81325932275E+02 0.  0.
        254    2    1    2    0    0 -0.34942994052E+02  0.56347845393E+02 -0.37992655784E+03  0.97611840970E+03  0.89669775727E+03 0.  0.
         23    2    4    4    0    0  0.40182143915E+03  0.15652441898E+03 -0.15954754932E+03  0.46838912308E+03  0.89289346716E+02 0.  0.
         23    2    4    4    0    0 -0.43676443320E+03 -0.10017657358E+03 -0.22037900852E+03  0.50772928662E+03  0.91780199874E+02 0.  0.
          3    1    3    3  502    0  0.53340313086E+02 -0.63391504310E+02  0.23603948013E+03  0.25015656697E+03  0.00000000000E+00 0. -1.
         -4    1    3    3    0  502 -0.18397319033E+02  0.70436589173E+01  0.30676419989E+02  0.36457059974E+02  0.00000000000E+00 0.  1.
         13    1    5    5    0    0  0.11078914718E+03  0.80997739666E+02 -0.27355200564E+02  0.13993990125E+03  0.00000000000E+00 0.  1.
        -13    1    5    5    0    0  0.29103229196E+03  0.75526679310E+02 -0.13219234875E+03  0.32844922183E+03  0.00000000000E+00 0. -1.
          4    1    6    6  503    0 -0.35337990450E+03 -0.83901073754E+02 -0.13555444041E+03  0.38767480366E+03  0.00000000000E+00 0. -1.
         -4    1    6    6    0  503 -0.83384528697E+02 -0.16275499829E+02 -0.84824568118E+02  0.12005448295E+03  0.00000000000E+00 0.  1.
<mgrwt>
<rscale>  0 0.12576468E+04</rscale>
<asrwt>0</asrwt>
<pdfrwt beam="1">  1        1 0.88424722E-01 0.12576468E+04</pdfrwt>
<pdfrwt beam="2">  1       -2 0.10584175E+00 0.12576468E+04</pdfrwt>
<totfact> 0.22657776E+01</totfact>
</mgrwt>
</event>
<event>
12    5  0.5428626E-008  0.1088973E+04  0.7818608E-02  0.9216007E-01
          1   -1    0    0  501    0  0.00000000000E+00  0.00000000000E+00  0.16225380230E+04  0.16225380230E+04  0.00000000000E+00 0. -1.
         -2   -1    0    0    0  501 -0.00000000000E+00 -0.00000000000E+00 -0.18271703368E+03  0.18271703368E+03  0.00000000000E+00 0.  1.
        -24    2    1    2    0    0 -0.92948278359E+02  0.64062204894E+02  0.42754019651E+03  0.44900724357E+03  0.77932898033E+02 0.  0.
        254    2    1    2    0    0  0.92948278359E+02 -0.64062204894E+02  0.10122807928E+04  0.13562478131E+04  0.89551793871E+03 0.  0.
         23    2    4    4    0    0 -0.14500765774E+03  0.30738257659E+03  0.76621892061E+03  0.84282888775E+03  0.88078547525E+02 0.  0.
         23    2    4    4    0    0  0.23795593610E+03 -0.37144478149E+03  0.24606187221E+03  0.51341892537E+03  0.91968987991E+02 0.  0.
          1    1    3    3  502    0 -0.97784681140E+02  0.29422092243E+02  0.32516015689E+03  0.34081759199E+03  0.00000000000E+00 0. -1.
         -2    1    3    3    0  502  0.48364027809E+01  0.34640112651E+02  0.10238003962E+03  0.10818965158E+03  0.00000000000E+00 0.  1.
         13    1    5    5    0    0 -0.14747290600E+03  0.29671102509E+03  0.68558140925E+03  0.76145095648E+03  0.00000000000E+00 0.  1.
        -13    1    5    5    0    0  0.24652482546E+01  0.10671551507E+02  0.80637511357E+02  0.81377931274E+02  0.00000000000E+00 0. -1.
          4    1    6    6  503    0  0.37516662189E+02 -0.23998718032E+02  0.49970859794E+02  0.66936725626E+02  0.00000000000E+00 0. -1.
         -4    1    6    6    0  503  0.20043927391E+03 -0.34744606346E+03  0.19609101241E+03  0.44648219974E+03  0.00000000000E+00 0.  1.
<mgrwt>
<rscale>  0 0.10889726E+04</rscale>
<asrwt>0</asrwt>
<pdfrwt beam="1">  1        1 0.24962122E+00 0.10889726E+04</pdfrwt>
<pdfrwt beam="2">  1       -2 0.28110314E-01 0.10889726E+04</pdfrwt>
<totfact> 0.54556700E+01</totfact>
</mgrwt>
</event>
<event>
12    5  0.5428626E-008  0.2154170E+04  0.7818608E-02  0.8537749E-01
          1   -1    0    0  501    0  0.00000000000E+00  0.00000000000E+00  0.23193898829E+04  0.23193898829E+04  0.00000000000E+00 0. -1.
         -2   -1    0    0    0  501 -0.00000000000E+00 -0.00000000000E+00 -0.50017978711E+03  0.50017978711E+03  0.00000000000E+00 0.  1.
        -24    2    1    2    0    0 -0.77634835109E+03  0.14279975493E+03  0.22452044138E+03  0.82462240356E+03  0.80524205016E+02 0.  0.
        254    2    1    2    0    0  0.77634835109E+03 -0.14279975493E+03  0.15946896544E+04  0.19949472664E+04  0.90203712215E+03 0.  0.
         23    2    4    4    0    0  0.56436158096E+03 -0.22235650013E+02  0.24984092459E+03  0.62522351177E+03  0.97393705508E+02 0.  0.
         23    2    4    4    0    0  0.21198677013E+03 -0.12056410492E+03  0.13448487298E+04  0.13697237546E+04  0.89727163737E+02 0.  0.
          1    1    3    3  502    0 -0.81977847305E+02 -0.96461093614E+01  0.21694344704E+02  0.85346701557E+02  0.00000000000E+00 0. -1.
         -2    1    3    3    0  502 -0.69437050379E+03  0.15244586430E+03  0.20282609667E+03  0.73927570200E+03  0.00000000000E+00 0.  1.
         13    1    5    5    0    0  0.49760987654E+03 -0.15774631551E+02  0.25224934164E+03  0.55811661737E+03  0.00000000000E+00 0. -1.
        -13    1    5    5    0    0  0.66751704424E+02 -0.64610184616E+01 -0.24084170501E+01  0.67106894398E+02  0.00000000000E+00 0.  1.
          3    1    6    6  503    0  0.84381213711E+02 -0.26686326759E+02  0.70604218706E+03  0.71156722744E+03  0.00000000000E+00 0. -1.
         -3    1    6    6    0  503  0.12760555642E+03 -0.93877778163E+02  0.63880654273E+03  0.65815652721E+03  0.00000000000E+00 0.  1.
<mgrwt>
<rscale>  0 0.21541699E+04</rscale>
<asrwt>0</asrwt>
<pdfrwt beam="1">  1        1 0.35682921E+00 0.21541699E+04</pdfrwt>
<pdfrwt beam="2">  1       -2 0.76950738E-01 0.21541699E+04</pdfrwt>
<totfact> 0.21892722E+00</totfact>
</mgrwt>
</event>
<event>
12    5  0.5428626E-008  0.1336867E+04  0.7818608E-02  0.9000829E-01
          1   -1    0    0  501    0  0.00000000000E+00  0.00000000000E+00  0.47531698259E+03  0.47531698259E+03  0.00000000000E+00 0. -1.
         -2   -1    0    0    0  501 -0.00000000000E+00 -0.00000000000E+00 -0.94001169221E+03  0.94001169221E+03  0.00000000000E+00 0.  1.
        -24    2    1    2    0    0 -0.27084812023E+03  0.23815846316E+03 -0.17457367291E+03  0.41540351771E+03  0.10957170005E+03 0.  0.
        254    2    1    2    0    0  0.27084812023E+03 -0.23815846316E+03 -0.29012103672E+03  0.99992515709E+03  0.88634189003E+03 0.  0.
         23    2    4    4    0    0  0.35467763963E+03  0.24817417663E+03 -0.55433459213E+02  0.44589307533E+03  0.91439139499E+02 0.  0.
         23    2    4    4    0    0 -0.83829519403E+02 -0.48633263979E+03 -0.23468757751E+03  0.55403208175E+03  0.91249458792E+02 0.  0.
          3    1    3    3  502    0 -0.59211627463E+01  0.82989921030E+01  0.13892056173E+02  0.17231444017E+02  0.00000000000E+00 0. -1.
         -4    1    3    3    0  502 -0.26492695748E+03  0.22985947106E+03 -0.18846572908E+03  0.39817207370E+03  0.00000000000E+00 0.  1.
         13    1    5    5    0    0  0.47803210187E+02  0.55033644199E+02 -0.39587550047E+02  0.82951931965E+02  0.00000000000E+00 0. -1.
        -13    1    5    5    0    0  0.30687442944E+03  0.19314053243E+03 -0.15845909165E+02  0.36294114337E+03  0.00000000000E+00 0.  1.
          2    1    6    6  503    0 -0.42311680824E+02 -0.16597047735E+03 -0.36766401371E+02  0.17518060953E+03  0.00000000000E+00 0. -1.
         -2    1    6    6    0  503 -0.41517838579E+02 -0.32036216244E+03 -0.19792117613E+03  0.37885147222E+03  0.00000000000E+00 0.  1.
<mgrwt>
<rscale>  0 0.13368673E+04</rscale>
<asrwt>0</asrwt>
<pdfrwt beam="1">  1        1 0.73125691E-01 0.13368673E+04</pdfrwt>
<pdfrwt beam="2">  1       -2 0.14461718E+00 0.13368673E+04</pdfrwt>
<totfact> 0.13421940E+01</totfact>
</mgrwt>
</event>
<event>
12    5  0.5428626E-008  0.1904838E+04  0.7818608E-02  0.8652452E-01
          1   -1    0    0  501    0  0.00000000000E+00  0.00000000000E+00  0.98006712167E+03  0.98006712167E+03  0.00000000000E+00 0. -1.
         -2   -1    0    0    0  501 -0.00000000000E+00 -0.00000000000E+00 -0.92555067540E+03  0.92555067540E+03  0.00000000000E+00 0.  1.
        -24    2    1    2    0    0 -0.11774924065E+03  0.38083267987E+03  0.64105936045E+03  0.75906329826E+03  0.79508322923E+02 0.  0.
        254    2    1    2    0    0  0.11774924065E+03 -0.38083267987E+03 -0.58654291418E+03  0.11465544988E+04  0.90091964949E+03 0.  0.
         23    2    4    4    0    0  0.34474906093E+03 -0.33235300147E+03 -0.71535078427E+03  0.86572890329E+03  0.91920383148E+02 0.  0.
         23    2    4    4    0    0 -0.22699982028E+03 -0.48479678398E+02  0.12880787008E+03  0.28082559553E+03  0.91609770683E+02 0.  0.
          1    1    3    3  502    0 -0.12358201319E+03  0.37725898498E+03  0.63831387126E+03  0.75169239319E+03  0.00000000000E+00 0. -1.
         -2    1    3    3    0  502  0.58327725390E+01  0.35736948854E+01  0.27454891838E+01  0.73709050654E+01  0.00000000000E+00 0.  1.
         13    1    5    5    0    0  0.17172443975E+03 -0.11698945654E+03 -0.35950559168E+03  0.41523497758E+03  0.00000000000E+00 0.  1.
        -13    1    5    5    0    0  0.17302462117E+03 -0.21536354493E+03 -0.35584519258E+03  0.45049392571E+03  0.00000000000E+00 0. -1.
          3    1    6    6  503    0 -0.43026646676E+02  0.26861513582E+02  0.24866021508E+02  0.56490284667E+02  0.00000000000E+00 0. -1.
         -3    1    6    6    0  503 -0.18397317360E+03 -0.75341191979E+02  0.10394184858E+03  0.22433531086E+03  0.00000000000E+00 0.  1.
<mgrwt>
<rscale>  0 0.19048378E+04</rscale>
<asrwt>0</asrwt>
<pdfrwt beam="1">  1        1 0.15077956E+00 0.19048378E+04</pdfrwt>
<pdfrwt beam="2">  1       -2 0.14239241E+00 0.19048378E+04</pdfrwt>
<totfact> 0.44188262E+00</totfact>
</mgrwt>
</event>
<event>
12    5  0.5428626E-008  0.1403244E+04  0.7818608E-02  0.8951474E-01
          1   -1    0    0  501    0  0.00000000000E+00  0.00000000000E+00  0.12459356311E+04  0.12459356311E+04  0.00000000000E+00 0. -1.
         -2   -1    0    0    0  501 -0.00000000000E+00 -0.00000000000E+00 -0.39510334980E+03  0.39510334980E+03  0.00000000000E+00 0.  1.
        -24    2    1    2    0    0 -0.34387775743E+03 -0.23009110346E+03  0.23970326193E+03  0.48375569815E+03  0.73267276241E+02 0.  0.
        254    2    1    2    0    0  0.34387775743E+03  0.23009110346E+03  0.61112901941E+03  0.11572832828E+04  0.89142138761E+03 0.  0.
         23    2    4    4    0    0 -0.11640987260E+02 -0.31927042093E+02  0.69200036562E+03  0.69893189435E+03  0.92121866689E+02 0.  0.
         23    2    4    4    0    0  0.35551874469E+03  0.26201814555E+03 -0.80871346211E+02  0.45835138843E+03  0.92188579619E+02 0.  0.
          3    1    3    3  502    0 -0.16539359686E+03 -0.88243723304E+02  0.72343567333E+02  0.20093677692E+03  0.00000000000E+00 0. -1.
         -4    1    3    3    0  502 -0.17848416058E+03 -0.14184738016E+03  0.16735969459E+03  0.28281892123E+03  0.00000000000E+00 0.  1.
         13    1    5    5    0    0 -0.26947309635E+02  0.20370730063E+02  0.42999993936E+03  0.43132478712E+03  0.00000000000E+00 0. -1.
        -13    1    5    5    0    0  0.15306322375E+02 -0.52297772156E+02  0.26200042626E+03  0.26760710723E+03  0.00000000000E+00 0.  1.
          1    1    6    6  503    0  0.25640378656E+03  0.14610881827E+03 -0.80303983905E+02  0.30584214616E+03  0.00000000000E+00 0. -1.
         -1    1    6    6    0  503  0.99114958129E+02  0.11590932729E+03 -0.56736230603E+00  0.15250924227E+03  0.00000000000E+00 0.  1.
<mgrwt>
<rscale>  0 0.14032439E+04</rscale>
<asrwt>0</asrwt>
<pdfrwt beam="1">  1        1 0.19168240E+00 0.14032439E+04</pdfrwt>
<pdfrwt beam="2">  1       -2 0.60785131E-01 0.14032439E+04</pdfrwt>
<totfact> 0.21313071E+01</totfact>
</mgrwt>
</event>
<event>
12    5  0.5428626E-008  0.2017189E+04  0.7818608E-02  0.8598626E-01
         -2   -1    0    0    0  501 -0.00000000000E+00  0.00000000000E+00  0.43058896614E+03  0.43058896614E+03  0.00000000000E+00 0.  1.
          1   -1    0    0  501    0  0.00000000000E+00 -0.00000000000E+00 -0.23624912206E+04  0.23624912206E+04  0.00000000000E+00 0. -1.
        -24    2    1    2    0    0  0.27788229872E+03 -0.33720008546E+03  0.15407754630E+03  0.47016447694E+03  0.79951707493E+02 0.  0.
        254    2    1    2    0    0 -0.27788229872E+03  0.33720008546E+03 -0.20859798008E+04  0.23229157098E+04  0.92396060308E+03 0.  0.
         23    2    4    4    0    0 -0.10901603386E+03  0.63190704397E+03 -0.11103851035E+04  0.12858803704E+04  0.96655269651E+02 0.  0.
         23    2    4    4    0    0 -0.16886626486E+03 -0.29470695851E+03 -0.97559469727E+03  0.10370353394E+04  0.91045455346E+02 0.  0.
          1    1    3    3  502    0  0.11477544289E+03 -0.91806818800E+02  0.75390353019E+02  0.16518353307E+03  0.00000000000E+00 0. -1.
         -2    1    3    3    0  502  0.16310685583E+03 -0.24539326666E+03  0.78687193279E+02  0.30498094387E+03  0.00000000000E+00 0.  1.
         13    1    5    5    0    0 -0.55477986653E+02  0.15570631461E+03 -0.35041219637E+03  0.38744157080E+03  0.00000000000E+00 0.  1.
        -13    1    5    5    0    0 -0.53538047208E+02  0.47620072936E+03 -0.75997290713E+03  0.89843879965E+03  0.00000000000E+00 0. -1.
          2    1    6    6  503    0 -0.12932607831E+03 -0.15900961378E+03 -0.66330041375E+03  0.69424543981E+03  0.00000000000E+00 0. -1.
         -2    1    6    6    0  503 -0.39540186544E+02 -0.13569734473E+03 -0.31229428352E+03  0.34278989956E+03  0.00000000000E+00 0.  1.
<mgrwt>
<rscale>  0 0.20171888E+04</rscale>
<asrwt>0</asrwt>
<pdfrwt beam="1">  1        1 0.36346019E+00 0.20171888E+04</pdfrwt>
<pdfrwt beam="2">  1       -2 0.66244457E-01 0.20171888E+04</pdfrwt>
<totfact> 0.28757704E+00</totfact>
</mgrwt>
</event>
<event>
12    5  0.5428626E-008  0.1954198E+04  0.7818608E-02  0.8628339E-01
         -2   -1    0    0    0  501 -0.00000000000E+00  0.00000000000E+00  0.14533826492E+04  0.14533826492E+04  0.00000000000E+00 0.  1.
          1   -1    0    0  501    0  0.00000000000E+00 -0.00000000000E+00 -0.65689698026E+03  0.65689698026E+03  0.00000000000E+00 0. -1.
        -24    2    1    2    0    0 -0.26999995455E+03  0.38519305490E+03  0.96974959952E+03  0.10808472556E+04  0.80887817790E+02 0.  0.
        254    2    1    2    0    0  0.26999995455E+03 -0.38519305490E+03 -0.17326393062E+03  0.10294323739E+04  0.89913122385E+03 0.  0.
         23    2    4    4    0    0 -0.74332586029E+02  0.22014379290E+03  0.10948411670E+03  0.27248108861E+03  0.90942558472E+02 0.  0.
         23    2    4    4    0    0  0.34433254058E+03 -0.60533684780E+03 -0.28274804732E+03  0.75695128526E+03  0.89616919073E+02 0.  0.
          3    1    3    3  502    0 -0.45231296505E+02  0.92336768060E+02  0.15058947973E+03  0.18234346801E+03  0.00000000000E+00 0. -1.
         -4    1    3    3    0  502 -0.22476865804E+03  0.29285628684E+03  0.81916011979E+03  0.89850378755E+03  0.00000000000E+00 0.  1.
         13    1    5    5    0    0 -0.80326997305E+02  0.99077235121E+02  0.66708232858E+02  0.14393996438E+03  0.00000000000E+00 0.  1.
        -13    1    5    5    0    0  0.59944112759E+01  0.12106655778E+03  0.42775883845E+02  0.12854112423E+03  0.00000000000E+00 0. -1.
          3    1    6    6  503    0  0.77237019600E+02 -0.15491134435E+03 -0.30747612876E+02  0.17580812695E+03  0.00000000000E+00 0. -1.
         -3    1    6    6    0  503  0.26709552098E+03 -0.45042550345E+03 -0.25200043444E+03  0.58114315830E+03  0.00000000000E+00 0.  1.
<mgrwt>
<rscale>  0 0.19541982E+04</rscale>
<asrwt>0</asrwt>
<pdfrwt beam="1">  1        1 0.10106107E+00 0.19541982E+04</pdfrwt>
<pdfrwt beam="2">  1       -2 0.22359733E+00 0.19541982E+04</pdfrwt>
<totfact> 0.22923806E+00</totfact>
</mgrwt>
</event>
<event>
12    5  0.5428626E-008  0.2413942E+04  0.7818608E-02  0.8434302E-01
          1   -1    0    0  501    0  0.00000000000E+00  0.00000000000E+00  0.10116377823E+04  0.10116377823E+04  0.00000000000E+00 0. -1.
         -2   -1    0    0    0  501 -0.00000000000E+00 -0.00000000000E+00 -0.14400204820E+04  0.14400204820E+04  0.00000000000E+00 0.  1.
        -24    2    1    2    0    0 -0.61799572580E+03 -0.13648120910E+03  0.64789311015E+03  0.90921831770E+03  0.79791161887E+02 0.  0.
        254    2    1    2    0    0  0.61799572580E+03  0.13648120910E+03 -0.10762758098E+04  0.15424399466E+04  0.90565199309E+03 0.  0.
         23    2    4    4    0    0  0.34434781757E+03  0.41397547803E+03 -0.20459411714E+03  0.58319446113E+03  0.91136770042E+02 0.  0.
         23    2    4    4    0    0  0.27364790823E+03 -0.27749426893E+03 -0.87168169270E+03  0.95924548550E+03  0.91851407738E+02 0.  0.
          1    1    3    3  502    0 -0.62001892742E+03 -0.13361161729E+03  0.64280081981E+03  0.90303290559E+03  0.00000000000E+00 0. -1.
         -2    1    3    3    0  502  0.20232016268E+01 -0.28695918076E+01  0.50922903393E+01  0.61854121014E+01  0.00000000000E+00 0.  1.
         13    1    5    5    0    0  0.25639832673E+03  0.36315675525E+03 -0.16554344016E+03  0.47437070041E+03  0.00000000000E+00 0. -1.
        -13    1    5    5    0    0  0.87949490839E+02  0.50818722778E+02 -0.39050676980E+02  0.10882376072E+03  0.00000000000E+00 0.  1.
          4    1    6    6  503    0  0.22281197777E+03 -0.25805094549E+03 -0.79678415322E+03  0.86666051874E+03  0.00000000000E+00 0. -1.
         -4    1    6    6    0  503  0.50835930455E+02 -0.19443323438E+02 -0.74897539474E+02  0.92584966764E+02  0.00000000000E+00 0.  1.
<mgrwt>
<rscale>  0 0.24139421E+04</rscale>
<asrwt>0</asrwt>
<pdfrwt beam="1">  1        1 0.15563658E+00 0.24139421E+04</pdfrwt>
<pdfrwt beam="2">  1       -2 0.22154161E+00 0.24139421E+04</pdfrwt>
<totfact> 0.11238751E+00</totfact>
</mgrwt>
</event>
<event>
12    5  0.5428626E-008  0.1517528E+04  0.7818608E-02  0.8872880E-01
         -4   -1    0    0    0  501 -0.00000000000E+00  0.00000000000E+00  0.64701003491E+03  0.64701003491E+03  0.00000000000E+00 0.  1.
          3   -1    0    0  501    0  0.00000000000E+00 -0.00000000000E+00 -0.88982020091E+03  0.88982020091E+03  0.00000000000E+00 0. -1.
        -24    2    1    2    0    0 -0.43201692849E+03 -0.28311282423E+03 -0.17015644424E+03  0.54969016866E+03  0.80090999789E+02 0.  0.
        254    2    1    2    0    0  0.43201692849E+03  0.28311282423E+03 -0.72653721760E+02  0.98714006717E+03  0.83807842782E+03 0.  0.
         23    2    4    4    0    0 -0.20274207236E+03 -0.84856684989E+02 -0.68475081903E+02  0.24757585984E+03  0.91104141741E+02 0.  0.
         23    2    4    4    0    0  0.63475900086E+03  0.36796950922E+03 -0.41786398576E+01  0.73956420733E+03  0.92828911661E+02 0.  0.
          3    1    3    3  502    0 -0.28787023419E+02 -0.75657399842E+01 -0.28418895322E+02  0.41152967696E+02  0.00000000000E+00 0. -1.
         -4    1    3    3    0  502 -0.40322990508E+03 -0.27554708425E+03 -0.14173754892E+03  0.50853720096E+03  0.00000000000E+00 0.  1.
         13    1    5    5    0    0 -0.12967356574E+03 -0.92680826475E+02 -0.22697082625E+02  0.16099728820E+03  0.00000000000E+00 0. -1.
        -13    1    5    5    0    0 -0.73068506620E+02  0.78241414864E+01 -0.45777999278E+02  0.86578571642E+02  0.00000000000E+00 0.  1.
          1    1    6    6  503    0  0.45246084820E+03  0.29878810694E+03 -0.29103924512E+02  0.54299372964E+03  0.00000000000E+00 0. -1.
         -1    1    6    6    0  503  0.18229815265E+03  0.69181402281E+02  0.24925284654E+02  0.19657047769E+03  0.00000000000E+00 0.  1.
<mgrwt>
<rscale>  0 0.15175277E+04</rscale>
<asrwt>0</asrwt>
<pdfrwt beam="1">  1        3 0.13689541E+00 0.15175277E+04</pdfrwt>
<pdfrwt beam="2">  1       -4 0.99540006E-01 0.15175277E+04</pdfrwt>
<totfact> 0.75424421E-01</totfact>
</mgrwt>
</event>
<event>
12    5  0.5428626E-008  0.1775477E+04  0.7818608E-02  0.8719450E-01
          1   -1    0    0  501    0  0.00000000000E+00  0.00000000000E+00  0.15158333601E+04  0.15158333601E+04  0.00000000000E+00 0. -1.
         -2   -1    0    0    0  501 -0.00000000000E+00 -0.00000000000E+00 -0.51989854167E+03  0.51989854167E+03  0.00000000000E+00 0.  1.
        -24    2    1    2    0    0  0.34346406365E+03  0.54499947453E+03  0.51905222159E+03  0.83123622379E+03  0.80910201739E+02 0.  0.
        254    2    1    2    0    0 -0.34346406365E+03 -0.54499947453E+03  0.47688259688E+03  0.12044956780E+04  0.89911113713E+03 0.  0.
         23    2    4    4    0    0 -0.54146841807E+03 -0.66046410917E+03  0.35487491696E+03  0.92925191065E+03  0.90399222839E+02 0.  0.
         23    2    4    4    0    0  0.19800435442E+03  0.11546463464E+03  0.12200767991E+03  0.27524376737E+03  0.91298692735E+02 0.  0.
          3    1    3    3  502    0  0.48860689489E+02  0.34728226123E+02  0.52334222773E+02  0.79575671786E+02  0.00000000000E+00 0. -1.
         -4    1    3    3    0  502  0.29460337416E+03  0.51027124841E+03  0.46671799882E+03  0.75166055200E+03  0.00000000000E+00 0.  1.
         13    1    5    5    0    0 -0.20346996138E+03 -0.28053603312E+03  0.10152963329E+03  0.36112152732E+03  0.00000000000E+00 0. -1.
        -13    1    5    5    0    0 -0.33799845669E+03 -0.37992807604E+03  0.25334528368E+03  0.56813038332E+03  0.00000000000E+00 0.  1.
          1    1    6    6  503    0  0.22059479771E+02 -0.85700451530E+01 -0.64894398082E+01  0.24539338840E+02  0.00000000000E+00 0. -1.
         -1    1    6    6    0  503  0.17594487465E+03  0.12403467979E+03  0.12849711972E+03  0.25070442853E+03  0.00000000000E+00 0.  1.
<mgrwt>
<rscale>  0 0.17754769E+04</rscale>
<asrwt>0</asrwt>
<pdfrwt beam="1">  1        1 0.23320513E+00 0.17754769E+04</pdfrwt>
<pdfrwt beam="2">  1       -2 0.79984392E-01 0.17754769E+04</pdfrwt>
<totfact> 0.73195150E+00</totfact>
</mgrwt>
</event>
<event>
12    5  0.5428626E-008  0.2249690E+04  0.7818608E-02  0.8498026E-01
         -2   -1    0    0    0  501 -0.00000000000E+00  0.00000000000E+00  0.81608435607E+03  0.81608435607E+03  0.00000000000E+00 0.  1.
          1   -1    0    0  501    0  0.00000000000E+00 -0.00000000000E+00 -0.15504233737E+04  0.15504233737E+04  0.00000000000E+00 0. -1.
        -24    2    1    2    0    0  0.24399065500E+03 -0.72425732363E+03 -0.88231599764E+03  0.11699844390E+04  0.79384868049E+02 0.  0.
        254    2    1    2    0    0 -0.24399065500E+03  0.72425732363E+03  0.14797698002E+03  0.11965232908E+04  0.90867523799E+03 0.  0.
         23    2    4    4    0    0 -0.62523740945E+02 -0.71210747183E+02 -0.25165438430E+03  0.28352298493E+03  0.89861922701E+02 0.  0.
         23    2    4    4    0    0 -0.18146691406E+03  0.79546807081E+03  0.39963136432E+03  0.91300030582E+03  0.90358389212E+02 0.  0.
          1    1    3    3  502    0  0.21694093972E+03 -0.69555937712E+03 -0.84415492550E+03  0.11151070606E+04  0.00000000000E+00 0. -1.
         -2    1    3    3    0  502  0.27049715285E+02 -0.28697946510E+02 -0.38161072147E+02  0.54877378384E+02  0.00000000000E+00 0.  1.
         13    1    5    5    0    0 -0.31989650938E+02  0.25809548561E+01 -0.15431144523E+03  0.15761351853E+03  0.00000000000E+00 0.  1.
        -13    1    5    5    0    0 -0.30534090006E+02 -0.73791702039E+02 -0.97342939069E+02  0.12590946640E+03  0.00000000000E+00 0. -1.
          3    1    6    6  503    0 -0.12368824874E+03  0.64770297871E+03  0.29129795080E+03  0.72088308875E+03  0.00000000000E+00 0. -1.
         -3    1    6    6    0  503 -0.57778665318E+02  0.14776509210E+03  0.10833341352E+03  0.19211721707E+03  0.00000000000E+00 0.  1.
<mgrwt>
<rscale>  0 0.22496900E+04</rscale>
<asrwt>0</asrwt>
<pdfrwt beam="1">  1        1 0.23852667E+00 0.22496900E+04</pdfrwt>
<pdfrwt beam="2">  1       -2 0.12555144E+00 0.22496900E+04</pdfrwt>
<totfact> 0.22817151E+00</totfact>
</mgrwt>
</event>
<event>
12    5  0.5428626E-008  0.1721576E+04  0.7818608E-02  0.8749153E-01
         -2   -1    0    0    0  501 -0.00000000000E+00  0.00000000000E+00  0.57121962305E+03  0.57121962305E+03  0.00000000000E+00 0.  1.
          1   -1    0    0  501    0  0.00000000000E+00 -0.00000000000E+00 -0.12971477541E+04  0.12971477541E+04  0.00000000000E+00 0. -1.
        -24    2    1    2    0    0 -0.32846511206E+03 -0.43382589368E+03  0.13331316459E+03  0.56555547658E+03  0.77371579833E+02 0.  0.
        254    2    1    2    0    0  0.32846511206E+03  0.43382589368E+03 -0.85924129565E+03  0.13028119006E+04  0.81420452487E+03 0.  0.
         23    2    4    4    0    0  0.20913880925E+03 -0.18388826328E+03 -0.94857274166E+02  0.30835265313E+03  0.92355407663E+02 0.  0.
         23    2    4    4    0    0  0.11932630281E+03  0.61771415696E+03 -0.76438402149E+03  0.99445924746E+03  0.94110128622E+02 0.  0.
          3    1    3    3  502    0 -0.21631869446E+03 -0.25667343045E+03  0.47529580764E+02  0.33901930405E+03  0.00000000000E+00 0. -1.
         -4    1    3    3    0  502 -0.11214641760E+03 -0.17715246323E+03  0.85783583822E+02  0.22653617252E+03  0.00000000000E+00 0.  1.
         13    1    5    5    0    0  0.18888032848E+03 -0.17857737040E+03 -0.11026300074E+03  0.28235365243E+03  0.00000000000E+00 0.  1.
        -13    1    5    5    0    0  0.20258480769E+02 -0.53108928820E+01  0.15405726578E+02  0.25999000706E+02  0.00000000000E+00 0. -1.
          2    1    6    6  503    0  0.36259395608E+02  0.10638629683E+03 -0.19186215029E+03  0.22235978197E+03  0.00000000000E+00 0. -1.
         -2    1    6    6    0  503  0.83066907205E+02  0.51132786013E+03 -0.57252187119E+03  0.77209946549E+03  0.00000000000E+00 0.  1.
<mgrwt>
<rscale>  0 0.17215763E+04</rscale>
<asrwt>0</asrwt>
<pdfrwt beam="1">  1        1 0.19956119E+00 0.17215763E+04</pdfrwt>
<pdfrwt beam="2">  1       -2 0.87879942E-01 0.17215763E+04</pdfrwt>
<totfact> 0.84553787E+00</totfact>
</mgrwt>
</event>
<event>
12    5  0.5428626E-008  0.1376590E+04  0.7818608E-02  0.8970940E-01
         -2   -1    0    0    0  501 -0.00000000000E+00  0.00000000000E+00  0.21069691945E+04  0.21069691945E+04  0.00000000000E+00 0.  1.
          1   -1    0    0  501    0  0.00000000000E+00 -0.00000000000E+00 -0.22484919823E+03  0.22484919823E+03  0.00000000000E+00 0. -1.
        -24    2    1    2    0    0 -0.32426294643E+03  0.20374687468E+03  0.41056645364E+03  0.56720588297E+03  0.80612985627E+02 0.  0.
        254    2    1    2    0    0  0.32426294643E+03 -0.20374687468E+03  0.14715535426E+04  0.17646125097E+04  0.89539278163E+03 0.  0.
         23    2    4    4    0    0 -0.20340867792E+03 -0.30358650652E+03  0.33381684238E+03  0.50317459091E+03  0.90615271810E+02 0.  0.
         23    2    4    4    0    0  0.52767162436E+03  0.99839631841E+02  0.11377367002E+04  0.12614379188E+04  0.91517915116E+02 0.  0.
          3    1    3    3  502    0 -0.32262783730E+03  0.20033828489E+03  0.38293674344E+03  0.53931873625E+03  0.00000000000E+00 0. -1.
         -4    1    3    3    0  502 -0.16351091282E+01  0.34085897848E+01  0.27629710206E+02  0.27887146722E+02  0.00000000000E+00 0.  1.
         13    1    5    5    0    0 -0.14912134841E+03 -0.22750139951E+03  0.29692857869E+03  0.40269174833E+03  0.00000000000E+00 0. -1.
        -13    1    5    5    0    0 -0.54287329518E+02 -0.76085107006E+02  0.36888263685E+02  0.10048284258E+03  0.00000000000E+00 0.  1.
          3    1    6    6  503    0  0.23522932389E+03  0.60599655140E+02  0.41618022409E+03  0.48188290273E+03  0.00000000000E+00 0. -1.
         -3    1    6    6    0  503  0.29244230047E+03  0.39239976701E+02  0.72155647613E+03  0.77955501609E+03  0.00000000000E+00 0.  1.
<mgrwt>
<rscale>  0 0.13765905E+04</rscale>
<asrwt>0</asrwt>
<pdfrwt beam="1">  1        1 0.34592186E-01 0.13765905E+04</pdfrwt>
<pdfrwt beam="2">  1       -2 0.32414909E+00 0.13765905E+04</pdfrwt>
<totfact> 0.24736472E+00</totfact>
</mgrwt>
</event>
<event>
12    5  0.5428626E-008  0.1506162E+04  0.7818608E-02  0.8880365E-01
         -4   -1    0    0    0  501 -0.00000000000E+00  0.00000000000E+00  0.52435834879E+03  0.52435834879E+03  0.00000000000E+00 0.  1.
          1   -1    0    0  501    0  0.00000000000E+00 -0.00000000000E+00 -0.10815717422E+04  0.10815717422E+04  0.00000000000E+00 0. -1.
        -24    2    1    2    0    0  0.80959597550E+01 -0.20519692860E+03 -0.64565333268E+03  0.68276713712E+03  0.84447696576E+02 0.  0.
        254    2    1    2    0    0 -0.80959597550E+01  0.20519692860E+03  0.88439939300E+02  0.92316295385E+03  0.89567677899E+03 0.  0.
         23    2    4    4    0    0 -0.41397293908E+03  0.25556622514E+03  0.97054357208E+02  0.50433884143E+03  0.90831872176E+02 0.  0.
         23    2    4    4    0    0  0.40587697932E+03 -0.50369296539E+02 -0.86144179078E+01  0.41882411242E+03  0.89812251759E+02 0.  0.
          1    1    3    3  502    0 -0.83261484282E+01 -0.17257541498E+03 -0.59956245032E+03  0.62396051993E+03  0.00000000000E+00 0. -1.
         -2    1    3    3    0  502  0.16422108183E+02 -0.32621513618E+02 -0.46090882363E+02  0.58806617186E+02  0.00000000000E+00 0.  1.
         13    1    5    5    0    0 -0.32528026223E+03  0.22154870362E+03  0.10955865725E+03  0.40852683687E+03  0.00000000000E+00 0.  1.
        -13    1    5    5    0    0 -0.88692676854E+02  0.34017521521E+02 -0.12504300042E+02  0.95812004559E+02  0.00000000000E+00 0. -1.
          1    1    6    6  503    0  0.67027076427E+02 -0.41995027636E+02  0.77565546266E+01  0.79475628089E+02  0.00000000000E+00 0. -1.
         -1    1    6    6    0  503  0.33884990290E+03 -0.83742689027E+01 -0.16370972534E+02  0.33934848433E+03  0.00000000000E+00 0.  1.
<mgrwt>
<rscale>  0 0.15061622E+04</rscale>
<asrwt>0</asrwt>
<pdfrwt beam="1">  1        1 0.16639565E+00 0.15061622E+04</pdfrwt>
<pdfrwt beam="2">  1       -4 0.80670517E-01 0.15061622E+04</pdfrwt>
<totfact> 0.83999245E+00</totfact>
</mgrwt>
</event>
<event>
12    5  0.5428626E-008  0.1564056E+04  0.7818608E-02  0.8842939E-01
          1   -1    0    0  501    0  0.00000000000E+00  0.00000000000E+00  0.45372040616E+03  0.45372040616E+03  0.00000000000E+00 0. -1.
         -2   -1    0    0    0  501 -0.00000000000E+00 -0.00000000000E+00 -0.13478952028E+04  0.13478952028E+04  0.00000000000E+00 0.  1.
        -24    2    1    2    0    0  0.24724978659E+03 -0.32669332441E+03  0.69071433704E+02  0.42371495878E+03  0.83081394755E+02 0.  0.
        254    2    1    2    0    0 -0.24724978659E+03  0.32669332441E+03 -0.96324623032E+03  0.13779006501E+04  0.89605017509E+03 0.  0.
         23    2    4    4    0    0  0.14500161533E+03 -0.23603044228E+03 -0.32205607669E+03  0.43442226432E+03  0.90921664460E+02 0.  0.
         23    2    4    4    0    0 -0.39225140192E+03  0.56272376668E+03 -0.64119015363E+03  0.94347838583E+03  0.92235847301E+02 0.  0.
          3    1    3    3  502    0  0.22822251913E+03 -0.28930078502E+03  0.86143546291E+02  0.37841930847E+03  0.00000000000E+00 0. -1.
         -4    1    3    3    0  502  0.19027267461E+02 -0.37392539386E+02 -0.17072112588E+02  0.45295650309E+02  0.00000000000E+00 0.  1.
         13    1    5    5    0    0  0.41112319704E+02 -0.14083971117E+03 -0.12866118648E+03  0.19514032895E+03  0.00000000000E+00 0.  1.
        -13    1    5    5    0    0  0.10388929563E+03 -0.95190731106E+02 -0.19339489021E+03  0.23928193537E+03  0.00000000000E+00 0. -1.
          1    1    6    6  503    0 -0.64960541854E+02  0.14490129565E+03 -0.18320715898E+03  0.24244818123E+03  0.00000000000E+00 0. -1.
         -1    1    6    6    0  503 -0.32729086007E+03  0.41782247104E+03 -0.45798299465E+03  0.70103020461E+03  0.00000000000E+00 0.  1.
<mgrwt>
<rscale>  0 0.15640557E+04</rscale>
<asrwt>0</asrwt>
<pdfrwt beam="1">  1        1 0.69803139E-01 0.15640557E+04</pdfrwt>
<pdfrwt beam="2">  1       -2 0.20736849E+00 0.15640557E+04</pdfrwt>
<totfact> 0.50694970E+00</totfact>
</mgrwt>
</event>
<event>
12    5  0.5428626E-008  0.1512311E+04  0.7818608E-02  0.8876307E-01
          1   -1    0    0  501    0  0.00000000000E+00  0.00000000000E+00  0.12849272903E+04  0.12849272903E+04  0.00000000000E+00 0. -1.
         -2   -1    0    0    0  501 -0.00000000000E+00 -0.00000000000E+00 -0.44498324435E+03  0.44498324435E+03  0.00000000000E+00 0.  1.
        -24    2    1    2    0    0  0.22878273279E+03 -0.34995866242E+03  0.55875471095E+03  0.70245153607E+03  0.80116972639E+02 0.  0.
        254    2    1    2    0    0 -0.22878273279E+03  0.34995866242E+03  0.28118933503E+03  0.10274589986E+04  0.89542835976E+03 0.  0.
         23    2    4    4    0    0 -0.22608635296E+03  0.51164789832E+03 -0.12525697116E+03  0.58028808685E+03  0.90257099796E+02 0.  0.
         23    2    4    4    0    0 -0.26963798303E+01 -0.16168923590E+03  0.40644630619E+03  0.44717091176E+03  0.92803798618E+02 0.  0.
          3    1    3    3  502    0  0.63561299467E+02 -0.96849939101E+02  0.21864915466E+03  0.24744171501E+03  0.00000000000E+00 0. -1.
         -4    1    3    3    0  502  0.16522143332E+03 -0.25310872331E+03  0.34010555629E+03  0.45500982106E+03  0.00000000000E+00 0.  1.
         13    1    5    5    0    0 -0.88590106929E+02  0.10831980663E+03 -0.19953903526E+02  0.14134902129E+03  0.00000000000E+00 0.  1.
        -13    1    5    5    0    0 -0.13749624603E+03  0.40332809169E+03 -0.10530306763E+03  0.43893906555E+03  0.00000000000E+00 0. -1.
          2    1    6    6  503    0  0.36398283261E+02 -0.11805752016E+03  0.31725341401E+03  0.34045872259E+03  0.00000000000E+00 0. -1.
         -2    1    6    6    0  503 -0.39094663091E+02 -0.43631715743E+02  0.89192892183E+02  0.10671218917E+03  0.00000000000E+00 0.  1.
<mgrwt>
<rscale>  0 0.15123110E+04</rscale>
<asrwt>0</asrwt>
<pdfrwt beam="1">  1        1 0.19768112E+00 0.15123110E+04</pdfrwt>
<pdfrwt beam="2">  1       -2 0.68458961E-01 0.15123110E+04</pdfrwt>
<totfact> 0.15340309E+01</totfact>
</mgrwt>
</event>
<event>
12    5  0.5428626E-008  0.1763288E+04  0.7818608E-02  0.8726070E-01
          1   -1    0    0  501    0  0.00000000000E+00  0.00000000000E+00  0.99373131457E+03  0.99373131457E+03  0.00000000000E+00 0. -1.
         -2   -1    0    0    0  501 -0.00000000000E+00 -0.00000000000E+00 -0.78219941376E+03  0.78219941376E+03  0.00000000000E+00 0.  1.
        -24    2    1    2    0    0  0.51961562635E+03  0.21173445016E+03  0.40494345468E+03  0.69629375250E+03  0.77549414898E+02 0.  0.
        254    2    1    2    0    0 -0.51961562635E+03 -0.21173445016E+03 -0.19341155387E+03  0.10796369758E+04  0.90187365738E+03 0.  0.
         23    2    4    4    0    0 -0.20784636464E+03  0.10892191277E+03  0.31059114963E+03  0.39942796710E+03  0.89508347621E+02 0.  0.
         23    2    4    4    0    0 -0.31176926171E+03 -0.32065636293E+03 -0.50400270350E+03  0.68020900873E+03  0.92978464115E+02 0.  0.
          3    1    3    3  502    0  0.34281257400E+03  0.17207957315E+03  0.29947211655E+03  0.48663681424E+03  0.00000000000E+00 0. -1.
         -4    1    3    3    0  502  0.17680305236E+03  0.39654877004E+02  0.10547133813E+03  0.20965693826E+03  0.00000000000E+00 0.  1.
         13    1    5    5    0    0 -0.17250399687E+03  0.61512306741E+02  0.27502081450E+03  0.33042070338E+03  0.00000000000E+00 0. -1.
        -13    1    5    5    0    0 -0.35342367778E+02  0.47409606031E+02  0.35570335127E+02  0.69007263713E+02  0.00000000000E+00 0.  1.
          4    1    6    6  503    0 -0.13478752061E+03 -0.16892381091E+03 -0.30438883017E+03  0.37330348182E+03  0.00000000000E+00 0. -1.
         -4    1    6    6    0  503 -0.17698174110E+03 -0.15173255202E+03 -0.19961387333E+03  0.30690552691E+03  0.00000000000E+00 0.  1.
<mgrwt>
<rscale>  0 0.17632879E+04</rscale>
<asrwt>0</asrwt>
<pdfrwt beam="1">  1        1 0.15288174E+00 0.17632879E+04</pdfrwt>
<pdfrwt beam="2">  1       -2 0.12033837E+00 0.17632879E+04</pdfrwt>
<totfact> 0.66953182E+00</totfact>
</mgrwt>
</event>
<event>
12    5  0.5428626E-008  0.1400181E+04  0.7818608E-02  0.8953688E-01
          3   -1    0    0  501    0  0.00000000000E+00  0.00000000000E+00  0.14120130732E+04  0.14120130732E+04  0.00000000000E+00 0. -1.
         -4   -1    0    0    0  501 -0.00000000000E+00 -0.00000000000E+00 -0.34711200200E+03  0.34711200200E+03  0.00000000000E+00 0.  1.
        -24    2    1    2    0    0 -0.30084679101E+01 -0.41484200152E+03  0.40184077660E+03  0.58300514618E+03  0.79473603311E+02 0.  0.
        254    2    1    2    0    0  0.30084679101E+01  0.41484200152E+03  0.66306029459E+03  0.11761199290E+04  0.87835425430E+03 0.  0.
         23    2    4    4    0    0  0.31399560644E+03  0.27039700253E+02 -0.17038649683E+02  0.32842086863E+03  0.90805094120E+02 0.  0.
         23    2    4    4    0    0 -0.31098713853E+03  0.38780230127E+03  0.68009894427E+03  0.84769906037E+03  0.94633491739E+02 0.  0.
          3    1    3    3  502    0  0.94623679238E+01 -0.34025548025E+02  0.67108429636E+02  0.75834132509E+02  0.00000000000E+00 0. -1.
         -4    1    3    3    0  502 -0.12470835834E+02 -0.38081645350E+03  0.33473234696E+03  0.50717101367E+03  0.00000000000E+00 0.  1.
         13    1    5    5    0    0  0.75226686557E+02 -0.31834657240E+02  0.25182042533E+01  0.81724177112E+02  0.00000000000E+00 0.  1.
        -13    1    5    5    0    0  0.23876891988E+03  0.58874357493E+02 -0.19556853936E+02  0.24669669152E+03  0.00000000000E+00 0. -1.
          3    1    6    6  503    0 -0.25677328974E+03  0.35920747324E+03  0.62529687640E+03  0.76547940194E+03  0.00000000000E+00 0. -1.
         -3    1    6    6    0  503 -0.54213848785E+02  0.28594828032E+02  0.54802067870E+02  0.82219658434E+02  0.00000000000E+00 0.  1.
<mgrwt>
<rscale>  0 0.14001810E+04</rscale>
<asrwt>0</asrwt>
<pdfrwt beam="1">  1        3 0.21723278E+00 0.14001810E+04</pdfrwt>
<pdfrwt beam="2">  1       -4 0.53401847E-01 0.14001810E+04</pdfrwt>
<totfact> 0.86518519E-01</totfact>
</mgrwt>
</event>
<event>
12    5  0.5428626E-008  0.2086320E+04  0.7818608E-02  0.8567294E-01
         -2   -1    0    0    0  501 -0.00000000000E+00  0.00000000000E+00  0.42260081076E+03  0.42260081076E+03  0.00000000000E+00 0.  1.
          1   -1    0    0  501    0  0.00000000000E+00 -0.00000000000E+00 -0.25749660037E+04  0.25749660037E+04  0.00000000000E+00 0. -1.
        -24    2    1    2    0    0 -0.32072297733E+03 -0.53552813495E+03 -0.73701570516E+02  0.63353638149E+03  0.79264201707E+02 0.  0.
        254    2    1    2    0    0  0.32072297733E+03  0.53552813495E+03 -0.20786636225E+04  0.23640304330E+04  0.93709328315E+03 0.  0.
         23    2    4    4    0    0  0.43396590305E+03  0.30359046823E+03 -0.20122522003E+04  0.20827046238E+04  0.89476560673E+02 0.  0.
         23    2    4    4    0    0 -0.11324292572E+03  0.23193766671E+03 -0.66411422167E+02  0.28132580923E+03  0.90081587900E+02 0.  0.
          3    1    3    3  502    0 -0.75179619662E+01 -0.39900245191E+02  0.85644451098E+01  0.41495771333E+02  0.00000000000E+00 0. -1.
         -4    1    3    3    0  502 -0.31320501537E+03 -0.49562788976E+03 -0.82266015626E+02  0.59204061016E+03  0.00000000000E+00 0.  1.
         13    1    5    5    0    0  0.36952463151E+03  0.22647389311E+03 -0.17153418459E+04  0.17692474461E+04  0.00000000000E+00 0. -1.
        -13    1    5    5    0    0  0.64441271534E+02  0.77116575124E+02 -0.29691035444E+03  0.31345717763E+03  0.00000000000E+00 0.  1.
          4    1    6    6  503    0 -0.78931455853E+02  0.21143069310E+03 -0.79481509050E+02  0.23927060620E+03  0.00000000000E+00 0. -1.
         -4    1    6    6    0  503 -0.34311469863E+02  0.20506973609E+02  0.13070086883E+02  0.42055203029E+02  0.00000000000E+00 0.  1.
<mgrwt>
<rscale>  0 0.20863199E+04</rscale>
<asrwt>0</asrwt>
<pdfrwt beam="1">  1        1 0.39614862E+00 0.20863199E+04</pdfrwt>
<pdfrwt beam="2">  1       -2 0.65015508E-01 0.20863199E+04</pdfrwt>
<totfact> 0.21214417E+00</totfact>
</mgrwt>
</event>
<event>
12    5  0.5428626E-008  0.1413905E+04  0.7818608E-02  0.8943814E-01
          1   -1    0    0  501    0  0.00000000000E+00  0.00000000000E+00  0.20485615116E+04  0.20485615116E+04  0.00000000000E+00 0. -1.
         -2   -1    0    0    0  501 -0.00000000000E+00 -0.00000000000E+00 -0.24396737434E+03  0.24396737434E+03  0.00000000000E+00 0.  1.
        -24    2    1    2    0    0  0.18017435997E+03 -0.28977874100E+03  0.93822436171E+03  0.10014872371E+04  0.79228873166E+02 0.  0.
        254    2    1    2    0    0 -0.18017435997E+03  0.28977874100E+03  0.86636977553E+03  0.12910416489E+04  0.89429158134E+03 0.  0.
         23    2    4    4    0    0  0.11938133580E+03 -0.12191403896E+03 -0.82097156397E+02  0.21073562190E+03  0.92491205063E+02 0.  0.
         23    2    4    4    0    0 -0.29955569577E+03  0.41169277996E+03  0.94846693193E+03  0.10803060270E+04  0.90813165487E+02 0.  0.
          1    1    3    3  502    0  0.14838661411E+03 -0.19398950894E+03  0.58020820232E+03  0.62951733484E+03  0.00000000000E+00 0. -1.
         -2    1    3    3    0  502  0.31787745858E+02 -0.95789232062E+02  0.35801615940E+03  0.37196990222E+03  0.00000000000E+00 0.  1.
         13    1    5    5    0    0  0.19438156373E+02 -0.56108502335E+02  0.93758686548E+01  0.60115828785E+02  0.00000000000E+00 0.  1.
        -13    1    5    5    0    0  0.99943179427E+02 -0.65805536628E+02 -0.91473025052E+02  0.15061979311E+03  0.00000000000E+00 0. -1.
          2    1    6    6  503    0 -0.28986187501E+03  0.40220246795E+03  0.87581911823E+03  0.10064024343E+04  0.00000000000E+00 0. -1.
         -2    1    6    6    0  503 -0.96938207565E+01  0.94903120113E+01  0.72647813693E+02  0.73903592723E+02  0.00000000000E+00 0.  1.
<mgrwt>
<rscale>  0 0.14139055E+04</rscale>
<asrwt>0</asrwt>
<pdfrwt beam="1">  1        1 0.31516330E+00 0.14139055E+04</pdfrwt>
<pdfrwt beam="2">  1       -2 0.37533443E-01 0.14139055E+04</pdfrwt>
<totfact> 0.15830112E+01</totfact>
</mgrwt>
</event>
<event>
12    5  0.5428626E-008  0.2082220E+04  0.7818608E-02  0.8569116E-01
          1   -1    0    0  501    0  0.00000000000E+00  0.00000000000E+00  0.24021833793E+04  0.24021833793E+04  0.00000000000E+00 0. -1.
         -2   -1    0    0    0  501 -0.00000000000E+00 -0.00000000000E+00 -0.45121855788E+03  0.45121855788E+03  0.00000000000E+00 0.  1.
        -24    2    1    2    0    0 -0.52000662971E+03  0.52597679006E+03  0.13553063493E+04  0.15462812022E+04  0.84093859836E+02 0.  0.
        254    2    1    2    0    0  0.52000662971E+03 -0.52597679006E+03  0.59565847213E+03  0.13071207350E+04  0.89816319326E+03 0.  0.
         23    2    4    4    0    0 -0.18607066418E+03 -0.33888139231E+03  0.72000060688E+02  0.40385744959E+03  0.91945313796E+02 0.  0.
         23    2    4    4    0    0  0.70607729389E+03 -0.18709539775E+03  0.52365841144E+03  0.90326328537E+03  0.90092164077E+02 0.  0.
          3    1    3    3  502    0 -0.49109624414E+03  0.47124110243E+03  0.12699875395E+04  0.14408719749E+04  0.00000000000E+00 0. -1.
         -4    1    3    3    0  502 -0.28910385565E+02  0.54735687629E+02  0.85318809803E+02  0.10540922730E+03  0.00000000000E+00 0.  1.
         13    1    5    5    0    0 -0.11204130242E+03 -0.15558824701E+03  0.75725797131E+02  0.20614400890E+03  0.00000000000E+00 0.  1.
        -13    1    5    5    0    0 -0.74029361758E+02 -0.18329314530E+03 -0.37257364435E+01  0.19771344069E+03  0.00000000000E+00 0. -1.
          4    1    6    6  503    0  0.66974475641E+02  0.68511986042E+01  0.60362787210E+02  0.90422261581E+02  0.00000000000E+00 0. -1.
         -4    1    6    6    0  503  0.63910281825E+03 -0.19394659636E+03  0.46329562423E+03  0.81284102379E+03  0.00000000000E+00 0.  1.
<mgrwt>
<rscale>  0 0.20822197E+04</rscale>
<asrwt>0</asrwt>
<pdfrwt beam="1">  1        1 0.36956667E+00 0.20822197E+04</pdfrwt>
<pdfrwt beam="2">  1       -2 0.69418241E-01 0.20822197E+04</pdfrwt>
<totfact> 0.24258013E+00</totfact>
</mgrwt>
</event>
<event>
12    5  0.5428626E-008  0.2568714E+04  0.7818608E-02  0.8378907E-01
          1   -1    0    0  501    0  0.00000000000E+00  0.00000000000E+00  0.17858355762E+04  0.17858355762E+04  0.00000000000E+00 0. -1.
         -2   -1    0    0    0  501 -0.00000000000E+00 -0.00000000000E+00 -0.92369831286E+03  0.92369831286E+03  0.00000000000E+00 0.  1.
        -24    2    1    2    0    0 -0.13597306427E+03  0.29671058603E+03 -0.75412062206E+03  0.82545477158E+03  0.78433546631E+02 0.  0.
        254    2    1    2    0    0  0.13597306427E+03 -0.29671058603E+03  0.16162578854E+04  0.18840791175E+04  0.91155840337E+03 0.  0.
         23    2    4    4    0    0 -0.16207090618E+03 -0.10491060246E+02 -0.25863597344E+02  0.18816492302E+03  0.91433427211E+02 0.  0.
         23    2    4    4    0    0  0.29804397045E+03 -0.28621952578E+03  0.16421214827E+04  0.16959141945E+04  0.93862482666E+02 0.  0.
          1    1    3    3  502    0 -0.44955269146E+02  0.31377821378E+02 -0.11001192188E+03  0.12291528324E+03  0.00000000000E+00 0. -1.
         -2    1    3    3    0  502 -0.91017795122E+02  0.26533276465E+03 -0.64410870018E+03  0.70253948833E+03  0.00000000000E+00 0.  1.
         13    1    5    5    0    0  0.56940301608E+01  0.11586665179E+02  0.85564378325E+01  0.15488234820E+02  0.00000000000E+00 0. -1.
        -13    1    5    5    0    0 -0.16776493634E+03 -0.22077725426E+02 -0.34420035176E+02  0.17267668820E+03  0.00000000000E+00 0.  1.
          4    1    6    6  503    0  0.75527795165E+01 -0.19464301702E+01  0.12652137229E+03  0.12676155061E+03  0.00000000000E+00 0. -1.
         -4    1    6    6    0  503  0.29049119093E+03 -0.28427309561E+03  0.15156001105E+04  0.15691526439E+04  0.00000000000E+00 0.  1.
<mgrwt>
<rscale>  0 0.25687143E+04</rscale>
<asrwt>0</asrwt>
<pdfrwt beam="1">  1        1 0.27474393E+00 0.25687143E+04</pdfrwt>
<pdfrwt beam="2">  1       -2 0.14210743E+00 0.25687143E+04</pdfrwt>
<totfact> 0.11164721E+00</totfact>
</mgrwt>
</event>
<event>
12    5  0.5428626E-008  0.1877983E+04  0.7818608E-02  0.8665894E-01
         -2   -1    0    0    0  501 -0.00000000000E+00  0.00000000000E+00  0.54348853728E+03  0.54348853728E+03  0.00000000000E+00 0.  1.
          1   -1    0    0  501    0  0.00000000000E+00 -0.00000000000E+00 -0.16223059669E+04  0.16223059669E+04  0.00000000000E+00 0. -1.
        -24    2    1    2    0    0  0.27806185341E+03  0.48179281830E+03 -0.95772686941E+03  0.11104786514E+04  0.80494500662E+02 0.  0.
        254    2    1    2    0    0 -0.27806185341E+03 -0.48179281830E+03 -0.12109056017E+03  0.10553158528E+04  0.88858646810E+03 0.  0.
         23    2    4    4    0    0  0.29451021275E+03 -0.19176112097E+03 -0.17676429995E+03  0.40467841456E+03  0.94923171780E+02 0.  0.
         23    2    4    4    0    0 -0.57257206616E+03 -0.29003169733E+03  0.55673739781E+02  0.65063743823E+03  0.90952483885E+02 0.  0.
          1    1    3    3  502    0  0.11724301546E+03  0.26900941080E+03 -0.54713586159E+03  0.62086201270E+03  0.00000000000E+00 0. -1.
         -2    1    3    3    0  502  0.16081883795E+03  0.21278340751E+03 -0.41059100782E+03  0.48961663866E+03  0.00000000000E+00 0.  1.
         13    1    5    5    0    0  0.53074653267E+02 -0.66106375737E+02 -0.77810898962E+02  0.11507175036E+03  0.00000000000E+00 0. -1.
        -13    1    5    5    0    0  0.24143555948E+03 -0.12565474524E+03 -0.98953400992E+02  0.28960666420E+03  0.00000000000E+00 0.  1.
          2    1    6    6  503    0 -0.12246085989E+03 -0.10308967677E+03 -0.36776071915E-01  0.16007543538E+03  0.00000000000E+00 0. -1.
         -2    1    6    6    0  503 -0.45011120627E+03 -0.18694202056E+03  0.55710515853E+02  0.49056200285E+03  0.00000000000E+00 0.  1.
<mgrwt>
<rscale>  0 0.18779826E+04</rscale>
<asrwt>0</asrwt>
<pdfrwt beam="1">  1        1 0.24958553E+00 0.18779826E+04</pdfrwt>
<pdfrwt beam="2">  1       -2 0.83613624E-01 0.18779826E+04</pdfrwt>
<totfact> 0.55438773E+00</totfact>
</mgrwt>
</event>
<event>
12    5  0.5428626E-008  0.1490697E+04  0.7818608E-02  0.8890663E-01
          1   -1    0    0  501    0  0.00000000000E+00  0.00000000000E+00  0.60059338779E+03  0.60059338779E+03  0.00000000000E+00 0. -1.
         -2   -1    0    0    0  501 -0.00000000000E+00 -0.00000000000E+00 -0.92499204545E+03  0.92499204545E+03  0.00000000000E+00 0.  1.
        -24    2    1    2    0    0  0.12960329167E+03 -0.21781468889E+03 -0.49526259121E+03  0.56209746009E+03  0.80176483320E+02 0.  0.
        254    2    1    2    0    0 -0.12960329167E+03  0.21781468889E+03  0.17086393355E+03  0.96348797316E+03  0.91371458275E+03 0.  0.
         23    2    4    4    0    0 -0.16488189626E+03 -0.32612974769E+03  0.16455972855E+03  0.41143354359E+03  0.93010776196E+02 0.  0.
         23    2    4    4    0    0  0.35278604590E+02  0.54394443657E+03  0.63042050017E+01  0.55205442957E+03  0.87202179928E+02 0.  0.
          1    1    3    3  502    0 -0.10287456985E+01 -0.23702187966E+02 -0.15549340841E+02  0.28366071858E+02  0.00000000000E+00 0. -1.
         -2    1    3    3    0  502  0.13063203737E+03 -0.19411250092E+03 -0.47971325037E+03  0.53373138823E+03  0.00000000000E+00 0.  1.
         13    1    5    5    0    0 -0.15042168930E+03 -0.24726988619E+03  0.93097570452E+02  0.30403328576E+03  0.00000000000E+00 0.  1.
        -13    1    5    5    0    0 -0.14460206960E+02 -0.78859861500E+02  0.71462158100E+02  0.10740025783E+03  0.00000000000E+00 0. -1.
          1    1    6    6  503    0  0.38764752012E+02  0.54356014362E+03  0.11514430560E+00  0.54494068391E+03  0.00000000000E+00 0. -1.
         -1    1    6    6    0  503 -0.34861474221E+01  0.38429295685E+00  0.61890606961E+01  0.71137456537E+01  0.00000000000E+00 0.  1.
<mgrwt>
<rscale>  0 0.14906966E+04</rscale>
<asrwt>0</asrwt>
<pdfrwt beam="1">  1        1 0.92398983E-01 0.14906966E+04</pdfrwt>
<pdfrwt beam="2">  1       -2 0.14230647E+00 0.14906966E+04</pdfrwt>
<totfact> 0.99659975E+00</totfact>
</mgrwt>
</event>
<event>
12    5  0.5428626E-008  0.2023918E+04  0.7818608E-02  0.8595519E-01
         -2   -1    0    0    0  501 -0.00000000000E+00  0.00000000000E+00  0.20024049129E+04  0.20024049129E+04  0.00000000000E+00 0.  1.
          1   -1    0    0  501    0  0.00000000000E+00 -0.00000000000E+00 -0.51141576925E+03  0.51141576925E+03  0.00000000000E+00 0. -1.
        -24    2    1    2    0    0  0.12620335270E+03 -0.16552514952E+03 -0.35727136877E+03  0.42189518839E+03  0.83826354377E+02 0.  0.
        254    2    1    2    0    0 -0.12620335270E+03  0.16552514952E+03  0.18482605124E+04  0.20919254937E+04  0.95747558106E+03 0.  0.
         23    2    4    4    0    0  0.25225995206E+03  0.35492089086E+03  0.47264324147E+03  0.64939876685E+03  0.93398086167E+02 0.  0.
         23    2    4    4    0    0 -0.37846330476E+03 -0.18939574134E+03  0.13756172709E+04  0.14425267269E+04  0.97238170690E+02 0.  0.
          3    1    3    3  502    0  0.79684578003E+02 -0.12915488498E+03 -0.18214147549E+03  0.23707832752E+03  0.00000000000E+00 0. -1.
         -4    1    3    3    0  502  0.46518774697E+02 -0.36370264537E+02 -0.17512989328E+03  0.18481686087E+03  0.00000000000E+00 0.  1.
         13    1    5    5    0    0  0.93227559645E+02  0.20340980751E+03  0.20828605154E+03  0.30569593869E+03  0.00000000000E+00 0.  1.
        -13    1    5    5    0    0  0.15903239241E+03  0.15151108335E+03  0.26435718993E+03  0.34370282816E+03  0.00000000000E+00 0. -1.
          2    1    6    6  503    0 -0.23755457785E+03 -0.97072830366E+02  0.68027422467E+03  0.72706831358E+03  0.00000000000E+00 0. -1.
         -2    1    6    6    0  503 -0.14090872691E+03 -0.92322910976E+02  0.69534304625E+03  0.71545841331E+03  0.00000000000E+00 0.  1.
<mgrwt>
<rscale>  0 0.20239184E+04</rscale>
<asrwt>0</asrwt>
<pdfrwt beam="1">  1        1 0.78679350E-01 0.20239184E+04</pdfrwt>
<pdfrwt beam="2">  1       -2 0.30806229E+00 0.20239184E+04</pdfrwt>
<totfact> 0.98856204E-01</totfact>
</mgrwt>
</event>
<event>
12    5  0.5428626E-008  0.1744197E+04  0.7818608E-02  0.8736551E-01
         -2   -1    0    0    0  501 -0.00000000000E+00  0.00000000000E+00  0.22914585171E+03  0.22914585171E+03  0.00000000000E+00 0.  1.
          1   -1    0    0  501    0  0.00000000000E+00 -0.00000000000E+00 -0.33190907020E+04  0.33190907020E+04  0.00000000000E+00 0. -1.
        -24    2    1    2    0    0 -0.18454807259E+03  0.55263242696E+03 -0.60918997295E+03  0.84673288259E+03  0.79897189528E+02 0.  0.
        254    2    1    2    0    0  0.18454807259E+03 -0.55263242696E+03 -0.24807548773E+04  0.27015036711E+04  0.89694856776E+03 0.  0.
         23    2    4    4    0    0  0.34327041246E+03 -0.90260995075E+02 -0.32801208032E+03  0.49204983884E+03  0.92409392199E+02 0.  0.
         23    2    4    4    0    0 -0.15872233987E+03 -0.46237143189E+03 -0.21527427970E+04  0.22094538323E+04  0.91676412733E+02 0.  0.
          1    1    3    3  502    0 -0.49044076573E+02  0.20407551435E+03 -0.26889198630E+03  0.34110854182E+03  0.00000000000E+00 0. -1.
         -2    1    3    3    0  502 -0.13550399601E+03  0.34855691262E+03 -0.34029798664E+03  0.50562434077E+03  0.00000000000E+00 0.  1.
         13    1    5    5    0    0  0.36169475721E+02 -0.38821198211E+02 -0.29564620260E+02  0.60740292850E+02  0.00000000000E+00 0. -1.
        -13    1    5    5    0    0  0.30710093674E+03 -0.51439796864E+02 -0.29844746006E+03  0.43130954599E+03  0.00000000000E+00 0.  1.
          3    1    6    6  503    0 -0.79892692110E+02 -0.17253034699E+03 -0.10196291916E+04  0.10372045369E+04  0.00000000000E+00 0. -1.
         -3    1    6    6    0  503 -0.78829647762E+02 -0.28984108489E+03 -0.11331136054E+04  0.11722492954E+04  0.00000000000E+00 0.  1.
<mgrwt>
<rscale>  0 0.17441971E+04</rscale>
<asrwt>0</asrwt>
<pdfrwt beam="1">  1        1 0.51062929E+00 0.17441971E+04</pdfrwt>
<pdfrwt beam="2">  1       -2 0.35253212E-01 0.17441971E+04</pdfrwt>
<totfact> 0.21855082E+00</totfact>
</mgrwt>
</event>
<event>
12    5  0.5428626E-008  0.1349813E+04  0.7818608E-02  0.8990970E-01
         -2   -1    0    0    0  501 -0.00000000000E+00  0.00000000000E+00  0.11641716185E+04  0.11641716185E+04  0.00000000000E+00 0.  1.
          1   -1    0    0  501    0  0.00000000000E+00 -0.00000000000E+00 -0.39126403218E+03  0.39126403218E+03  0.00000000000E+00 0. -1.
        -24    2    1    2    0    0 -0.43877865841E+02  0.16512341645E+03  0.60963750413E+03  0.63783634908E+03  0.77371260766E+02 0.  0.
        254    2    1    2    0    0  0.43877865841E+02 -0.16512341645E+03  0.16327008219E+03  0.91759930160E+03  0.88664555984E+03 0.  0.
         23    2    4    4    0    0 -0.32854398699E+02 -0.81580157370E+02  0.51833611227E+03  0.53417868878E+03  0.94550582577E+02 0.  0.
         23    2    4    4    0    0  0.76732264540E+02 -0.83543259083E+02 -0.35506603009E+03  0.38342061282E+03  0.89845222780E+02 0.  0.
          3    1    3    3  502    0 -0.19200821413E+02  0.95474755831E+02  0.21075449022E+03  0.23216708572E+03  0.00000000000E+00 0. -1.
         -4    1    3    3    0  502 -0.24677044428E+02  0.69648660623E+02  0.39888301391E+03  0.40566926336E+03  0.00000000000E+00 0.  1.
         13    1    5    5    0    0 -0.45804918136E+02 -0.16793351477E+02  0.34928622065E+03  0.35267686501E+03  0.00000000000E+00 0. -1.
        -13    1    5    5    0    0  0.12950519438E+02 -0.64786805893E+02  0.16904989162E+03  0.18150182376E+03  0.00000000000E+00 0.  1.
          2    1    6    6  503    0  0.35478221814E+02 -0.17448079963E+01 -0.20147608930E+03  0.20458338920E+03  0.00000000000E+00 0.  1.
         -2    1    6    6    0  503  0.41254042726E+02 -0.81798451087E+02 -0.15358994079E+03  0.17883722362E+03  0.00000000000E+00 0. -1.
<mgrwt>
<rscale>  0 0.13498126E+04</rscale>
<asrwt>0</asrwt>
<pdfrwt beam="1">  1        1 0.60194467E-01 0.13498126E+04</pdfrwt>
<pdfrwt beam="2">  1       -2 0.17910332E+00 0.13498126E+04</pdfrwt>
<totfact> 0.97094926E+00</totfact>
</mgrwt>
</event>
<event>
12    5  0.5428626E-008  0.2091640E+04  0.7818608E-02  0.8564935E-01
         -2   -1    0    0    0  501 -0.00000000000E+00  0.00000000000E+00  0.84733493728E+03  0.84733493728E+03  0.00000000000E+00 0.  1.
          1   -1    0    0  501    0  0.00000000000E+00 -0.00000000000E+00 -0.12907994039E+04  0.12907994039E+04  0.00000000000E+00 0. -1.
        -24    2    1    2    0    0  0.87483625089E+02  0.16756052830E+02  0.67909232837E+03  0.68949618311E+03  0.79400542193E+02 0.  0.
        254    2    1    2    0    0 -0.87483625089E+02 -0.16756052830E+02 -0.11225567950E+04  0.14486381581E+04  0.91130928068E+03 0.  0.
         23    2    4    4    0    0  0.17720490654E+03 -0.34527341535E+03 -0.23751134575E+03  0.46392202255E+03  0.90535591856E+02 0.  0.
         23    2    4    4    0    0 -0.26468853163E+03  0.32851736252E+03 -0.88504544927E+03  0.98471613554E+03  0.91524554487E+02 0.  0.
          1    1    3    3  502    0  0.18749824113E+02  0.28276383013E+02  0.41426867601E+03  0.41565568162E+03  0.00000000000E+00 0. -1.
         -2    1    3    3    0  502  0.68733800976E+02 -0.11520330183E+02  0.26482365237E+03  0.27384050149E+03  0.00000000000E+00 0.  1.
         13    1    5    5    0    0 -0.52225488665E+01 -0.53417097172E+01  0.42937666693E+01  0.86165719156E+01  0.00000000000E+00 0.  1.
        -13    1    5    5    0    0  0.18242745540E+03 -0.33993170564E+03 -0.24180511242E+03  0.45530545063E+03  0.00000000000E+00 0. -1.
          4    1    6    6  503    0 -0.99494092695E+02  0.78913392892E+02 -0.33916921374E+03  0.36216315882E+03  0.00000000000E+00 0.  1.
         -4    1    6    6    0  503 -0.16519443893E+03  0.24960396963E+03 -0.54587623553E+03  0.62255297672E+03  0.00000000000E+00 0. -1.
<mgrwt>
<rscale>  0 0.20916400E+04</rscale>
<asrwt>0</asrwt>
<pdfrwt beam="1">  1        1 0.19858452E+00 0.20916400E+04</pdfrwt>
<pdfrwt beam="2">  1       -2 0.13035922E+00 0.20916400E+04</pdfrwt>
<totfact> 0.31985955E+00</totfact>
</mgrwt>
</event>
<event>
12    5  0.5428626E-008  0.2162959E+04  0.7818608E-02  0.8534006E-01
          1   -1    0    0  501    0  0.00000000000E+00  0.00000000000E+00  0.15413817186E+04  0.15413817186E+04  0.00000000000E+00 0. -1.
         -2   -1    0    0    0  501 -0.00000000000E+00 -0.00000000000E+00 -0.75879826512E+03  0.75879826512E+03  0.00000000000E+00 0.  1.
        -24    2    1    2    0    0  0.82751145708E+02  0.62004199743E+03 -0.35530832211E+03  0.72363972336E+03  0.78170421318E+02 0.  0.
        254    2    1    2    0    0 -0.82751145708E+02 -0.62004199743E+03  0.11378917756E+04  0.15765402604E+04  0.89408146658E+03 0.  0.
         23    2    4    4    0    0 -0.74585292383E+02 -0.81074937816E+03  0.65783532349E+03  0.10507984644E+04  0.92480159514E+02 0.  0.
         23    2    4    4    0    0 -0.81658533249E+01  0.19070738072E+03  0.48005645215E+03  0.52574179601E+03  0.97541030340E+02 0.  0.
          1    1    3    3  502    0  0.47309646182E+02  0.12906257943E+03 -0.63812437943E+02  0.15154992335E+03  0.00000000000E+00 0. -1.
         -2    1    3    3    0  502  0.35441499526E+02  0.49097941800E+03 -0.29149588417E+03  0.57208980001E+03  0.00000000000E+00 0.  1.
         13    1    5    5    0    0 -0.63686023906E+02 -0.45742119341E+03  0.32029095588E+03  0.56202878417E+03  0.00000000000E+00 0.  1.
        -13    1    5    5    0    0 -0.10899268477E+02 -0.35332818475E+03  0.33754436761E+03  0.48876968022E+03  0.00000000000E+00 0. -1.
          3    1    6    6  503    0 -0.14756275136E+02  0.41837269014E+02  0.23330104254E+03  0.23748153862E+03  0.00000000000E+00 0. -1.
         -3    1    6    6    0  503  0.65904218113E+01  0.14887011171E+03  0.24675540961E+03  0.28826025739E+03  0.00000000000E+00 0.  1.
<mgrwt>
<rscale>  0 0.21629589E+04</rscale>
<asrwt>0</asrwt>
<pdfrwt beam="1">  1        1 0.23713565E+00 0.21629589E+04</pdfrwt>
<pdfrwt beam="2">  1       -2 0.11673820E+00 0.21629589E+04</pdfrwt>
<totfact> 0.27951797E+00</totfact>
</mgrwt>
</event>
<event>
12    5  0.5428626E-008  0.2553023E+04  0.7818608E-02  0.8384336E-01
         -2   -1    0    0    0  501 -0.00000000000E+00  0.00000000000E+00  0.63451492989E+03  0.63451492989E+03  0.00000000000E+00 0.  1.
          1   -1    0    0  501    0  0.00000000000E+00 -0.00000000000E+00 -0.25680738802E+04  0.25680738802E+04  0.00000000000E+00 0. -1.
        -24    2    1    2    0    0 -0.20457779253E+03 -0.46953856311E+03 -0.20945522942E+04  0.21577363499E+04  0.79738993390E+02 0.  0.
        254    2    1    2    0    0  0.20457779253E+03  0.46953856311E+03  0.16099334388E+03  0.10448524602E+04  0.89637005270E+03 0.  0.
         23    2    4    4    0    0  0.23364726823E+03 -0.21460580255E+03  0.12558329882E+03  0.35314474104E+03  0.91067813982E+02 0.  0.
         23    2    4    4    0    0 -0.29069475699E+02  0.68414436565E+03  0.35410045064E+02  0.69170771916E+03  0.91143567969E+02 0.  0.
          1    1    3    3  502    0 -0.10005970324E+03 -0.28121265083E+03 -0.13533047354E+04  0.13858305113E+04  0.00000000000E+00 0. -1.
         -2    1    3    3    0  502 -0.10451808930E+03 -0.18832591227E+03 -0.74124755886E+03  0.77190583865E+03  0.00000000000E+00 0.  1.
         13    1    5    5    0    0  0.11982068479E+03 -0.56934387327E+02  0.74221186958E+02  0.15201087316E+03  0.00000000000E+00 0.  1.
        -13    1    5    5    0    0  0.11382658344E+03 -0.15767141522E+03  0.51362111859E+02  0.20113386788E+03  0.00000000000E+00 0. -1.
          2    1    6    6  503    0 -0.36920871162E+02  0.13674086564E+03 -0.12312918654E+02  0.14217180814E+03  0.00000000000E+00 0. -1.
         -2    1    6    6    0  503  0.78513954637E+01  0.54740350001E+03  0.47722963719E+02  0.54953591102E+03  0.00000000000E+00 0.  1.
<mgrwt>
<rscale>  0 0.25530227E+04</rscale>
<asrwt>0</asrwt>
<pdfrwt beam="1">  1        1 0.39508828E+00 0.25530227E+04</pdfrwt>
<pdfrwt beam="2">  1       -2 0.97617685E-01 0.25530227E+04</pdfrwt>
<totfact> 0.82564842E-01</totfact>
</mgrwt>
</event>
<event>
12    5  0.5428626E-008  0.1657941E+04  0.7818608E-02  0.8785723E-01
         -2   -1    0    0    0  501 -0.00000000000E+00  0.00000000000E+00  0.12037854622E+04  0.12037854622E+04  0.00000000000E+00 0.  1.
          1   -1    0    0  501    0  0.00000000000E+00 -0.00000000000E+00 -0.57085924865E+03  0.57085924865E+03  0.00000000000E+00 0. -1.
        -24    2    1    2    0    0 -0.35451164625E+03  0.25400752259E+03  0.63797397845E+03  0.77698607213E+03  0.80611601135E+02 0.  0.
        254    2    1    2    0    0  0.35451164625E+03 -0.25400752259E+03 -0.50477648550E+01  0.99765863876E+03  0.89727306362E+03 0.  0.
         23    2    4    4    0    0 -0.13242373081E+03 -0.38540390796E+03 -0.18296366591E+03  0.45576443576E+03  0.90406311218E+02 0.  0.
         23    2    4    4    0    0  0.48693537706E+03  0.13139638537E+03  0.17791590105E+03  0.54189420300E+03  0.87316595642E+02 0.  0.
          3    1    3    3  502    0 -0.66127421752E+02  0.15452234941E+02  0.77555013564E+02  0.10308437128E+03  0.00000000000E+00 0. -1.
         -4    1    3    3    0  502 -0.28838422450E+03  0.23855528765E+03  0.56041896489E+03  0.67390170085E+03  0.00000000000E+00 0.  1.
         13    1    5    5    0    0 -0.14535503680E+03 -0.34127295341E+03 -0.15559623300E+03  0.40225054777E+03  0.00000000000E+00 0.  1.
        -13    1    5    5    0    0  0.12931305994E+02 -0.44130954544E+02 -0.27367432913E+02  0.53513887991E+02  0.00000000000E+00 0. -1.
          1    1    6    6  503    0  0.62156396668E+02  0.21062859177E+02  0.56333538202E+02  0.86490052664E+02  0.00000000000E+00 0. -1.
         -1    1    6    6    0  503  0.42477898040E+03  0.11033352619E+03  0.12158236285E+03  0.45540415034E+03  0.00000000000E+00 0.  1.
<mgrwt>
<rscale>  0 0.16579410E+04</rscale>
<asrwt>0</asrwt>
<pdfrwt beam="1">  1        1 0.87824500E-01 0.16579410E+04</pdfrwt>
<pdfrwt beam="2">  1       -2 0.18519776E+00 0.16579410E+04</pdfrwt>
<totfact> 0.51310158E+00</totfact>
</mgrwt>
</event>
<event>
12    5  0.5428626E-008  0.1267674E+04  0.7818608E-02  0.9055600E-01
          3   -1    0    0  501    0  0.00000000000E+00  0.00000000000E+00  0.34503738758E+03  0.34503738758E+03  0.00000000000E+00 0. -1.
         -2   -1    0    0    0  501 -0.00000000000E+00 -0.00000000000E+00 -0.11643644304E+04  0.11643644304E+04  0.00000000000E+00 0.  1.
        -24    2    1    2    0    0  0.14279728295E+03  0.30949117803E+03 -0.38537835632E+03  0.52061996280E+03  0.79704547271E+02 0.  0.
        254    2    1    2    0    0 -0.14279728295E+03 -0.30949117803E+03 -0.43394868649E+03  0.98878185516E+03  0.82048902570E+03 0.  0.
         23    2    4    4    0    0  0.10449311873E+03 -0.35799873227E+03 -0.57021743681E+03  0.68734926668E+03  0.90659720884E+02 0.  0.
         23    2    4    4    0    0 -0.24729040168E+03  0.48507554246E+02  0.13626875031E+03  0.30143258848E+03  0.93738505999E+02 0.  0.
          1    1    3    3  502    0  0.11828680260E+03  0.21998027554E+03 -0.32505611321E+03  0.40993239202E+03  0.00000000000E+00 0. -1.
         -2    1    3    3    0  502  0.24510480352E+02  0.89510902491E+02 -0.60322243111E+02  0.11068757078E+03  0.00000000000E+00 0.  1.
         13    1    5    5    0    0  0.11180478401E+03 -0.35383684278E+03 -0.53470254175E+03  0.65085146476E+03  0.00000000000E+00 0.  1.
        -13    1    5    5    0    0 -0.73116652767E+01 -0.41618894929E+01 -0.35514895061E+02  0.36497801913E+02  0.00000000000E+00 0. -1.
          2    1    6    6  503    0 -0.65863257272E+02  0.51938844149E+02  0.21035215028E+02  0.86475964644E+02  0.00000000000E+00 0. -1.
         -2    1    6    6    0  503 -0.18142714441E+03 -0.34312899027E+01  0.11523353529E+03  0.21495662384E+03  0.00000000000E+00 0.  1.
<mgrwt>
<rscale>  0 0.12676739E+04</rscale>
<asrwt>0</asrwt>
<pdfrwt beam="1">  1        3 0.53082677E-01 0.12676739E+04</pdfrwt>
<pdfrwt beam="2">  1       -2 0.17913298E+00 0.12676739E+04</pdfrwt>
<totfact> 0.26567135E+00</totfact>
</mgrwt>
</event>
<event>
12    5  0.5428626E-008  0.1870803E+04  0.7818608E-02  0.8669528E-01
          1   -1    0    0  501    0  0.00000000000E+00  0.00000000000E+00  0.11338749987E+04  0.11338749987E+04  0.00000000000E+00 0. -1.
         -2   -1    0    0    0  501 -0.00000000000E+00 -0.00000000000E+00 -0.77166872517E+03  0.77166872517E+03  0.00000000000E+00 0.  1.
        -24    2    1    2    0    0  0.57619126026E+03 -0.23528873079E+03  0.49066880990E+03  0.79661656211E+03  0.80528943786E+02 0.  0.
        254    2    1    2    0    0 -0.57619126026E+03  0.23528873079E+03 -0.12846253637E+03  0.11089271618E+04  0.90876821667E+03 0.  0.
         23    2    4    4    0    0  0.51960326012E+02 -0.21642951466E+03 -0.21825251932E+03  0.32482731203E+03  0.91307229476E+02 0.  0.
         23    2    4    4    0    0 -0.62815158627E+03  0.45171824545E+03  0.89789982949E+02  0.78409984974E+03  0.90147350064E+02 0.  0.
          1    1    3    3  502    0  0.24923558652E+03 -0.10135143957E+03  0.16201757899E+03  0.31407035485E+03  0.00000000000E+00 0. -1.
         -2    1    3    3    0  502  0.32695567374E+03 -0.13393729122E+03  0.32865123091E+03  0.48254620726E+03  0.00000000000E+00 0.  1.
         13    1    5    5    0    0  0.37330999097E+02 -0.27679324400E+02 -0.19673658093E+02  0.50465843058E+02  0.00000000000E+00 0. -1.
        -13    1    5    5    0    0  0.14629326915E+02 -0.18875019026E+03 -0.19857886122E+03  0.27436146897E+03  0.00000000000E+00 0.  1.
          4    1    6    6  503    0 -0.36835100096E+03  0.23452484533E+03  0.12968666202E+02  0.43686674088E+03  0.00000000000E+00 0. -1.
         -4    1    6    6    0  503 -0.25980058531E+03  0.21719340012E+03  0.76821316747E+02  0.34723310886E+03  0.00000000000E+00 0.  1.
<mgrwt>
<rscale>  0 0.18708029E+04</rscale>
<asrwt>0</asrwt>
<pdfrwt beam="1">  1        1 0.17444231E+00 0.18708029E+04</pdfrwt>
<pdfrwt beam="2">  1       -2 0.11871827E+00 0.18708029E+04</pdfrwt>
<totfact> 0.53645135E+00</totfact>
</mgrwt>
</event>
<event>
12    5  0.5428626E-008  0.1652979E+04  0.7818608E-02  0.8788646E-01
         -2   -1    0    0    0  501 -0.00000000000E+00  0.00000000000E+00  0.10590182825E+04  0.10590182825E+04  0.00000000000E+00 0.  1.
          1   -1    0    0  501    0  0.00000000000E+00 -0.00000000000E+00 -0.64501684519E+03  0.64501684519E+03  0.00000000000E+00 0. -1.
        -24    2    1    2    0    0 -0.88182189535E+02  0.24683938156E+03  0.68093640949E+03  0.73392620046E+03  0.79167512998E+02 0.  0.
        254    2    1    2    0    0  0.88182189535E+02 -0.24683938156E+03 -0.26693497213E+03  0.97010892727E+03  0.89507054057E+03 0.  0.
         23    2    4    4    0    0  0.42109237885E+03 -0.33019082111E+02  0.75937289081E+02  0.43853865396E+03  0.90225427852E+02 0.  0.
         23    2    4    4    0    0 -0.33291018932E+03 -0.21382029945E+03 -0.34287226121E+03  0.53157027332E+03  0.91963326167E+02 0.  0.
          1    1    3    3  502    0 -0.11625390153E+02 -0.73209721563E+00  0.12856294486E+02  0.17348486114E+02  0.00000000000E+00 0. -1.
         -2    1    3    3    0  502 -0.76556799382E+02  0.24757147878E+03  0.66808011500E+03  0.71657771435E+03  0.00000000000E+00 0.  1.
         13    1    5    5    0    0  0.27894254676E+03 -0.18314569595E+02  0.93018770415E+02  0.29461306743E+03  0.00000000000E+00 0. -1.
        -13    1    5    5    0    0  0.14214983209E+03 -0.14704512516E+02 -0.17081481333E+02  0.14392558652E+03  0.00000000000E+00 0.  1.
          4    1    6    6  503    0 -0.27962827740E+03 -0.16399271035E+03 -0.31902403805E+03  0.45482075527E+03  0.00000000000E+00 0. -1.
         -4    1    6    6    0  503 -0.53281911915E+02 -0.49827589102E+02 -0.23848223165E+02  0.76749518052E+02  0.00000000000E+00 0.  1.
<mgrwt>
<rscale>  0 0.16529787E+04</rscale>
<asrwt>0</asrwt>
<pdfrwt beam="1">  1        1 0.99233361E-01 0.16529787E+04</pdfrwt>
<pdfrwt beam="2">  1       -2 0.16292589E+00 0.16529787E+04</pdfrwt>
<totfact> 0.61714601E+00</totfact>
</mgrwt>
</event>
<event>
12    5  0.5428626E-008  0.1708098E+04  0.7818608E-02  0.8756759E-01
         -2   -1    0    0    0  501 -0.00000000000E+00  0.00000000000E+00  0.35114706537E+03  0.35114706537E+03  0.00000000000E+00 0.  1.
          1   -1    0    0  501    0  0.00000000000E+00 -0.00000000000E+00 -0.20771919961E+04  0.20771919961E+04  0.00000000000E+00 0. -1.
        -24    2    1    2    0    0  0.58701393160E+03 -0.66752644796E+02 -0.38921083904E+03  0.71180331096E+03  0.78342866821E+02 0.  0.
        254    2    1    2    0    0 -0.58701393160E+03  0.66752644796E+02 -0.13368340917E+04  0.17165357505E+04  0.90018238296E+03 0.  0.
         23    2    4    4    0    0 -0.77179728870E+02 -0.14965122852E+03 -0.10842819160E+04  0.11010871004E+04  0.91505893298E+02 0.  0.
         23    2    4    4    0    0 -0.50983420273E+03  0.21640387332E+03 -0.25255217563E+03  0.61544865009E+03  0.90735267738E+02 0.  0.
          1    1    3    3  502    0  0.18006390156E+03 -0.28618971027E+02 -0.79102695441E+02  0.19874428438E+03  0.00000000000E+00 0. -1.
         -2    1    3    3    0  502  0.40695003004E+03 -0.38133673769E+02 -0.31010814360E+03  0.51305902658E+03  0.00000000000E+00 0.  1.
         13    1    5    5    0    0 -0.57725175069E+02 -0.15677450732E+03 -0.87686254390E+03  0.89263562716E+03  0.00000000000E+00 0.  1.
        -13    1    5    5    0    0 -0.19454553802E+02  0.71232787938E+01 -0.20741937212E+03  0.20845147324E+03  0.00000000000E+00 0. -1.
          3    1    6    6  503    0 -0.28440789365E+03  0.96969412726E+02 -0.92977355474E+02  0.31454046736E+03  0.00000000000E+00 0. -1.
         -3    1    6    6    0  503 -0.22542630909E+03  0.11943446059E+03 -0.15957482016E+03  0.30090818273E+03  0.00000000000E+00 0.  1.
<mgrwt>
<rscale>  0 0.17080982E+04</rscale>
<asrwt>0</asrwt>
<pdfrwt beam="1">  1        1 0.31956799E+00 0.17080982E+04</pdfrwt>
<pdfrwt beam="2">  1       -2 0.54022626E-01 0.17080982E+04</pdfrwt>
<totfact> 0.71191299E+00</totfact>
</mgrwt>
</event>
<event>
12    5  0.5428626E-008  0.2264972E+04  0.7818608E-02  0.8491861E-01
         -4   -1    0    0    0  501 -0.00000000000E+00  0.00000000000E+00  0.12992765928E+04  0.12992765928E+04  0.00000000000E+00 0.  1.
          3   -1    0    0  501    0  0.00000000000E+00 -0.00000000000E+00 -0.98710697543E+03  0.98710697543E+03  0.00000000000E+00 0. -1.
        -24    2    1    2    0    0  0.60461003409E+03 -0.25606953371E+03 -0.57135820526E+03  0.87417906475E+03  0.81326128099E+02 0.  0.
        254    2    1    2    0    0 -0.60461003409E+03  0.25606953371E+03  0.88352782262E+03  0.14122045035E+04  0.88463283165E+03 0.  0.
         23    2    4    4    0    0  0.14281278462E+03  0.86829134210E+02 -0.54428515200E+02  0.19761882047E+03  0.90310270389E+02 0.  0.
         23    2    4    4    0    0 -0.74742281871E+03  0.16924039950E+03  0.93795633782E+03  0.12145856830E+04  0.90405237279E+02 0.  0.
          1    1    3    3  502    0  0.44155101100E+03 -0.21344822358E+03 -0.45822777356E+03  0.67119306606E+03  0.00000000000E+00 0. -1.
         -2    1    3    3    0  502  0.16305902308E+03 -0.42621310136E+02 -0.11313043170E+03  0.20298599869E+03  0.00000000000E+00 0.  1.
         13    1    5    5    0    0  0.38099919906E+02  0.87649032088E+01 -0.54422777107E+02  0.67009447790E+02  0.00000000000E+00 0. -1.
        -13    1    5    5    0    0  0.10471286471E+03  0.78064231001E+02 -0.57380932170E-02  0.13060937268E+03  0.00000000000E+00 0.  1.
          2    1    6    6  503    0 -0.37335071473E+03  0.59627044252E+02  0.40190337199E+03  0.55179023280E+03  0.00000000000E+00 0.  1.
         -2    1    6    6    0  503 -0.37407210398E+03  0.10961335525E+03  0.53605296583E+03  0.66279545019E+03  0.00000000000E+00 0. -1.
<mgrwt>
<rscale>  0 0.22649724E+04</rscale>
<asrwt>0</asrwt>
<pdfrwt beam="1">  1        3 0.15186261E+00 0.22649724E+04</pdfrwt>
<pdfrwt beam="2">  1       -4 0.19988871E+00 0.22649724E+04</pdfrwt>
<totfact> 0.85706598E-02</totfact>
</mgrwt>
</event>
<event>
12    5  0.5428626E-008  0.2840148E+04  0.7818608E-02  0.8290911E-01
          1   -1    0    0  501    0  0.00000000000E+00  0.00000000000E+00  0.99100764951E+03  0.99100764951E+03  0.00000000000E+00 0. -1.
         -4   -1    0    0    0  501 -0.00000000000E+00 -0.00000000000E+00 -0.20349082235E+04  0.20349082235E+04  0.00000000000E+00 0.  1.
        -24    2    1    2    0    0  0.46750570259E+03  0.11149349623E+04 -0.33935669998E+02  0.12121525211E+04  0.80749939266E+02 0.  0.
        254    2    1    2    0    0 -0.46750570259E+03 -0.11149349623E+04 -0.10099649040E+04  0.18137633519E+04  0.89892537919E+03 0.  0.
         23    2    4    4    0    0 -0.58417852742E+03 -0.11981625755E+04 -0.87922595862E+03  0.15994245244E+04  0.90897821188E+02 0.  0.
         23    2    4    4    0    0  0.11667282483E+03  0.83227613190E+02 -0.13073894539E+03  0.21433882748E+03  0.91154141285E+02 0.  0.
          3    1    3    3  502    0  0.32391404781E+03  0.80489735130E+03  0.98382172762E+01  0.86768476246E+03  0.00000000000E+00 0. -1.
         -4    1    3    3    0  502  0.14359165477E+03  0.31003761098E+03 -0.43773887274E+02  0.34446775865E+03  0.00000000000E+00 0.  1.
         13    1    5    5    0    0 -0.40170424059E+03 -0.72353640662E+03 -0.54036384878E+03  0.98836446602E+03  0.00000000000E+00 0.  1.
        -13    1    5    5    0    0 -0.18247428683E+03 -0.47462616884E+03 -0.33886210983E+03  0.61106005841E+03  0.00000000000E+00 0. -1.
          2    1    6    6  503    0 -0.15562779940E+02  0.11727445349E+02 -0.13664725033E+02  0.23800374033E+02  0.00000000000E+00 0. -1.
         -2    1    6    6    0  503  0.13223560477E+03  0.71500167840E+02 -0.11707422036E+03  0.19053845345E+03  0.00000000000E+00 0.  1.
<mgrwt>
<rscale>  0 0.28401476E+04</rscale>
<asrwt>0</asrwt>
<pdfrwt beam="1">  1        1 0.15246272E+00 0.28401476E+04</pdfrwt>
<pdfrwt beam="2">  1       -4 0.31306280E+00 0.28401476E+04</pdfrwt>
<totfact> 0.16264302E-01</totfact>
</mgrwt>
</event>
<event>
12    5  0.5428626E-008  0.1737133E+04  0.7818608E-02  0.8740465E-01
          1   -1    0    0  501    0  0.00000000000E+00  0.00000000000E+00  0.14825713410E+04  0.14825713410E+04  0.00000000000E+00 0. -1.
         -2   -1    0    0    0  501 -0.00000000000E+00 -0.00000000000E+00 -0.50885113658E+03  0.50885113658E+03  0.00000000000E+00 0.  1.
        -24    2    1    2    0    0  0.17481715595E+03 -0.52662911537E+03  0.80480829072E+03  0.98064526724E+03  0.77778481519E+02 0.  0.
        254    2    1    2    0    0 -0.17481715595E+03  0.52662911537E+03  0.16891191373E+03  0.10107772104E+04  0.82779228748E+03 0.  0.
         23    2    4    4    0    0  0.15181250207E+03  0.38913645328E+03  0.39412343826E+03  0.58122570980E+03  0.89531145897E+02 0.  0.
         23    2    4    4    0    0 -0.32662965802E+03  0.13749266209E+03 -0.22521152453E+03  0.42955150056E+03  0.90570940321E+02 0.  0.
          1    1    3    3  502    0  0.16046980383E+03 -0.52011555741E+03  0.77699942320E+03  0.94868269439E+03  0.00000000000E+00 0. -1.
         -2    1    3    3    0  502  0.14347352125E+02 -0.65135579675E+01  0.27808867521E+02  0.31962572850E+02  0.00000000000E+00 0.  1.
         13    1    5    5    0    0  0.16328561038E+03  0.34765695787E+03  0.35726284385E+03  0.52456104554E+03  0.00000000000E+00 0.  1.
        -13    1    5    5    0    0 -0.11473108311E+02  0.41479495418E+02  0.36860594420E+02  0.56664664258E+02  0.00000000000E+00 0. -1.
          4    1    6    6  503    0 -0.36737080247E+02 -0.59158529604E+01 -0.33841448784E+01  0.37363924016E+02  0.00000000000E+00 0. -1.
         -4    1    6    6    0  503 -0.28989257777E+03  0.14340851505E+03 -0.22182737965E+03  0.39218757655E+03  0.00000000000E+00 0.  1.
<mgrwt>
<rscale>  0 0.17371334E+04</rscale>
<asrwt>0</asrwt>
<pdfrwt beam="1">  1        1 0.22808790E+00 0.17371334E+04</pdfrwt>
<pdfrwt beam="2">  1       -2 0.78284791E-01 0.17371334E+04</pdfrwt>
<totfact> 0.81263082E+00</totfact>
</mgrwt>
</event>
<event>
12    5  0.5428626E-008  0.1634618E+04  0.7818608E-02  0.8799559E-01
         -2   -1    0    0    0  501 -0.00000000000E+00  0.00000000000E+00  0.34888763736E+03  0.34888763736E+03  0.00000000000E+00 0.  1.
          1   -1    0    0  501    0  0.00000000000E+00 -0.00000000000E+00 -0.19146387712E+04  0.19146387712E+04  0.00000000000E+00 0. -1.
        -24    2    1    2    0    0 -0.18224075130E+03 -0.38184071079E+03 -0.30897754218E+02  0.43160343407E+03  0.79453340007E+02 0.  0.
        254    2    1    2    0    0  0.18224075130E+03  0.38184071079E+03 -0.15348533796E+04  0.18319229744E+04  0.90617485489E+03 0.  0.
         23    2    4    4    0    0  0.33255481415E+03 -0.84021623607E+02 -0.20043139204E+03  0.40756091971E+03  0.90999025864E+02 0.  0.
         23    2    4    4    0    0 -0.15031406285E+03  0.46586233440E+03 -0.13344219875E+04  0.14243620547E+04  0.92212743354E+02 0.  0.
          1    1    3    3  502    0 -0.65130043400E+02 -0.14411560946E+03  0.26760725521E+02  0.16039753076E+03  0.00000000000E+00 0. -1.
         -2    1    3    3    0  502 -0.11711070790E+03 -0.23772510133E+03 -0.57658479739E+02  0.27120590332E+03  0.00000000000E+00 0.  1.
         13    1    5    5    0    0  0.22267228127E+03 -0.48009969700E+02 -0.17957840870E+03  0.29006259136E+03  0.00000000000E+00 0. -1.
        -13    1    5    5    0    0  0.10988253288E+03 -0.36011653907E+02 -0.20852983339E+02  0.11749832834E+03  0.00000000000E+00 0.  1.
          3    1    6    6  503    0 -0.80881024217E+02  0.11718958034E+03 -0.36307593621E+03  0.38999906830E+03  0.00000000000E+00 0. -1.
         -3    1    6    6    0  503 -0.69433038636E+02  0.34867275405E+03 -0.97134605133E+03  0.10343629864E+04  0.00000000000E+00 0.  1.
<mgrwt>
<rscale>  0 0.16346178E+04</rscale>
<asrwt>0</asrwt>
<pdfrwt beam="1">  1        1 0.29455981E+00 0.16346178E+04</pdfrwt>
<pdfrwt beam="2">  1       -2 0.53675022E-01 0.16346178E+04</pdfrwt>
<totfact> 0.93569321E+00</totfact>
</mgrwt>
</event>
<event>
12    5  0.5428626E-008  0.1906363E+04  0.7818608E-02  0.8651696E-01
         -2   -1    0    0    0  501 -0.00000000000E+00  0.00000000000E+00  0.52964768617E+03  0.52964768617E+03  0.00000000000E+00 0.  1.
          1   -1    0    0  501    0  0.00000000000E+00 -0.00000000000E+00 -0.17153947601E+04  0.17153947601E+04  0.00000000000E+00 0. -1.
        -24    2    1    2    0    0  0.59877150800E+03  0.43858309024E+02  0.48807372983E+01  0.60578534091E+03  0.80629942384E+02 0.  0.
        254    2    1    2    0    0 -0.59877150800E+03 -0.43858309024E+02 -0.11906278112E+04  0.16392571053E+04  0.95347700681E+03 0.  0.
         23    2    4    4    0    0  0.10156439156E+03  0.20126671062E+03 -0.70902868138E+03  0.74977447608E+03  0.92824994063E+02 0.  0.
         23    2    4    4    0    0 -0.70033589955E+03 -0.24512501965E+03 -0.48159912984E+03  0.88948262926E+03  0.93193231721E+02 0.  0.
          1    1    3    3  502    0  0.31885736424E+03  0.55825941959E+02  0.26450693241E+02  0.32478638164E+03  0.00000000000E+00 0. -1.
         -2    1    3    3    0  502  0.27991414376E+03 -0.11967632935E+02 -0.21569955943E+02  0.28099895927E+03  0.00000000000E+00 0.  1.
         13    1    5    5    0    0  0.45375022966E+02  0.42277767070E+02 -0.98597740487E+02  0.11648097152E+03  0.00000000000E+00 0. -1.
        -13    1    5    5    0    0  0.56189368593E+02  0.15898894355E+03 -0.61043094089E+03  0.63329350455E+03  0.00000000000E+00 0.  1.
          2    1    6    6  503    0 -0.26772045271E+03 -0.69130064133E+02 -0.13385754096E+03  0.30719871067E+03  0.00000000000E+00 0. -1.
         -2    1    6    6    0  503 -0.43261544685E+03 -0.17599495552E+03 -0.34774158888E+03  0.58228391859E+03  0.00000000000E+00 0.  1.
<mgrwt>
<rscale>  0 0.19063629E+04</rscale>
<asrwt>0</asrwt>
<pdfrwt beam="1">  1        1 0.26390689E+00 0.19063629E+04</pdfrwt>
<pdfrwt beam="2">  1       -2 0.81484260E-01 0.19063629E+04</pdfrwt>
<totfact> 0.50644248E+00</totfact>
</mgrwt>
</event>
<event>
12    5  0.5428626E-008  0.1306113E+04  0.7818608E-02  0.9024732E-01
          1   -1    0    0  501    0  0.00000000000E+00  0.00000000000E+00  0.14724847865E+04  0.14724847865E+04  0.00000000000E+00 0. -1.
         -2   -1    0    0    0  501 -0.00000000000E+00 -0.00000000000E+00 -0.28963460346E+03  0.28963460346E+03  0.00000000000E+00 0.  1.
        -24    2    1    2    0    0  0.24991691341E+02 -0.20525774032E+03 -0.44517326253E+02  0.22819694146E+03  0.85654697239E+02 0.  0.
        254    2    1    2    0    0 -0.24991691341E+02  0.20525774032E+03  0.12273675093E+04  0.15339224485E+04  0.89651087585E+03 0.  0.
         23    2    4    4    0    0 -0.42620754456E+03  0.22171012531E+03  0.81724709997E+03  0.95229583239E+03  0.90367467999E+02 0.  0.
         23    2    4    4    0    0  0.40121585322E+03 -0.16452384990E+02  0.41012040932E+03  0.58162661610E+03  0.94052796705E+02 0.  0.
          1    1    3    3  502    0  0.12492831266E+02 -0.65585488154E+02  0.25487101964E+02  0.71464113064E+02  0.00000000000E+00 0. -1.
         -2    1    3    3    0  502  0.12498860075E+02 -0.13967225216E+03 -0.70004428216E+02  0.15673282840E+03  0.00000000000E+00 0.  1.
         13    1    5    5    0    0 -0.25341568674E+03  0.98305075004E+02  0.52324941483E+03  0.58963831980E+03  0.00000000000E+00 0.  1.
        -13    1    5    5    0    0 -0.17279185782E+03  0.12340505030E+03  0.29399768514E+03  0.36265751259E+03  0.00000000000E+00 0. -1.
          1    1    6    6  503    0  0.23862874992E+03 -0.51195936971E+02  0.27235697620E+03  0.36570893718E+03  0.00000000000E+00 0. -1.
         -1    1    6    6    0  503  0.16258710330E+03  0.34743551981E+02  0.13776343312E+03  0.21591767892E+03  0.00000000000E+00 0.  1.
<mgrwt>
<rscale>  0 0.13061126E+04</rscale>
<asrwt>0</asrwt>
<pdfrwt beam="1">  1        1 0.22653612E+00 0.13061126E+04</pdfrwt>
<pdfrwt beam="2">  1       -2 0.44559171E-01 0.13061126E+04</pdfrwt>
<totfact> 0.28133904E+01</totfact>
</mgrwt>
</event>
<event>
12    5  0.5428626E-008  0.1971470E+04  0.7818608E-02  0.8620077E-01
         -2   -1    0    0    0  501 -0.00000000000E+00  0.00000000000E+00  0.46588066341E+03  0.46588066341E+03  0.00000000000E+00 0.  1.
          1   -1    0    0  501    0  0.00000000000E+00 -0.00000000000E+00 -0.20856713361E+04  0.20856713361E+04  0.00000000000E+00 0. -1.
        -24    2    1    2    0    0  0.15401932279E+03  0.16903153833E+02  0.34317880831E+03  0.38379020555E+03  0.74266809562E+02 0.  0.
        254    2    1    2    0    0 -0.15401932279E+03 -0.16903153833E+02 -0.19629694810E+04  0.21677617940E+04  0.90660594729E+03 0.  0.
         23    2    4    4    0    0 -0.19852549933E+03  0.10793812328E+03 -0.19897087938E+04  0.20046072133E+04  0.91902030827E+02 0.  0.
         23    2    4    4    0    0  0.44506176536E+02 -0.12484127712E+03  0.26739312776E+02  0.16315458066E+03  0.91314194519E+02 0.  0.
          3    1    3    3  502    0  0.38784115981E+02  0.18862354179E+02  0.37661500723E+02  0.57257180286E+02  0.00000000000E+00 0. -1.
         -4    1    3    3    0  502  0.11523520681E+03 -0.19592003464E+01  0.30551730758E+03  0.32653302526E+03  0.00000000000E+00 0.  1.
         13    1    5    5    0    0 -0.31825909341E+02 -0.92931664904E+01 -0.14860379425E+03  0.15225747638E+03  0.00000000000E+00 0. -1.
        -13    1    5    5    0    0 -0.16669958999E+03  0.11723128977E+03 -0.18411049996E+04  0.18523497370E+04  0.00000000000E+00 0.  1.
          1    1    6    6  503    0 -0.65657401171E+01  0.11794079039E+02 -0.40079129144E+01  0.14080930708E+02  0.00000000000E+00 0. -1.
         -1    1    6    6    0  503  0.51071916653E+02 -0.13663535616E+03  0.30747225691E+02  0.14907364995E+03  0.00000000000E+00 0.  1.
<mgrwt>
<rscale>  0 0.19714705E+04</rscale>
<asrwt>0</asrwt>
<pdfrwt beam="1">  1        1 0.32087251E+00 0.19714705E+04</pdfrwt>
<pdfrwt beam="2">  1       -2 0.71673948E-01 0.19714705E+04</pdfrwt>
<totfact> 0.37572236E+00</totfact>
</mgrwt>
</event>
<event>
12    5  0.5428626E-008  0.1334295E+04  0.7818608E-02  0.9002803E-01
          1   -1    0    0  501    0  0.00000000000E+00  0.00000000000E+00  0.37051853569E+03  0.37051853569E+03  0.00000000000E+00 0. -1.
         -2   -1    0    0    0  501 -0.00000000000E+00 -0.00000000000E+00 -0.12012506253E+04  0.12012506253E+04  0.00000000000E+00 0.  1.
        -24    2    1    2    0    0  0.10786846111E+03 -0.34668969789E+03 -0.26861778646E+03  0.45670898293E+03  0.67810237893E+02 0.  0.
        254    2    1    2    0    0 -0.10786846111E+03  0.34668969789E+03 -0.56211430320E+03  0.11150601781E+04  0.89194022189E+03 0.  0.
         23    2    4    4    0    0 -0.72436038685E+02  0.19655837110E+03 -0.79108275814E+03  0.82344877595E+03  0.91508379044E+02 0.  0.
         23    2    4    4    0    0 -0.35432422424E+02  0.15013132679E+03  0.22896845494E+03  0.29161140216E+03  0.93892410101E+02 0.  0.
          3    1    3    3  502    0  0.12377810260E+02 -0.50248538799E+02 -0.71010067230E+02  0.87866691564E+02  0.00000000000E+00 0. -1.
         -4    1    3    3    0  502  0.95490650850E+02 -0.29644115909E+03 -0.19760771923E+03  0.36884229136E+03  0.00000000000E+00 0.  1.
         13    1    5    5    0    0  0.19723133687E+02  0.32408913401E+02 -0.93303175879E+02  0.10072150862E+03  0.00000000000E+00 0. -1.
        -13    1    5    5    0    0 -0.92159172373E+02  0.16414945770E+03 -0.69777958226E+03  0.72272726732E+03  0.00000000000E+00 0.  1.
          3    1    6    6  503    0 -0.10177889410E+02 -0.11801521758E+02  0.11832379368E+02  0.19567078223E+02  0.00000000000E+00 0. -1.
         -3    1    6    6    0  503 -0.25254533014E+02  0.16193284855E+03  0.21713607557E+03  0.27204432394E+03  0.00000000000E+00 0.  1.
<mgrwt>
<rscale>  0 0.13342948E+04</rscale>
<asrwt>0</asrwt>
<pdfrwt beam="1">  1        1 0.57002852E-01 0.13342948E+04</pdfrwt>
<pdfrwt beam="2">  1       -2 0.18480779E+00 0.13342948E+04</pdfrwt>
<totfact> 0.95463650E+00</totfact>
</mgrwt>
</event>
<event>
12    5  0.5428626E-008  0.2432685E+04  0.7818608E-02  0.8427367E-01
          1   -1    0    0  501    0  0.00000000000E+00  0.00000000000E+00  0.80577937747E+03  0.80577937747E+03  0.00000000000E+00 0. -1.
         -2   -1    0    0    0  501 -0.00000000000E+00 -0.00000000000E+00 -0.18360971999E+04  0.18360971999E+04  0.00000000000E+00 0.  1.
        -24    2    1    2    0    0 -0.51649759510E+03  0.20476617391E+03 -0.14129058774E+04  0.15201675683E+04  0.76860038850E+02 0.  0.
        254    2    1    2    0    0  0.51649759510E+03 -0.20476617391E+03  0.38258805493E+03  0.11217090091E+04  0.89619112337E+03 0.  0.
         23    2    4    4    0    0  0.22231200605E+03 -0.33594959544E+03  0.59575947244E+03  0.72477351539E+03  0.89902952689E+02 0.  0.
         23    2    4    4    0    0  0.29418558906E+03  0.13118342153E+03 -0.21317141751E+03  0.39693549371E+03  0.91441139718E+02 0.  0.
          3    1    3    3  502    0 -0.10924209033E+03  0.11065775496E+02 -0.28949844920E+03  0.30962176567E+03  0.00000000000E+00 0. -1.
         -4    1    3    3    0  502 -0.40725550477E+03  0.19370039842E+03 -0.11234074282E+04  0.12105458026E+04  0.00000000000E+00 0.  1.
         13    1    5    5    0    0  0.97312803703E+02 -0.18549328487E+03  0.23815842458E+03  0.31717026295E+03  0.00000000000E+00 0.  1.
        -13    1    5    5    0    0  0.12499920234E+03 -0.15045631057E+03  0.35760104786E+03  0.40760325245E+03  0.00000000000E+00 0. -1.
          2    1    6    6  503    0  0.19508245383E+03  0.38148049491E+02 -0.13200152265E+03  0.23861441586E+03  0.00000000000E+00 0. -1.
         -2    1    6    6    0  503  0.99103135224E+02  0.93035372037E+02 -0.81169894857E+02  0.15832107785E+03  0.00000000000E+00 0.  1.
<mgrwt>
<rscale>  0 0.24326851E+04</rscale>
<asrwt>0</asrwt>
<pdfrwt beam="1">  1        1 0.12396606E+00 0.24326851E+04</pdfrwt>
<pdfrwt beam="2">  1       -2 0.28247649E+00 0.24326851E+04</pdfrwt>
<totfact> 0.69641947E-01</totfact>
</mgrwt>
</event>
<event>
12    5  0.5428626E-008  0.1716837E+04  0.7818608E-02  0.8751819E-01
         -2   -1    0    0    0  501 -0.00000000000E+00  0.00000000000E+00  0.65276446840E+03  0.65276446840E+03  0.00000000000E+00 0.  1.
          1   -1    0    0  501    0  0.00000000000E+00 -0.00000000000E+00 -0.11288645922E+04  0.11288645922E+04  0.00000000000E+00 0. -1.
        -24    2    1    2    0    0 -0.48447744180E+02 -0.43206719909E+03  0.28512555770E+03  0.52625558353E+03  0.81357895153E+02 0.  0.
        254    2    1    2    0    0  0.48447744180E+02  0.43206719909E+03 -0.76122568146E+03  0.12553734770E+04  0.89859266650E+03 0.  0.
         23    2    4    4    0    0  0.51951949386E+02 -0.21718263638E+03 -0.48927938211E+03  0.54525817502E+03  0.89693149588E+02 0.  0.
         23    2    4    4    0    0 -0.35042052060E+01  0.64924983547E+03 -0.27194629935E+03  0.71011530201E+03  0.93655347441E+02 0.  0.
          1    1    3    3  502    0  0.14918636983E+01 -0.27907084680E+02 -0.19376566623E+01  0.28014024094E+02  0.00000000000E+00 0. -1.
         -2    1    3    3    0  502 -0.49939607878E+02 -0.40416011441E+03  0.28706321436E+03  0.49824155944E+03  0.00000000000E+00 0.  1.
         13    1    5    5    0    0  0.71559053362E+02 -0.14576323389E+03 -0.38006362968E+03  0.41329890040E+03  0.00000000000E+00 0.  1.
        -13    1    5    5    0    0 -0.19607103977E+02 -0.71419402498E+02 -0.10921575243E+03  0.13195927462E+03  0.00000000000E+00 0. -1.
          1    1    6    6  503    0  0.41495979518E+02  0.20602545314E+03 -0.97461971578E+02  0.23166190787E+03  0.00000000000E+00 0. -1.
         -1    1    6    6    0  503 -0.45000184724E+02  0.44322438233E+03 -0.17448432777E+03  0.47845339413E+03  0.00000000000E+00 0.  1.
<mgrwt>
<rscale>  0 0.17168374E+04</rscale>
<asrwt>0</asrwt>
<pdfrwt beam="1">  1        1 0.17367147E+00 0.17168374E+04</pdfrwt>
<pdfrwt beam="2">  1       -2 0.10042530E+00 0.17168374E+04</pdfrwt>
<totfact> 0.82195828E+00</totfact>
</mgrwt>
</event>
<event>
12    5  0.5428626E-008  0.1734792E+04  0.7818608E-02  0.8741766E-01
          1   -1    0    0  501    0  0.00000000000E+00  0.00000000000E+00  0.39328369158E+03  0.39328369158E+03  0.00000000000E+00 0. -1.
         -4   -1    0    0    0  501 -0.00000000000E+00 -0.00000000000E+00 -0.19130621334E+04  0.19130621334E+04  0.00000000000E+00 0.  1.
        -24    2    1    2    0    0 -0.49428573917E+03 -0.23626132997E+03 -0.15624792361E+03  0.57576288982E+03  0.83376757426E+02 0.  0.
        254    2    1    2    0    0  0.49428573917E+03  0.23626132997E+03 -0.13635305182E+04  0.17305829351E+04  0.91409190640E+03 0.  0.
         23    2    4    4    0    0 -0.40991215427E+02 -0.22394437098E+03 -0.71764674367E+02  0.25544582282E+03  0.90945252075E+02 0.  0.
         23    2    4    4    0    0  0.53527695460E+03  0.46020570094E+03 -0.12917658438E+04  0.14751371123E+04  0.95182979339E+02 0.  0.
          1    1    3    3  502    0 -0.48415030869E+03 -0.24211777248E+03 -0.15805523597E+03  0.56391842918E+03  0.00000000000E+00 0. -1.
         -2    1    3    3    0  502 -0.10135430481E+02  0.58564425077E+01  0.18073123636E+01  0.11844460640E+02  0.00000000000E+00 0.  1.
         13    1    5    5    0    0  0.14038491651E+02 -0.12316235121E+03 -0.82762571249E+01  0.12423582590E+03  0.00000000000E+00 0.  1.
        -13    1    5    5    0    0 -0.55029707078E+02 -0.10078201976E+03 -0.63488417242E+02  0.13120999692E+03  0.00000000000E+00 0. -1.
          2    1    6    6  503    0  0.24470853505E+02  0.78832828814E+01 -0.22740108915E+02  0.34323190028E+02  0.00000000000E+00 0. -1.
         -2    1    6    6    0  503  0.51080610109E+03  0.45232241806E+03 -0.12690257349E+04  0.14408139223E+04  0.00000000000E+00 0.  1.
<mgrwt>
<rscale>  0 0.17347924E+04</rscale>
<asrwt>0</asrwt>
<pdfrwt beam="1">  1        1 0.60505183E-01 0.17347924E+04</pdfrwt>
<pdfrwt beam="2">  1       -4 0.29431725E+00 0.17347924E+04</pdfrwt>
<totfact> 0.92962074E-01</totfact>
</mgrwt>
</event>
<event>
12    5  0.5428626E-008  0.1919614E+04  0.7818608E-02  0.8645154E-01
         -2   -1    0    0    0  501 -0.00000000000E+00  0.00000000000E+00  0.27494554362E+04  0.27494554362E+04  0.00000000000E+00 0.  1.
          1   -1    0    0  501    0  0.00000000000E+00 -0.00000000000E+00 -0.33505904665E+03  0.33505904665E+03  0.00000000000E+00 0. -1.
        -24    2    1    2    0    0 -0.38000652826E+03  0.87661424417E+02 -0.79229545829E+02  0.40595372799E+03  0.80197390764E+02 0.  0.
        254    2    1    2    0    0  0.38000652826E+03 -0.87661424417E+02  0.24936259354E+04  0.26785607549E+04  0.89689906068E+03 0.  0.
         23    2    4    4    0    0 -0.58855735623E+02  0.31231749289E+03  0.52758941739E+03  0.62265251495E+03  0.91320025442E+02 0.  0.
         23    2    4    4    0    0  0.43886226388E+03 -0.39997891730E+03  0.19660365180E+04  0.20559082399E+04  0.94211888583E+02 0.  0.
          3    1    3    3  502    0 -0.25136334426E+03  0.96338502131E+02 -0.51711698996E+02  0.27411446084E+03  0.00000000000E+00 0. -1.
         -4    1    3    3    0  502 -0.12864318400E+03 -0.86770777141E+01 -0.27517846833E+02  0.13183926714E+03  0.00000000000E+00 0.  1.
         13    1    5    5    0    0 -0.76813789907E+02  0.29461990678E+03  0.47299273641E+03  0.56251522334E+03  0.00000000000E+00 0.  1.
        -13    1    5    5    0    0  0.17958054284E+02  0.17697586104E+02  0.54596680981E+02  0.60137291606E+02  0.00000000000E+00 0. -1.
          1    1    6    6  503    0  0.60358707397E+02 -0.97022998272E+02  0.31117875253E+03  0.33149487444E+03  0.00000000000E+00 0. -1.
         -1    1    6    6    0  503  0.37850355648E+03 -0.30295591903E+03  0.16548577655E+04  0.17244133655E+04  0.00000000000E+00 0.  1.
<mgrwt>
<rscale>  0 0.19196145E+04</rscale>
<asrwt>0</asrwt>
<pdfrwt beam="1">  1        1 0.51547547E-01 0.19196145E+04</pdfrwt>
<pdfrwt beam="2">  1       -2 0.42299313E+00 0.19196145E+04</pdfrwt>
<totfact> 0.32565756E-01</totfact>
</mgrwt>
</event>
<event>
12    5  0.5428626E-008  0.2405571E+04  0.7818608E-02  0.8437421E-01
         -2   -1    0    0    0  501 -0.00000000000E+00  0.00000000000E+00  0.39893484904E+03  0.39893484904E+03  0.00000000000E+00 0.  1.
          1   -1    0    0  501    0  0.00000000000E+00 -0.00000000000E+00 -0.36263883434E+04  0.36263883434E+04  0.00000000000E+00 0. -1.
        -24    2    1    2    0    0  0.49821321767E+03 -0.75459818760E+03 -0.55276647970E+03  0.10629698450E+04  0.81971186415E+02 0.  0.
        254    2    1    2    0    0 -0.49821321767E+03  0.75459818760E+03 -0.26746870146E+04  0.29623533474E+04  0.89663364505E+03 0.  0.
         23    2    4    4    0    0 -0.72135277210E+03  0.72779905036E+03 -0.22172507821E+04  0.24443142990E+04  0.91815479590E+02 0.  0.
         23    2    4    4    0    0  0.22313955443E+03  0.26799137233E+02 -0.45743623254E+03  0.51803904833E+03  0.92774426671E+02 0.  0.
          3    1    3    3  502    0  0.15230322394E+03 -0.29126840622E+03 -0.22500823067E+03  0.39832431554E+03  0.00000000000E+00 0. -1.
         -4    1    3    3    0  502  0.34590999374E+03 -0.46332978138E+03 -0.32775824903E+03  0.66464552950E+03  0.00000000000E+00 0.  1.
         13    1    5    5    0    0 -0.36283085288E+03  0.35476798904E+03 -0.99054631642E+03  0.11129638623E+04  0.00000000000E+00 0. -1.
        -13    1    5    5    0    0 -0.35852191922E+03  0.37303106133E+03 -0.12267044657E+04  0.13313504367E+04  0.00000000000E+00 0.  1.
          2    1    6    6  503    0  0.84797623738E+02  0.24888528170E+02 -0.93330122592E+02  0.12853243796E+03  0.00000000000E+00 0. -1.
         -2    1    6    6    0  503  0.13834193069E+03  0.19106090631E+01 -0.36410610995E+03  0.38950661036E+03  0.00000000000E+00 0.  1.
<mgrwt>
<rscale>  0 0.24055708E+04</rscale>
<asrwt>0</asrwt>
<pdfrwt beam="1">  1        1 0.55790590E+00 0.24055708E+04</pdfrwt>
<pdfrwt beam="2">  1       -2 0.61374592E-01 0.24055708E+04</pdfrwt>
<totfact> 0.38572587E-01</totfact>
</mgrwt>
</event>
<event>
12    5  0.5428626E-008  0.2783148E+04  0.7818608E-02  0.8308519E-01
         -2   -1    0    0    0  501 -0.00000000000E+00  0.00000000000E+00  0.60355278964E+03  0.60355278964E+03  0.00000000000E+00 0.  1.
          1   -1    0    0  501    0  0.00000000000E+00 -0.00000000000E+00 -0.32084646019E+04  0.32084646019E+04  0.00000000000E+00 0. -1.
        -24    2    1    2    0    0 -0.25372367576E+02 -0.13856931490E+02  0.53663114520E+03  0.54384262709E+03  0.83402910300E+02 0.  0.
        254    2    1    2    0    0  0.25372367576E+02  0.13856931490E+02 -0.31415429574E+04  0.32681747644E+04  0.90046563833E+03 0.  0.
         23    2    4    4    0    0 -0.52650148316E+02 -0.42485854718E+03 -0.13092630904E+04  0.13802272702E+04  0.87066952477E+02 0.  0.
         23    2    4    4    0    0  0.78022515892E+02  0.43871547867E+03 -0.18322798670E+04  0.18879474942E+04  0.92398299204E+02 0.  0.
          1    1    3    3  502    0  0.20496256549E+02  0.21336654707E+02  0.21944988389E+03  0.22143531992E+03  0.00000000000E+00 0. -1.
         -2    1    3    3    0  502 -0.45868624125E+02 -0.35193586197E+02  0.31718126131E+03  0.32240730717E+03  0.00000000000E+00 0.  1.
         13    1    5    5    0    0 -0.27151795354E+02 -0.39433042275E+03 -0.11483780314E+04  0.12144981702E+04  0.00000000000E+00 0. -1.
        -13    1    5    5    0    0 -0.25498352962E+02 -0.30528124433E+02 -0.16088505896E+03  0.16572909998E+03  0.00000000000E+00 0.  1.
          1    1    6    6  503    0  0.82612146960E+02  0.42574042627E+03 -0.18136788090E+04  0.18648084351E+04  0.00000000000E+00 0. -1.
         -1    1    6    6    0  503 -0.45896310676E+01  0.12975052399E+02 -0.18601057972E+02  0.23139059094E+02  0.00000000000E+00 0.  1.
<mgrwt>
<rscale>  0 0.27831477E+04</rscale>
<asrwt>0</asrwt>
<pdfrwt beam="1">  1        1 0.49360996E+00 0.27831477E+04</pdfrwt>
<pdfrwt beam="2">  1       -2 0.92854272E-01 0.27831477E+04</pdfrwt>
<totfact> 0.31395729E-01</totfact>
</mgrwt>
</event>
<event>
12    5  0.5428626E-008  0.2055823E+04  0.7818608E-02  0.8580957E-01
         -2   -1    0    0    0  501 -0.00000000000E+00  0.00000000000E+00  0.49581516108E+03  0.49581516108E+03  0.00000000000E+00 0.  1.
          1   -1    0    0  501    0  0.00000000000E+00 -0.00000000000E+00 -0.21310402513E+04  0.21310402513E+04  0.00000000000E+00 0. -1.
        -24    2    1    2    0    0 -0.67161378307E+03  0.26366900367E+03 -0.16411656618E+03  0.74438300004E+03  0.81150393353E+02 0.  0.
        254    2    1    2    0    0  0.67161378307E+03 -0.26366900367E+03 -0.14711085240E+04  0.18824724123E+04  0.92679861705E+03 0.  0.
         23    2    4    4    0    0 -0.64842722100E+02  0.20102858829E+03 -0.61624151984E+03  0.65881698625E+03  0.98331778582E+02 0.  0.
         23    2    4    4    0    0  0.73645650517E+03 -0.46469759196E+03 -0.85486700417E+03  0.12236554260E+04  0.90680598254E+02 0.  0.
          3    1    3    3  502    0 -0.30735048821E+03  0.13234343797E+03 -0.11611429221E+03  0.35420564230E+03  0.00000000000E+00 0. -1.
         -4    1    3    3    0  502 -0.36426329486E+03  0.13132556570E+03 -0.48002273967E+02  0.39017735774E+03  0.00000000000E+00 0.  1.
         13    1    5    5    0    0 -0.21456014590E+02  0.16464437810E+03 -0.53204885906E+03  0.55735457317E+03  0.00000000000E+00 0. -1.
        -13    1    5    5    0    0 -0.43386707510E+02  0.36384210196E+02 -0.84192660779E+02  0.10146241309E+03  0.00000000000E+00 0.  1.
          2    1    6    6  503    0  0.39514459119E+03 -0.30168255018E+03 -0.49605574641E+03  0.70229830739E+03  0.00000000000E+00 0. -1.
         -2    1    6    6    0  503  0.34131191399E+03 -0.16301504179E+03 -0.35881125776E+03  0.52135711865E+03  0.00000000000E+00 0.  1.
<mgrwt>
<rscale>  0 0.20558230E+04</rscale>
<asrwt>0</asrwt>
<pdfrwt beam="1">  1        1 0.32785235E+00 0.20558230E+04</pdfrwt>
<pdfrwt beam="2">  1       -2 0.76279254E-01 0.20558230E+04</pdfrwt>
<totfact> 0.30272730E+00</totfact>
</mgrwt>
</event>
<event>
12    5  0.5428626E-008  0.2088441E+04  0.7818608E-02  0.8566352E-01
          1   -1    0    0  501    0  0.00000000000E+00  0.00000000000E+00  0.28429863826E+04  0.28429863826E+04  0.00000000000E+00 0. -1.
         -2   -1    0    0    0  501 -0.00000000000E+00 -0.00000000000E+00 -0.38353926999E+03  0.38353926999E+03  0.00000000000E+00 0.  1.
        -24    2    1    2    0    0 -0.40168501920E+03  0.21388551857E+03  0.21118264277E+04  0.21617563132E+04  0.79256715439E+02 0.  0.
        254    2    1    2    0    0  0.40168501920E+03 -0.21388551857E+03  0.34762068483E+03  0.10647693394E+04  0.89766125895E+03 0.  0.
         23    2    4    4    0    0  0.21701454153E+03  0.33282796532E+03  0.23151224607E+03  0.46924598112E+03  0.93402917409E+02 0.  0.
         23    2    4    4    0    0  0.18467047767E+03 -0.54671348388E+03  0.11610843875E+03  0.59552335825E+03  0.90377441248E+02 0.  0.
          3    1    3    3  502    0 -0.24709658784E+03  0.17359635750E+03  0.13508561781E+04  0.13841982636E+04  0.00000000000E+00 0. -1.
         -4    1    3    3    0  502 -0.15458843136E+03  0.40289161068E+02  0.76097024963E+03  0.77755804955E+03  0.00000000000E+00 0.  1.
         13    1    5    5    0    0  0.39085796671E+01  0.66976147748E+02  0.45398158829E+02  0.81006630515E+02  0.00000000000E+00 0.  1.
        -13    1    5    5    0    0  0.21310596186E+03  0.26585181757E+03  0.18611408725E+03  0.38823935060E+03  0.00000000000E+00 0. -1.
          4    1    6    6  503    0  0.16169100606E+03 -0.37839609378E+03  0.10809739366E+03  0.42545579293E+03  0.00000000000E+00 0. -1.
         -4    1    6    6    0  503  0.22979471613E+02 -0.16831739011E+03  0.80110450885E+01  0.17006756531E+03  0.00000000000E+00 0.  1.
<mgrwt>
<rscale>  0 0.20884414E+04</rscale>
<asrwt>0</asrwt>
<pdfrwt beam="1">  1        1 0.43738251E+00 0.20884414E+04</pdfrwt>
<pdfrwt beam="2">  1       -2 0.59006043E-01 0.20884414E+04</pdfrwt>
<totfact> 0.16867299E+00</totfact>
</mgrwt>
</event>
<event>
12    5  0.5428626E-008  0.1343296E+04  0.7818608E-02  0.8995919E-01
         -2   -1    0    0    0  501 -0.00000000000E+00  0.00000000000E+00  0.15859425242E+03  0.15859425242E+03  0.00000000000E+00 0.  1.
          1   -1    0    0  501    0  0.00000000000E+00 -0.00000000000E+00 -0.28444335670E+04  0.28444335670E+04  0.00000000000E+00 0. -1.
        -24    2    1    2    0    0 -0.34880956158E+03  0.76148465782E+02 -0.58954393324E+03  0.69360801417E+03  0.77867380930E+02 0.  0.
        254    2    1    2    0    0  0.34880956158E+03 -0.76148465782E+02 -0.20962953813E+04  0.23094198052E+04  0.90083228848E+03 0.  0.
         23    2    4    4    0    0 -0.60983245450E+02 -0.12214008350E+03 -0.17646206984E+04  0.17721252192E+04  0.88906844875E+02 0.  0.
         23    2    4    4    0    0  0.40979280703E+03  0.45991617718E+02 -0.33167468297E+03  0.53729458609E+03  0.92908575072E+02 0.  0.
          1    1    3    3  502    0 -0.14959982755E+02  0.18390965366E+02 -0.64693843050E+02  0.68900812910E+02  0.00000000000E+00 0. -1.
         -2    1    3    3    0  502 -0.33384957882E+03  0.57757500416E+02 -0.52485009019E+03  0.62470720126E+03  0.00000000000E+00 0.  1.
         13    1    5    5    0    0 -0.22847009836E+02  0.10319912357E+02 -0.26625581464E+03  0.26743344084E+03  0.00000000000E+00 0. -1.
        -13    1    5    5    0    0 -0.38136235614E+02 -0.13245999586E+03 -0.14983648837E+04  0.15046917783E+04  0.00000000000E+00 0.  1.
          3    1    6    6  503    0  0.11060610354E+03 -0.10840552036E+02 -0.47838810384E+02  0.12099495646E+03  0.00000000000E+00 0. -1.
         -3    1    6    6    0  503  0.29918670348E+03  0.56832169755E+02 -0.28383587259E+03  0.41629962963E+03  0.00000000000E+00 0.  1.
<mgrwt>
<rscale>  0 0.13432957E+04</rscale>
<asrwt>0</asrwt>
<pdfrwt beam="1">  1        1 0.43760514E+00 0.13432957E+04</pdfrwt>
<pdfrwt beam="2">  1       -2 0.24399117E-01 0.13432957E+04</pdfrwt>
<totfact> 0.10059570E+01</totfact>
</mgrwt>
</event>
<event>
12    5  0.5428626E-008  0.3934051E+04  0.7818608E-02  0.8017984E-01
         -2   -1    0    0    0  501 -0.00000000000E+00  0.00000000000E+00  0.16814685707E+04  0.16814685707E+04  0.00000000000E+00 0.  1.
          1   -1    0    0  501    0  0.00000000000E+00 -0.00000000000E+00 -0.23010777410E+04  0.23010777410E+04  0.00000000000E+00 0. -1.
        -24    2    1    2    0    0  0.73838441175E+02  0.26511412531E+03 -0.21561370393E+04  0.21751048482E+04  0.80103395227E+02 0.  0.
        254    2    1    2    0    0 -0.73838441175E+02 -0.26511412531E+03  0.15365278690E+04  0.18074414634E+04  0.91114715423E+03 0.  0.
         23    2    4    4    0    0  0.26195015989E+03 -0.40943031826E+03  0.12159184878E+04  0.13126371345E+04  0.91144972636E+02 0.  0.
         23    2    4    4    0    0 -0.33578860107E+03  0.14431619296E+03  0.32060938123E+03  0.49480432898E+03  0.91977173731E+02 0.  0.
          1    1    3    3  502    0  0.49536173469E+02  0.17748332554E+03 -0.17024866911E+04  0.17124295888E+04  0.00000000000E+00 0. -1.
         -2    1    3    3    0  502  0.24302267706E+02  0.87630799765E+02 -0.45365034820E+03  0.46267525944E+03  0.00000000000E+00 0.  1.
         13    1    5    5    0    0  0.25362454116E+03 -0.34389626773E+03  0.10203086750E+04  0.11061735140E+04  0.00000000000E+00 0.  1.
        -13    1    5    5    0    0  0.83256187382E+01 -0.65534050536E+02  0.19560981281E+03  0.20646362047E+03  0.00000000000E+00 0. -1.
          3    1    6    6  503    0 -0.66184055435E+01 -0.10823451702E+02  0.74629168431E+01  0.14718883330E+02  0.00000000000E+00 0. -1.
         -3    1    6    6    0  503 -0.32917019553E+03  0.15513964466E+03  0.31314646438E+03  0.48008544565E+03  0.00000000000E+00 0.  1.
<mgrwt>
<rscale>  0 0.39340513E+04</rscale>
<asrwt>0</asrwt>
<pdfrwt beam="1">  1        1 0.35401196E+00 0.39340513E+04</pdfrwt>
<pdfrwt beam="2">  1       -2 0.25868747E+00 0.39340513E+04</pdfrwt>
<totfact> 0.73087443E-02</totfact>
</mgrwt>
</event>
<event>
12    5  0.5428626E-008  0.2233995E+04  0.7818608E-02  0.8504410E-01
         -2   -1    0    0    0  501 -0.00000000000E+00  0.00000000000E+00  0.13545109566E+04  0.13545109566E+04  0.00000000000E+00 0.  1.
          1   -1    0    0  501    0  0.00000000000E+00 -0.00000000000E+00 -0.92113243101E+03  0.92113243101E+03  0.00000000000E+00 0. -1.
        -24    2    1    2    0    0 -0.57113657831E+03 -0.62946620803E+03 -0.20121639620E+03  0.87702687008E+03  0.79141611119E+02 0.  0.
        254    2    1    2    0    0  0.57113657831E+03  0.62946620803E+03  0.63459492175E+03  0.13986165175E+04  0.91158803751E+03 0.  0.
         23    2    4    4    0    0  0.55721656816E+03  0.84305280186E+03  0.50242196947E+03  0.11322437180E+04  0.91212230117E+02 0.  0.
         23    2    4    4    0    0  0.13920010157E+02 -0.21358659383E+03  0.13217295228E+03  0.26637279952E+03  0.87588693679E+02 0.  0.
          3    1    3    3  502    0 -0.23466422151E+03 -0.24430762627E+03 -0.11890582265E+03  0.35901547010E+03  0.00000000000E+00 0. -1.
         -4    1    3    3    0  502 -0.33647235680E+03 -0.38515858176E+03 -0.82310573553E+02  0.51801139998E+03  0.00000000000E+00 0.  1.
         13    1    5    5    0    0  0.41077241379E+03  0.55523318557E+03  0.36636249092E+03  0.78181797181E+03  0.00000000000E+00 0.  1.
        -13    1    5    5    0    0  0.14644415436E+03  0.28781961629E+03  0.13605947856E+03  0.35042574616E+03  0.00000000000E+00 0. -1.
          1    1    6    6  503    0  0.16541196613E+02 -0.33594903943E+02  0.63477715184E+02  0.73699722396E+02  0.00000000000E+00 0. -1.
         -1    1    6    6    0  503 -0.26211864560E+01 -0.17999168989E+03  0.68695237098E+02  0.19267307712E+03  0.00000000000E+00 0.  1.
<mgrwt>
<rscale>  0 0.22339955E+04</rscale>
<asrwt>0</asrwt>
<pdfrwt beam="1">  1        1 0.14171268E+00 0.22339955E+04</pdfrwt>
<pdfrwt beam="2">  1       -2 0.20838630E+00 0.22339955E+04</pdfrwt>
<totfact> 0.16341066E+00</totfact>
</mgrwt>
</event>
<event>
12    5  0.5428626E-008  0.1662745E+04  0.7818608E-02  0.8782902E-01
          1   -1    0    0  501    0  0.00000000000E+00  0.00000000000E+00  0.47467112459E+03  0.47467112459E+03  0.00000000000E+00 0. -1.
         -2   -1    0    0    0  501 -0.00000000000E+00 -0.00000000000E+00 -0.14561238634E+04  0.14561238634E+04  0.00000000000E+00 0.  1.
        -24    2    1    2    0    0  0.31094502670E+03  0.45885171156E+03 -0.16213510799E+03  0.58306946077E+03  0.80315004913E+02 0.  0.
        254    2    1    2    0    0 -0.31094502670E+03 -0.45885171156E+03 -0.81931763082E+03  0.13477255272E+04  0.91534202007E+03 0.  0.
         23    2    4    4    0    0  0.20005314098E+03 -0.23989862482E+03 -0.69972699715E+03  0.77189908288E+03  0.92939303795E+02 0.  0.
         23    2    4    4    0    0 -0.51099816768E+03 -0.21895308673E+03 -0.11959063367E+03  0.57582644434E+03  0.90634390698E+02 0.  0.
          3    1    3    3  502    0  0.14382031037E+03  0.22160911365E+03 -0.35940411920E+02  0.26662069338E+03  0.00000000000E+00 0. -1.
         -4    1    3    3    0  502  0.16712471633E+03  0.23724259790E+03 -0.12619469607E+03  0.31644876739E+03  0.00000000000E+00 0.  1.
         13    1    5    5    0    0  0.10794197094E+03 -0.79347229101E+02 -0.37377083326E+03  0.39705426286E+03  0.00000000000E+00 0. -1.
        -13    1    5    5    0    0  0.92111170043E+02 -0.16055139572E+03 -0.32595616389E+03  0.37484482001E+03  0.00000000000E+00 0.  1.
          4    1    6    6  503    0 -0.13068630304E+03 -0.10014791891E+03 -0.41745873000E+02  0.16985650820E+03  0.00000000000E+00 0. -1.
         -4    1    6    6    0  503 -0.38031186465E+03 -0.11880516782E+03 -0.77844760671E+02  0.40596993615E+03  0.00000000000E+00 0.  1.
<mgrwt>
<rscale>  0 0.16627447E+04</rscale>
<asrwt>0</asrwt>
<pdfrwt beam="1">  1        1 0.73026326E-01 0.16627447E+04</pdfrwt>
<pdfrwt beam="2">  1       -2 0.22401906E+00 0.16627447E+04</pdfrwt>
<totfact> 0.37037229E+00</totfact>
</mgrwt>
</event>
<event>
12    5  0.5428626E-008  0.1316301E+04  0.7818608E-02  0.9016738E-01
         -2   -1    0    0    0  501 -0.00000000000E+00  0.00000000000E+00  0.72001809337E+03  0.72001809337E+03  0.00000000000E+00 0.  1.
          1   -1    0    0  501    0  0.00000000000E+00 -0.00000000000E+00 -0.60159842865E+03  0.60159842865E+03  0.00000000000E+00 0. -1.
        -24    2    1    2    0    0 -0.18126770236E+03 -0.25818179783E+03  0.14684233409E+03  0.35688882551E+03  0.79316719840E+02 0.  0.
        254    2    1    2    0    0  0.18126770236E+03  0.25818179783E+03 -0.28422669364E+02  0.96472769651E+03  0.91124961434E+03 0.  0.
         23    2    4    4    0    0  0.11969214634E+02  0.52785439735E+03 -0.22371445890E+03  0.58070048664E+03  0.91604416688E+02 0.  0.
         23    2    4    4    0    0  0.16929848772E+03 -0.26967259952E+03  0.19529178954E+03  0.38402720988E+03  0.89178057761E+02 0.  0.
          1    1    3    3  502    0 -0.76132820763E+02 -0.14796771091E+03  0.40920005761E+02  0.17136247180E+03  0.00000000000E+00 0. -1.
         -2    1    3    3    0  502 -0.10513488159E+03 -0.11021408691E+03  0.10592232833E+03  0.18552635371E+03  0.00000000000E+00 0.  1.
         13    1    5    5    0    0 -0.68936363598E+01  0.46498637906E+03 -0.22132786740E+03  0.51502027127E+03  0.00000000000E+00 0. -1.
        -13    1    5    5    0    0  0.18862850994E+02  0.62868018295E+02 -0.23865915048E+01  0.65680215369E+02  0.00000000000E+00 0.  1.
          3    1    6    6  503    0  0.16557583291E+03 -0.24663390489E+03  0.14933070702E+03  0.33248052506E+03  0.00000000000E+00 0. -1.
         -3    1    6    6    0  503  0.37226548139E+01 -0.23038694630E+02  0.45961082520E+02  0.51546684816E+02  0.00000000000E+00 0.  1.
<mgrwt>
<rscale>  0 0.13163005E+04</rscale>
<asrwt>0</asrwt>
<pdfrwt beam="1">  1        1 0.92553604E-01 0.13163005E+04</pdfrwt>
<pdfrwt beam="2">  1       -2 0.11077201E+00 0.13163005E+04</pdfrwt>
<totfact> 0.18924490E+01</totfact>
</mgrwt>
</event>
<event>
12    5  0.5428626E-008  0.1377726E+04  0.7818608E-02  0.8970101E-01
         -2   -1    0    0    0  501 -0.00000000000E+00  0.00000000000E+00  0.47235604497E+03  0.47235604497E+03  0.00000000000E+00 0.  1.
          1   -1    0    0  501    0  0.00000000000E+00 -0.00000000000E+00 -0.10046071243E+04  0.10046071243E+04  0.00000000000E+00 0. -1.
        -24    2    1    2    0    0 -0.14227369381E+02 -0.33594015718E+03  0.82535317839E+02  0.35526626597E+03  0.79648187667E+02 0.  0.
        254    2    1    2    0    0  0.14227369381E+02  0.33594015718E+03 -0.61478639715E+03  0.11216969033E+04  0.87589007386E+03 0.  0.
         23    2    4    4    0    0 -0.10305173316E+03  0.26349231183E+03 -0.81204178993E+03  0.86446248438E+03  0.88519264553E+02 0.  0.
         23    2    4    4    0    0  0.11727910254E+03  0.72447845350E+02  0.19725539278E+03  0.25723441892E+03  0.90866815198E+02 0.  0.
          3    1    3    3  502    0  0.59708615751E+01 -0.53561741886E+02  0.43963704469E+02  0.69550835311E+02  0.00000000000E+00 0. -1.
         -4    1    3    3    0  502 -0.20198230956E+02 -0.28237841529E+03  0.38571613370E+02  0.28571543066E+03  0.00000000000E+00 0.  1.
         13    1    5    5    0    0 -0.50737337543E+02  0.22708618738E+03 -0.64252002796E+03  0.68335525187E+03  0.00000000000E+00 0.  1.
        -13    1    5    5    0    0 -0.52314395620E+02  0.36406124453E+02 -0.16952176197E+03  0.18110723251E+03  0.00000000000E+00 0. -1.
          1    1    6    6  503    0  0.90923341757E+02  0.58538849613E+02  0.75504107412E+02  0.13188904892E+03  0.00000000000E+00 0. -1.
         -1    1    6    6    0  503  0.26355760788E+02  0.13908995738E+02  0.12175128537E+03  0.12534536999E+03  0.00000000000E+00 0.  1.
<mgrwt>
<rscale>  0 0.13777260E+04</rscale>
<asrwt>0</asrwt>
<pdfrwt beam="1">  1        1 0.15455494E+00 0.13777260E+04</pdfrwt>
<pdfrwt beam="2">  1       -2 0.72670162E-01 0.13777260E+04</pdfrwt>
<totfact> 0.22003133E+01</totfact>
</mgrwt>
</event>
<event>
12    5  0.5428626E-008  0.2779336E+04  0.7818608E-02  0.8309713E-01
          1   -1    0    0  501    0  0.00000000000E+00  0.00000000000E+00  0.97485090233E+03  0.97485090233E+03  0.00000000000E+00 0. -1.
         -2   -1    0    0    0  501 -0.00000000000E+00 -0.00000000000E+00 -0.19809974729E+04  0.19809974729E+04  0.00000000000E+00 0.  1.
        -24    2    1    2    0    0 -0.81865687013E+03 -0.18385102177E+03  0.52401650594E+03  0.99249512820E+03  0.80330640401E+02 0.  0.
        254    2    1    2    0    0  0.81865687013E+03  0.18385102177E+03 -0.15301630765E+04  0.19633532470E+04  0.89964251940E+03 0.  0.
         23    2    4    4    0    0  0.79051120367E+03  0.37242162045E+03 -0.75058813796E+03  0.11556681638E+04  0.92631125851E+02 0.  0.
         23    2    4    4    0    0  0.28145666458E+02 -0.18857059868E+03 -0.77957493854E+03  0.80768508322E+03  0.90923372306E+02 0.  0.
          3    1    3    3  502    0 -0.63250887625E+03 -0.11884550861E+03  0.43035942481E+03  0.77420989917E+03  0.00000000000E+00 0. -1.
         -4    1    3    3    0  502 -0.18614799388E+03 -0.65005513159E+02  0.93657081130E+02  0.21828522903E+03  0.00000000000E+00 0.  1.
         13    1    5    5    0    0  0.79127418547E+03  0.37151968731E+03 -0.75249465657E+03  0.11534253001E+04  0.00000000000E+00 0.  1.
        -13    1    5    5    0    0 -0.76298179769E+00  0.90193314637E+00  0.19065186038E+01  0.22428637521E+01  0.00000000000E+00 0. -1.
          4    1    6    6  503    0  0.55160845350E+02 -0.16473193109E+03 -0.67827124063E+03  0.70016512613E+03  0.00000000000E+00 0.  1.
         -4    1    6    6    0  503 -0.27015178892E+02 -0.23838667595E+02 -0.10130369790E+03  0.10751995709E+03  0.00000000000E+00 0. -1.
<mgrwt>
<rscale>  0 0.27793360E+04</rscale>
<asrwt>0</asrwt>
<pdfrwt beam="1">  1        1 0.14997706E+00 0.27793360E+04</pdfrwt>
<pdfrwt beam="2">  1       -2 0.30476884E+00 0.27793360E+04</pdfrwt>
<totfact> 0.35803210E-01</totfact>
</mgrwt>
</event>
<event>
12    5  0.5428626E-008  0.1776405E+04  0.7818608E-02  0.8718949E-01
          1   -1    0    0  501    0  0.00000000000E+00  0.00000000000E+00  0.10437460615E+04  0.10437460615E+04  0.00000000000E+00 0. -1.
         -2   -1    0    0    0  501 -0.00000000000E+00 -0.00000000000E+00 -0.75583831035E+03  0.75583831035E+03  0.00000000000E+00 0.  1.
        -24    2    1    2    0    0 -0.88296839570E+02  0.57464723172E+03 -0.20510145140E+03  0.62182770780E+03  0.81162306660E+02 0.  0.
        254    2    1    2    0    0  0.88296839570E+02 -0.57464723172E+03  0.49300920258E+03  0.11777566641E+04  0.89779558541E+03 0.  0.
         23    2    4    4    0    0  0.37158320985E+03 -0.36999885800E+03 -0.40319031065E+02  0.53354037785E+03  0.89813549980E+02 0.  0.
         23    2    4    4    0    0 -0.28328637028E+03 -0.20464837372E+03  0.53332823365E+03  0.64421628625E+03  0.91888487891E+02 0.  0.
          1    1    3    3  502    0 -0.54160430863E+02  0.20778021653E+03 -0.41542960185E+02  0.21870479691E+03  0.00000000000E+00 0. -1.
         -2    1    3    3    0  502 -0.34136408706E+02  0.36686701519E+03 -0.16355849121E+03  0.40312291089E+03  0.00000000000E+00 0.  1.
         13    1    5    5    0    0  0.31161279591E+03 -0.32470117416E+03 -0.64399415317E+02  0.45462145986E+03  0.00000000000E+00 0. -1.
        -13    1    5    5    0    0  0.59970413945E+02 -0.45297683842E+02  0.24080384252E+02  0.78918917985E+02  0.00000000000E+00 0.  1.
          3    1    6    6  503    0 -0.25827769068E+03 -0.16949027165E+03  0.50690724461E+03  0.59362384750E+03  0.00000000000E+00 0. -1.
         -3    1    6    6    0  503 -0.25008679600E+02 -0.35158102065E+02  0.26420989040E+02  0.50592438744E+02  0.00000000000E+00 0.  1.
<mgrwt>
<rscale>  0 0.17764045E+04</rscale>
<asrwt>0</asrwt>
<pdfrwt beam="1">  1        1 0.16057632E+00 0.17764045E+04</pdfrwt>
<pdfrwt beam="2">  1       -2 0.11628282E+00 0.17764045E+04</pdfrwt>
<totfact> 0.66567405E+00</totfact>
</mgrwt>
</event>
<event>
12    5  0.5428626E-008  0.2584655E+04  0.7818608E-02  0.8373432E-01
          1   -1    0    0  501    0  0.00000000000E+00  0.00000000000E+00  0.72338196038E+03  0.72338196038E+03  0.00000000000E+00 0. -1.
         -2   -1    0    0    0  501 -0.00000000000E+00 -0.00000000000E+00 -0.23087532204E+04  0.23087532204E+04  0.00000000000E+00 0.  1.
        -24    2    1    2    0    0 -0.58220402174E+03  0.64026243538E+03 -0.15619821754E+04  0.17874309466E+04  0.78889566675E+02 0.  0.
        254    2    1    2    0    0  0.58220402174E+03 -0.64026243538E+03 -0.23389084598E+02  0.12447042341E+04  0.89434002034E+03 0.  0.
         23    2    4    4    0    0  0.48615000165E+03  0.47710948866E+02  0.15757524715E+03  0.52134286257E+03  0.91379773983E+02 0.  0.
         23    2    4    4    0    0  0.96054020092E+02 -0.68797338425E+03 -0.18096433175E+03  0.72336137151E+03  0.89273916821E+02 0.  0.
          3    1    3    3  502    0 -0.11838859839E+03  0.14912867276E+03 -0.40850282591E+03  0.45069921238E+03  0.00000000000E+00 0. -1.
         -4    1    3    3    0  502 -0.46381542336E+03  0.49113376262E+03 -0.11534793495E+04  0.13367317343E+04  0.00000000000E+00 0.  1.
         13    1    5    5    0    0  0.38444833100E+03  0.23377234536E+02  0.15918657673E+03  0.41675817990E+03  0.00000000000E+00 0. -1.
        -13    1    5    5    0    0  0.10170167065E+03  0.24333714330E+02 -0.16113295807E+01  0.10458468267E+03  0.00000000000E+00 0.  1.
          1    1    6    6  503    0  0.61027446306E+02 -0.43108255111E+03 -0.15766263621E+03  0.46304861724E+03  0.00000000000E+00 0. -1.
         -1    1    6    6    0  503  0.35026573786E+02 -0.25689083314E+03 -0.23301695541E+02  0.26031275427E+03  0.00000000000E+00 0.  1.
<mgrwt>
<rscale>  0 0.25846550E+04</rscale>
<asrwt>0</asrwt>
<pdfrwt beam="1">  1        1 0.11128953E+00 0.25846550E+04</pdfrwt>
<pdfrwt beam="2">  1       -2 0.35519280E+00 0.25846550E+04</pdfrwt>
<totfact> 0.28904719E-01</totfact>
</mgrwt>
</event>
<event>
12    5  0.5428626E-008  0.1331151E+04  0.7818608E-02  0.9005220E-01
          3   -1    0    0  501    0  0.00000000000E+00  0.00000000000E+00  0.55993822831E+03  0.55993822831E+03  0.00000000000E+00 0. -1.
         -4   -1    0    0    0  501 -0.00000000000E+00 -0.00000000000E+00 -0.79114227310E+03  0.79114227310E+03  0.00000000000E+00 0.  1.
        -24    2    1    2    0    0  0.17437118888E+03  0.30281941578E+03 -0.12514151629E+03  0.37985784239E+03  0.80787816167E+02 0.  0.
        254    2    1    2    0    0 -0.17437118888E+03 -0.30281941578E+03 -0.10606252850E+03  0.97122265902E+03  0.89995515631E+03 0.  0.
         23    2    4    4    0    0  0.26374508512E+03 -0.41933240188E+03 -0.56415617454E+02  0.50724623482E+03  0.93353562632E+02 0.  0.
         23    2    4    4    0    0 -0.43811627399E+03  0.11651298610E+03 -0.49646911051E+02  0.46397642420E+03  0.85370726635E+02 0.  0.
          1    1    3    3  502    0  0.32832868089E+02  0.44016277489E+02  0.92865874616E+01  0.55692644197E+02  0.00000000000E+00 0. -1.
         -4    1    3    3    0  502  0.14153832079E+03  0.25880313829E+03 -0.13442810375E+03  0.32416519819E+03  0.00000000000E+00 0.  1.
         13    1    5    5    0    0  0.36661288759E+02 -0.20737085939E+02  0.11108823476E+02  0.43560105438E+02  0.00000000000E+00 0. -1.
        -13    1    5    5    0    0  0.22708379636E+03 -0.39859531594E+03 -0.67524440930E+02  0.46368612939E+03  0.00000000000E+00 0.  1.
          4    1    6    6  503    0 -0.13761357521E+02 -0.99304302280E+01 -0.92955758137E+01  0.19349318723E+02  0.00000000000E+00 0. -1.
         -4    1    6    6    0  503 -0.42435491647E+03  0.12644341633E+03 -0.40351335237E+02  0.44462710548E+03  0.00000000000E+00 0.  1.
<mgrwt>
<rscale>  0 0.13311511E+04</rscale>
<asrwt>0</asrwt>
<pdfrwt beam="1">  1        3 0.86144343E-01 0.13311511E+04</pdfrwt>
<pdfrwt beam="2">  1       -4 0.12171420E+00 0.13311511E+04</pdfrwt>
<totfact> 0.14090048E+00</totfact>
</mgrwt>
</event>
<event>
12    5  0.5428626E-008  0.2038358E+04  0.7818608E-02  0.8588894E-01
         -2   -1    0    0    0  501 -0.00000000000E+00  0.00000000000E+00  0.19526460324E+04  0.19526460324E+04  0.00000000000E+00 0.  1.
          1   -1    0    0  501    0  0.00000000000E+00 -0.00000000000E+00 -0.53195822913E+03  0.53195822913E+03  0.00000000000E+00 0. -1.
        -24    2    1    2    0    0 -0.17575689046E+03  0.15598339939E+03  0.15350544386E+04  0.15552330932E+04  0.84478040646E+02 0.  0.
        254    2    1    2    0    0  0.17575689046E+03 -0.15598339939E+03 -0.11436663536E+03  0.92937116829E+03  0.89186867629E+03 0.  0.
         23    2    4    4    0    0  0.11347401233E+02  0.15201434522E+03 -0.42000739769E+03  0.45594077161E+03  0.90767000757E+02 0.  0.
         23    2    4    4    0    0  0.16440948923E+03 -0.30799774461E+03  0.30564076234E+03  0.47343039669E+03  0.93951977451E+02 0.  0.
          3    1    3    3  502    0 -0.27836863397E+01  0.42474582411E+02  0.28961833746E+03  0.29272960297E+03  0.00000000000E+00 0. -1.
         -4    1    3    3    0  502 -0.17297320413E+03  0.11350881698E+03  0.12454361011E+04  0.12625034902E+04  0.00000000000E+00 0.  1.
         13    1    5    5    0    0 -0.67514795238E+01  0.91682011496E+02 -0.34953194540E+03  0.36141908439E+03  0.00000000000E+00 0. -1.
        -13    1    5    5    0    0  0.18098880756E+02  0.60332333727E+02 -0.70475452292E+02  0.94521687212E+02  0.00000000000E+00 0.  1.
          4    1    6    6  503    0  0.56931986983E+02 -0.31969299473E+02  0.58062065248E+02  0.87375572510E+02  0.00000000000E+00 0.  1.
         -4    1    6    6    0  503  0.10747750225E+03 -0.27602844514E+03  0.24757869709E+03  0.38605482418E+03  0.00000000000E+00 0. -1.
<mgrwt>
<rscale>  0 0.20383583E+04</rscale>
<asrwt>0</asrwt>
<pdfrwt beam="1">  1        1 0.81839729E-01 0.20383583E+04</pdfrwt>
<pdfrwt beam="2">  1       -2 0.30040708E+00 0.20383583E+04</pdfrwt>
<totfact> 0.10410796E+00</totfact>
</mgrwt>
</event>
<event>
12    5  0.5428626E-008  0.2237561E+04  0.7818608E-02  0.8502955E-01
         -2   -1    0    0    0  501 -0.00000000000E+00  0.00000000000E+00  0.13683029974E+04  0.13683029974E+04  0.00000000000E+00 0.  1.
          1   -1    0    0  501    0  0.00000000000E+00 -0.00000000000E+00 -0.91476079137E+03  0.91476079137E+03  0.00000000000E+00 0. -1.
        -24    2    1    2    0    0  0.13433580118E+03 -0.30724901015E+03 -0.70496511885E+03  0.78467779218E+03  0.79343285917E+02 0.  0.
        254    2    1    2    0    0 -0.13433580118E+03  0.30724901015E+03  0.11585073248E+04  0.14983859966E+04  0.88914189603E+03 0.  0.
         23    2    4    4    0    0 -0.96007377875E+01 -0.17075259983E+03  0.92493536425E+03  0.94481114752E+03  0.88960957331E+02 0.  0.
         23    2    4    4    0    0 -0.12473506339E+03  0.47800160998E+03  0.23357196060E+03  0.55357484904E+03  0.88571313287E+02 0.  0.
          3    1    3    3  502    0  0.13846544450E+03 -0.28311417507E+03 -0.68111748297E+03  0.75049806199E+03  0.00000000000E+00 0. -1.
         -4    1    3    3    0  502 -0.41296433270E+01 -0.24134835078E+02 -0.23847635885E+02  0.34179730185E+02  0.00000000000E+00 0.  1.
         13    1    5    5    0    0  0.13982174961E+02 -0.16779882949E+03  0.78305351512E+03  0.80095240554E+03  0.00000000000E+00 0. -1.
        -13    1    5    5    0    0 -0.23582912749E+02 -0.29537703358E+01  0.14188184913E+03  0.14385874198E+03  0.00000000000E+00 0.  1.
          1    1    6    6  503    0 -0.13464811017E+03  0.37901230518E+03  0.18126239029E+03  0.44117626317E+03  0.00000000000E+00 0. -1.
         -1    1    6    6    0  503  0.99130467839E+01  0.98989304802E+02  0.52309570306E+02  0.11239858588E+03  0.00000000000E+00 0.  1.
<mgrwt>
<rscale>  0 0.22375611E+04</rscale>
<asrwt>0</asrwt>
<pdfrwt beam="1">  1        1 0.14073243E+00 0.22375611E+04</pdfrwt>
<pdfrwt beam="2">  1       -2 0.21050815E+00 0.22375611E+04</pdfrwt>
<totfact> 0.16019660E+00</totfact>
</mgrwt>
</event>
<event>
12    5  0.5428626E-008  0.2431557E+04  0.7818608E-02  0.8427783E-01
          1   -1    0    0  501    0  0.00000000000E+00  0.00000000000E+00  0.19264329187E+04  0.19264329187E+04  0.00000000000E+00 0. -1.
         -2   -1    0    0    0  501 -0.00000000000E+00 -0.00000000000E+00 -0.76728224636E+03  0.76728224636E+03  0.00000000000E+00 0.  1.
        -24    2    1    2    0    0  0.37645171934E+02  0.12873986824E+03  0.16538978492E+04  0.16610518522E+04  0.75657435137E+02 0.  0.
        254    2    1    2    0    0 -0.37645171934E+02 -0.12873986824E+03 -0.49474717688E+03  0.10326633128E+04  0.89645280747E+03 0.  0.
         23    2    4    4    0    0  0.11070895923E+03 -0.39612029783E+03  0.26126561003E+02  0.42180348008E+03  0.89821014280E+02 0.  0.
         23    2    4    4    0    0 -0.14835413116E+03  0.26738042959E+03 -0.52087373788E+03  0.61085983276E+03  0.91318355838E+02 0.  0.
          1    1    3    3  502    0  0.27551421967E+02  0.11730012837E+03  0.16113991011E+04  0.16158977270E+04  0.00000000000E+00 0. -1.
         -2    1    3    3    0  502  0.10093749966E+02  0.11439739877E+02  0.42498748082E+02  0.45154125231E+02  0.00000000000E+00 0.  1.
         13    1    5    5    0    0  0.82164579178E+02 -0.30991635016E+03 -0.17417943681E+02  0.32109585318E+03  0.00000000000E+00 0. -1.
        -13    1    5    5    0    0  0.28544380050E+02 -0.86203947676E+02  0.43544504684E+02  0.10070762690E+03  0.00000000000E+00 0.  1.
          1    1    6    6  503    0 -0.98131169359E+02  0.24409166440E+03 -0.44478248710E+03  0.51676099685E+03  0.00000000000E+00 0. -1.
         -1    1    6    6    0  503 -0.50222961803E+02  0.23288765190E+02 -0.76091250774E+02  0.94098835916E+02  0.00000000000E+00 0.  1.
<mgrwt>
<rscale>  0 0.24315573E+04</rscale>
<asrwt>0</asrwt>
<pdfrwt beam="1">  1        1 0.29637429E+00 0.24315573E+04</pdfrwt>
<pdfrwt beam="2">  1       -2 0.11804342E+00 0.24315573E+04</pdfrwt>
<totfact> 0.14518349E+00</totfact>
</mgrwt>
</event>
<event>
12    5  0.5428626E-008  0.1376019E+04  0.7818608E-02  0.8971362E-01
          1   -1    0    0  501    0  0.00000000000E+00  0.00000000000E+00  0.58497872350E+03  0.58497872350E+03  0.00000000000E+00 0. -1.
         -2   -1    0    0    0  501 -0.00000000000E+00 -0.00000000000E+00 -0.80918710318E+03  0.80918710318E+03  0.00000000000E+00 0.  1.
        -24    2    1    2    0    0  0.16040216823E+03  0.69225429875E+02  0.29738992623E+03  0.35675768260E+03  0.91182564980E+02 0.  0.
        254    2    1    2    0    0 -0.16040216823E+03 -0.69225429875E+02 -0.52159830591E+03  0.10374081441E+04  0.87956230533E+03 0.  0.
         23    2    4    4    0    0 -0.33885403736E+03 -0.36609128337E+03 -0.16663148867E+03  0.53381240541E+03  0.91349574483E+02 0.  0.
         23    2    4    4    0    0  0.17845186913E+03  0.29686585350E+03 -0.35496681724E+03  0.50359573867E+03  0.87366023672E+02 0.  0.
          1    1    3    3  502    0  0.11258011567E+03  0.83610955526E+02  0.17286573487E+03  0.22259298421E+03  0.00000000000E+00 0. -1.
         -2    1    3    3    0  502  0.47822052556E+02 -0.14385525651E+02  0.12452419136E+03  0.13416469839E+03  0.00000000000E+00 0.  1.
         13    1    5    5    0    0 -0.23081152761E+03 -0.21199571963E+03 -0.65513099154E+02  0.32016888135E+03  0.00000000000E+00 0.  1.
        -13    1    5    5    0    0 -0.10804250975E+03 -0.15409556374E+03 -0.10111838952E+03  0.21364352406E+03  0.00000000000E+00 0. -1.
          2    1    6    6  503    0  0.35407311808E+02  0.12759718424E+03 -0.10106566178E+03  0.16658027238E+03  0.00000000000E+00 0. -1.
         -2    1    6    6    0  503  0.14304455733E+03  0.16926866926E+03 -0.25390115546E+03  0.33701546628E+03  0.00000000000E+00 0.  1.
<mgrwt>
<rscale>  0 0.13760192E+04</rscale>
<asrwt>0</asrwt>
<pdfrwt beam="1">  1        1 0.89996726E-01 0.13760192E+04</pdfrwt>
<pdfrwt beam="2">  1       -2 0.12449032E+00 0.13760192E+04</pdfrwt>
<totfact> 0.14704864E+01</totfact>
</mgrwt>
</event>
<event>
12    5  0.5428626E-008  0.2872976E+04  0.7818608E-02  0.8280964E-01
         -2   -1    0    0    0  501 -0.00000000000E+00  0.00000000000E+00  0.72343673515E+03  0.72343673515E+03  0.00000000000E+00 0.  1.
          1   -1    0    0  501    0  0.00000000000E+00 -0.00000000000E+00 -0.28523536962E+04  0.28523536962E+04  0.00000000000E+00 0. -1.
        -24    2    1    2    0    0  0.12549616729E+04  0.31337461824E+03 -0.94659926008E+03  0.16053105944E+04  0.88540914651E+02 0.  0.
        254    2    1    2    0    0 -0.12549616729E+04 -0.31337461824E+03 -0.11823177009E+04  0.19704798369E+04  0.90099011655E+03 0.  0.
         23    2    4    4    0    0 -0.52410078602E+02 -0.30022084027E+03 -0.47763325372E+03  0.57397605486E+03  0.91845616226E+02 0.  0.
         23    2    4    4    0    0 -0.12025515943E+04 -0.13153777975E+02 -0.70468444720E+03  0.13965037821E+04  0.85669624084E+02 0.  0.
          1    1    3    3  502    0  0.59666965766E+03  0.15880367312E+03 -0.50537346502E+03  0.79789449561E+03  0.00000000000E+00 0. -1.
         -2    1    3    3    0  502  0.65829201519E+03  0.15457094513E+03 -0.44122579506E+03  0.80741609878E+03  0.00000000000E+00 0.  1.
         13    1    5    5    0    0  0.90442162272E+01 -0.19906294073E+03 -0.31739040428E+03  0.37475928401E+03  0.00000000000E+00 0.  1.
        -13    1    5    5    0    0 -0.61454294829E+02 -0.10115789954E+03 -0.16024284944E+03  0.19921677085E+03  0.00000000000E+00 0. -1.
          3    1    6    6  503    0 -0.23176325595E+03  0.18982773492E+02 -0.16700528396E+03  0.28629585636E+03  0.00000000000E+00 0. -1.
         -3    1    6    6    0  503 -0.97078833830E+03 -0.32136551467E+02 -0.53767916324E+03  0.11102079257E+04  0.00000000000E+00 0.  1.
<mgrwt>
<rscale>  0 0.28729758E+04</rscale>
<asrwt>0</asrwt>
<pdfrwt beam="1">  1        1 0.43882364E+00 0.28729758E+04</pdfrwt>
<pdfrwt beam="2">  1       -2 0.11129796E+00 0.28729758E+04</pdfrwt>
<totfact> 0.36935375E-01</totfact>
</mgrwt>
</event>
<event>
12    5  0.5428626E-008  0.1551951E+04  0.7818608E-02  0.8850623E-01
          1   -1    0    0  501    0  0.00000000000E+00  0.00000000000E+00  0.94242710190E+03  0.94242710190E+03  0.00000000000E+00 0. -1.
         -2   -1    0    0    0  501 -0.00000000000E+00 -0.00000000000E+00 -0.63892235355E+03  0.63892235355E+03  0.00000000000E+00 0.  1.
        -24    2    1    2    0    0  0.20691381629E+03 -0.44653102730E+03 -0.37664670761E+02  0.50012945781E+03  0.80669457877E+02 0.  0.
        254    2    1    2    0    0 -0.20691381629E+03  0.44653102730E+03  0.34116941911E+03  0.10812199976E+04  0.90024264788E+03 0.  0.
         23    2    4    4    0    0 -0.58974062464E+02 -0.22433024475E+03 -0.86443357457E+02  0.26701233593E+03  0.10010561791E+03 0.  0.
         23    2    4    4    0    0 -0.14793975383E+03  0.67086127204E+03  0.42761277657E+03  0.81420766172E+03  0.90224235254E+02 0.  0.
          3    1    3    3  502    0  0.12500663447E+03 -0.24445509867E+03  0.17804595522E+02  0.27513988723E+03  0.00000000000E+00 0. -1.
         -4    1    3    3    0  502  0.81907181824E+02 -0.20207592863E+03 -0.55469266283E+02  0.22498957057E+03  0.00000000000E+00 0.  1.
         13    1    5    5    0    0 -0.82919946752E+02 -0.20131251000E+03 -0.85127369166E+02  0.23377149791E+03  0.00000000000E+00 0.  1.
        -13    1    5    5    0    0  0.23945884288E+02 -0.23017734743E+02 -0.13159882908E+01  0.33240838019E+02  0.00000000000E+00 0. -1.
          3    1    6    6  503    0 -0.10194056208E+03  0.27497468320E+03  0.15905070734E+03  0.33361666940E+03  0.00000000000E+00 0. -1.
         -3    1    6    6    0  503 -0.45999191750E+02  0.39588658884E+03  0.26856206923E+03  0.48059099232E+03  0.00000000000E+00 0.  1.
<mgrwt>
<rscale>  0 0.15519507E+04</rscale>
<asrwt>0</asrwt>
<pdfrwt beam="1">  1        1 0.14498879E+00 0.15519507E+04</pdfrwt>
<pdfrwt beam="2">  1       -2 0.98295746E-01 0.15519507E+04</pdfrwt>
<totfact> 0.12208837E+01</totfact>
</mgrwt>
</event>
<event>
12    5  0.5428626E-008  0.2651074E+04  0.7818608E-02  0.8351057E-01
         -2   -1    0    0    0  501 -0.00000000000E+00  0.00000000000E+00  0.11902276995E+04  0.11902276995E+04  0.00000000000E+00 0.  1.
          1   -1    0    0  501    0  0.00000000000E+00 -0.00000000000E+00 -0.14762289081E+04  0.14762289081E+04  0.00000000000E+00 0. -1.
        -24    2    1    2    0    0 -0.43143302002E+00 -0.20085953276E+03  0.10354874211E+04  0.10579332712E+04  0.81509931115E+02 0.  0.
        254    2    1    2    0    0  0.43143302002E+00  0.20085953276E+03 -0.13214886298E+04  0.16085233364E+04  0.89480187042E+03 0.  0.
         23    2    4    4    0    0 -0.74415705408E+02 -0.17742917219E+03 -0.11621133902E+04  0.11814565428E+04  0.91176874421E+02 0.  0.
         23    2    4    4    0    0  0.74847138428E+02  0.37828870496E+03 -0.15937523957E+03  0.42706679369E+03  0.91000773945E+02 0.  0.
          1    1    3    3  502    0 -0.24577489468E+02 -0.50279651586E+02  0.42579511394E+03  0.42945730335E+03  0.00000000000E+00 0. -1.
         -2    1    3    3    0  502  0.24146056447E+02 -0.15057988118E+03  0.60969230721E+03  0.62847596782E+03  0.00000000000E+00 0.  1.
         13    1    5    5    0    0 -0.79428190896E+02 -0.78185179896E+02 -0.53127789068E+03  0.54284247899E+03  0.00000000000E+00 0. -1.
        -13    1    5    5    0    0  0.50124854882E+01 -0.99243992296E+02 -0.63083549950E+03  0.63861406377E+03  0.00000000000E+00 0.  1.
          1    1    6    6  503    0  0.71698131210E+02  0.37350092370E+03 -0.13743548334E+03  0.40439099163E+03  0.00000000000E+00 0. -1.
         -1    1    6    6    0  503  0.31490072184E+01  0.47877812510E+01 -0.21939756236E+02  0.22675802068E+02  0.00000000000E+00 0.  1.
<mgrwt>
<rscale>  0 0.26510742E+04</rscale>
<asrwt>0</asrwt>
<pdfrwt beam="1">  1        1 0.22711214E+00 0.26510742E+04</pdfrwt>
<pdfrwt beam="2">  1       -2 0.18311195E+00 0.26510742E+04</pdfrwt>
<totfact> 0.90311841E-01</totfact>
</mgrwt>
</event>
<event>
12    5  0.5428626E-008  0.2306437E+04  0.7818608E-02  0.8475387E-01
         -2   -1    0    0    0  501 -0.00000000000E+00  0.00000000000E+00  0.66516490099E+03  0.66516490099E+03  0.00000000000E+00 0.  1.
          1   -1    0    0  501    0  0.00000000000E+00 -0.00000000000E+00 -0.19993740821E+04  0.19993740821E+04  0.00000000000E+00 0. -1.
        -24    2    1    2    0    0 -0.77458138552E+02 -0.73733670706E+02 -0.16809488000E+04  0.16865641207E+04  0.86447947660E+02 0.  0.
        254    2    1    2    0    0  0.77458138552E+02  0.73733670706E+02  0.34673961893E+03  0.97797486233E+03  0.90816851442E+03 0.  0.
         23    2    4    4    0    0 -0.33031465039E+03 -0.57810588204E+02  0.40776849591E+03  0.53600073967E+03  0.92584093105E+02 0.  0.
         23    2    4    4    0    0  0.40777278895E+03  0.13154425891E+03 -0.61028876980E+02  0.44197412266E+03  0.89632928215E+02 0.  0.
          3    1    3    3  502    0 -0.30472859797E+02 -0.57654967089E+02 -0.13804564808E+04  0.13819959427E+04  0.00000000000E+00 0. -1.
         -4    1    3    3    0  502 -0.46985278754E+02 -0.16078703617E+02 -0.30049231923E+03  0.30456817799E+03  0.00000000000E+00 0.  1.
         13    1    5    5    0    0 -0.18522985946E+03 -0.23026395261E+02  0.29454032235E+03  0.34870376712E+03  0.00000000000E+00 0.  1.
        -13    1    5    5    0    0 -0.14508479093E+03 -0.34784192942E+02  0.11322817357E+03  0.18729697255E+03  0.00000000000E+00 0. -1.
          1    1    6    6  503    0  0.11541289156E+03 -0.39531018298E+01 -0.18273040782E+02  0.11691734932E+03  0.00000000000E+00 0. -1.
         -1    1    6    6    0  503  0.29235989738E+03  0.13549736074E+03 -0.42755836198E+02  0.32505677334E+03  0.00000000000E+00 0.  1.
<mgrwt>
<rscale>  0 0.23064375E+04</rscale>
<asrwt>0</asrwt>
<pdfrwt beam="1">  1        1 0.30759601E+00 0.23064375E+04</pdfrwt>
<pdfrwt beam="2">  1       -2 0.10233306E+00 0.23064375E+04</pdfrwt>
<totfact> 0.18508313E+00</totfact>
</mgrwt>
</event>
<event>
12    5  0.5428626E-008  0.2768569E+04  0.7818608E-02  0.8313093E-01
          1   -1    0    0  501    0  0.00000000000E+00  0.00000000000E+00  0.24526561854E+04  0.24526561854E+04  0.00000000000E+00 0. -1.
         -2   -1    0    0    0  501 -0.00000000000E+00 -0.00000000000E+00 -0.78129322431E+03  0.78129322431E+03  0.00000000000E+00 0.  1.
        -24    2    1    2    0    0 -0.37464388967E+03  0.93922002968E+03  0.15856086708E+04  0.18822991563E+04  0.80018426083E+02 0.  0.
        254    2    1    2    0    0  0.37464388967E+03 -0.93922002968E+03  0.85754290278E+02  0.13516502534E+04  0.89281145888E+03 0.  0.
         23    2    4    4    0    0  0.24010333423E+03 -0.69371843029E+03 -0.35576084404E+03  0.82101569293E+03  0.92769166478E+02 0.  0.
         23    2    4    4    0    0  0.13454055544E+03 -0.24550159939E+03  0.44151513432E+03  0.53063456051E+03  0.90913291724E+02 0.  0.
          1    1    3    3  502    0 -0.19611757812E+03  0.42362698035E+03  0.67395925916E+03  0.81984328133E+03  0.00000000000E+00 0. -1.
         -2    1    3    3    0  502 -0.17852631155E+03  0.51559304933E+03  0.91164941164E+03  0.10624558749E+04  0.00000000000E+00 0.  1.
         13    1    5    5    0    0  0.57825054639E+02 -0.21707212578E+03 -0.15352959069E+03  0.27209443205E+03  0.00000000000E+00 0. -1.
        -13    1    5    5    0    0  0.18227827959E+03 -0.47664630451E+03 -0.20223125336E+03  0.54892126088E+03  0.00000000000E+00 0.  1.
          2    1    6    6  503    0  0.67967742404E+02 -0.12626123425E+03  0.14372435420E+03  0.20302266689E+03  0.00000000000E+00 0. -1.
         -2    1    6    6    0  503  0.66572813032E+02 -0.11924036514E+03  0.29779078012E+03  0.32761189361E+03  0.00000000000E+00 0.  1.
<mgrwt>
<rscale>  0 0.27685691E+04</rscale>
<asrwt>0</asrwt>
<pdfrwt beam="1">  1        1 0.37733172E+00 0.27685691E+04</pdfrwt>
<pdfrwt beam="2">  1       -2 0.12019896E+00 0.27685691E+04</pdfrwt>
<totfact> 0.58967693E-01</totfact>
</mgrwt>
</event>
<event>
12    5  0.5428626E-008  0.1490253E+04  0.7818608E-02  0.8890960E-01
         -2   -1    0    0    0  501 -0.00000000000E+00  0.00000000000E+00  0.40846282107E+03  0.40846282107E+03  0.00000000000E+00 0.  1.
          1   -1    0    0  501    0  0.00000000000E+00 -0.00000000000E+00 -0.13592760604E+04  0.13592760604E+04  0.00000000000E+00 0. -1.
        -24    2    1    2    0    0  0.32912376964E+03  0.13401808926E+03  0.55549455405E+02  0.36761338841E+03  0.75964184665E+02 0.  0.
        254    2    1    2    0    0 -0.32912376964E+03 -0.13401808926E+03 -0.10063626947E+04  0.14001254930E+04  0.90625725870E+03 0.  0.
         23    2    4    4    0    0 -0.36653202574E+03 -0.18689751605E+03 -0.11460867947E+04  0.12213017505E+04  0.93736958237E+02 0.  0.
         23    2    4    4    0    0  0.37408256100E+02  0.52879426787E+02  0.13972409998E+03  0.17882374257E+03  0.90881765989E+02 0.  0.
          3    1    3    3  502    0  0.26254424489E+03  0.11092437281E+03  0.13038958040E+02  0.28531335657E+03  0.00000000000E+00 0. -1.
         -4    1    3    3    0  502  0.66579524749E+02  0.23093716450E+02  0.42510497364E+02  0.82300031843E+02  0.00000000000E+00 0.  1.
         13    1    5    5    0    0 -0.10979261016E+03 -0.66050995974E+02 -0.49011372561E+03  0.50658524983E+03  0.00000000000E+00 0. -1.
        -13    1    5    5    0    0 -0.25673941558E+03 -0.12084652008E+03 -0.65597306906E+03  0.71471650062E+03  0.00000000000E+00 0.  1.
          3    1    6    6  503    0 -0.24720371540E+02 -0.37893036370E+01  0.49679234086E+02  0.55619078476E+02  0.00000000000E+00 0. -1.
         -3    1    6    6    0  503  0.62128627640E+02  0.56668730424E+02  0.90044865893E+02  0.12320466409E+03  0.00000000000E+00 0.  1.
<mgrwt>
<rscale>  0 0.14902533E+04</rscale>
<asrwt>0</asrwt>
<pdfrwt beam="1">  1        1 0.20911939E+00 0.14902533E+04</pdfrwt>
<pdfrwt beam="2">  1       -2 0.62840434E-01 0.14902533E+04</pdfrwt>
<totfact> 0.16363211E+01</totfact>
</mgrwt>
</event>
<event>
12    5  0.5428626E-008  0.1347078E+04  0.7818608E-02  0.8993043E-01
          1   -1    0    0  501    0  0.00000000000E+00  0.00000000000E+00  0.17798528107E+04  0.17798528107E+04  0.00000000000E+00 0. -1.
         -2   -1    0    0    0  501 -0.00000000000E+00 -0.00000000000E+00 -0.25488337940E+03  0.25488337940E+03  0.00000000000E+00 0.  1.
        -24    2    1    2    0    0 -0.28273012964E+03 -0.64036334539E+02  0.11233526104E+03  0.32218624284E+03  0.84544579113E+02 0.  0.
        254    2    1    2    0    0  0.28273012964E+03  0.64036334539E+02  0.14126341702E+04  0.17125499472E+04  0.92371805465E+03 0.  0.
         23    2    4    4    0    0  0.41411609441E+03 -0.31931557645E+03  0.60826404334E+03  0.80735404374E+03  0.91546865115E+02 0.  0.
         23    2    4    4    0    0 -0.13138596477E+03  0.38335191099E+03  0.80437012690E+03  0.90519590349E+03  0.90262745636E+02 0.  0.
          3    1    3    3  502    0 -0.25476809238E+03 -0.54057827229E+02  0.12621612446E+03  0.28941240411E+03  0.00000000000E+00 0. -1.
         -4    1    3    3    0  502 -0.27962037265E+02 -0.99785073099E+01 -0.13880863423E+02  0.32773838736E+02  0.00000000000E+00 0.  1.
         13    1    5    5    0    0  0.32416705906E+03 -0.29264408001E+03  0.51149311757E+03  0.67256973547E+03  0.00000000000E+00 0. -1.
        -13    1    5    5    0    0  0.89949035351E+02 -0.26671496443E+02  0.96770925764E+02  0.13478430827E+03  0.00000000000E+00 0.  1.
          1    1    6    6  503    0 -0.97178031526E+02  0.34353830958E+03  0.64252454861E+03  0.73505097478E+03  0.00000000000E+00 0. -1.
         -1    1    6    6    0  503 -0.34207933239E+02  0.39813601414E+02  0.16184557829E+03  0.17014492871E+03  0.00000000000E+00 0.  1.
<mgrwt>
<rscale>  0 0.13470782E+04</rscale>
<asrwt>0</asrwt>
<pdfrwt beam="1">  1        1 0.27382350E+00 0.13470782E+04</pdfrwt>
<pdfrwt beam="2">  1       -2 0.39212829E-01 0.13470782E+04</pdfrwt>
<totfact> 0.22225390E+01</totfact>
</mgrwt>
</event>
<event>
12    5  0.5428626E-008  0.1451493E+04  0.7818608E-02  0.8917366E-01
         -2   -1    0    0    0  501 -0.00000000000E+00  0.00000000000E+00  0.74885435274E+03  0.74885435274E+03  0.00000000000E+00 0.  1.
          1   -1    0    0  501    0  0.00000000000E+00 -0.00000000000E+00 -0.70335137617E+03  0.70335137617E+03  0.00000000000E+00 0. -1.
        -24    2    1    2    0    0 -0.34097986319E+03 -0.18825462441E+03  0.21656246595E+03  0.45255665227E+03  0.78747388159E+02 0.  0.
        254    2    1    2    0    0  0.34097986319E+03  0.18825462441E+03 -0.17105948938E+03  0.99964907665E+03  0.90461586147E+03 0.  0.
         23    2    4    4    0    0  0.49604541882E+03  0.23469383715E+03 -0.41345526954E+03  0.69385474452E+03  0.96679324899E+02 0.  0.
         23    2    4    4    0    0 -0.15506555563E+03 -0.46439212740E+02  0.24239578016E+03  0.30579433212E+03  0.92479902108E+02 0.  0.
          1    1    3    3  502    0 -0.55693234971E+02 -0.11959382474E+02  0.77229322449E+01  0.57483971098E+02  0.00000000000E+00 0. -1.
         -2    1    3    3    0  502 -0.28528662822E+03 -0.17629524194E+03  0.20883953370E+03  0.39507268117E+03  0.00000000000E+00 0.  1.
         13    1    5    5    0    0  0.40116527932E+03  0.16908997510E+03 -0.36737320188E+03  0.56963854371E+03  0.00000000000E+00 0.  1.
        -13    1    5    5    0    0  0.94880139493E+02  0.65603862050E+02 -0.46082067658E+02  0.12421620082E+03  0.00000000000E+00 0. -1.
          2    1    6    6  503    0  0.10820839224E+02 -0.70381148944E+01  0.35034121661E+02  0.37336514344E+02  0.00000000000E+00 0. -1.
         -2    1    6    6    0  503 -0.16588639485E+03 -0.39401097846E+02  0.20736165850E+03  0.26845781778E+03  0.00000000000E+00 0.  1.
<mgrwt>
<rscale>  0 0.14514927E+04</rscale>
<asrwt>0</asrwt>
<pdfrwt beam="1">  1        1 0.10820790E+00 0.14514927E+04</pdfrwt>
<pdfrwt beam="2">  1       -2 0.11520836E+00 0.14514927E+04</pdfrwt>
<totfact> 0.13499155E+01</totfact>
</mgrwt>
</event>
<event>
12    5  0.5428626E-008  0.1634946E+04  0.7818608E-02  0.8799363E-01
          1   -1    0    0  501    0  0.00000000000E+00  0.00000000000E+00  0.17901519869E+04  0.17901519869E+04  0.00000000000E+00 0. -1.
         -2   -1    0    0    0  501 -0.00000000000E+00 -0.00000000000E+00 -0.37329887963E+03  0.37329887963E+03  0.00000000000E+00 0.  1.
        -24    2    1    2    0    0 -0.30933563279E+03 -0.33842897419E+03  0.71525899041E+02  0.47089947723E+03  0.80047855273E+02 0.  0.
        254    2    1    2    0    0  0.30933563279E+03  0.33842897419E+03  0.13453272083E+04  0.16925513893E+04  0.91902241754E+03 0.  0.
         23    2    4    4    0    0 -0.28581153936E+03  0.89131293981E+02  0.18981151490E+03  0.36594174728E+03  0.90842322816E+02 0.  0.
         23    2    4    4    0    0  0.59514717216E+03  0.24929768020E+03  0.11555156934E+04  0.13266096420E+04  0.91253136293E+02 0.  0.
          3    1    3    3  502    0 -0.31249697973E+03 -0.32285774668E+03  0.66393069518E+02  0.45420207685E+03  0.00000000000E+00 0. -1.
         -4    1    3    3    0  502  0.31613469372E+01 -0.15571227506E+02  0.51328295232E+01  0.16697400379E+02  0.00000000000E+00 0.  1.
         13    1    5    5    0    0  0.51337723686E+01  0.93365476809E+01  0.28936706447E+01  0.11040836523E+02  0.00000000000E+00 0. -1.
        -13    1    5    5    0    0 -0.29094531173E+03  0.79794746300E+02  0.18691784426E+03  0.35490091076E+03  0.00000000000E+00 0.  1.
          1    1    6    6  503    0  0.19428302192E+03  0.61657173666E+02  0.28970790541E+03  0.35422897980E+03  0.00000000000E+00 0. -1.
         -1    1    6    6    0  503  0.40086415024E+03  0.18764050654E+03  0.86580778795E+03  0.97238066225E+03  0.00000000000E+00 0.  1.
<mgrwt>
<rscale>  0 0.16349455E+04</rscale>
<asrwt>0</asrwt>
<pdfrwt beam="1">  1        1 0.27540799E+00 0.16349455E+04</pdfrwt>
<pdfrwt beam="2">  1       -2 0.57430598E-01 0.16349455E+04</pdfrwt>
<totfact> 0.98701735E+00</totfact>
</mgrwt>
</event>
<event>
12    5  0.5428626E-008  0.1273766E+04  0.7818608E-02  0.9050632E-01
          1   -1    0    0  501    0  0.00000000000E+00  0.00000000000E+00  0.84659945567E+03  0.84659945567E+03  0.00000000000E+00 0. -1.
         -2   -1    0    0    0  501 -0.00000000000E+00 -0.00000000000E+00 -0.47911661601E+03  0.47911661601E+03  0.00000000000E+00 0.  1.
        -24    2    1    2    0    0  0.13263150405E+03 -0.13404656335E+03 -0.79296837152E+02  0.21987555293E+03  0.80608147113E+02 0.  0.
        254    2    1    2    0    0 -0.13263150405E+03  0.13404656335E+03  0.44677967682E+03  0.11058405188E+04  0.99383679560E+03 0.  0.
         23    2    4    4    0    0  0.84031589254E+02  0.27728280527E+03 -0.22607265116E+03  0.37883958691E+03  0.91997428883E+02 0.  0.
         23    2    4    4    0    0 -0.21666309330E+03 -0.14323624192E+03  0.67285232798E+03  0.72700093184E+03  0.91326790361E+02 0.  0.
          1    1    3    3  502    0 -0.79790437961E+01 -0.72692164121E+01 -0.17793710885E+02  0.20811602394E+02  0.00000000000E+00 0. -1.
         -2    1    3    3    0  502  0.14061054784E+03 -0.12677734694E+03 -0.61503126268E+02  0.19906395053E+03  0.00000000000E+00 0.  1.
         13    1    5    5    0    0  0.29685743958E+02  0.34713022713E+02 -0.45978656501E+01  0.45906183774E+02  0.00000000000E+00 0. -1.
        -13    1    5    5    0    0  0.54345845296E+02  0.24256978256E+03 -0.22147478551E+03  0.33293340314E+03  0.00000000000E+00 0.  1.
          4    1    6    6  503    0  0.42062802295E+01 -0.17304930289E+02  0.22350108418E+02  0.28577626773E+02  0.00000000000E+00 0. -1.
         -4    1    6    6    0  503 -0.22086937353E+03 -0.12593131163E+03  0.65050221956E+03  0.69842330507E+03  0.00000000000E+00 0.  1.
<mgrwt>
<rscale>  0 0.12737659E+04</rscale>
<asrwt>0</asrwt>
<pdfrwt beam="1">  1        1 0.13024607E+00 0.12737659E+04</pdfrwt>
<pdfrwt beam="2">  1       -2 0.73710249E-01 0.12737659E+04</pdfrwt>
<totfact> 0.28863729E+01</totfact>
</mgrwt>
</event>
<event>
12    5  0.5428626E-008  0.2079172E+04  0.7818608E-02  0.8570474E-01
         -2   -1    0    0    0  501 -0.00000000000E+00  0.00000000000E+00  0.10094008440E+04  0.10094008440E+04  0.00000000000E+00 0.  1.
          1   -1    0    0  501    0  0.00000000000E+00 -0.00000000000E+00 -0.10706741617E+04  0.10706741617E+04  0.00000000000E+00 0. -1.
        -24    2    1    2    0    0  0.55424883008E+03  0.42352081641E+03 -0.48810538288E+03  0.85445867024E+03  0.72739994292E+02 0.  0.
        254    2    1    2    0    0 -0.55424883008E+03 -0.42352081641E+03  0.42683206520E+03  0.12256163355E+04  0.91290094880E+03 0.  0.
         23    2    4    4    0    0 -0.17561271949E+03 -0.19351853919E+03 -0.27531845407E+03  0.39033692300E+03  0.90958287383E+02 0.  0.
         23    2    4    4    0    0 -0.37863611059E+03 -0.23000227722E+03  0.70215051927E+03  0.83527941248E+03  0.91706016322E+02 0.  0.
          1    1    3    3  502    0  0.29597951921E+03  0.19154639939E+03 -0.27491100304E+03  0.44706818105E+03  0.00000000000E+00 0. -1.
         -4    1    3    3    0  502  0.25826931087E+03  0.23197441701E+03 -0.21319437984E+03  0.40739048919E+03  0.00000000000E+00 0.  1.
         13    1    5    5    0    0 -0.89230232303E+02 -0.73334004878E+02 -0.18139154641E+03  0.21504140005E+03  0.00000000000E+00 0. -1.
        -13    1    5    5    0    0 -0.86382487187E+02 -0.12018453431E+03 -0.93926907665E+02  0.17529552294E+03  0.00000000000E+00 0.  1.
          4    1    6    6  503    0 -0.94857725321E+02 -0.83884827534E+02  0.13952563725E+03  0.18841989224E+03  0.00000000000E+00 0. -1.
         -4    1    6    6    0  503 -0.28377838527E+03 -0.14611744968E+03  0.56262488202E+03  0.64685952023E+03  0.00000000000E+00 0.  1.
<mgrwt>
<rscale>  0 0.20791723E+04</rscale>
<asrwt>0</asrwt>
<pdfrwt beam="1">  1        1 0.16471910E+00 0.20791723E+04</pdfrwt>
<pdfrwt beam="2">  1       -2 0.15529244E+00 0.20791723E+04</pdfrwt>
<totfact> 0.29445343E+00</totfact>
</mgrwt>
</event>
<event>
12    5  0.5428626E-008  0.1334118E+04  0.7818608E-02  0.9002938E-01
          1   -1    0    0  501    0  0.00000000000E+00  0.00000000000E+00  0.15962442872E+04  0.15962442872E+04  0.00000000000E+00 0. -1.
         -2   -1    0    0    0  501 -0.00000000000E+00 -0.00000000000E+00 -0.27875936231E+03  0.27875936231E+03  0.00000000000E+00 0.  1.
        -24    2    1    2    0    0 -0.73193758777E+02 -0.76274180726E+02 -0.11764300792E+03  0.17757575412E+03  0.80735334080E+02 0.  0.
        254    2    1    2    0    0  0.73193758777E+02  0.76274180726E+02  0.14351279328E+04  0.16974278954E+04  0.90027451344E+03 0.  0.
         23    2    4    4    0    0 -0.47362329588E+02  0.34036292968E+03  0.16727398991E+03  0.39355967026E+03  0.93906933651E+02 0.  0.
         23    2    4    4    0    0  0.12055608837E+03 -0.26408874895E+03  0.12678539429E+04  0.13038682251E+04  0.91335043803E+02 0.  0.
          3    1    3    3  502    0  0.91468123844E+01  0.84320791542E+01 -0.23228261648E+02  0.26349881875E+02  0.00000000000E+00 0. -1.
         -4    1    3    3    0  502 -0.82340571162E+02 -0.84706259880E+02 -0.94414746269E+02  0.15122587224E+03  0.00000000000E+00 0.  1.
         13    1    5    5    0    0 -0.66808209004E+02  0.14259798579E+03  0.77274765202E+02  0.17541069431E+03  0.00000000000E+00 0.  1.
        -13    1    5    5    0    0  0.19445879416E+02  0.19776494389E+03  0.89999224712E+02  0.21814897595E+03  0.00000000000E+00 0. -1.
          4    1    6    6  503    0  0.62474847433E+02 -0.18997764219E+03  0.69015485573E+03  0.71854598738E+03  0.00000000000E+00 0. -1.
         -4    1    6    6    0  503  0.58081240932E+02 -0.74111106767E+02  0.57769908716E+03  0.58532223775E+03  0.00000000000E+00 0.  1.
<mgrwt>
<rscale>  0 0.13341185E+04</rscale>
<asrwt>0</asrwt>
<pdfrwt beam="1">  1        1 0.24557604E+00 0.13341185E+04</pdfrwt>
<pdfrwt beam="2">  1       -2 0.42886057E-01 0.13341185E+04</pdfrwt>
<totfact> 0.24886402E+01</totfact>
</mgrwt>
</event>
<event>
12    5  0.5428626E-008  0.2850699E+04  0.7818608E-02  0.8287699E-01
          1   -1    0    0  501    0  0.00000000000E+00  0.00000000000E+00  0.10407915854E+04  0.10407915854E+04  0.00000000000E+00 0. -1.
         -2   -1    0    0    0  501 -0.00000000000E+00 -0.00000000000E+00 -0.19519967027E+04  0.19519967027E+04  0.00000000000E+00 0.  1.
        -24    2    1    2    0    0 -0.57985854472E+03 -0.33444305633E+02 -0.16041030880E+04  0.17077517592E+04  0.76908391371E+02 0.  0.
        254    2    1    2    0    0  0.57985854472E+03  0.33444305633E+02  0.69289797080E+03  0.12850365289E+04  0.91315761462E+03 0.  0.
         23    2    4    4    0    0  0.38325036114E+03 -0.41542766237E+03  0.46345313387E+03  0.73660884231E+03  0.91338914523E+02 0.  0.
         23    2    4    4    0    0  0.19660818358E+03  0.44887196800E+03  0.22944483693E+03  0.54842768656E+03  0.89370983478E+02 0.  0.
          1    1    3    3  502    0 -0.16422711935E+03 -0.22560530528E+01 -0.55810171994E+03  0.58176727848E+03  0.00000000000E+00 0. -1.
         -2    1    3    3    0  502 -0.41563142537E+03 -0.31188252580E+02 -0.10460013681E+04  0.11259844808E+04  0.00000000000E+00 0.  1.
         13    1    5    5    0    0  0.13547636863E+03 -0.15299133177E+03  0.22542396769E+03  0.30426330581E+03  0.00000000000E+00 0.  1.
        -13    1    5    5    0    0  0.24777399251E+03 -0.26243633060E+03  0.23802916618E+03  0.43234553650E+03  0.00000000000E+00 0. -1.
          1    1    6    6  503    0  0.86291008333E+02  0.27694130662E+03  0.10115465687E+03  0.30720496421E+03  0.00000000000E+00 0. -1.
         -1    1    6    6    0  503  0.11031717525E+03  0.17193066138E+03  0.12829018007E+03  0.24122272235E+03  0.00000000000E+00 0.  1.
<mgrwt>
<rscale>  0 0.28506994E+04</rscale>
<asrwt>0</asrwt>
<pdfrwt beam="1">  1        1 0.16012178E+00 0.28506994E+04</pdfrwt>
<pdfrwt beam="2">  1       -2 0.30030718E+00 0.28506994E+04</pdfrwt>
<totfact> 0.33667683E-01</totfact>
</mgrwt>
</event>
<event>
12    5  0.5428626E-008  0.1671630E+04  0.7818608E-02  0.8777712E-01
         -2   -1    0    0    0  501 -0.00000000000E+00  0.00000000000E+00  0.88609732757E+03  0.88609732757E+03  0.00000000000E+00 0.  1.
          1   -1    0    0  501    0  0.00000000000E+00 -0.00000000000E+00 -0.78838578519E+03  0.78838578519E+03  0.00000000000E+00 0. -1.
        -24    2    1    2    0    0  0.53112516481E+03  0.22884268894E+03  0.21053127384E+02  0.58842202102E+03  0.10646278069E+03 0.  0.
        254    2    1    2    0    0 -0.53112516481E+03 -0.22884268894E+03  0.76658414998E+02  0.10860610917E+04  0.91607274024E+03 0.  0.
         23    2    4    4    0    0 -0.91413508718E+02 -0.41324209262E+02  0.45165340598E+03  0.47136191194E+03  0.90150613124E+02 0.  0.
         23    2    4    4    0    0 -0.43971165609E+03 -0.18751847968E+03 -0.37499499099E+03  0.61469917979E+03  0.93404055844E+02 0.  0.
          1    1    3    3  502    0  0.50538233852E+03  0.22685831848E+03 -0.17621741829E+01  0.55396670478E+03  0.00000000000E+00 0. -1.
         -2    1    3    3    0  502  0.25742826295E+02  0.19843704663E+01  0.22815301567E+02  0.34455316243E+02  0.00000000000E+00 0.  1.
         13    1    5    5    0    0 -0.71343569226E+02 -0.53390816778E+02  0.43106944420E+03  0.44018331398E+03  0.00000000000E+00 0.  1.
        -13    1    5    5    0    0 -0.20069939492E+02  0.12066607516E+02  0.20583961789E+02  0.31178597965E+02  0.00000000000E+00 0. -1.
          1    1    6    6  503    0 -0.15977756250E+03 -0.95090405865E+02 -0.97973939628E+02  0.21016647595E+03  0.00000000000E+00 0. -1.
         -1    1    6    6    0  503 -0.27993409359E+03 -0.92428073815E+02 -0.27702105136E+03  0.40453270384E+03  0.00000000000E+00 0.  1.
<mgrwt>
<rscale>  0 0.16716298E+04</rscale>
<asrwt>0</asrwt>
<pdfrwt beam="1">  1        1 0.12129012E+00 0.16716298E+04</pdfrwt>
<pdfrwt beam="2">  1       -2 0.13632267E+00 0.16716298E+04</pdfrwt>
<totfact> 0.72747721E+00</totfact>
</mgrwt>
</event>
<event>
12    5  0.5428626E-008  0.1170662E+04  0.7818608E-02  0.9138931E-01
          1   -1    0    0  501    0  0.00000000000E+00  0.00000000000E+00  0.12563063040E+04  0.12563063040E+04  0.00000000000E+00 0. -1.
         -2   -1    0    0    0  501 -0.00000000000E+00 -0.00000000000E+00 -0.27271383178E+03  0.27271383178E+03  0.00000000000E+00 0.  1.
        -24    2    1    2    0    0  0.17813554418E+02 -0.15831502973E+03 -0.14855237295E+02  0.17920029520E+03  0.80691364874E+02 0.  0.
        254    2    1    2    0    0 -0.17813554418E+02  0.15831502973E+03  0.99844770948E+03  0.13498198406E+04  0.89427892854E+03 0.  0.
         23    2    4    4    0    0 -0.52233912773E+02  0.49980541273E+03  0.78044829439E+03  0.93296215915E+03  0.93728426585E+02 0.  0.
         23    2    4    4    0    0  0.34420358355E+02 -0.34149038301E+03  0.21799941509E+03  0.41685768140E+03  0.91902877047E+02 0.  0.
          1    1    3    3  502    0 -0.15523085972E+02 -0.97971430534E+02  0.21151906688E+02  0.10142371791E+03  0.00000000000E+00 0. -1.
         -2    1    3    3    0  502  0.33336640390E+02 -0.60343599192E+02 -0.36007143984E+02  0.77776577283E+02  0.00000000000E+00 0.  1.
         13    1    5    5    0    0  0.37540625101E+01  0.15319805811E+03  0.31138737303E+03  0.34705307098E+03  0.00000000000E+00 0.  1.
        -13    1    5    5    0    0 -0.55987975283E+02  0.34660735462E+03  0.46906092136E+03  0.58590908817E+03  0.00000000000E+00 0. -1.
          2    1    6    6  503    0 -0.13685242300E+02 -0.23313720286E+03  0.17045093469E+03  0.28912585901E+03  0.00000000000E+00 0. -1.
         -2    1    6    6    0  503  0.48105600655E+02 -0.10835318015E+03  0.47548480399E+02  0.12773182239E+03  0.00000000000E+00 0.  1.
<mgrwt>
<rscale>  0 0.11706615E+04</rscale>
<asrwt>0</asrwt>
<pdfrwt beam="1">  1        1 0.19327789E+00 0.11706615E+04</pdfrwt>
<pdfrwt beam="2">  1       -2 0.41955975E-01 0.11706615E+04</pdfrwt>
<totfact> 0.45527783E+01</totfact>
</mgrwt>
</event>
<event>
12    5  0.5428626E-008  0.1524160E+04  0.7818608E-02  0.8868544E-01
          1   -1    0    0  501    0  0.00000000000E+00  0.00000000000E+00  0.79388302115E+03  0.79388302115E+03  0.00000000000E+00 0. -1.
         -2   -1    0    0    0  501 -0.00000000000E+00 -0.00000000000E+00 -0.73155072472E+03  0.73155072472E+03  0.00000000000E+00 0.  1.
        -24    2    1    2    0    0  0.20161290550E+02  0.85024376073E+02 -0.47817523905E+03  0.49209369857E+03  0.76609573647E+02 0.  0.
        254    2    1    2    0    0 -0.20161290550E+02 -0.85024376073E+02  0.54050753547E+03  0.10333400473E+04  0.87636044827E+03 0.  0.
         23    2    4    4    0    0 -0.23586157719E+03  0.32218858482E+03  0.22748566634E+03  0.46869271156E+03  0.92124707279E+02 0.  0.
         23    2    4    4    0    0  0.21570028665E+03 -0.40721296090E+03  0.31302186913E+03  0.56464733574E+03  0.92167857895E+02 0.  0.
          3    1    3    3  502    0  0.45992699777E+01 -0.68224804380E+01 -0.16873292846E+03  0.16893342082E+03  0.00000000000E+00 0. -1.
         -4    1    3    3    0  502  0.15562020572E+02  0.91846856511E+02 -0.30944231059E+03  0.32316027775E+03  0.00000000000E+00 0.  1.
         13    1    5    5    0    0 -0.32971296684E+01 -0.52179247762E+01  0.10612929149E+02  0.12277298894E+02  0.00000000000E+00 0. -1.
        -13    1    5    5    0    0 -0.23256444753E+03  0.32740650960E+03  0.21687273719E+03  0.45641541266E+03  0.00000000000E+00 0.  1.
          1    1    6    6  503    0  0.48926128616E+01 -0.76967705657E+02  0.65776924489E+02  0.10136354951E+03  0.00000000000E+00 0. -1.
         -1    1    6    6    0  503  0.21080767378E+03 -0.33024525524E+03  0.24724494464E+03  0.46328378623E+03  0.00000000000E+00 0.  1.
<mgrwt>
<rscale>  0 0.15241597E+04</rscale>
<asrwt>0</asrwt>
<pdfrwt beam="1">  1        1 0.12213585E+00 0.15241597E+04</pdfrwt>
<pdfrwt beam="2">  1       -2 0.11254627E+00 0.15241597E+04</pdfrwt>
<totfact> 0.11764450E+01</totfact>
</mgrwt>
</event>
<event>
12    5  0.5428626E-008  0.1447790E+04  0.7818608E-02  0.8919934E-01
          1   -1    0    0  501    0  0.00000000000E+00  0.00000000000E+00  0.70441208134E+03  0.70441208134E+03  0.00000000000E+00 0. -1.
         -2   -1    0    0    0  501 -0.00000000000E+00 -0.00000000000E+00 -0.74391639731E+03  0.74391639731E+03  0.00000000000E+00 0.  1.
        -24    2    1    2    0    0  0.97891857060E+02  0.34554669757E+03 -0.26840664688E+03  0.45494475672E+03  0.77118530203E+02 0.  0.
        254    2    1    2    0    0 -0.97891857060E+02 -0.34554669757E+03  0.22890233091E+03  0.99338372193E+03  0.89745730039E+03 0.  0.
         23    2    4    4    0    0  0.36588225165E+03 -0.11001495061E+03 -0.52299779362E+02  0.39546729015E+03  0.87669830801E+02 0.  0.
         23    2    4    4    0    0 -0.46377410871E+03 -0.23553174696E+03  0.28120211027E+03  0.59791643178E+03  0.88700647302E+02 0.  0.
          1    1    3    3  502    0  0.94010449969E+02  0.24282364799E+03 -0.16033424485E+03  0.30579136482E+03  0.00000000000E+00 0. -1.
         -2    1    3    3    0  502  0.38814070916E+01  0.10272304958E+03 -0.10807240203E+03  0.14915339191E+03  0.00000000000E+00 0.  1.
         13    1    5    5    0    0  0.22908830852E+03 -0.27238182019E+02 -0.47294105057E+02  0.23549969009E+03  0.00000000000E+00 0. -1.
        -13    1    5    5    0    0  0.13679394313E+03 -0.82776768589E+02 -0.50056743055E+01  0.15996760006E+03  0.00000000000E+00 0.  1.
          3    1    6    6  503    0 -0.23941408679E+03 -0.16146849198E+03  0.12491333304E+03  0.31463394545E+03  0.00000000000E+00 0. -1.
         -3    1    6    6    0  503 -0.22436002191E+03 -0.74063254987E+02  0.15628877723E+03  0.28328248633E+03  0.00000000000E+00 0.  1.
<mgrwt>
<rscale>  0 0.14477896E+04</rscale>
<asrwt>0</asrwt>
<pdfrwt beam="1">  1        1 0.10837109E+00 0.14477896E+04</pdfrwt>
<pdfrwt beam="2">  1       -2 0.11444868E+00 0.14477896E+04</pdfrwt>
<totfact> 0.13691879E+01</totfact>
</mgrwt>
</event>
<event>
12    5  0.5428626E-008  0.1346976E+04  0.7818608E-02  0.8993121E-01
         -2   -1    0    0    0  501 -0.00000000000E+00  0.00000000000E+00  0.40130948789E+03  0.40130948789E+03  0.00000000000E+00 0.  1.
          1   -1    0    0  501    0  0.00000000000E+00 -0.00000000000E+00 -0.11302647555E+04  0.11302647555E+04  0.00000000000E+00 0. -1.
        -24    2    1    2    0    0 -0.59455953055E+02  0.23765478896E+03  0.13325657498E+03  0.29000868127E+03  0.79579591376E+02 0.  0.
        254    2    1    2    0    0  0.59455953055E+02 -0.23765478896E+03 -0.86221184260E+03  0.12415655621E+04  0.85910475174E+03 0.  0.
         23    2    4    4    0    0  0.92922245261E+02 -0.43297019728E+03 -0.11983741575E+03  0.46771710489E+03  0.91107346567E+02 0.  0.
         23    2    4    4    0    0 -0.33466292205E+02  0.19531540831E+03 -0.74237442685E+03  0.77384845723E+03  0.91943154614E+02 0.  0.
          3    1    3    3  502    0 -0.26126583320E+02  0.11161618895E+02  0.18713019606E+02  0.34019952897E+02  0.00000000000E+00 0. -1.
         -4    1    3    3    0  502 -0.33329369736E+02  0.22649317007E+03  0.11454355537E+03  0.25598872837E+03  0.00000000000E+00 0.  1.
         13    1    5    5    0    0 -0.13455781105E+02 -0.12600289866E+03 -0.43644918055E+02  0.13402487601E+03  0.00000000000E+00 0. -1.
        -13    1    5    5    0    0  0.10637802637E+03 -0.30696729862E+03 -0.76192497692E+02  0.33369222888E+03  0.00000000000E+00 0.  1.
          1    1    6    6  503    0  0.12386363826E+02  0.28464595331E+02 -0.25068659331E+03  0.25260131287E+03  0.00000000000E+00 0. -1.
         -1    1    6    6    0  503 -0.45852656032E+02  0.16685081298E+03 -0.49168783354E+03  0.52124714436E+03  0.00000000000E+00 0.  1.
<mgrwt>
<rscale>  0 0.13469758E+04</rscale>
<asrwt>0</asrwt>
<pdfrwt beam="1">  1        1 0.17388688E+00 0.13469758E+04</pdfrwt>
<pdfrwt beam="2">  1       -2 0.61739922E-01 0.13469758E+04</pdfrwt>
<totfact> 0.25180527E+01</totfact>
</mgrwt>
</event>
<event>
12    5  0.5428626E-008  0.1393028E+04  0.7818608E-02  0.8958880E-01
          1   -1    0    0  501    0  0.00000000000E+00  0.00000000000E+00  0.84866966818E+03  0.84866966818E+03  0.00000000000E+00 0. -1.
         -2   -1    0    0    0  501 -0.00000000000E+00 -0.00000000000E+00 -0.57163828645E+03  0.57163828645E+03  0.00000000000E+00 0.  1.
        -24    2    1    2    0    0 -0.13102260018E+03 -0.20191834077E+03  0.41327302132E+03  0.48479260349E+03  0.79317968665E+02 0.  0.
        254    2    1    2    0    0  0.13102260018E+03  0.20191834077E+03 -0.13624163958E+03  0.93551535114E+03  0.89369415896E+03 0.  0.
         23    2    4    4    0    0 -0.70266907571E+02  0.30517755715E+03 -0.43890119551E+03  0.54677085483E+03  0.90847832025E+02 0.  0.
         23    2    4    4    0    0  0.20128950776E+03 -0.10325921639E+03  0.30265955593E+03  0.38874449630E+03  0.91321108777E+02 0.  0.
          3    1    3    3  502    0 -0.12460847454E+03 -0.20070306076E+03  0.35665061254E+03  0.42779510276E+03  0.00000000000E+00 0. -1.
         -4    1    3    3    0  502 -0.64141256453E+01 -0.12152800110E+01  0.56622408778E+02  0.56997500727E+02  0.00000000000E+00 0.  1.
         13    1    5    5    0    0 -0.24624284816E+02  0.23519156302E+03 -0.36673030674E+03  0.43636285887E+03  0.00000000000E+00 0.  1.
        -13    1    5    5    0    0 -0.45642622756E+02  0.69985994129E+02 -0.72170888772E+02  0.11040799596E+03  0.00000000000E+00 0. -1.
          1    1    6    6  503    0  0.20352387561E+02 -0.19878318492E+02  0.25985060531E+01  0.28567804592E+02  0.00000000000E+00 0. -1.
         -1    1    6    6    0  503  0.18093712020E+03 -0.83380897894E+02  0.30006104988E+03  0.36017669171E+03  0.00000000000E+00 0.  1.
<mgrwt>
<rscale>  0 0.13930285E+04</rscale>
<asrwt>0</asrwt>
<pdfrwt beam="1">  1        1 0.13056456E+00 0.13930285E+04</pdfrwt>
<pdfrwt beam="2">  1       -2 0.87944352E-01 0.13930285E+04</pdfrwt>
<totfact> 0.19133771E+01</totfact>
</mgrwt>
</event>
<event>
12    5  0.5428626E-008  0.1450366E+04  0.7818608E-02  0.8918147E-01
         -2   -1    0    0    0  501 -0.00000000000E+00  0.00000000000E+00  0.61129969906E+03  0.61129969906E+03  0.00000000000E+00 0.  1.
          1   -1    0    0  501    0  0.00000000000E+00 -0.00000000000E+00 -0.86028263333E+03  0.86028263333E+03  0.00000000000E+00 0. -1.
        -24    2    1    2    0    0 -0.34782367913E+03  0.21125321281E+03 -0.25400693980E+03  0.48631856924E+03  0.79856080740E+02 0.  0.
        254    2    1    2    0    0  0.34782367913E+03 -0.21125321281E+03  0.50240055336E+01  0.98526376315E+03  0.89727933815E+03 0.  0.
         23    2    4    4    0    0 -0.59994561583E+02 -0.47541086200E+03 -0.35705952701E+02  0.48914170479E+03  0.91486923575E+02 0.  0.
         23    2    4    4    0    0  0.40781824072E+03  0.26415764919E+03  0.40729958235E+02  0.49612205836E+03  0.91559741196E+02 0.  0.
          3    1    3    3  502    0 -0.19154413914E+03  0.12772326209E+03 -0.18796797180E+03  0.29721094755E+03  0.00000000000E+00 0. -1.
         -4    1    3    3    0  502 -0.15627953999E+03  0.83529950718E+02 -0.66038967996E+02  0.18910762169E+03  0.00000000000E+00 0.  1.
         13    1    5    5    0    0 -0.78902488527E+02 -0.32839231587E+03 -0.50529927670E+01  0.33777603312E+03  0.00000000000E+00 0. -1.
        -13    1    5    5    0    0  0.18907926944E+02 -0.14701854613E+03 -0.30652959934E+02  0.15136567167E+03  0.00000000000E+00 0.  1.
          4    1    6    6  503    0  0.24235990570E+03  0.20874291520E+03  0.21739033130E+02  0.32060024032E+03  0.00000000000E+00 0. -1.
         -4    1    6    6    0  503  0.16545833502E+03  0.55414733994E+02  0.18990925105E+02  0.17552181804E+03  0.00000000000E+00 0.  1.
<mgrwt>
<rscale>  0 0.14503662E+04</rscale>
<asrwt>0</asrwt>
<pdfrwt beam="1">  1        1 0.13235117E+00 0.14503662E+04</pdfrwt>
<pdfrwt beam="2">  1       -2 0.94046108E-01 0.14503662E+04</pdfrwt>
<totfact> 0.15944031E+01</totfact>
</mgrwt>
</event>
<event>
12    5  0.5428626E-008  0.2176278E+04  0.7818608E-02  0.8528367E-01
          1   -1    0    0  501    0  0.00000000000E+00  0.00000000000E+00  0.14745968080E+04  0.14745968080E+04  0.00000000000E+00 0. -1.
         -2   -1    0    0    0  501 -0.00000000000E+00 -0.00000000000E+00 -0.80296250054E+03  0.80296250054E+03  0.00000000000E+00 0.  1.
        -24    2    1    2    0    0 -0.71746269938E+03  0.33386704764E+03  0.82555355594E+03  0.11462539585E+04  0.78355172888E+02 0.  0.
        254    2    1    2    0    0  0.71746269938E+03 -0.33386704764E+03 -0.15391924851E+03  0.11313053500E+04  0.79368805547E+03 0.  0.
         23    2    4    4    0    0  0.29586963875E+02 -0.40544192648E+03  0.21891914770E+01  0.41652323176E+03  0.90709789218E+02 0.  0.
         23    2    4    4    0    0  0.68787573550E+03  0.71574878833E+02 -0.15610843999E+03  0.71478211825E+03  0.90816522512E+02 0.  0.
          3    1    3    3  502    0 -0.60016545494E+03  0.26488386852E+03  0.71993871029E+03  0.97399886226E+03  0.00000000000E+00 0. -1.
         -4    1    3    3    0  502 -0.11729724443E+03  0.68983179128E+02  0.10561484565E+03  0.17225509623E+03  0.00000000000E+00 0.  1.
         13    1    5    5    0    0  0.42328076700E+02 -0.34295172769E+03  0.30191875880E+02  0.34687044119E+03  0.00000000000E+00 0. -1.
        -13    1    5    5    0    0 -0.12741112825E+02 -0.62490198791E+02 -0.28002684403E+02  0.69652790574E+02  0.00000000000E+00 0.  1.
          4    1    6    6  503    0  0.89188483315E+01  0.11603493572E+02  0.28056284921E+01  0.14901626417E+02  0.00000000000E+00 0.  1.
         -4    1    6    6    0  503  0.67895688717E+03  0.59971385261E+02 -0.15891406848E+03  0.69988049183E+03  0.00000000000E+00 0. -1.
<mgrwt>
<rscale>  0 0.21762775E+04</rscale>
<asrwt>0</asrwt>
<pdfrwt beam="1">  1        1 0.22686105E+00 0.21762775E+04</pdfrwt>
<pdfrwt beam="2">  1       -2 0.12353269E+00 0.21762775E+04</pdfrwt>
<totfact> 0.26987487E+00</totfact>
</mgrwt>
</event>
<event>
12    5  0.5428626E-008  0.1906707E+04  0.7818608E-02  0.8651525E-01
         -2   -1    0    0    0  501 -0.00000000000E+00  0.00000000000E+00  0.71974126876E+03  0.71974126876E+03  0.00000000000E+00 0.  1.
          1   -1    0    0  501    0  0.00000000000E+00 -0.00000000000E+00 -0.12627909328E+04  0.12627909328E+04  0.00000000000E+00 0. -1.
        -24    2    1    2    0    0  0.65356069175E+03  0.33237947742E+03 -0.29246427561E+03  0.79357602982E+03  0.81301093333E+02 0.  0.
        254    2    1    2    0    0 -0.65356069175E+03 -0.33237947742E+03 -0.25058538847E+03  0.11889561718E+04  0.90177937806E+03 0.  0.
         23    2    4    4    0    0 -0.27289981923E+03  0.25896055907E+03 -0.28232821343E+03  0.47915897774E+03  0.91374084736E+02 0.  0.
         23    2    4    4    0    0 -0.38066087252E+03 -0.59134003649E+03  0.31742824962E+02  0.70979719404E+03  0.90657107335E+02 0.  0.
          1    1    3    3  502    0  0.63104615110E+03  0.30416840351E+03 -0.26834170598E+03  0.75016327135E+03  0.00000000000E+00 0. -1.
         -2    1    3    3    0  502  0.22514540648E+02  0.28211073916E+02 -0.24122569634E+02  0.43412758468E+02  0.00000000000E+00 0.  1.
         13    1    5    5    0    0 -0.18028447814E+02  0.29956964740E+02 -0.63835588987E+02  0.72783425918E+02  0.00000000000E+00 0. -1.
        -13    1    5    5    0    0 -0.25487137142E+03  0.22900359433E+03 -0.21849262444E+03  0.40637555182E+03  0.00000000000E+00 0.  1.
          3    1    6    6  503    0 -0.54143075162E+02 -0.37834803704E+02  0.98914074888E+01  0.66789107656E+02  0.00000000000E+00 0. -1.
         -3    1    6    6    0  503 -0.32651779736E+03 -0.55350523279E+03  0.21851417473E+02  0.64300808639E+03  0.00000000000E+00 0.  1.
<mgrwt>
<rscale>  0 0.19067068E+04</rscale>
<asrwt>0</asrwt>
<pdfrwt beam="1">  1        1 0.19427553E+00 0.19067068E+04</pdfrwt>
<pdfrwt beam="2">  1       -2 0.11072943E+00 0.19067068E+04</pdfrwt>
<totfact> 0.51026295E+00</totfact>
</mgrwt>
</event>
<event>
12    5  0.5428626E-008  0.1615758E+04  0.7818608E-02  0.8810925E-01
         -2   -1    0    0    0  501 -0.00000000000E+00  0.00000000000E+00  0.86016935989E+03  0.86016935989E+03  0.00000000000E+00 0.  1.
          1   -1    0    0  501    0  0.00000000000E+00 -0.00000000000E+00 -0.75876754018E+03  0.75876754018E+03  0.00000000000E+00 0. -1.
        -24    2    1    2    0    0 -0.45998843885E+03  0.22322082128E+03 -0.17447269257E+03  0.54613916355E+03  0.80064764912E+02 0.  0.
        254    2    1    2    0    0  0.45998843885E+03 -0.22322082128E+03  0.27587451229E+03  0.10727977365E+04  0.90187102073E+03 0.  0.
         23    2    4    4    0    0  0.19296916499E+02 -0.38444652281E+03  0.41571059952E+03  0.57397102106E+03  0.91956133982E+02 0.  0.
         23    2    4    4    0    0  0.44069152235E+03  0.16122570153E+03 -0.13983608723E+03  0.49882671546E+03  0.95242931799E+02 0.  0.
          3    1    3    3  502    0 -0.13802174660E+03  0.84973782732E+02 -0.20370884522E+02  0.16335702992E+03  0.00000000000E+00 0. -1.
         -4    1    3    3    0  502 -0.32196669224E+03  0.13824703855E+03 -0.15410180805E+03  0.38278213363E+03  0.00000000000E+00 0.  1.
         13    1    5    5    0    0 -0.34799722052E+02 -0.14071595071E+03  0.13198649416E+03  0.19604191919E+03  0.00000000000E+00 0. -1.
        -13    1    5    5    0    0  0.54096638551E+02 -0.24373057211E+03  0.28372410536E+03  0.37792910187E+03  0.00000000000E+00 0.  1.
          4    1    6    6  503    0  0.37020221898E+03  0.10948562781E+03 -0.84018763760E+02  0.39508978511E+03  0.00000000000E+00 0. -1.
         -4    1    6    6    0  503  0.70489303366E+02  0.51740073724E+02 -0.55817323473E+02  0.10373693035E+03  0.00000000000E+00 0.  1.
<mgrwt>
<rscale>  0 0.16157581E+04</rscale>
<asrwt>0</asrwt>
<pdfrwt beam="1">  1        1 0.11673347E+00 0.16157581E+04</pdfrwt>
<pdfrwt beam="2">  1       -2 0.13233375E+00 0.16157581E+04</pdfrwt>
<totfact> 0.83768097E+00</totfact>
</mgrwt>
</event>
<event>
12    5  0.5428626E-008  0.1906718E+04  0.7818608E-02  0.8651520E-01
         -2   -1    0    0    0  501 -0.00000000000E+00  0.00000000000E+00  0.50678990033E+03  0.50678990033E+03  0.00000000000E+00 0.  1.
          1   -1    0    0  501    0  0.00000000000E+00 -0.00000000000E+00 -0.17934318848E+04  0.17934318848E+04  0.00000000000E+00 0. -1.
        -24    2    1    2    0    0 -0.51160989857E+03  0.47528090028E+03 -0.22830682733E+03  0.73863208358E+03  0.76267456994E+02 0.  0.
        254    2    1    2    0    0  0.51160989857E+03 -0.47528090028E+03 -0.10583351571E+04  0.15615897015E+04  0.91151109080E+03 0.  0.
         23    2    4    4    0    0  0.34676933765E+03 -0.58535737575E+03 -0.26017733166E+03  0.73421516533E+03  0.92127271889E+02 0.  0.
         23    2    4    4    0    0  0.16484056093E+03  0.11007647546E+03 -0.79815782548E+03  0.82737453621E+03  0.90572997169E+02 0.  0.
          1    1    3    3  502    0 -0.13879543179E+03  0.14997082065E+03 -0.34470425752E+02  0.20722844685E+03  0.00000000000E+00 0. -1.
         -2    1    3    3    0  502 -0.37281446678E+03  0.32531007964E+03 -0.19383640158E+03  0.53140363673E+03  0.00000000000E+00 0.  1.
         13    1    5    5    0    0  0.25588854018E+02 -0.10434392025E+03 -0.53424412685E+02  0.11998587839E+03  0.00000000000E+00 0. -1.
        -13    1    5    5    0    0  0.32118048363E+03 -0.48101345550E+03 -0.20675291897E+03  0.61422928694E+03  0.00000000000E+00 0.  1.
          1    1    6    6  503    0  0.10207322901E+03  0.11452566134E+03 -0.51816546053E+03  0.54039847860E+03  0.00000000000E+00 0. -1.
         -1    1    6    6    0  503  0.62767331921E+02 -0.44491858808E+01 -0.27999236495E+03  0.28697605761E+03  0.00000000000E+00 0.  1.
<mgrwt>
<rscale>  0 0.19067178E+04</rscale>
<asrwt>0</asrwt>
<pdfrwt beam="1">  1        1 0.27591260E+00 0.19067178E+04</pdfrwt>
<pdfrwt beam="2">  1       -2 0.77967677E-01 0.19067178E+04</pdfrwt>
<totfact> 0.49487436E+00</totfact>
</mgrwt>
</event>
<event>
12    5  0.5428626E-008  0.1190388E+04  0.7818608E-02  0.9121311E-01
         -2   -1    0    0    0  501 -0.00000000000E+00  0.00000000000E+00  0.64979421338E+03  0.64979421338E+03  0.00000000000E+00 0.  1.
          1   -1    0    0  501    0  0.00000000000E+00 -0.00000000000E+00 -0.54518201184E+03  0.54518201184E+03  0.00000000000E+00 0. -1.
        -24    2    1    2    0    0  0.16642227718E+03  0.37763554985E+02  0.20065539067E+03  0.27527672588E+03  0.79951420117E+02 0.  0.
        254    2    1    2    0    0 -0.16642227718E+03 -0.37763554985E+02 -0.96043189131E+02  0.91969949935E+03  0.89861026841E+03 0.  0.
         23    2    4    4    0    0  0.12510114651E+03  0.19729522005E+03  0.28359249446E+03  0.37863118944E+03  0.91439455304E+02 0.  0.
         23    2    4    4    0    0 -0.29152342369E+03 -0.23505877504E+03 -0.37963568359E+03  0.54106830991E+03  0.91614024319E+02 0.  0.
          1    1    3    3  502    0  0.24218701466E+02  0.37243276527E+02  0.32447267392E+02  0.55013019445E+02  0.00000000000E+00 0. -1.
         -2    1    3    3    0  502  0.14220357571E+03  0.52027845805E+00  0.16820812328E+03  0.22026370643E+03  0.00000000000E+00 0.  1.
         13    1    5    5    0    0  0.20824027603E+02  0.26075998828E+00  0.42757878422E+01  0.21260067805E+02  0.00000000000E+00 0. -1.
        -13    1    5    5    0    0  0.10427711891E+03  0.19703446006E+03  0.27931670662E+03  0.35737112163E+03  0.00000000000E+00 0.  1.
          3    1    6    6  503    0  0.66629387673E+01 -0.96679746922E+01 -0.11544450275E+02  0.16466293445E+02  0.00000000000E+00 0. -1.
         -3    1    6    6    0  503 -0.29818636245E+03 -0.22539080035E+03 -0.36809123332E+03  0.52460201647E+03  0.00000000000E+00 0.  1.
<mgrwt>
<rscale>  0 0.11903884E+04</rscale>
<asrwt>0</asrwt>
<pdfrwt beam="1">  1        1 0.83874156E-01 0.11903884E+04</pdfrwt>
<pdfrwt beam="2">  1       -2 0.99968340E-01 0.11903884E+04</pdfrwt>
<totfact> 0.28133208E+01</totfact>
</mgrwt>
</event>
<event>
12    5  0.5428626E-008  0.2291658E+04  0.7818608E-02  0.8481217E-01
         -2   -1    0    0    0  501 -0.00000000000E+00  0.00000000000E+00  0.24489909081E+04  0.24489909081E+04  0.00000000000E+00 0.  1.
          1   -1    0    0  501    0  0.00000000000E+00 -0.00000000000E+00 -0.53610820843E+03  0.53610820843E+03  0.00000000000E+00 0. -1.
        -24    2    1    2    0    0  0.40292442609E+03 -0.23802238841E+03 -0.29251052432E+03  0.55757952498E+03  0.79559847432E+02 0.  0.
        254    2    1    2    0    0 -0.40292442609E+03  0.23802238841E+03  0.22053932240E+04  0.24275195915E+04  0.90004963440E+03 0.  0.
         23    2    4    4    0    0 -0.53857357943E+02 -0.21410640003E+03  0.13031806186E+03  0.27331130885E+03  0.94731772709E+02 0.  0.
         23    2    4    4    0    0 -0.34906706815E+03  0.45212878843E+03  0.20750751621E+04  0.21542082827E+04  0.91695896052E+02 0.  0.
          3    1    3    3  502    0  0.19524600665E+03 -0.12122079242E+03 -0.19002499519E+03  0.29820292155E+03  0.00000000000E+00 0. -1.
         -4    1    3    3    0  502  0.20767841944E+03 -0.11680159598E+03 -0.10248552913E+03  0.25937660343E+03  0.00000000000E+00 0.  1.
         13    1    5    5    0    0  0.91969401264E+01 -0.45507783154E+02 -0.69435329801E+01  0.46944165617E+02  0.00000000000E+00 0.  1.
        -13    1    5    5    0    0 -0.63054298070E+02 -0.16859861687E+03  0.13726159484E+03  0.22636714323E+03  0.00000000000E+00 0. -1.
          2    1    6    6  503    0 -0.70415923123E+02  0.14937902680E+03  0.51824171924E+03  0.54391816980E+03  0.00000000000E+00 0. -1.
         -2    1    6    6    0  503 -0.27865114502E+03  0.30274976163E+03  0.15568334429E+04  0.16102901129E+04  0.00000000000E+00 0.  1.
<mgrwt>
<rscale>  0 0.22916580E+04</rscale>
<asrwt>0</asrwt>
<pdfrwt beam="1">  1        1 0.82478187E-01 0.22916580E+04</pdfrwt>
<pdfrwt beam="2">  1       -2 0.37676783E+00 0.22916580E+04</pdfrwt>
<totfact> 0.33513178E-01</totfact>
</mgrwt>
</event>
<event>
12    5  0.5428626E-008  0.2155797E+04  0.7818608E-02  0.8537055E-01
          1   -1    0    0  501    0  0.00000000000E+00  0.00000000000E+00  0.20591483223E+04  0.20591483223E+04  0.00000000000E+00 0. -1.
         -2   -1    0    0    0  501 -0.00000000000E+00 -0.00000000000E+00 -0.56424569925E+03  0.56424569925E+03  0.00000000000E+00 0.  1.
        -24    2    1    2    0    0 -0.93545880253E+02  0.44163803301E+03  0.15543706005E+04  0.16207892780E+04  0.84231443474E+02 0.  0.
        254    2    1    2    0    0  0.93545880253E+02 -0.44163803301E+03 -0.59467977428E+02  0.10026047436E+04  0.89324400226E+03 0.  0.
         23    2    4    4    0    0 -0.29547605906E+02 -0.21378136676E+03  0.40141411073E+03  0.46475015051E+03  0.91015824551E+02 0.  0.
         23    2    4    4    0    0  0.12309348616E+03 -0.22785666626E+03 -0.46088208816E+03  0.53785459306E+03  0.99018167006E+02 0.  0.
          3    1    3    3  502    0 -0.62013580174E+02  0.13687962591E+03  0.59497983143E+03  0.61366335716E+03  0.00000000000E+00 0. -1.
         -4    1    3    3    0  502 -0.31532300079E+02  0.30475840711E+03  0.95939076903E+03  0.10071259208E+04  0.00000000000E+00 0.  1.
         13    1    5    5    0    0 -0.47333348527E+02 -0.19309889033E+03  0.30128078947E+03  0.36096778449E+03  0.00000000000E+00 0.  1.
        -13    1    5    5    0    0  0.17785742622E+02 -0.20682476421E+02  0.10013332125E+03  0.10378236602E+03  0.00000000000E+00 0. -1.
          2    1    6    6  503    0  0.11593427270E+03 -0.14664012377E+03 -0.37742935665E+03  0.42118523330E+03  0.00000000000E+00 0.  1.
         -2    1    6    6    0  503  0.71592134587E+01 -0.81216542489E+02 -0.83452731504E+02  0.11666935976E+03  0.00000000000E+00 0. -1.
<mgrwt>
<rscale>  0 0.21557974E+04</rscale>
<asrwt>0</asrwt>
<pdfrwt beam="1">  1        1 0.31679205E+00 0.21557974E+04</pdfrwt>
<pdfrwt beam="2">  1       -2 0.86807032E-01 0.21557974E+04</pdfrwt>
<totfact> 0.25080682E+00</totfact>
</mgrwt>
</event>
<event>
12    5  0.5428626E-008  0.1376470E+04  0.7818608E-02  0.8971029E-01
          1   -1    0    0  501    0  0.00000000000E+00  0.00000000000E+00  0.67616373903E+03  0.67616373903E+03  0.00000000000E+00 0. -1.
         -2   -1    0    0    0  501 -0.00000000000E+00 -0.00000000000E+00 -0.70052158150E+03  0.70052158150E+03  0.00000000000E+00 0.  1.
        -24    2    1    2    0    0 -0.86522907186E+02 -0.21219532225E+03 -0.35317519270E+03  0.43043402332E+03  0.89597228996E+02 0.  0.
        254    2    1    2    0    0  0.86522907186E+02  0.21219532225E+03  0.32881735023E+03  0.94625129720E+03  0.85718002741E+03 0.  0.
         23    2    4    4    0    0  0.12734020626E+03 -0.10974181987E+03  0.52317551069E+03  0.55715510418E+03  0.91926057083E+02 0.  0.
         23    2    4    4    0    0 -0.40817299077E+02  0.32193714211E+03 -0.19435816046E+03  0.38909619303E+03  0.91165659742E+02 0.  0.
          1    1    3    3  502    0  0.12020104944E+02 -0.26544486292E+02 -0.16358127384E+02  0.33416777327E+02  0.00000000000E+00 0. -1.
         -4    1    3    3    0  502 -0.98543012130E+02 -0.18565083595E+03 -0.33681706532E+03  0.39701724600E+03  0.00000000000E+00 0.  1.
         13    1    5    5    0    0  0.79744643782E+02 -0.11188449930E+03  0.31608986142E+03  0.34465946946E+03  0.00000000000E+00 0. -1.
        -13    1    5    5    0    0  0.47595562481E+02  0.21426794286E+01  0.20708564926E+03  0.21249563472E+03  0.00000000000E+00 0.  1.
          3    1    6    6  503    0  0.30883198610E+01  0.26575270644E+03 -0.15282147629E+03  0.30657534525E+03  0.00000000000E+00 0. -1.
         -3    1    6    6    0  503 -0.43905618938E+02  0.56184435671E+02 -0.41536684170E+02  0.82520847777E+02  0.00000000000E+00 0.  1.
<mgrwt>
<rscale>  0 0.13764698E+04</rscale>
<asrwt>0</asrwt>
<pdfrwt beam="1">  1        1 0.10402519E+00 0.13764698E+04</pdfrwt>
<pdfrwt beam="2">  1       -2 0.10777255E+00 0.13764698E+04</pdfrwt>
<totfact> 0.16951072E+01</totfact>
</mgrwt>
</event>
<event>
12    5  0.5428626E-008  0.1572473E+04  0.7818608E-02  0.8837640E-01
          1   -1    0    0  501    0  0.00000000000E+00  0.00000000000E+00  0.20008852830E+04  0.20008852830E+04  0.00000000000E+00 0. -1.
         -2   -1    0    0    0  501 -0.00000000000E+00 -0.00000000000E+00 -0.30894707302E+03  0.30894707302E+03  0.00000000000E+00 0.  1.
        -24    2    1    2    0    0 -0.38381900933E+03 -0.14454208246E+03  0.11921149407E+04  0.12632043231E+04  0.79609575481E+02 0.  0.
        254    2    1    2    0    0  0.38381900933E+03  0.14454208246E+03  0.49982326932E+03  0.10466280330E+04  0.82304161093E+03 0.  0.
         23    2    4    4    0    0 -0.16504527407E+03  0.40521155145E+02 -0.10246602514E+03  0.21883836479E+03  0.92244442037E+02 0.  0.
         23    2    4    4    0    0  0.54886428340E+03  0.10402092731E+03  0.60228929446E+03  0.82778966818E+03  0.10203423743E+03 0.  0.
          3    1    3    3  502    0 -0.33138425198E+03 -0.10837811718E+03  0.10715825305E+04  0.11268764167E+04  0.00000000000E+00 0. -1.
         -2    1    3    3    0  502 -0.52434757355E+02 -0.36163965280E+02  0.12053241016E+03  0.13632790640E+03  0.00000000000E+00 0.  1.
         13    1    5    5    0    0 -0.16089821692E+03  0.60837795976E+02 -0.96622372776E+02  0.19729510017E+03  0.00000000000E+00 0.  1.
        -13    1    5    5    0    0 -0.41470571489E+01 -0.20316640831E+02 -0.58436523681E+01  0.21543264624E+02  0.00000000000E+00 0. -1.
          1    1    6    6  503    0  0.18862343553E+03 -0.61157398912E+00  0.24998380593E+03  0.31316302094E+03  0.00000000000E+00 0.  1.
         -1    1    6    6    0  503  0.36024084787E+03  0.10463250130E+03  0.35230548853E+03  0.51462664724E+03  0.00000000000E+00 0. -1.
<mgrwt>
<rscale>  0 0.15724728E+04</rscale>
<asrwt>0</asrwt>
<pdfrwt beam="1">  1        1 0.30782850E+00 0.15724728E+04</pdfrwt>
<pdfrwt beam="2">  1       -2 0.47530320E-01 0.15724728E+04</pdfrwt>
<totfact> 0.10544530E+01</totfact>
</mgrwt>
</event>
<event>
12    5  0.5428626E-008  0.1807807E+04  0.7818608E-02  0.8702159E-01
         -2   -1    0    0    0  501 -0.00000000000E+00  0.00000000000E+00  0.52090378821E+03  0.52090378821E+03  0.00000000000E+00 0.  1.
          1   -1    0    0  501    0  0.00000000000E+00 -0.00000000000E+00 -0.15685071831E+04  0.15685071831E+04  0.00000000000E+00 0. -1.
        -24    2    1    2    0    0  0.46704036503E+03  0.18689474018E+02 -0.96991290855E+03  0.10796687854E+04  0.80483767807E+02 0.  0.
        254    2    1    2    0    0 -0.46704036503E+03 -0.18689474018E+02 -0.77690486335E+02  0.10097421860E+04  0.89166556031E+03 0.  0.
         23    2    4    4    0    0  0.50758851438E+01  0.23189085956E+03  0.26804723211E+03  0.36581365810E+03  0.90394570922E+02 0.  0.
         23    2    4    4    0    0 -0.47211625017E+03 -0.25058033358E+03 -0.34573771845E+03  0.64392852786E+03  0.97083066396E+02 0.  0.
          3    1    3    3  502    0  0.20099685906E+03  0.32673430804E+02 -0.49278920986E+03  0.53320586623E+03  0.00000000000E+00 0. -1.
         -4    1    3    3    0  502  0.26604350597E+03 -0.13983956786E+02 -0.47712369869E+03  0.54646291912E+03  0.00000000000E+00 0.  1.
         13    1    5    5    0    0  0.47623510595E+02  0.13296948146E+03  0.15403483836E+03  0.20898711249E+03  0.00000000000E+00 0. -1.
        -13    1    5    5    0    0 -0.42547625452E+02  0.98921378102E+02  0.11401239376E+03  0.15682654561E+03  0.00000000000E+00 0.  1.
          3    1    6    6  503    0 -0.11545272233E+03 -0.31221659247E+02 -0.11463119385E+03  0.16566361612E+03  0.00000000000E+00 0. -1.
         -3    1    6    6    0  503 -0.35666352784E+03 -0.21935867433E+03 -0.23110652459E+03  0.47826491174E+03  0.00000000000E+00 0.  1.
<mgrwt>
<rscale>  0 0.18078068E+04</rscale>
<asrwt>0</asrwt>
<pdfrwt beam="1">  1        1 0.24130879E+00 0.18078068E+04</pdfrwt>
<pdfrwt beam="2">  1       -2 0.80139046E-01 0.18078068E+04</pdfrwt>
<totfact> 0.66841332E+00</totfact>
</mgrwt>
</event>
<event>
12    5  0.5428626E-008  0.1689526E+04  0.7818608E-02  0.8767361E-01
          1   -1    0    0  501    0  0.00000000000E+00  0.00000000000E+00  0.82150912628E+03  0.82150912628E+03  0.00000000000E+00 0. -1.
         -2   -1    0    0    0  501 -0.00000000000E+00 -0.00000000000E+00 -0.86867513735E+03  0.86867513735E+03  0.00000000000E+00 0.  1.
        -24    2    1    2    0    0  0.12988288443E+03 -0.20493576789E+03 -0.56768759547E+03  0.62244799344E+03  0.79398147714E+02 0.  0.
        254    2    1    2    0    0 -0.12988288443E+03  0.20493576789E+03  0.52052158439E+03  0.10677362702E+04  0.90013876165E+03 0.  0.
         23    2    4    4    0    0  0.26831274530E+02 -0.19127380176E+03  0.58919852091E+03  0.62708426411E+03  0.93670660932E+02 0.  0.
         23    2    4    4    0    0 -0.15671415896E+03  0.39620956965E+03 -0.68676936518E+02  0.44065200608E+03  0.88973693586E+02 0.  0.
          3    1    3    3  502    0  0.52305136052E+02 -0.12121601958E+03 -0.22072136398E+03  0.25719072918E+03  0.00000000000E+00 0. -1.
         -4    1    3    3    0  502  0.77577748380E+02 -0.83719748317E+02 -0.34696623149E+03  0.36525726426E+03  0.00000000000E+00 0.  1.
         13    1    5    5    0    0  0.29186596380E+02 -0.20107611669E+03  0.57348582781E+03  0.60841552972E+03  0.00000000000E+00 0. -1.
        -13    1    5    5    0    0 -0.23553218500E+01  0.98023149338E+01  0.15712693106E+02  0.18668734390E+02  0.00000000000E+00 0.  1.
          3    1    6    6  503    0 -0.14575424060E+03  0.29606472448E+03 -0.79176864869E+02  0.33936351552E+03  0.00000000000E+00 0. -1.
         -3    1    6    6    0  503 -0.10959918360E+02  0.10014484517E+03  0.10499928351E+02  0.10128849056E+03  0.00000000000E+00 0.  1.
<mgrwt>
<rscale>  0 0.16895260E+04</rscale>
<asrwt>0</asrwt>
<pdfrwt beam="1">  1        1 0.12638602E+00 0.16895260E+04</pdfrwt>
<pdfrwt beam="2">  1       -2 0.13364233E+00 0.16895260E+04</pdfrwt>
<totfact> 0.71528642E+00</totfact>
</mgrwt>
</event>
<event>
12    5  0.5428626E-008  0.1465286E+04  0.7818608E-02  0.8907871E-01
         -2   -1    0    0    0  501 -0.00000000000E+00  0.00000000000E+00  0.32220484135E+03  0.32220484135E+03  0.00000000000E+00 0.  1.
          1   -1    0    0  501    0  0.00000000000E+00 -0.00000000000E+00 -0.16659143342E+04  0.16659143342E+04  0.00000000000E+00 0. -1.
        -24    2    1    2    0    0 -0.80733710579E+02 -0.12659145592E+03  0.15990009372E+03  0.23387800911E+03  0.81163750744E+02 0.  0.
        254    2    1    2    0    0  0.80733710579E+02  0.12659145592E+03 -0.15036095866E+04  0.17542411664E+04  0.89105384374E+03 0.  0.
         23    2    4    4    0    0  0.11868589296E+03  0.23376619913E+03 -0.38273970768E+02  0.28148842665E+03  0.95067662517E+02 0.  0.
         23    2    4    4    0    0 -0.37952182380E+02 -0.10717474321E+03 -0.14653356158E+04  0.14727527398E+04  0.94156103805E+02 0.  0.
          1    1    3    3  502    0 -0.45083731298E+02 -0.12366607135E+03  0.10511163061E+03  0.16844671241E+03  0.00000000000E+00 0. -1.
         -2    1    3    3    0  502 -0.35649979281E+02 -0.29253845697E+01  0.54788463111E+02  0.65431296699E+02  0.00000000000E+00 0.  1.
         13    1    5    5    0    0  0.10938494904E+02  0.81454400166E+02 -0.47071402522E+02  0.94711070697E+02  0.00000000000E+00 0.  1.
        -13    1    5    5    0    0  0.10774739806E+03  0.15231179896E+03  0.87974317545E+01  0.18677735595E+03  0.00000000000E+00 0. -1.
          1    1    6    6  503    0 -0.36721209705E+02 -0.11770555302E+03 -0.14402534784E+04  0.14455217488E+04  0.00000000000E+00 0. -1.
         -1    1    6    6    0  503 -0.12309726756E+01  0.10530809811E+02 -0.25082137427E+02  0.27230990928E+02  0.00000000000E+00 0.  1.
<mgrwt>
<rscale>  0 0.14652859E+04</rscale>
<asrwt>0</asrwt>
<pdfrwt beam="1">  1        1 0.25629451E+00 0.14652859E+04</pdfrwt>
<pdfrwt beam="2">  1       -2 0.49569976E-01 0.14652859E+04</pdfrwt>
<totfact> 0.16490489E+01</totfact>
</mgrwt>
</event>
<event>
12    5  0.5428626E-008  0.2234144E+04  0.7818608E-02  0.8504349E-01
          1   -1    0    0  501    0  0.00000000000E+00  0.00000000000E+00  0.15143535331E+04  0.15143535331E+04  0.00000000000E+00 0. -1.
         -2   -1    0    0    0  501 -0.00000000000E+00 -0.00000000000E+00 -0.82401508118E+03  0.82401508118E+03  0.00000000000E+00 0.  1.
        -24    2    1    2    0    0 -0.78528425335E+03 -0.18319621408E+02  0.81731402312E+03  0.11367294428E+04  0.84526011896E+02 0.  0.
        254    2    1    2    0    0  0.78528425335E+03  0.18319621408E+02 -0.12697557121E+03  0.12016391714E+04  0.90044818595E+03 0.  0.
         23    2    4    4    0    0  0.80323404202E+03  0.33018301265E+02  0.22116058304E+03  0.83875374093E+03  0.91217870772E+02 0.  0.
         23    2    4    4    0    0 -0.17949788668E+02 -0.14698679856E+02 -0.34813615425E+03  0.36288543052E+03  0.99743710005E+02 0.  0.
          3    1    3    3  502    0 -0.68462635829E+03  0.45399728472E+01  0.73708297939E+03  0.10059946224E+04  0.00000000000E+00 0. -1.
         -4    1    3    3    0  502 -0.10065789506E+03 -0.22859594256E+02  0.80231043731E+02  0.13073482041E+03  0.00000000000E+00 0.  1.
         13    1    5    5    0    0  0.33255113189E+03  0.48641235181E+02  0.62855092615E+02  0.34191663860E+03  0.00000000000E+00 0. -1.
        -13    1    5    5    0    0  0.47068291013E+03 -0.15622933916E+02  0.15830549042E+03  0.49683710233E+03  0.00000000000E+00 0.  1.
          1    1    6    6  503    0 -0.57028966315E+02 -0.21633590832E+02 -0.17726138000E+03  0.18746176168E+03  0.00000000000E+00 0. -1.
         -1    1    6    6    0  503  0.39079177647E+02  0.69349109760E+01 -0.17087477425E+03  0.17542366884E+03  0.00000000000E+00 0.  1.
<mgrwt>
<rscale>  0 0.22341443E+04</rscale>
<asrwt>0</asrwt>
<pdfrwt beam="1">  1        1 0.23297747E+00 0.22341443E+04</pdfrwt>
<pdfrwt beam="2">  1       -2 0.12677155E+00 0.22341443E+04</pdfrwt>
<totfact> 0.23614680E+00</totfact>
</mgrwt>
</event>
<event>
12    5  0.5428626E-008  0.1287849E+04  0.7818608E-02  0.9039257E-01
         -4   -1    0    0    0  501 -0.00000000000E+00  0.00000000000E+00  0.14507812711E+03  0.14507812711E+03  0.00000000000E+00 0.  1.
          3   -1    0    0  501    0  0.00000000000E+00 -0.00000000000E+00 -0.28580378935E+04  0.28580378935E+04  0.00000000000E+00 0. -1.
        -24    2    1    2    0    0 -0.13939295394E+03  0.30538629926E+03 -0.77577982853E+03  0.84879264453E+03  0.76963781502E+02 0.  0.
        254    2    1    2    0    0  0.13939295394E+03 -0.30538629926E+03 -0.19371799378E+04  0.21543233761E+04  0.88076779555E+03 0.  0.
         23    2    4    4    0    0 -0.32163820505E+03 -0.33989467967E+02 -0.39115535654E+03  0.51576428352E+03  0.91672593086E+02 0.  0.
         23    2    4    4    0    0  0.46103115900E+03 -0.27139683129E+03 -0.15460245813E+04  0.16385590925E+04  0.92075643632E+02 0.  0.
          1    1    3    3  502    0 -0.13426570880E+03  0.26241459455E+03 -0.72136828802E+03  0.77926947005E+03  0.00000000000E+00 0. -1.
         -2    1    3    3    0  502 -0.51272451453E+01  0.42971704713E+02 -0.54411540513E+02  0.69523174479E+02  0.00000000000E+00 0.  1.
         13    1    5    5    0    0 -0.10388340940E+02  0.16969873687E+02 -0.15226449732E+02  0.25054720351E+02  0.00000000000E+00 0.  1.
        -13    1    5    5    0    0 -0.31124986411E+03 -0.50959341654E+02 -0.37592890681E+03  0.49070956317E+03  0.00000000000E+00 0. -1.
          2    1    6    6  503    0  0.32761528396E+03 -0.20846902554E+03 -0.12291715162E+04  0.12890514827E+04  0.00000000000E+00 0. -1.
         -2    1    6    6    0  503  0.13341587503E+03 -0.62927805757E+02 -0.31685306508E+03  0.34950760979E+03  0.00000000000E+00 0.  1.
<mgrwt>
<rscale>  0 0.12878490E+04</rscale>
<asrwt>0</asrwt>
<pdfrwt beam="1">  1        3 0.43969812E+00 0.12878490E+04</pdfrwt>
<pdfrwt beam="2">  1       -4 0.22319713E-01 0.12878490E+04</pdfrwt>
<totfact> 0.29794078E-01</totfact>
</mgrwt>
</event>
<event>
12    5  0.5428626E-008  0.1337437E+04  0.7818608E-02  0.9000393E-01
          1   -1    0    0  501    0  0.00000000000E+00  0.00000000000E+00  0.88378222793E+03  0.88378222793E+03  0.00000000000E+00 0. -1.
         -2   -1    0    0    0  501 -0.00000000000E+00 -0.00000000000E+00 -0.50598925717E+03  0.50598925717E+03  0.00000000000E+00 0.  1.
        -24    2    1    2    0    0  0.23150399994E+03  0.22005460984E+03 -0.51500877645E+02  0.33296786745E+03  0.78721833396E+02 0.  0.
        254    2    1    2    0    0 -0.23150399994E+03 -0.22005460984E+03  0.42929384841E+03  0.10568036177E+04  0.91133009645E+03 0.  0.
         23    2    4    4    0    0 -0.49827643457E+03  0.59883115818E+02  0.41621211638E+03  0.65940847372E+03  0.98598258564E+02 0.  0.
         23    2    4    4    0    0  0.26677243463E+03 -0.27993772566E+03  0.13081732027E+02  0.39739514393E+03  0.90659288421E+02 0.  0.
          1    1    3    3  502    0  0.12142791125E+03  0.83568642250E+02  0.84802696644E+01  0.14764948551E+03  0.00000000000E+00 0. -1.
         -2    1    3    3    0  502  0.11007608869E+03  0.13648596759E+03 -0.59981147309E+02  0.18531838194E+03  0.00000000000E+00 0.  1.
         13    1    5    5    0    0 -0.48878092934E+03  0.65631502755E+02  0.41990035851E+03  0.64771182027E+03  0.00000000000E+00 0.  1.
        -13    1    5    5    0    0 -0.94955052271E+01 -0.57483869373E+01 -0.36882421348E+01  0.11696653451E+02  0.00000000000E+00 0. -1.
          2    1    6    6  503    0  0.45911121067E+02 -0.76242936471E+01  0.28152035960E+01  0.46624953218E+02  0.00000000000E+00 0. -1.
         -2    1    6    6    0  503  0.22086131356E+03 -0.27231343201E+03  0.10266528431E+02  0.35077019071E+03  0.00000000000E+00 0.  1.
<mgrwt>
<rscale>  0 0.13374368E+04</rscale>
<asrwt>0</asrwt>
<pdfrwt beam="1">  1        1 0.13596650E+00 0.13374368E+04</pdfrwt>
<pdfrwt beam="2">  1       -2 0.77844501E-01 0.13374368E+04</pdfrwt>
<totfact> 0.23684143E+01</totfact>
</mgrwt>
</event>
<event>
12    5  0.5428626E-008  0.1183210E+04  0.7818608E-02  0.9127681E-01
         -2   -1    0    0    0  501 -0.00000000000E+00  0.00000000000E+00  0.18511359204E+03  0.18511359204E+03  0.00000000000E+00 0.  1.
          1   -1    0    0  501    0  0.00000000000E+00 -0.00000000000E+00 -0.18907109508E+04  0.18907109508E+04  0.00000000000E+00 0. -1.
        -24    2    1    2    0    0  0.23443397704E+03 -0.69500157372E+02 -0.42325144802E+03  0.49535245437E+03  0.80266458358E+02 0.  0.
        254    2    1    2    0    0 -0.23443397704E+03  0.69500157372E+02 -0.12823459107E+04  0.15804720884E+04  0.89089361102E+03 0.  0.
         23    2    4    4    0    0 -0.34011657139E+03 -0.24795225247E+03 -0.11161139652E+04  0.11970176153E+04  0.99905886879E+02 0.  0.
         23    2    4    4    0    0  0.10568259435E+03  0.31745240985E+03 -0.16623194548E+03  0.38345447318E+03  0.86367991964E+02 0.  0.
          3    1    3    3  502    0  0.41499440027E+02 -0.27025012592E+02 -0.38074522411E+02  0.62467784377E+02  0.00000000000E+00 0. -1.
         -2    1    3    3    0  502  0.19293453702E+03 -0.42475144780E+02 -0.38517692560E+03  0.43288466999E+03  0.00000000000E+00 0.  1.
         13    1    5    5    0    0 -0.30882722243E+03 -0.24694462040E+03 -0.10744637054E+04  0.11449140374E+04  0.00000000000E+00 0.  1.
        -13    1    5    5    0    0 -0.31289348963E+02 -0.10076320780E+01 -0.41650259852E+02  0.52103577868E+02  0.00000000000E+00 0. -1.
          3    1    6    6  503    0  0.10999071461E+02  0.47723929418E+02 -0.62384444487E+02  0.79311864977E+02  0.00000000000E+00 0. -1.
         -3    1    6    6    0  503  0.94683522889E+02  0.26972848043E+03 -0.10384750099E+03  0.30414260820E+03  0.00000000000E+00 0.  1.
<mgrwt>
<rscale>  0 0.11832097E+04</rscale>
<asrwt>0</asrwt>
<pdfrwt beam="1">  1        1 0.29087861E+00 0.11832097E+04</pdfrwt>
<pdfrwt beam="2">  1       -2 0.28479014E-01 0.11832097E+04</pdfrwt>
<totfact> 0.34782325E+01</totfact>
</mgrwt>
</event>
<event>
12    5  0.5428626E-008  0.9890996E+03  0.7818608E-02  0.9320582E-01
          1   -1    0    0  501    0  0.00000000000E+00  0.00000000000E+00  0.26995965037E+04  0.26995965037E+04  0.00000000000E+00 0. -1.
         -2   -1    0    0    0  501 -0.00000000000E+00 -0.00000000000E+00 -0.90598542507E+02  0.90598542507E+02  0.00000000000E+00 0.  1.
        -24    2    1    2    0    0 -0.17445873111E+03 -0.34308717196E+02  0.53078106058E+03  0.56534144200E+03  0.79180015393E+02 0.  0.
        254    2    1    2    0    0  0.17445873111E+03  0.34308717196E+02  0.20782169006E+04  0.22248536042E+04  0.77419321698E+03 0.  0.
         23    2    4    4    0    0  0.78410705122E+02  0.31599103320E+03  0.42920125676E+03  0.54691392300E+03  0.94353318010E+02 0.  0.
         23    2    4    4    0    0  0.96048025986E+02 -0.28168231601E+03  0.16490156438E+04  0.16779396812E+04  0.87514739653E+02 0.  0.
          1    1    3    3  502    0 -0.23153631718E+02 -0.80641627389E+01  0.18978829826E+03  0.19136540841E+03  0.00000000000E+00 0. -1.
         -2    1    3    3    0  502 -0.15130509939E+03 -0.26244554457E+02  0.34099276232E+03  0.37397603358E+03  0.00000000000E+00 0.  1.
         13    1    5    5    0    0  0.62241872200E+02  0.11394099474E+03  0.22116590749E+03  0.25645849484E+03  0.00000000000E+00 0.  1.
        -13    1    5    5    0    0  0.16168832922E+02  0.20205003847E+03  0.20803534927E+03  0.29045542816E+03  0.00000000000E+00 0. -1.
          4    1    6    6  503    0  0.89567733847E+02 -0.12806670483E+03  0.80299397902E+03  0.81806038296E+03  0.00000000000E+00 0. -1.
         -4    1    6    6    0  503  0.64802921386E+01 -0.15361561118E+03  0.84602166481E+03  0.85987929823E+03  0.00000000000E+00 0.  1.
<mgrwt>
<rscale>  0 0.98909961E+03</rscale>
<asrwt>0</asrwt>
<pdfrwt beam="1">  1        1 0.41532248E+00 0.98909961E+03</pdfrwt>
<pdfrwt beam="2">  1       -2 0.13938239E-01 0.98909961E+03</pdfrwt>
<totfact> 0.34970041E+01</totfact>
</mgrwt>
</event>
<event>
12    5  0.5428626E-008  0.1202573E+04  0.7818608E-02  0.9110607E-01
          1   -1    0    0  501    0  0.00000000000E+00  0.00000000000E+00  0.42500902347E+03  0.42500902347E+03  0.00000000000E+00 0. -1.
         -2   -1    0    0    0  501 -0.00000000000E+00 -0.00000000000E+00 -0.85067761535E+03  0.85067761535E+03  0.00000000000E+00 0.  1.
        -24    2    1    2    0    0  0.47794466951E+02 -0.44017536051E+02  0.17382759051E+03  0.20431370909E+03  0.85476347322E+02 0.  0.
        254    2    1    2    0    0 -0.47794466951E+02  0.44017536051E+02 -0.59949618239E+03  0.10713729297E+04  0.88556333895E+03 0.  0.
         23    2    4    4    0    0  0.18632831673E+02  0.27611825824E+03  0.11374130593E+03  0.31291047915E+03  0.91582794966E+02 0.  0.
         23    2    4    4    0    0 -0.66427298625E+02 -0.23210072219E+03 -0.71323748832E+03  0.75846245058E+03  0.90962865768E+02 0.  0.
          3    1    3    3  502    0  0.34134451704E+02 -0.38232150379E+02  0.18079857976E+03  0.18792281543E+03  0.00000000000E+00 0. -1.
         -4    1    3    3    0  502  0.13660015247E+02 -0.57853856723E+01 -0.69709892543E+01  0.16390893664E+02  0.00000000000E+00 0.  1.
         13    1    5    5    0    0  0.20160860041E+02  0.46681984220E+02  0.57338935050E+02  0.76638250247E+02  0.00000000000E+00 0. -1.
        -13    1    5    5    0    0 -0.15280283674E+01  0.22943627402E+03  0.56402370881E+02  0.23627222890E+03  0.00000000000E+00 0.  1.
          4    1    6    6  503    0 -0.21792600834E+02 -0.76314748860E+01 -0.29647763340E+02  0.37578540833E+02  0.00000000000E+00 0. -1.
         -4    1    6    6    0  503 -0.44634697791E+02 -0.22446924731E+03 -0.68358972498E+03  0.72088390975E+03  0.00000000000E+00 0.  1.
<mgrwt>
<rscale>  0 0.12025733E+04</rscale>
<asrwt>0</asrwt>
<pdfrwt beam="1">  1        1 0.65386004E-01 0.12025733E+04</pdfrwt>
<pdfrwt beam="2">  1       -2 0.13087348E+00 0.12025733E+04</pdfrwt>
<totfact> 0.20410884E+01</totfact>
</mgrwt>
</event>
<event>
12    5  0.5428626E-008  0.3254476E+04  0.7818608E-02  0.8174577E-01
         -2   -1    0    0    0  501 -0.00000000000E+00  0.00000000000E+00  0.14695399018E+04  0.14695399018E+04  0.00000000000E+00 0.  1.
          1   -1    0    0  501    0  0.00000000000E+00 -0.00000000000E+00 -0.18018589251E+04  0.18018589251E+04  0.00000000000E+00 0. -1.
        -24    2    1    2    0    0 -0.39604065435E+03 -0.14466975126E+04 -0.19868229765E+03  0.15156765058E+04  0.89547316551E+02 0.  0.
        254    2    1    2    0    0  0.39604065435E+03  0.14466975126E+04 -0.13363672566E+03  0.17557223212E+04  0.90272930696E+03 0.  0.
         23    2    4    4    0    0 -0.25079841407E+03  0.74772628911E+03 -0.73675782927E+02  0.79722229875E+03  0.90226518849E+02 0.  0.
         23    2    4    4    0    0  0.64683906841E+03  0.69897122352E+03 -0.59960942733E+02  0.95850002242E+03  0.90362750003E+02 0.  0.
          1    1    3    3  502    0 -0.42738143544E+02 -0.15222126110E+03 -0.49020255190E+02  0.16553201099E+03  0.00000000000E+00 0. -1.
         -2    1    3    3    0  502 -0.35330251080E+03 -0.12944762515E+04 -0.14966204246E+03  0.13501444948E+04  0.00000000000E+00 0.  1.
         13    1    5    5    0    0 -0.22542350119E+03  0.71465064610E+03 -0.54512459137E+02  0.75134074098E+03  0.00000000000E+00 0. -1.
        -13    1    5    5    0    0 -0.25374912879E+02  0.33075643009E+02 -0.19163323789E+02  0.45881557763E+02  0.00000000000E+00 0.  1.
          4    1    6    6  503    0  0.48809594787E+03  0.53967291076E+03 -0.83269088716E+02  0.73240579330E+03  0.00000000000E+00 0. -1.
         -4    1    6    6    0  503  0.15874312055E+03  0.15929831277E+03  0.23308145983E+02  0.22609422912E+03  0.00000000000E+00 0.  1.
<mgrwt>
<rscale>  0 0.32544760E+04</rscale>
<asrwt>0</asrwt>
<pdfrwt beam="1">  1        1 0.27720906E+00 0.32544760E+04</pdfrwt>
<pdfrwt beam="2">  1       -2 0.22608306E+00 0.32544760E+04</pdfrwt>
<totfact> 0.26901169E-01</totfact>
</mgrwt>
</event>
<event>
12    5  0.5428626E-008  0.1510483E+04  0.7818608E-02  0.8877512E-01
         -4   -1    0    0    0  501 -0.00000000000E+00  0.00000000000E+00  0.63880470090E+03  0.63880470090E+03  0.00000000000E+00 0.  1.
          3   -1    0    0  501    0  0.00000000000E+00 -0.00000000000E+00 -0.89290171083E+03  0.89290171083E+03  0.00000000000E+00 0. -1.
        -24    2    1    2    0    0 -0.26043554011E+03  0.35441727136E+03  0.12000224717E+03  0.46408912400E+03  0.86832614280E+02 0.  0.
        254    2    1    2    0    0  0.26043554011E+03 -0.35441727136E+03 -0.37409925710E+03  0.10676172877E+04  0.89800787641E+03 0.  0.
         23    2    4    4    0    0 -0.98759005437E+02 -0.55903836948E+03 -0.18218487748E+03  0.60305792949E+03  0.90610689424E+02 0.  0.
         23    2    4    4    0    0  0.35919454555E+03  0.20462109812E+03 -0.19191437962E+03  0.46455935824E+03  0.89965287045E+02 0.  0.
          3    1    3    3  502    0 -0.40635815304E+02  0.14823199757E+02  0.18394548618E+02  0.47003788734E+02  0.00000000000E+00 0. -1.
         -4    1    3    3    0  502 -0.21979972480E+03  0.33959407160E+03  0.10160769855E+03  0.41708533527E+03  0.00000000000E+00 0.  1.
         13    1    5    5    0    0 -0.91728546361E+02 -0.48210615906E+03 -0.12353632850E+03  0.50606491607E+03  0.00000000000E+00 0.  1.
        -13    1    5    5    0    0 -0.70304590764E+01 -0.76932210417E+02 -0.58648548981E+02  0.96993013418E+02  0.00000000000E+00 0. -1.
          3    1    6    6  503    0  0.12118937276E+03  0.10115388758E+03 -0.36367787216E+02  0.16199255844E+03  0.00000000000E+00 0. -1.
         -3    1    6    6    0  503  0.23800517278E+03  0.10346721054E+03 -0.15554659241E+03  0.30256679979E+03  0.00000000000E+00 0.  1.
<mgrwt>
<rscale>  0 0.15104831E+04</rscale>
<asrwt>0</asrwt>
<pdfrwt beam="1">  1        3 0.13736949E+00 0.15104831E+04</pdfrwt>
<pdfrwt beam="2">  1       -4 0.98277647E-01 0.15104831E+04</pdfrwt>
<totfact> 0.77112096E-01</totfact>
</mgrwt>
</event>
<event>
12    5  0.5428626E-008  0.1163471E+04  0.7818608E-02  0.9145445E-01
          1   -1    0    0  501    0  0.00000000000E+00  0.00000000000E+00  0.61259129093E+03  0.61259129093E+03  0.00000000000E+00 0. -1.
         -2   -1    0    0    0  501 -0.00000000000E+00 -0.00000000000E+00 -0.55243406995E+03  0.55243406995E+03  0.00000000000E+00 0.  1.
        -24    2    1    2    0    0  0.19783761721E+03  0.53215658063E+02 -0.52226423646E+02  0.22630195924E+03  0.80705318198E+02 0.  0.
        254    2    1    2    0    0 -0.19783761721E+03 -0.53215658063E+02  0.11238364462E+03  0.93872340164E+03  0.90917540230E+03 0.  0.
         23    2    4    4    0    0 -0.16882874033E+03 -0.46594545366E+03  0.15121420862E+02  0.50447042427E+03  0.93023879997E+02 0.  0.
         23    2    4    4    0    0 -0.29008876875E+02  0.41272979559E+03  0.97262223759E+02  0.43425297736E+03  0.89041052728E+02 0.  0.
          1    1    3    3  502    0  0.83821131859E+02  0.55129026596E+01 -0.58795280930E+02  0.10253418601E+03  0.00000000000E+00 0. -1.
         -2    1    3    3    0  502  0.11401648535E+03  0.47702755403E+02  0.65688572846E+01  0.12376777323E+03  0.00000000000E+00 0.  1.
         13    1    5    5    0    0 -0.13533236971E+03 -0.38311861225E+03  0.48269693721E+02  0.40917561593E+03  0.00000000000E+00 0. -1.
        -13    1    5    5    0    0 -0.33496370625E+02 -0.82826841406E+02 -0.33148272859E+02  0.95294808337E+02  0.00000000000E+00 0.  1.
          2    1    6    6  503    0 -0.41962065011E+02  0.38861108792E+03  0.10690754215E+03  0.40522662193E+03  0.00000000000E+00 0.  1.
         -2    1    6    6    0  503  0.12953188137E+02  0.24118707674E+02 -0.96453183916E+01  0.29026355431E+02  0.00000000000E+00 0. -1.
<mgrwt>
<rscale>  0 0.11634712E+04</rscale>
<asrwt>0</asrwt>
<pdfrwt beam="1">  1        1 0.94244814E-01 0.11634712E+04</pdfrwt>
<pdfrwt beam="2">  1       -2 0.84989857E-01 0.11634712E+04</pdfrwt>
<totfact> 0.34794381E+01</totfact>
</mgrwt>
</event>
<event>
12    5  0.5428626E-008  0.1466170E+04  0.7818608E-02  0.8907266E-01
         -4   -1    0    0    0  501 -0.00000000000E+00  0.00000000000E+00  0.54415568267E+03  0.54415568267E+03  0.00000000000E+00 0.  1.
          3   -1    0    0  501    0  0.00000000000E+00 -0.00000000000E+00 -0.98761017012E+03  0.98761017012E+03  0.00000000000E+00 0. -1.
        -24    2    1    2    0    0 -0.33939050480E+02 -0.38013249611E+03 -0.37546650349E+03  0.54153488933E+03  0.81439347834E+02 0.  0.
        254    2    1    2    0    0  0.33939050480E+02  0.38013249611E+03 -0.67987983957E+02  0.99023096346E+03  0.91119834355E+03 0.  0.
         23    2    4    4    0    0  0.17950702142E+03 -0.13406147416E+03  0.26190951650E+03  0.35613459294E+03  0.89666068618E+02 0.  0.
         23    2    4    4    0    0 -0.14556797093E+03  0.51419397027E+03 -0.32989750046E+03  0.63409637052E+03  0.87523557295E+02 0.  0.
          1    1    3    3  502    0 -0.13635708766E+02 -0.30982599519E+03 -0.34006724732E+03  0.46024321021E+03  0.00000000000E+00 0. -1.
         -2    1    3    3    0  502 -0.20303341714E+02 -0.70306500922E+02 -0.35399256169E+02  0.81291679119E+02  0.00000000000E+00 0.  1.
         13    1    5    5    0    0  0.14983787143E+03 -0.13204509300E+03  0.25780577718E+03  0.32611518372E+03  0.00000000000E+00 0. -1.
        -13    1    5    5    0    0  0.29669149981E+02 -0.20163811552E+01  0.41037393200E+01  0.30019409220E+02  0.00000000000E+00 0.  1.
          3    1    6    6  503    0 -0.11019504753E+03  0.44959631512E+03 -0.31222100382E+03  0.55835629332E+03  0.00000000000E+00 0. -1.
         -3    1    6    6    0  503 -0.35372923407E+02  0.64597655147E+02 -0.17676496642E+02  0.75740077201E+02  0.00000000000E+00 0.  1.
<mgrwt>
<rscale>  0 0.14661701E+04</rscale>
<asrwt>0</asrwt>
<pdfrwt beam="1">  1        3 0.15194003E+00 0.14661701E+04</pdfrwt>
<pdfrwt beam="2">  1       -4 0.83716258E-01 0.14661701E+04</pdfrwt>
<totfact> 0.86858272E-01</totfact>
</mgrwt>
</event>
<event>
12    5  0.5428626E-008  0.1360723E+04  0.7818608E-02  0.8982750E-01
          1   -1    0    0  501    0  0.00000000000E+00  0.00000000000E+00  0.11771162480E+04  0.11771162480E+04  0.00000000000E+00 0. -1.
         -2   -1    0    0    0  501 -0.00000000000E+00 -0.00000000000E+00 -0.39324238456E+03  0.39324238456E+03  0.00000000000E+00 0.  1.
        -24    2    1    2    0    0  0.36747512249E+02  0.37598007148E+03  0.11248008691E+03  0.40208192510E+03  0.79414801722E+02 0.  0.
        254    2    1    2    0    0 -0.36747512249E+02 -0.37598007148E+03  0.67139377655E+03  0.11682767075E+04  0.87828780490E+03 0.  0.
         23    2    4    4    0    0  0.27979509839E+03 -0.46541772161E+03  0.61231963651E+03  0.82359927110E+03  0.92094893661E+02 0.  0.
         23    2    4    4    0    0 -0.31654261064E+03  0.89437650132E+02  0.59074140038E+02  0.34467743637E+03  0.84347279242E+02 0.  0.
          1    1    3    3  502    0  0.33101786919E+02  0.62508503199E+02  0.36130599712E+02  0.79425823917E+02  0.00000000000E+00 0. -1.
         -2    1    3    3    0  502  0.36457253301E+01  0.31347156828E+03  0.76349487198E+02  0.32265610118E+03  0.00000000000E+00 0.  1.
         13    1    5    5    0    0  0.58776362175E+02 -0.15458012363E+03  0.23262991326E+03  0.28542311034E+03  0.00000000000E+00 0. -1.
        -13    1    5    5    0    0  0.22101873621E+03 -0.31083759798E+03  0.37968972324E+03  0.53817616076E+03  0.00000000000E+00 0.  1.
          2    1    6    6  503    0 -0.90047577416E+02  0.66456573142E+02  0.18673716346E+02  0.11346254886E+03  0.00000000000E+00 0. -1.
         -2    1    6    6    0  503 -0.22649503322E+03  0.22981076991E+02  0.40400423692E+02  0.23121488751E+03  0.00000000000E+00 0.  1.
<mgrwt>
<rscale>  0 0.13607233E+04</rscale>
<asrwt>0</asrwt>
<pdfrwt beam="1">  1        1 0.18109481E+00 0.13607233E+04</pdfrwt>
<pdfrwt beam="2">  1       -2 0.60498829E-01 0.13607233E+04</pdfrwt>
<totfact> 0.24245435E+01</totfact>
</mgrwt>
</event>
<event>
12    5  0.5428626E-008  0.1478571E+04  0.7818608E-02  0.8898829E-01
          1   -1    0    0  501    0  0.00000000000E+00  0.00000000000E+00  0.13667795853E+04  0.13667795853E+04  0.00000000000E+00 0. -1.
         -2   -1    0    0    0  501 -0.00000000000E+00 -0.00000000000E+00 -0.39987646933E+03  0.39987646933E+03  0.00000000000E+00 0.  1.
        -24    2    1    2    0    0 -0.33809740246E+03  0.21035511670E+03  0.59744297623E+03  0.72225844289E+03  0.78485793709E+02 0.  0.
        254    2    1    2    0    0  0.33809740246E+03 -0.21035511670E+03  0.36946013972E+03  0.10443976117E+04  0.89202379331E+03 0.  0.
         23    2    4    4    0    0  0.97829774262E+02  0.34129906486E+03  0.13388326083E+03  0.39180451232E+03  0.97623418994E+02 0.  0.
         23    2    4    4    0    0  0.24026762819E+03 -0.55165418156E+03  0.23557687889E+03  0.65259309940E+03  0.91271125347E+02 0.  0.
          1    1    3    3  502    0 -0.16459926266E+03  0.13768627459E+03  0.36295210250E+03  0.42164517807E+03  0.00000000000E+00 0. -1.
         -2    1    3    3    0  502 -0.17349813979E+03  0.72668842109E+02  0.23449087373E+03  0.30061326482E+03  0.00000000000E+00 0.  1.
         13    1    5    5    0    0  0.74243895093E+02  0.29206099300E+03  0.14753641923E+03  0.33552760630E+03  0.00000000000E+00 0.  1.
        -13    1    5    5    0    0  0.23585879169E+02  0.49238071861E+02 -0.13653158399E+02  0.56276906019E+02  0.00000000000E+00 0. -1.
          1    1    6    6  503    0  0.23236148254E+02 -0.88111637681E+02  0.51162963357E+01  0.91267495685E+02  0.00000000000E+00 0. -1.
         -1    1    6    6    0  503  0.21703147994E+03 -0.46354254388E+03  0.23046058255E+03  0.56132560371E+03  0.00000000000E+00 0.  1.
<mgrwt>
<rscale>  0 0.14785709E+04</rscale>
<asrwt>0</asrwt>
<pdfrwt beam="1">  1        1 0.21027378E+00 0.14785709E+04</pdfrwt>
<pdfrwt beam="2">  1       -2 0.61519457E-01 0.14785709E+04</pdfrwt>
<totfact> 0.16929681E+01</totfact>
</mgrwt>
</event>
<event>
12    5  0.5428626E-008  0.1124872E+04  0.7818608E-02  0.9181283E-01
         -2   -1    0    0    0  501 -0.00000000000E+00  0.00000000000E+00  0.30640501724E+03  0.30640501724E+03  0.00000000000E+00 0.  1.
          1   -1    0    0  501    0  0.00000000000E+00 -0.00000000000E+00 -0.10324064180E+04  0.10324064180E+04  0.00000000000E+00 0. -1.
        -24    2    1    2    0    0 -0.29970434979E+02 -0.17539027534E+03 -0.66821667310E+02  0.20610396615E+03  0.79710312892E+02 0.  0.
        254    2    1    2    0    0  0.29970434979E+02  0.17539027534E+03 -0.65917973343E+03  0.11327074691E+04  0.90379661090E+03 0.  0.
         23    2    4    4    0    0  0.72333863111E+02  0.51047929395E+03 -0.56684096233E+03  0.77144603261E+03  0.89437169854E+02 0.  0.
         23    2    4    4    0    0 -0.42363428132E+02 -0.33508901860E+03 -0.92338771101E+02  0.36126143647E+03  0.88904816516E+02 0.  0.
          1    1    3    3  502    0 -0.22369519857E+02 -0.10038142109E+02 -0.25753991787E+02  0.35558793689E+02  0.00000000000E+00 0. -1.
         -2    1    3    3    0  502 -0.76009151219E+01 -0.16535213324E+03 -0.41067675523E+02  0.17054517246E+03  0.00000000000E+00 0.  1.
         13    1    5    5    0    0  0.32846464677E+02  0.43713783359E+02 -0.65352431195E+02  0.85209890039E+02  0.00000000000E+00 0.  1.
        -13    1    5    5    0    0  0.39487398434E+02  0.46676551059E+03 -0.50148853113E+03  0.68623614257E+03  0.00000000000E+00 0. -1.
          3    1    6    6  503    0 -0.13143328861E+02 -0.19639315378E+03 -0.94401663036E+01  0.19705870873E+03  0.00000000000E+00 0. -1.
         -3    1    6    6    0  503 -0.29220099271E+02 -0.13869586482E+03 -0.82898604797E+02  0.16420272774E+03  0.00000000000E+00 0.  1.
<mgrwt>
<rscale>  0 0.11248724E+04</rscale>
<asrwt>0</asrwt>
<pdfrwt beam="1">  1        1 0.15883176E+00 0.11248724E+04</pdfrwt>
<pdfrwt beam="2">  1       -2 0.47139234E-01 0.11248724E+04</pdfrwt>
<totfact> 0.53109513E+01</totfact>
</mgrwt>
</event>
<event>
12    5  0.5428626E-008  0.1953717E+04  0.7818608E-02  0.8628571E-01
          1   -1    0    0  501    0  0.00000000000E+00  0.00000000000E+00  0.18447575326E+04  0.18447575326E+04  0.00000000000E+00 0. -1.
         -2   -1    0    0    0  501 -0.00000000000E+00 -0.00000000000E+00 -0.51727786287E+03  0.51727786287E+03  0.00000000000E+00 0.  1.
        -24    2    1    2    0    0  0.25379638964E+02  0.38074603928E+03 -0.27690624967E+03  0.47817590962E+03  0.79771278883E+02 0.  0.
        254    2    1    2    0    0 -0.25379638964E+02 -0.38074603928E+03  0.16043859194E+04  0.18838594858E+04  0.91063753026E+03 0.  0.
         23    2    4    4    0    0  0.24510548153E+03  0.17762404128E+03  0.82305961262E+03  0.88191541014E+03  0.93384514850E+02 0.  0.
         23    2    4    4    0    0 -0.27048512049E+03 -0.55837008056E+03  0.78132630676E+03  0.10019440757E+04  0.92096611668E+02 0.  0.
          1    1    3    3  502    0  0.29979158394E+02  0.58781210934E+02 -0.30382006523E+02  0.72643286113E+02  0.00000000000E+00 0. -1.
         -2    1    3    3    0  502 -0.45995194296E+01  0.32196482834E+03 -0.24652424315E+03  0.40553262351E+03  0.00000000000E+00 0.  1.
         13    1    5    5    0    0  0.26230394934E+02  0.59317978508E+02  0.12468763487E+03  0.14054772315E+03  0.00000000000E+00 0.  1.
        -13    1    5    5    0    0  0.21887508659E+03  0.11830606277E+03  0.69837197775E+03  0.74136768700E+03  0.00000000000E+00 0. -1.
          3    1    6    6  503    0 -0.18993028327E+03 -0.28849127970E+03  0.41812646113E+03  0.54233796517E+03  0.00000000000E+00 0. -1.
         -3    1    6    6    0  503 -0.80554837227E+02 -0.26987880086E+03  0.36319984563E+03  0.45960611051E+03  0.00000000000E+00 0.  1.
<mgrwt>
<rscale>  0 0.19537167E+04</rscale>
<asrwt>0</asrwt>
<pdfrwt beam="1">  1        1 0.28380885E+00 0.19537167E+04</pdfrwt>
<pdfrwt beam="2">  1       -2 0.79581211E-01 0.19537167E+04</pdfrwt>
<totfact> 0.43445872E+00</totfact>
</mgrwt>
</event>
<event>
12    5  0.5428626E-008  0.1923688E+04  0.7818608E-02  0.8643154E-01
          1   -1    0    0  501    0  0.00000000000E+00  0.00000000000E+00  0.97277553860E+03  0.97277553860E+03  0.00000000000E+00 0. -1.
         -2   -1    0    0    0  501 -0.00000000000E+00 -0.00000000000E+00 -0.95103566894E+03  0.95103566894E+03  0.00000000000E+00 0.  1.
        -24    2    1    2    0    0 -0.56467247490E+03 -0.42860864294E+03 -0.22244424170E+03  0.74723574419E+03  0.79494930731E+02 0.  0.
        254    2    1    2    0    0  0.56467247490E+03  0.42860864294E+03  0.24418411136E+03  0.11765754634E+04  0.90672132876E+03 0.  0.
         23    2    4    4    0    0  0.58210654159E+03  0.60885727041E+03  0.38383576342E+03  0.93018388990E+03  0.91416487887E+02 0.  0.
         23    2    4    4    0    0 -0.17434066698E+02 -0.18024862747E+03 -0.13965165206E+03  0.24639157346E+03  0.91720821848E+02 0.  0.
          3    1    3    3  502    0 -0.16701464528E+03 -0.12695367227E+03 -0.28335087225E+02  0.21169318319E+03  0.00000000000E+00 0. -1.
         -4    1    3    3    0  502 -0.39765782962E+03 -0.30165497067E+03 -0.19410915448E+03  0.53554256100E+03  0.00000000000E+00 0.  1.
         13    1    5    5    0    0  0.33037742450E+03  0.33616391463E+03  0.16517252775E+03  0.49943706714E+03  0.00000000000E+00 0. -1.
        -13    1    5    5    0    0  0.25172911710E+03  0.27269335578E+03  0.21866323567E+03  0.43074682276E+03  0.00000000000E+00 0.  1.
          4    1    6    6  503    0 -0.31302519519E+02 -0.17792248012E+03 -0.10489980595E+03  0.20890243165E+03  0.00000000000E+00 0. -1.
         -4    1    6    6    0  503  0.13868452822E+02 -0.23261473454E+01 -0.34751846110E+02  0.37489141804E+02  0.00000000000E+00 0.  1.
<mgrwt>
<rscale>  0 0.19236884E+04</rscale>
<asrwt>0</asrwt>
<pdfrwt beam="1">  1        1 0.14965777E+00 0.19236884E+04</pdfrwt>
<pdfrwt beam="2">  1       -2 0.14631318E+00 0.19236884E+04</pdfrwt>
<totfact> 0.41629847E+00</totfact>
</mgrwt>
</event>
<event>
12    5  0.5428626E-008  0.1386345E+04  0.7818608E-02  0.8963762E-01
          3   -1    0    0  501    0  0.00000000000E+00  0.00000000000E+00  0.84250190295E+03  0.84250190295E+03  0.00000000000E+00 0. -1.
         -4   -1    0    0    0  501 -0.00000000000E+00 -0.00000000000E+00 -0.57031133174E+03  0.57031133174E+03  0.00000000000E+00 0.  1.
        -24    2    1    2    0    0 -0.76667583595E+02 -0.38692964726E+03  0.10890886957E+03  0.41693382893E+03  0.79876188769E+02 0.  0.
        254    2    1    2    0    0  0.76667583595E+02  0.38692964726E+03  0.16328170165E+03  0.99587940576E+03  0.89973463111E+03 0.  0.
         23    2    4    4    0    0 -0.26103429310E+03  0.25792224772E+03  0.40344464040E+03  0.55282518412E+03  0.90472748840E+02 0.  0.
         23    2    4    4    0    0  0.33770187669E+03  0.12900739954E+03 -0.24016293875E+03  0.44305422164E+03  0.89069296094E+02 0.  0.
          3    1    3    3  502    0 -0.48443739510E+02 -0.78692097939E+02  0.34063292788E+02  0.98486293926E+02  0.00000000000E+00 0. -1.
         -4    1    3    3    0  502 -0.28223844085E+02 -0.30823754932E+03  0.74845576780E+02  0.31844753500E+03  0.00000000000E+00 0.  1.
         13    1    5    5    0    0 -0.25441323565E+03  0.22677276837E+03  0.39087295681E+03  0.51858813264E+03  0.00000000000E+00 0. -1.
        -13    1    5    5    0    0 -0.66210574447E+01  0.31149479349E+02  0.12571683589E+02  0.34237051474E+02  0.00000000000E+00 0.  1.
          4    1    6    6  503    0  0.30314240104E+03  0.14118727455E+03 -0.22674075794E+03  0.40403036163E+03  0.00000000000E+00 0. -1.
         -4    1    6    6    0  503  0.34559475648E+02 -0.12179875017E+02 -0.13422180814E+02  0.39023860013E+02  0.00000000000E+00 0.  1.
<mgrwt>
<rscale>  0 0.13863454E+04</rscale>
<asrwt>0</asrwt>
<pdfrwt beam="1">  1        3 0.12961568E+00 0.13863454E+04</pdfrwt>
<pdfrwt beam="2">  1       -4 0.87740206E-01 0.13863454E+04</pdfrwt>
<totfact> 0.11735266E+00</totfact>
</mgrwt>
</event>
<event>
12    5  0.5428626E-008  0.1372085E+04  0.7818608E-02  0.8974277E-01
         -2   -1    0    0    0  501 -0.00000000000E+00  0.00000000000E+00  0.49038917090E+03  0.49038917090E+03  0.00000000000E+00 0.  1.
          1   -1    0    0  501    0  0.00000000000E+00 -0.00000000000E+00 -0.95975608913E+03  0.95975608913E+03  0.00000000000E+00 0. -1.
        -24    2    1    2    0    0  0.58605150679E+02 -0.15971501305E+03 -0.50369157050E+03  0.53753215507E+03  0.79323202588E+02 0.  0.
        254    2    1    2    0    0 -0.58605150679E+02  0.15971501305E+03  0.34324652269E+02  0.91261310496E+03  0.89595817341E+03 0.  0.
         23    2    4    4    0    0  0.10749710279E+03  0.45795034751E+03  0.20370582562E+03  0.52085410385E+03  0.92297270847E+02 0.  0.
         23    2    4    4    0    0 -0.16610225347E+03 -0.29823533446E+03 -0.16938117335E+03  0.39175900111E+03  0.90834243180E+02 0.  0.
          1    1    3    3  502    0  0.63838299314E+02 -0.14579459551E+03 -0.49575175185E+03  0.52067378655E+03  0.00000000000E+00 0. -1.
         -2    1    3    3    0  502 -0.52331486349E+01 -0.13920417540E+02 -0.79398186482E+01  0.16858368524E+02  0.00000000000E+00 0.  1.
         13    1    5    5    0    0  0.49655765744E+02  0.31769953162E+03  0.17621069351E+03  0.36667273688E+03  0.00000000000E+00 0.  1.
        -13    1    5    5    0    0  0.57841337050E+02  0.14025081589E+03  0.27495132112E+02  0.15418136697E+03  0.00000000000E+00 0. -1.
          4    1    6    6  503    0 -0.42913955384E+02 -0.18402427011E+02 -0.31728140654E+02  0.56452916630E+02  0.00000000000E+00 0. -1.
         -4    1    6    6    0  503 -0.12318829809E+03 -0.27983290745E+03 -0.13765303270E+03  0.33530608448E+03  0.00000000000E+00 0.  1.
<mgrwt>
<rscale>  0 0.13720845E+04</rscale>
<asrwt>0</asrwt>
<pdfrwt beam="1">  1        1 0.14765478E+00 0.13720845E+04</pdfrwt>
<pdfrwt beam="2">  1       -2 0.75444489E-01 0.13720845E+04</pdfrwt>
<totfact> 0.21978763E+01</totfact>
</mgrwt>
</event>
<event>
12    5  0.5428626E-008  0.1584013E+04  0.7818608E-02  0.8830430E-01
         -4   -1    0    0    0  501 -0.00000000000E+00  0.00000000000E+00  0.12032441816E+04  0.12032441816E+04  0.00000000000E+00 0.  1.
          3   -1    0    0  501    0  0.00000000000E+00 -0.00000000000E+00 -0.52131905934E+03  0.52131905934E+03  0.00000000000E+00 0. -1.
        -24    2    1    2    0    0  0.22268225979E+03 -0.20248377370E+03  0.69915871134E+03  0.76539830266E+03  0.80153544095E+02 0.  0.
        254    2    1    2    0    0 -0.22268225979E+03  0.20248377370E+03 -0.17233589097E+02  0.95916493826E+03  0.91055659613E+03 0.  0.
         23    2    4    4    0    0 -0.55721702993E+03  0.62750372316E+02 -0.98778516229E+02  0.57672696664E+03  0.91806160514E+02 0.  0.
         23    2    4    4    0    0  0.33453477014E+03  0.13973340139E+03  0.81544927132E+02  0.38243797162E+03  0.90389662573E+02 0.  0.
          3    1    3    3  502    0  0.80183382604E+00 -0.23498895403E+02  0.30530779290E+02  0.38535302084E+02  0.00000000000E+00 0. -1.
         -4    1    3    3    0  502  0.22188042596E+03 -0.17898487830E+03  0.66862793205E+03  0.72686300058E+03  0.00000000000E+00 0.  1.
         13    1    5    5    0    0 -0.49318589369E+03  0.64957526317E+02 -0.11515041383E+03  0.51059908320E+03  0.00000000000E+00 0. -1.
        -13    1    5    5    0    0 -0.64031136244E+02 -0.22071540010E+01  0.16371897597E+02  0.66127883441E+02  0.00000000000E+00 0.  1.
          4    1    6    6  503    0  0.33963388377E+03  0.13759029997E+03  0.84648958784E+02  0.37609534945E+03  0.00000000000E+00 0. -1.
         -4    1    6    6    0  503 -0.50991136329E+01  0.21431014186E+01 -0.31040316528E+01  0.63426221733E+01  0.00000000000E+00 0.  1.
<mgrwt>
<rscale>  0 0.15840128E+04</rscale>
<asrwt>0</asrwt>
<pdfrwt beam="1">  1        3 0.80202932E-01 0.15840128E+04</pdfrwt>
<pdfrwt beam="2">  1       -4 0.18511449E+00 0.15840128E+04</pdfrwt>
<totfact> 0.52654290E-01</totfact>
</mgrwt>
</event>
<event>
12    5  0.5428626E-008  0.2556575E+04  0.7818608E-02  0.8383103E-01
          1   -1    0    0  501    0  0.00000000000E+00  0.00000000000E+00  0.65355152975E+03  0.65355152975E+03  0.00000000000E+00 0. -1.
         -2   -1    0    0    0  501 -0.00000000000E+00 -0.00000000000E+00 -0.25002148943E+04  0.25002148943E+04  0.00000000000E+00 0.  1.
        -24    2    1    2    0    0 -0.88313345689E+03  0.42623239799E+03 -0.14369911000E+03  0.99399507319E+03  0.76013232582E+02 0.  0.
        254    2    1    2    0    0  0.88313345689E+03 -0.42623239799E+03 -0.17029642546E+04  0.21597713509E+04  0.89606153583E+03 0.  0.
         23    2    4    4    0    0  0.35499599195E+03  0.10702690074E+03 -0.11805967415E+04  0.12407255497E+04  0.90079475057E+02 0.  0.
         23    2    4    4    0    0  0.52813746494E+03 -0.53325929874E+03 -0.52236751307E+03  0.91904580119E+03  0.92101598367E+02 0.  0.
          3    1    3    3  502    0 -0.59585903562E+03  0.31913774706E+03 -0.77787491458E+02  0.68040266442E+03  0.00000000000E+00 0. -1.
         -4    1    3    3    0  502 -0.28727442128E+03  0.10709465094E+03 -0.65911618547E+02  0.31359240877E+03  0.00000000000E+00 0.  1.
         13    1    5    5    0    0  0.35913693345E+03  0.10205755225E+03 -0.11390542261E+04  0.11986824479E+04  0.00000000000E+00 0. -1.
        -13    1    5    5    0    0 -0.41409415013E+01  0.49693484958E+01 -0.41542515440E+02  0.42043101813E+02  0.00000000000E+00 0.  1.
          4    1    6    6  503    0  0.11038295878E+03 -0.16899115920E+03 -0.13494228854E+03  0.24279998087E+03  0.00000000000E+00 0. -1.
         -4    1    6    6    0  503  0.41775450616E+03 -0.36426813954E+03 -0.38742522453E+03  0.67624582032E+03  0.00000000000E+00 0.  1.
<mgrwt>
<rscale>  0 0.25565753E+04</rscale>
<asrwt>0</asrwt>
<pdfrwt beam="1">  1        1 0.10054639E+00 0.25565753E+04</pdfrwt>
<pdfrwt beam="2">  1       -2 0.38464844E+00 0.25565753E+04</pdfrwt>
<totfact> 0.21879273E-01</totfact>
</mgrwt>
</event>
<event>
12    5  0.5428626E-008  0.1634355E+04  0.7818608E-02  0.8799716E-01
          1   -1    0    0  501    0  0.00000000000E+00  0.00000000000E+00  0.16183214258E+04  0.16183214258E+04  0.00000000000E+00 0. -1.
         -2   -1    0    0    0  501 -0.00000000000E+00 -0.00000000000E+00 -0.41263668913E+03  0.41263668913E+03  0.00000000000E+00 0.  1.
        -24    2    1    2    0    0 -0.20419903922E+03 -0.42675606800E+03  0.81102524090E+03  0.94242331101E+03  0.81128087418E+02 0.  0.
        254    2    1    2    0    0  0.20419903922E+03  0.42675606800E+03  0.39465949573E+03  0.10885348039E+04  0.89740398510E+03 0.  0.
         23    2    4    4    0    0  0.38949012013E+03  0.53209473243E+03  0.50139426233E+03  0.83313108233E+03  0.88790968528E+02 0.  0.
         23    2    4    4    0    0 -0.18529108091E+03 -0.10533866442E+03 -0.10673476660E+03  0.25540372154E+03  0.91704589245E+02 0.  0.
          3    1    3    3  502    0 -0.14837762067E+03 -0.34461114462E+03  0.57778452094E+03  0.68891778315E+03  0.00000000000E+00 0. -1.
         -4    1    3    3    0  502 -0.55821418554E+02 -0.82144923386E+02  0.23324071996E+03  0.25350552786E+03  0.00000000000E+00 0.  1.
         13    1    5    5    0    0  0.34574651350E+03  0.50819203441E+03  0.47444129762E+03  0.77646271020E+03  0.00000000000E+00 0.  1.
        -13    1    5    5    0    0  0.43743606635E+02  0.23902698012E+02  0.26952964705E+02  0.56668372132E+02  0.00000000000E+00 0. -1.
          3    1    6    6  503    0 -0.87834930135E+02 -0.69203210819E+01 -0.68828528559E+02  0.11180443703E+03  0.00000000000E+00 0. -1.
         -3    1    6    6    0  503 -0.97456150772E+02 -0.98418343342E+02 -0.37906238040E+02  0.14359928451E+03  0.00000000000E+00 0.  1.
<mgrwt>
<rscale>  0 0.16343547E+04</rscale>
<asrwt>0</asrwt>
<pdfrwt beam="1">  1        1 0.24897252E+00 0.16343547E+04</pdfrwt>
<pdfrwt beam="2">  1       -2 0.63482568E-01 0.16343547E+04</pdfrwt>
<totfact> 0.10454776E+01</totfact>
</mgrwt>
</event>
<event>
12    5  0.5428626E-008  0.1432531E+04  0.7818608E-02  0.8930602E-01
         -2   -1    0    0    0  501 -0.00000000000E+00  0.00000000000E+00  0.47508235865E+03  0.47508235865E+03  0.00000000000E+00 0.  1.
          1   -1    0    0  501    0  0.00000000000E+00 -0.00000000000E+00 -0.10798885854E+04  0.10798885854E+04  0.00000000000E+00 0. -1.
        -24    2    1    2    0    0 -0.44047973832E+02 -0.22369234512E+03 -0.57933048274E+03  0.62751471460E+03  0.78564747423E+02 0.  0.
        254    2    1    2    0    0  0.44047973832E+02  0.22369234512E+03 -0.25475743976E+02  0.92745622942E+03  0.89863649753E+03 0.  0.
         23    2    4    4    0    0  0.78733524564E+02  0.40136484724E+03  0.31989641437E+03  0.52712503689E+03  0.90743485162E+02 0.  0.
         23    2    4    4    0    0 -0.34685550731E+02 -0.17767250211E+03 -0.34537215834E+03  0.40033119253E+03  0.90623013182E+02 0.  0.
          3    1    3    3  502    0 -0.38769422560E+02 -0.22975617969E+03 -0.55650647824E+03  0.60331619451E+03  0.00000000000E+00 0. -1.
         -4    1    3    3    0  502 -0.52785512725E+01  0.60638345636E+01 -0.22824004501E+02  0.24198520091E+02  0.00000000000E+00 0.  1.
         13    1    5    5    0    0 -0.16749956807E+02  0.44132575588E+02  0.53724047230E+02  0.71515862099E+02  0.00000000000E+00 0.  1.
        -13    1    5    5    0    0  0.95483481371E+02  0.35723227165E+03  0.26617236714E+03  0.45560917479E+03  0.00000000000E+00 0. -1.
          2    1    6    6  503    0 -0.53793241210E+02 -0.12018394787E+03 -0.17156885006E+03  0.21627243106E+03  0.00000000000E+00 0. -1.
         -2    1    6    6    0  503  0.19107690478E+02 -0.57488554242E+02 -0.17380330828E+03  0.18405876147E+03  0.00000000000E+00 0.  1.
<mgrwt>
<rscale>  0 0.14325307E+04</rscale>
<asrwt>0</asrwt>
<pdfrwt beam="1">  1        1 0.16613671E+00 0.14325307E+04</pdfrwt>
<pdfrwt beam="2">  1       -2 0.73089594E-01 0.14325307E+04</pdfrwt>
<totfact> 0.18932525E+01</totfact>
</mgrwt>
</event>
<event>
12    5  0.5428626E-008  0.2003254E+04  0.7818608E-02  0.8605101E-01
          1   -1    0    0  501    0  0.00000000000E+00  0.00000000000E+00  0.13721994610E+04  0.13721994610E+04  0.00000000000E+00 0. -1.
         -2   -1    0    0    0  501 -0.00000000000E+00 -0.00000000000E+00 -0.73113029478E+03  0.73113029478E+03  0.00000000000E+00 0.  1.
        -24    2    1    2    0    0  0.23760315604E+03  0.36770228591E+03 -0.44959035486E+03  0.63253670251E+03  0.79441563515E+02 0.  0.
        254    2    1    2    0    0 -0.23760315604E+03 -0.36770228591E+03  0.10906595211E+04  0.14707930533E+04  0.88432674039E+03 0.  0.
         23    2    4    4    0    0 -0.51920926547E+03 -0.32531370501E+02  0.48324321277E+03  0.71602539813E+03  0.92367833526E+02 0.  0.
         23    2    4    4    0    0  0.28160610943E+03 -0.33517091540E+03  0.60741630831E+03  0.75476765512E+03  0.95279054463E+02 0.  0.
          1    1    3    3  502    0  0.14611876234E+02  0.22745888814E+02 -0.62628877693E+02  0.68214798293E+02  0.00000000000E+00 0. -1.
         -2    1    3    3    0  502  0.22299127981E+03  0.34495639709E+03 -0.38696147717E+03  0.56432190422E+03  0.00000000000E+00 0.  1.
         13    1    5    5    0    0 -0.96711722099E+02  0.23946373998E+02  0.65744855822E+02  0.11936905833E+03  0.00000000000E+00 0. -1.
        -13    1    5    5    0    0 -0.42249754337E+03 -0.56477744500E+02  0.41749835695E+03  0.59665633981E+03  0.00000000000E+00 0.  1.
          2    1    6    6  503    0  0.13175648214E+03 -0.13496289765E+03  0.18702477113E+03  0.26561818338E+03  0.00000000000E+00 0.  1.
         -2    1    6    6    0  503  0.14984962729E+03 -0.20020801776E+03  0.42039153718E+03  0.48914947174E+03  0.00000000000E+00 0. -1.
<mgrwt>
<rscale>  0 0.20032539E+04</rscale>
<asrwt>0</asrwt>
<pdfrwt beam="1">  1        1 0.21110761E+00 0.20032539E+04</pdfrwt>
<pdfrwt beam="2">  1       -2 0.11248158E+00 0.20032539E+04</pdfrwt>
<totfact> 0.40709831E+00</totfact>
</mgrwt>
</event>
<event>
12    5  0.5428626E-008  0.1198396E+04  0.7818608E-02  0.9114261E-01
          3   -1    0    0  501    0  0.00000000000E+00  0.00000000000E+00  0.89782437406E+03  0.89782437406E+03  0.00000000000E+00 0. -1.
         -2   -1    0    0    0  501 -0.00000000000E+00 -0.00000000000E+00 -0.39989830335E+03  0.39989830335E+03  0.00000000000E+00 0.  1.
        -24    2    1    2    0    0 -0.39535409836E+02  0.10936001219E+03 -0.12535200999E+03  0.18876095673E+03  0.79968190430E+02 0.  0.
        254    2    1    2    0    0  0.39535409836E+02 -0.10936001219E+03  0.62327808070E+03  0.11089617207E+04  0.90983398000E+03 0.  0.
         23    2    4    4    0    0 -0.10507266934E+02  0.30442099102E+03 -0.40510850860E+02  0.31971833516E+03  0.88295766410E+02 0.  0.
         23    2    4    4    0    0  0.50042676771E+02 -0.41378100321E+03  0.66378893156E+03  0.78924338552E+03  0.92576389060E+02 0.  0.
          3    1    3    3  502    0 -0.12063657581E+02  0.56127305771E+02 -0.92959423773E+01  0.58156864015E+02  0.00000000000E+00 0. -1.
         -4    1    3    3    0  502 -0.27471752255E+02  0.53232706416E+02 -0.11605606761E+03  0.13060409272E+03  0.00000000000E+00 0.  1.
         13    1    5    5    0    0 -0.27532801322E+02  0.34674871933E+02  0.83433961998E+01  0.45055678359E+02  0.00000000000E+00 0. -1.
        -13    1    5    5    0    0  0.17025534388E+02  0.26974611909E+03 -0.48854247060E+02  0.27466265680E+03  0.00000000000E+00 0.  1.
          1    1    6    6  503    0 -0.20074981473E+02 -0.16100459660E+03  0.29499806549E+03  0.33667394264E+03  0.00000000000E+00 0. -1.
         -1    1    6    6    0  503  0.70117658244E+02 -0.25277640661E+03  0.36879086607E+03  0.45256944289E+03  0.00000000000E+00 0.  1.
<mgrwt>
<rscale>  0 0.11983963E+04</rscale>
<asrwt>0</asrwt>
<pdfrwt beam="1">  1        3 0.13812683E+00 0.11983963E+04</pdfrwt>
<pdfrwt beam="2">  1       -2 0.61522816E-01 0.11983963E+04</pdfrwt>
<totfact> 0.39947198E+00</totfact>
</mgrwt>
</event>
<event>
12    5  0.5428626E-008  0.1420611E+04  0.7818608E-02  0.8939033E-01
         -2   -1    0    0    0  501 -0.00000000000E+00  0.00000000000E+00  0.79746219337E+03  0.79746219337E+03  0.00000000000E+00 0.  1.
          1   -1    0    0  501    0  0.00000000000E+00 -0.00000000000E+00 -0.63267428862E+03  0.63267428862E+03  0.00000000000E+00 0. -1.
        -24    2    1    2    0    0  0.19206605414E+03  0.36566859741E+03  0.14056381026E+03  0.44299818352E+03  0.76722314647E+02 0.  0.
        254    2    1    2    0    0 -0.19206605414E+03 -0.36566859741E+03  0.24224094483E+02  0.98713829847E+03  0.89624344978E+03 0.  0.
         23    2    4    4    0    0 -0.81334236993E+02 -0.50883721613E+03 -0.30121849701E+03  0.60362169986E+03  0.89977791604E+02 0.  0.
         23    2    4    4    0    0 -0.11073181715E+03  0.14316861872E+03  0.32544259149E+03  0.38351659861E+03  0.91724109889E+02 0.  0.
          1    1    3    3  502    0  0.55937232355E+01  0.46128990870E+02 -0.20031487924E+01  0.46510064969E+02  0.00000000000E+00 0. -1.
         -2    1    3    3    0  502  0.18647233091E+03  0.31953960654E+03  0.14256695906E+03  0.39648811855E+03  0.00000000000E+00 0.  1.
         13    1    5    5    0    0  0.17735352149E+02 -0.42794874566E+02 -0.20898826814E+02  0.50820320416E+02  0.00000000000E+00 0. -1.
        -13    1    5    5    0    0 -0.99069589142E+02 -0.46604234156E+03 -0.28031967020E+03  0.55280137945E+03  0.00000000000E+00 0.  1.
          1    1    6    6  503    0  0.15512169246E+02  0.15577587644E+02  0.51650981451E+02  0.56134771011E+02  0.00000000000E+00 0. -1.
         -1    1    6    6    0  503 -0.12624398639E+03  0.12759103107E+03  0.27379161004E+03  0.32738182760E+03  0.00000000000E+00 0.  1.
<mgrwt>
<rscale>  0 0.14206109E+04</rscale>
<asrwt>0</asrwt>
<pdfrwt beam="1">  1        1 0.97334506E-01 0.14206109E+04</pdfrwt>
<pdfrwt beam="2">  1       -2 0.12268649E+00 0.14206109E+04</pdfrwt>
<totfact> 0.13566880E+01</totfact>
</mgrwt>
</event>
<event>
12    5  0.5428626E-008  0.2487599E+04  0.7818608E-02  0.8407417E-01
          1   -1    0    0  501    0  0.00000000000E+00  0.00000000000E+00  0.10858116837E+04  0.10858116837E+04  0.00000000000E+00 0. -1.
         -2   -1    0    0    0  501 -0.00000000000E+00 -0.00000000000E+00 -0.14247745912E+04  0.14247745912E+04  0.00000000000E+00 0.  1.
        -24    2    1    2    0    0  0.62715724210E+03 -0.80348976825E+03 -0.50134937221E+03  0.11387220033E+04  0.80091158946E+02 0.  0.
        254    2    1    2    0    0 -0.62715724210E+03  0.80348976825E+03  0.16238646471E+03  0.13718642716E+04  0.90372573373E+03 0.  0.
         23    2    4    4    0    0 -0.25461538104E+03  0.81535949906E+03  0.36984952130E+03  0.93545637488E+03  0.93004601677E+02 0.  0.
         23    2    4    4    0    0 -0.37254186106E+03 -0.11869730804E+02 -0.20746305660E+03  0.43640789674E+03  0.92101051734E+02 0.  0.
          1    1    3    3  502    0  0.24371994447E+03 -0.25990214303E+03 -0.15219376194E+03  0.38744222339E+03  0.00000000000E+00 0. -1.
         -2    1    3    3    0  502  0.38343729763E+03 -0.54358762522E+03 -0.34915561027E+03  0.75127977990E+03  0.00000000000E+00 0.  1.
         13    1    5    5    0    0 -0.25433497631E+03  0.81620051949E+03  0.36338928909E+03  0.92893559713E+03  0.00000000000E+00 0.  1.
        -13    1    5    5    0    0 -0.28040472854E+00 -0.84102043484E+00  0.64602322157E+01  0.65207777500E+01  0.00000000000E+00 0. -1.
          4    1    6    6  503    0 -0.56085041659E+02 -0.26888738145E+02 -0.97337683389E+01  0.62954605732E+02  0.00000000000E+00 0. -1.
         -4    1    6    6    0  503 -0.31645681940E+03  0.15019007341E+02 -0.19772928826E+03  0.37345329100E+03  0.00000000000E+00 0.  1.
<mgrwt>
<rscale>  0 0.24875988E+04</rscale>
<asrwt>0</asrwt>
<pdfrwt beam="1">  1        1 0.16704795E+00 0.24875988E+04</pdfrwt>
<pdfrwt beam="2">  1       -2 0.21919609E+00 0.24875988E+04</pdfrwt>
<totfact> 0.10138100E+00</totfact>
</mgrwt>
</event>
<event>
12    5  0.5428626E-008  0.9995639E+03  0.7818608E-02  0.9309023E-01
          1   -1    0    0  501    0  0.00000000000E+00  0.00000000000E+00  0.61253647605E+03  0.61253647605E+03  0.00000000000E+00 0. -1.
         -2   -1    0    0    0  501 -0.00000000000E+00 -0.00000000000E+00 -0.40778303801E+03  0.40778303801E+03  0.00000000000E+00 0.  1.
        -24    2    1    2    0    0  0.63347317107E+02  0.19618923232E+02  0.39481287961E+02  0.10964168466E+03  0.77876454606E+02 0.  0.
        254    2    1    2    0    0 -0.63347317107E+02 -0.19618923232E+02  0.16527215008E+03  0.91067782940E+03  0.89309654609E+03 0.  0.
         23    2    4    4    0    0  0.35538688863E+03 -0.99078194799E+02 -0.11113973093E+03  0.39543124261E+03  0.88867871290E+02 0.  0.
         23    2    4    4    0    0 -0.41873420574E+03  0.79459271567E+02  0.27641188101E+03  0.51524658678E+03  0.86159191820E+02 0.  0.
          1    1    3    3  502    0  0.65502452143E+02  0.37588284507E+02  0.48159961141E+02  0.89570264185E+02  0.00000000000E+00 0. -1.
         -4    1    3    3    0  502 -0.21551350358E+01 -0.17969361275E+02 -0.86786731800E+01  0.20071420473E+02  0.00000000000E+00 0.  1.
         13    1    5    5    0    0  0.21979912299E+02 -0.17493414901E+02  0.12299552535E+02  0.30666188256E+02  0.00000000000E+00 0. -1.
        -13    1    5    5    0    0  0.33340697633E+03 -0.81584779899E+02 -0.12343928347E+03  0.36476505436E+03  0.00000000000E+00 0.  1.
          1    1    6    6  503    0 -0.19696767977E+03  0.50266146351E+02  0.83106976494E+02  0.21961266331E+03  0.00000000000E+00 0. -1.
         -1    1    6    6    0  503 -0.22176652597E+03  0.29193125216E+02  0.19330490452E+03  0.29563392348E+03  0.00000000000E+00 0.  1.
<mgrwt>
<rscale>  0 0.99956388E+03</rscale>
<asrwt>0</asrwt>
<pdfrwt beam="1">  1        1 0.94236381E-01 0.99956388E+03</pdfrwt>
<pdfrwt beam="2">  1       -2 0.62735852E-01 0.99956388E+03</pdfrwt>
<totfact> 0.68748944E+01</totfact>
</mgrwt>
</event>
<event>
12    5  0.5428626E-008  0.2490408E+04  0.7818608E-02  0.8406411E-01
          1   -1    0    0  501    0  0.00000000000E+00  0.00000000000E+00  0.22144058520E+04  0.22144058520E+04  0.00000000000E+00 0. -1.
         -2   -1    0    0    0  501 -0.00000000000E+00 -0.00000000000E+00 -0.70020245060E+03  0.70020245060E+03  0.00000000000E+00 0.  1.
        -24    2    1    2    0    0  0.77224142557E+03  0.63986707093E+03  0.18661368153E+03  0.10234045046E+04  0.82130542443E+02 0.  0.
        254    2    1    2    0    0 -0.77224142557E+03 -0.63986707093E+03  0.13275897198E+04  0.18912037980E+04  0.89909435185E+03 0.  0.
         23    2    4    4    0    0  0.19459598048E+03 -0.10703804816E+03  0.23767543632E+03  0.33728242873E+03  0.89135202502E+02 0.  0.
         23    2    4    4    0    0 -0.96683740605E+03 -0.53282902277E+03  0.10899142835E+04  0.15539213693E+04  0.89872905983E+02 0.  0.
          1    1    3    3  502    0  0.19098995062E+03  0.18806649098E+03  0.21337794526E+02  0.26888932248E+03  0.00000000000E+00 0. -1.
         -2    1    3    3    0  502  0.58125147495E+03  0.45180057995E+03  0.16527588701E+03  0.75451518209E+03  0.00000000000E+00 0.  1.
         13    1    5    5    0    0  0.16256360703E+03 -0.12268269867E+03  0.20262639486E+03  0.28728979581E+03  0.00000000000E+00 0. -1.
        -13    1    5    5    0    0  0.32032373444E+02  0.15644650512E+02  0.35049041465E+02  0.49992632915E+02  0.00000000000E+00 0.  1.
          3    1    6    6  503    0 -0.91516823393E+03 -0.49299452952E+03  0.99662896755E+03  0.14400853452E+04  0.00000000000E+00 0. -1.
         -3    1    6    6    0  503 -0.51669172121E+02 -0.39834493252E+02  0.93285315950E+02  0.11383602405E+03  0.00000000000E+00 0.  1.
<mgrwt>
<rscale>  0 0.24904075E+04</rscale>
<asrwt>0</asrwt>
<pdfrwt beam="1">  1        1 0.34067782E+00 0.24904075E+04</pdfrwt>
<pdfrwt beam="2">  1       -2 0.10772346E+00 0.24904075E+04</pdfrwt>
<totfact> 0.11501411E+00</totfact>
</mgrwt>
</event>
<event>
12    5  0.5428626E-008  0.1759907E+04  0.7818608E-02  0.8727916E-01
          1   -1    0    0  501    0  0.00000000000E+00  0.00000000000E+00  0.13659031823E+04  0.13659031823E+04  0.00000000000E+00 0. -1.
         -2   -1    0    0    0  501 -0.00000000000E+00 -0.00000000000E+00 -0.56689065437E+03  0.56689065437E+03  0.00000000000E+00 0.  1.
        -24    2    1    2    0    0 -0.10258918127E+03  0.10348489707E+03  0.98946206637E+03  0.10033337321E+04  0.80060809134E+02 0.  0.
        254    2    1    2    0    0  0.10258918127E+03 -0.10348489707E+03 -0.19044953848E+03  0.92946010453E+03  0.89799298169E+03 0.  0.
         23    2    4    4    0    0  0.53859881859E+02  0.30191976845E+03 -0.35631172469E+03  0.47874436428E+03  0.90452682259E+02 0.  0.
         23    2    4    4    0    0  0.48729299407E+02 -0.40540466552E+03  0.16586218621E+03  0.45071574024E+03  0.94376513196E+02 0.  0.
          3    1    3    3  502    0 -0.81226940886E+02  0.49755536933E+02  0.40650117395E+03  0.41751243551E+03  0.00000000000E+00 0. -1.
         -4    1    3    3    0  502 -0.21362240380E+02  0.53729360134E+02  0.58296089242E+03  0.58582129660E+03  0.00000000000E+00 0.  1.
         13    1    5    5    0    0  0.54674804786E+02  0.11490232947E+03 -0.18877420910E+03  0.22765671881E+03  0.00000000000E+00 0. -1.
        -13    1    5    5    0    0 -0.81492292694E+00  0.18701743898E+03 -0.16753751559E+03  0.25108764548E+03  0.00000000000E+00 0.  1.
          1    1    6    6  503    0 -0.20847018383E+02 -0.93044602887E+02  0.64163064077E+02  0.11492952229E+03  0.00000000000E+00 0. -1.
         -1    1    6    6    0  503  0.69576317790E+02 -0.31236006263E+03  0.10169912213E+03  0.33578621795E+03  0.00000000000E+00 0.  1.
<mgrwt>
<rscale>  0 0.17599065E+04</rscale>
<asrwt>0</asrwt>
<pdfrwt beam="1">  1        1 0.21013895E+00 0.17599065E+04</pdfrwt>
<pdfrwt beam="2">  1       -2 0.87213947E-01 0.17599065E+04</pdfrwt>
<totfact> 0.76639239E+00</totfact>
</mgrwt>
</event>
<event>
12    5  0.5428626E-008  0.2187779E+04  0.7818608E-02  0.8523532E-01
         -2   -1    0    0    0  501 -0.00000000000E+00  0.00000000000E+00  0.11363535154E+04  0.11363535154E+04  0.00000000000E+00 0.  1.
          1   -1    0    0  501    0  0.00000000000E+00 -0.00000000000E+00 -0.10530124547E+04  0.10530124547E+04  0.00000000000E+00 0. -1.
        -24    2    1    2    0    0 -0.11202804968E+03 -0.75292339772E+03  0.53184858166E+03  0.93203055422E+03  0.79838045113E+02 0.  0.
        254    2    1    2    0    0  0.11202804968E+03  0.75292339772E+03 -0.44850752094E+03  0.12573354159E+04  0.89458896981E+03 0.  0.
         23    2    4    4    0    0  0.78821312225E+02  0.90490403525E+03 -0.53430038322E+03  0.10570195005E+04  0.82153591944E+02 0.  0.
         23    2    4    4    0    0  0.33206737450E+02 -0.15198063754E+03  0.85792862283E+02  0.20031591535E+03  0.92548631140E+02 0.  0.
          1    1    3    3  502    0 -0.24590751041E+02 -0.49588939283E+02  0.53362987154E+02  0.76885475442E+02  0.00000000000E+00 0. -1.
         -2    1    3    3    0  502 -0.87437298634E+02 -0.70333445843E+03  0.47848559451E+03  0.85514507878E+03  0.00000000000E+00 0.  1.
         13    1    5    5    0    0  0.45042575860E+02  0.75134323771E+03 -0.46840478226E+03  0.88653738473E+03  0.00000000000E+00 0.  1.
        -13    1    5    5    0    0  0.33778736365E+02  0.15356079754E+03 -0.65895600968E+02  0.17048211578E+03  0.00000000000E+00 0. -1.
          4    1    6    6  503    0 -0.22546191656E+02 -0.98558965993E+02  0.31410470602E+02  0.10587170632E+03  0.00000000000E+00 0. -1.
         -4    1    6    6    0  503  0.55752929106E+02 -0.53421671545E+02  0.54382391681E+02  0.94444209031E+02  0.00000000000E+00 0.  1.
<mgrwt>
<rscale>  0 0.21877792E+04</rscale>
<asrwt>0</asrwt>
<pdfrwt beam="1">  1        1 0.16200192E+00 0.21877792E+04</pdfrwt>
<pdfrwt beam="2">  1       -2 0.17482362E+00 0.21877792E+04</pdfrwt>
<totfact> 0.21706707E+00</totfact>
</mgrwt>
</event>
<event>
12    5  0.5428626E-008  0.3087780E+04  0.7818608E-02  0.8219100E-01
          1   -1    0    0  501    0  0.00000000000E+00  0.00000000000E+00  0.18574979047E+04  0.18574979047E+04  0.00000000000E+00 0. -1.
         -2   -1    0    0    0  501 -0.00000000000E+00 -0.00000000000E+00 -0.12832293580E+04  0.12832293580E+04  0.00000000000E+00 0.  1.
        -24    2    1    2    0    0  0.53052425436E+03  0.94134450262E+03 -0.66132190382E+03  0.12695228098E+04  0.82195176469E+02 0.  0.
        254    2    1    2    0    0 -0.53052425436E+03 -0.94134450262E+03  0.12355904505E+04  0.18712044529E+04  0.89840797316E+03 0.  0.
         23    2    4    4    0    0 -0.28757107614E+03  0.10650615052E+03  0.20276887023E+03  0.37706394537E+03  0.83793318575E+02 0.  0.
         23    2    4    4    0    0 -0.24295317822E+03 -0.10478506531E+04  0.10328215802E+04  0.14941405075E+04  0.93371310194E+02 0.  0.
          1    1    3    3  502    0  0.72513007755E+02  0.15998681746E+03 -0.77720028486E+02  0.19207894440E+03  0.00000000000E+00 0. -1.
         -2    1    3    3    0  502  0.45801124660E+03  0.78135768516E+03 -0.58360187533E+03  0.10774438654E+04  0.00000000000E+00 0.  1.
         13    1    5    5    0    0 -0.21432772884E+02 -0.13724639473E+02  0.21729495065E+02  0.33464913535E+02  0.00000000000E+00 0. -1.
        -13    1    5    5    0    0 -0.26613830325E+03  0.12023078999E+03  0.18103937516E+03  0.34359903184E+03  0.00000000000E+00 0.  1.
          1    1    6    6  503    0 -0.12772325412E+03 -0.35637317788E+03  0.37236491042E+03  0.53100913181E+03  0.00000000000E+00 0. -1.
         -1    1    6    6    0  503 -0.11522992409E+03 -0.69147747526E+03  0.66045666982E+03  0.96313137573E+03  0.00000000000E+00 0.  1.
<mgrwt>
<rscale>  0 0.30877797E+04</rscale>
<asrwt>0</asrwt>
<pdfrwt beam="1">  1        1 0.28576891E+00 0.30877797E+04</pdfrwt>
<pdfrwt beam="2">  1       -2 0.19741990E+00 0.30877797E+04</pdfrwt>
<totfact> 0.38238058E-01</totfact>
</mgrwt>
</event>
<event>
12    5  0.5428626E-008  0.2235693E+04  0.7818608E-02  0.8503717E-01
         -2   -1    0    0    0  501 -0.00000000000E+00  0.00000000000E+00  0.70972527760E+03  0.70972527760E+03  0.00000000000E+00 0.  1.
          1   -1    0    0  501    0  0.00000000000E+00 -0.00000000000E+00 -0.17606544142E+04  0.17606544142E+04  0.00000000000E+00 0. -1.
        -24    2    1    2    0    0  0.12744525513E+03  0.19120740573E+03 -0.14450060056E+04  0.14654519064E+04  0.81880210409E+02 0.  0.
        254    2    1    2    0    0 -0.12744525513E+03 -0.19120740573E+03  0.39407686892E+03  0.10049277854E+04  0.89542208496E+03 0.  0.
         23    2    4    4    0    0 -0.40737138416E+03 -0.36269108199E+03  0.11670221416E+03  0.56530138639E+03  0.91923800433E+02 0.  0.
         23    2    4    4    0    0  0.27992612903E+03  0.17148367626E+03  0.27737465477E+03  0.43962639903E+03  0.92570960230E+02 0.  0.
          3    1    3    3  502    0  0.13180830810E+03  0.16409005768E+03 -0.13579999209E+04  0.13742135068E+04  0.00000000000E+00 0. -1.
         -4    1    3    3    0  502 -0.43630529702E+01  0.27117348043E+02 -0.87006084633E+02  0.91238399587E+02  0.00000000000E+00 0.  1.
         13    1    5    5    0    0 -0.40029481049E+03 -0.32844378500E+03  0.11421856219E+03  0.53024252485E+03  0.00000000000E+00 0.  1.
        -13    1    5    5    0    0 -0.70765736744E+01 -0.34247296990E+02  0.24836519619E+01  0.35058861550E+02  0.00000000000E+00 0. -1.
          1    1    6    6  503    0  0.13045239026E+03  0.29283685195E+02  0.92246448514E+02  0.16243388688E+03  0.00000000000E+00 0. -1.
         -1    1    6    6    0  503  0.14947373877E+03  0.14219999107E+03  0.18512820625E+03  0.27719251215E+03  0.00000000000E+00 0.  1.
<mgrwt>
<rscale>  0 0.22356931E+04</rscale>
<asrwt>0</asrwt>
<pdfrwt beam="1">  1        1 0.27086991E+00 0.22356931E+04</pdfrwt>
<pdfrwt beam="2">  1       -2 0.10918851E+00 0.22356931E+04</pdfrwt>
<totfact> 0.23136473E+00</totfact>
</mgrwt>
</event>
<event>
12    5  0.5428626E-008  0.2202597E+04  0.7818608E-02  0.8517348E-01
          1   -1    0    0  501    0  0.00000000000E+00  0.00000000000E+00  0.29533786044E+04  0.29533786044E+04  0.00000000000E+00 0. -1.
         -2   -1    0    0    0  501 -0.00000000000E+00 -0.00000000000E+00 -0.41066819026E+03  0.41066819026E+03  0.00000000000E+00 0.  1.
        -24    2    1    2    0    0  0.17973361700E+03 -0.48495058453E+03 -0.93240826751E+02  0.53113998612E+03  0.77036293846E+02 0.  0.
        254    2    1    2    0    0 -0.17973361700E+03  0.48495058453E+03  0.26359512409E+04  0.28329068086E+04  0.89980042177E+03 0.  0.
         23    2    4    4    0    0 -0.52744629138E+03  0.25795250264E+03  0.17825322577E+04  0.18790165005E+04  0.92426596349E+02 0.  0.
         23    2    4    4    0    0  0.34771267438E+03  0.22699808189E+03  0.85341898323E+03  0.95389030802E+03  0.95658380182E+02 0.  0.
          3    1    3    3  502    0  0.18579695652E+02 -0.10215312501E+02 -0.76691814489E+01  0.22547151575E+02  0.00000000000E+00 0. -1.
         -4    1    3    3    0  502  0.16115392135E+03 -0.47473527203E+03 -0.85571645302E+02  0.50859283455E+03  0.00000000000E+00 0.  1.
         13    1    5    5    0    0 -0.15834366185E+03  0.38379230750E+02  0.56123751433E+03  0.58440844287E+03  0.00000000000E+00 0.  1.
        -13    1    5    5    0    0 -0.36910262953E+03  0.21957327189E+03  0.12212947433E+04  0.12946080577E+04  0.00000000000E+00 0. -1.
          1    1    6    6  503    0  0.28121261384E+03  0.14133333730E+03  0.58284734525E+03  0.66239465145E+03  0.00000000000E+00 0. -1.
         -1    1    6    6    0  503  0.66500060536E+02  0.85664744590E+02  0.27057163798E+03  0.29149565656E+03  0.00000000000E+00 0.  1.
<mgrwt>
<rscale>  0 0.22025972E+04</rscale>
<asrwt>0</asrwt>
<pdfrwt beam="1">  1        1 0.45436593E+00 0.22025972E+04</pdfrwt>
<pdfrwt beam="2">  1       -2 0.63179723E-01 0.22025972E+04</pdfrwt>
<totfact> 0.12023692E+00</totfact>
</mgrwt>
</event>
<event>
12    5  0.5428626E-008  0.1908252E+04  0.7818608E-02  0.8650760E-01
          1   -1    0    0  501    0  0.00000000000E+00  0.00000000000E+00  0.84961832364E+03  0.84961832364E+03  0.00000000000E+00 0. -1.
         -2   -1    0    0    0  501 -0.00000000000E+00 -0.00000000000E+00 -0.10714886757E+04  0.10714886757E+04  0.00000000000E+00 0.  1.
        -24    2    1    2    0    0 -0.67878698357E+03  0.26376529823E+03  0.60228887048E+02  0.73529050602E+03  0.81857851118E+02 0.  0.
        254    2    1    2    0    0  0.67878698357E+03 -0.26376529823E+03 -0.28209923911E+03  0.11858164933E+04  0.89233226633E+03 0.  0.
         23    2    4    4    0    0  0.22965315012E+03 -0.31471099991E+03 -0.52876247487E+03  0.66296498547E+03  0.90273109537E+02 0.  0.
         23    2    4    4    0    0  0.44913383345E+03  0.50945701681E+02  0.24666323576E+03  0.52285150786E+03  0.90632679081E+02 0.  0.
          3    1    3    3  502    0 -0.64249819005E+03  0.24403302639E+03  0.75135468458E+02  0.69137643929E+03  0.00000000000E+00 0. -1.
         -4    1    3    3    0  502 -0.36288793523E+02  0.19732271840E+02 -0.14906581410E+02  0.43914066729E+02  0.00000000000E+00 0.  1.
         13    1    5    5    0    0  0.89334060608E+02 -0.58719220238E+02 -0.16402865568E+03  0.19579050308E+03  0.00000000000E+00 0.  1.
        -13    1    5    5    0    0  0.14031908951E+03 -0.25599177967E+03 -0.36473381919E+03  0.46717448240E+03  0.00000000000E+00 0. -1.
          2    1    6    6  503    0  0.39922208790E+03  0.67849522456E+02  0.23722630080E+03  0.46931668514E+03  0.00000000000E+00 0. -1.
         -2    1    6    6    0  503  0.49911745557E+02 -0.16903820775E+02  0.94369349601E+01  0.53534822712E+02  0.00000000000E+00 0.  1.
<mgrwt>
<rscale>  0 0.19082520E+04</rscale>
<asrwt>0</asrwt>
<pdfrwt beam="1">  1        1 0.13071051E+00 0.19082520E+04</pdfrwt>
<pdfrwt beam="2">  1       -2 0.16484441E+00 0.19082520E+04</pdfrwt>
<totfact> 0.38100270E+00</totfact>
</mgrwt>
</event>
<event>
12    5  0.5428626E-008  0.1399812E+04  0.7818608E-02  0.8953955E-01
          1   -1    0    0  501    0  0.00000000000E+00  0.00000000000E+00  0.10566869660E+04  0.10566869660E+04  0.00000000000E+00 0. -1.
         -2   -1    0    0    0  501 -0.00000000000E+00 -0.00000000000E+00 -0.46358904299E+03  0.46358904299E+03  0.00000000000E+00 0.  1.
        -24    2    1    2    0    0  0.16848687776E+03  0.60306157362E+02  0.56408775296E+03  0.59895263582E+03  0.92328794668E+02 0.  0.
        254    2    1    2    0    0 -0.16848687776E+03 -0.60306157362E+02  0.29010170039E+02  0.92132337316E+03  0.90331085866E+03 0.  0.
         23    2    4    4    0    0  0.84437339736E+02 -0.35410370854E+03  0.26350471288E+03  0.45879459017E+03  0.92404769975E+02 0.  0.
         23    2    4    4    0    0 -0.25292421749E+03  0.29379755118E+03 -0.23449454284E+03  0.46252878299E+03  0.93045814501E+02 0.  0.
          3    1    3    3  502    0  0.85424081362E+02  0.35445438531E+02  0.42582697569E+03  0.43575482329E+03  0.00000000000E+00 0. -1.
         -4    1    3    3    0  502  0.83062796393E+02  0.24860718831E+02  0.13826077727E+03  0.16319781254E+03  0.00000000000E+00 0.  1.
         13    1    5    5    0    0  0.97719496388E+02 -0.32393460755E+03  0.21761293014E+03  0.40229108529E+03  0.00000000000E+00 0. -1.
        -13    1    5    5    0    0 -0.13282156651E+02 -0.30169100990E+02  0.45891782746E+02  0.56503504878E+02  0.00000000000E+00 0.  1.
          2    1    6    6  503    0 -0.24786014142E+03  0.27632546180E+03 -0.24170805384E+03  0.44295958488E+03  0.00000000000E+00 0. -1.
         -2    1    6    6    0  503 -0.50640760733E+01  0.17472089377E+02  0.72135109991E+01  0.19569198108E+02  0.00000000000E+00 0.  1.
<mgrwt>
<rscale>  0 0.13998121E+04</rscale>
<asrwt>0</asrwt>
<pdfrwt beam="1">  1        1 0.16256722E+00 0.13998121E+04</pdfrwt>
<pdfrwt beam="2">  1       -2 0.71321391E-01 0.13998121E+04</pdfrwt>
<totfact> 0.20864395E+01</totfact>
</mgrwt>
</event>
<event>
12    5  0.5428626E-008  0.1291381E+04  0.7818608E-02  0.9036428E-01
          1   -1    0    0  501    0  0.00000000000E+00  0.00000000000E+00  0.61318998882E+03  0.61318998882E+03  0.00000000000E+00 0. -1.
         -2   -1    0    0    0  501 -0.00000000000E+00 -0.00000000000E+00 -0.67991384655E+03  0.67991384655E+03  0.00000000000E+00 0.  1.
        -24    2    1    2    0    0 -0.15031100588E+03 -0.39363692079E+02 -0.27122795104E+03  0.32245392787E+03  0.79177240592E+02 0.  0.
        254    2    1    2    0    0  0.15031100588E+03  0.39363692079E+02  0.20450409331E+03  0.97064990751E+03  0.93605364164E+03 0.  0.
         23    2    4    4    0    0  0.18039889868E+03 -0.33240530473E+03  0.38316430883E+03  0.54606172618E+03  0.91276897321E+02 0.  0.
         23    2    4    4    0    0 -0.30087892798E+02  0.37176899681E+03 -0.17866021552E+03  0.42458818132E+03  0.96115466132E+02 0.  0.
          3    1    3    3  502    0 -0.50045492919E+01  0.15327735081E+02 -0.47258055996E+02  0.49933043497E+02  0.00000000000E+00 0. -1.
         -4    1    3    3    0  502 -0.14530645659E+03 -0.54691427160E+02 -0.22396989504E+03  0.27252088437E+03  0.00000000000E+00 0.  1.
         13    1    5    5    0    0  0.40916267369E+02 -0.16613306885E+03  0.18779350868E+03  0.25404869495E+03  0.00000000000E+00 0.  1.
        -13    1    5    5    0    0  0.13948263131E+03 -0.16627223587E+03  0.19537080014E+03  0.29201303123E+03  0.00000000000E+00 0. -1.
          3    1    6    6  503    0 -0.18244241342E+02  0.23670591559E+03 -0.61118016910E+02  0.24514884215E+03  0.00000000000E+00 0. -1.
         -3    1    6    6    0  503 -0.11843651456E+02  0.13506308121E+03 -0.11754219861E+03  0.17943933917E+03  0.00000000000E+00 0.  1.
<mgrwt>
<rscale>  0 0.12913812E+04</rscale>
<asrwt>0</asrwt>
<pdfrwt beam="1">  1        1 0.94336922E-01 0.12913812E+04</pdfrwt>
<pdfrwt beam="2">  1       -2 0.10460213E+00 0.12913812E+04</pdfrwt>
<totfact> 0.21181523E+01</totfact>
</mgrwt>
</event>
<event>
12    5  0.5428626E-008  0.1413656E+04  0.7818608E-02  0.8943993E-01
         -2   -1    0    0    0  501 -0.00000000000E+00  0.00000000000E+00  0.49345071860E+03  0.49345071860E+03  0.00000000000E+00 0.  1.
          1   -1    0    0  501    0  0.00000000000E+00 -0.00000000000E+00 -0.10124733933E+04  0.10124733933E+04  0.00000000000E+00 0. -1.
        -24    2    1    2    0    0 -0.39891439569E+03 -0.13298010256E+02 -0.13496085099E+03  0.42856086193E+03  0.78361016510E+02 0.  0.
        254    2    1    2    0    0  0.39891439569E+03  0.13298010256E+02 -0.38406182372E+03  0.10773632500E+04  0.92406631569E+03 0.  0.
         23    2    4    4    0    0  0.48789874751E+03  0.35849060528E+03 -0.35578808757E+03  0.70791827239E+03  0.89456219658E+02 0.  0.
         23    2    4    4    0    0 -0.88984351812E+02 -0.34519259502E+03 -0.28273736155E+02  0.36944497759E+03  0.92811878465E+02 0.  0.
          1    1    3    3  502    0 -0.20079614230E+03 -0.15442288738E+02 -0.10824995499E+03  0.22863859648E+03  0.00000000000E+00 0. -1.
         -2    1    3    3    0  502 -0.19811825339E+03  0.21442784814E+01 -0.26710895998E+02  0.19992226545E+03  0.00000000000E+00 0.  1.
         13    1    5    5    0    0  0.15802118316E+03  0.82317138700E+02 -0.70048310472E+02  0.19145122473E+03  0.00000000000E+00 0.  1.
        -13    1    5    5    0    0  0.32987756434E+03  0.27617346658E+03 -0.28573977709E+03  0.51646704766E+03  0.00000000000E+00 0. -1.
          2    1    6    6  503    0 -0.19215488239E+02 -0.23989910088E+03 -0.33058650130E+01  0.24069013759E+03  0.00000000000E+00 0. -1.
         -2    1    6    6    0  503 -0.69768863574E+02 -0.10529349414E+03 -0.24967871142E+02  0.12875484000E+03  0.00000000000E+00 0.  1.
<mgrwt>
<rscale>  0 0.14136559E+04</rscale>
<asrwt>0</asrwt>
<pdfrwt beam="1">  1        1 0.15576514E+00 0.14136559E+04</pdfrwt>
<pdfrwt beam="2">  1       -2 0.75915496E-01 0.14136559E+04</pdfrwt>
<totfact> 0.19638725E+01</totfact>
</mgrwt>
</event>
<event>
12    5  0.5428626E-008  0.1522896E+04  0.7818608E-02  0.8869369E-01
         -4   -1    0    0    0  501 -0.00000000000E+00  0.00000000000E+00  0.36384308518E+03  0.36384308518E+03  0.00000000000E+00 0.  1.
          3   -1    0    0  501    0  0.00000000000E+00 -0.00000000000E+00 -0.15935520396E+04  0.15935520396E+04  0.00000000000E+00 0. -1.
        -24    2    1    2    0    0  0.42116569276E+03  0.16681775386E+03 -0.15808321375E+03  0.48537971340E+03  0.73446987374E+02 0.  0.
        254    2    1    2    0    0 -0.42116569276E+03 -0.16681775386E+03 -0.10716257407E+04  0.14720154114E+04  0.90179761560E+03 0.  0.
         23    2    4    4    0    0  0.20931043754E+03  0.13712072866E+03 -0.13531282747E+03  0.29940136330E+03  0.93373773489E+02 0.  0.
         23    2    4    4    0    0 -0.63047613030E+03 -0.30393848252E+03 -0.93631291325E+03  0.11726140481E+04  0.91995012223E+02 0.  0.
          3    1    3    3  502    0  0.17139668358E+03  0.90234552301E+02 -0.99016848135E+02  0.21753949937E+03  0.00000000000E+00 0. -1.
         -4    1    3    3    0  502  0.24976900917E+03  0.76583201560E+02 -0.59066365611E+02  0.26784021403E+03  0.00000000000E+00 0.  1.
         13    1    5    5    0    0  0.18183600295E+02  0.13465656150E+02 -0.52495833113E+02  0.57164496932E+02  0.00000000000E+00 0. -1.
        -13    1    5    5    0    0  0.19112683725E+03  0.12365507251E+03 -0.82816994357E+02  0.24223686637E+03  0.00000000000E+00 0.  1.
          2    1    6    6  503    0 -0.40104816187E+03 -0.16663833530E+03 -0.64074352070E+03  0.77405440523E+03  0.00000000000E+00 0.  1.
         -2    1    6    6    0  503 -0.22942796843E+03 -0.13730014722E+03 -0.29556939255E+03  0.39855964288E+03  0.00000000000E+00 0. -1.
<mgrwt>
<rscale>  0 0.15228958E+04</rscale>
<asrwt>0</asrwt>
<pdfrwt beam="1">  1        3 0.24516185E+00 0.15228958E+04</pdfrwt>
<pdfrwt beam="2">  1       -4 0.55975859E-01 0.15228958E+04</pdfrwt>
<totfact> 0.53091664E-01</totfact>
</mgrwt>
</event>
<event>
12    5  0.5428626E-008  0.1654799E+04  0.7818608E-02  0.8787573E-01
          1   -1    0    0  501    0  0.00000000000E+00  0.00000000000E+00  0.10068884897E+04  0.10068884897E+04  0.00000000000E+00 0. -1.
         -2   -1    0    0    0  501 -0.00000000000E+00 -0.00000000000E+00 -0.67990606243E+03  0.67990606243E+03  0.00000000000E+00 0.  1.
        -24    2    1    2    0    0 -0.24230789539E+02  0.35706535374E+03 -0.34645854673E+03  0.50455676088E+03  0.80381604518E+02 0.  0.
        254    2    1    2    0    0  0.24230789539E+02 -0.35706535374E+03  0.67344097399E+03  0.11822377912E+04  0.90337182353E+03 0.  0.
         23    2    4    4    0    0 -0.21244981714E+02 -0.65167769827E+03  0.47736801443E+03  0.81413210270E+03  0.98973166901E+02 0.  0.
         23    2    4    4    0    0  0.45475771253E+02  0.29461234454E+03  0.19607295955E+03  0.36810568853E+03  0.90513607449E+02 0.  0.
          3    1    3    3  502    0 -0.25060715760E+02  0.29879481780E+02 -0.28301896952E+02  0.48185270332E+02  0.00000000000E+00 0. -1.
         -4    1    3    3    0  502  0.82992622191E+00  0.32718587196E+03 -0.31815664978E+03  0.45637149055E+03  0.00000000000E+00 0.  1.
         13    1    5    5    0    0 -0.39717445893E+02 -0.57296743203E+03  0.38533240757E+03  0.69162867060E+03  0.00000000000E+00 0. -1.
        -13    1    5    5    0    0  0.18472464179E+02 -0.78710266243E+02  0.92035606861E+02  0.12250343210E+03  0.00000000000E+00 0.  1.
          3    1    6    6  503    0  0.69863572319E+02  0.21864729991E+03  0.12559926481E+03  0.26165384731E+03  0.00000000000E+00 0. -1.
         -3    1    6    6    0  503 -0.24387801066E+02  0.75965044627E+02  0.70473694748E+02  0.10645184121E+03  0.00000000000E+00 0.  1.
<mgrwt>
<rscale>  0 0.16547986E+04</rscale>
<asrwt>0</asrwt>
<pdfrwt beam="1">  1        1 0.15490592E+00 0.16547986E+04</pdfrwt>
<pdfrwt beam="2">  1       -2 0.10460093E+00 0.16547986E+04</pdfrwt>
<totfact> 0.92837181E+00</totfact>
</mgrwt>
</event>
<event>
12    5  0.5428626E-008  0.2403517E+04  0.7818608E-02  0.8438188E-01
         -2   -1    0    0    0  501 -0.00000000000E+00  0.00000000000E+00  0.17566189949E+04  0.17566189949E+04  0.00000000000E+00 0.  1.
          1   -1    0    0  501    0  0.00000000000E+00 -0.00000000000E+00 -0.82216092597E+03  0.82216092597E+03  0.00000000000E+00 0. -1.
        -24    2    1    2    0    0  0.89642635688E+03 -0.17484167618E+03  0.91594108510E+03  0.12959816058E+04  0.80438959956E+02 0.  0.
        254    2    1    2    0    0 -0.89642635688E+03  0.17484167618E+03  0.18516983868E+02  0.12827983151E+04  0.90059914136E+03 0.  0.
         23    2    4    4    0    0 -0.82043971984E+03 -0.14806151465E+02  0.33843622879E+03  0.89246755837E+03  0.92836984917E+02 0.  0.
         23    2    4    4    0    0 -0.75986637038E+02  0.18964782764E+03 -0.31991924492E+03  0.39033075670E+03  0.90936839729E+02 0.  0.
          1    1    3    3  502    0  0.65533578624E+03 -0.10537429935E+03  0.62363321155E+03  0.91076183398E+03  0.00000000000E+00 0. -1.
         -2    1    3    3    0  502  0.24109057063E+03 -0.69467376827E+02  0.29230787355E+03  0.38521977186E+03  0.00000000000E+00 0.  1.
         13    1    5    5    0    0 -0.45837169474E+03  0.36339126746E+02  0.17586071814E+03  0.49229273289E+03  0.00000000000E+00 0.  1.
        -13    1    5    5    0    0 -0.36206802510E+03 -0.51145278210E+02  0.16257551065E+03  0.40017482548E+03  0.00000000000E+00 0. -1.
          3    1    6    6  503    0 -0.41113583578E+02  0.67063134726E+02 -0.53899961734E+02  0.95357205647E+02  0.00000000000E+00 0. -1.
         -3    1    6    6    0  503 -0.34873053460E+02  0.12258469291E+03 -0.26601928319E+03  0.29497355106E+03  0.00000000000E+00 0.  1.
<mgrwt>
<rscale>  0 0.24035170E+04</rscale>
<asrwt>0</asrwt>
<pdfrwt beam="1">  1        1 0.12648630E+00 0.24035170E+04</pdfrwt>
<pdfrwt beam="2">  1       -2 0.27024908E+00 0.24035170E+04</pdfrwt>
<totfact> 0.80236570E-01</totfact>
</mgrwt>
</event>
<event>
12    5  0.5428626E-008  0.1612761E+04  0.7818608E-02  0.8812746E-01
          3   -1    0    0  501    0  0.00000000000E+00  0.00000000000E+00  0.13087708245E+04  0.13087708245E+04  0.00000000000E+00 0. -1.
         -4   -1    0    0    0  501 -0.00000000000E+00 -0.00000000000E+00 -0.49683997042E+03  0.49683997042E+03  0.00000000000E+00 0.  1.
        -24    2    1    2    0    0 -0.25137007537E+03 -0.48426689326E+03  0.19450875249E+03  0.58572100901E+03  0.86799233320E+02 0.  0.
        254    2    1    2    0    0  0.25137007537E+03  0.48426689326E+03  0.61742210160E+03  0.12198897859E+04  0.89956639530E+03 0.  0.
         23    2    4    4    0    0 -0.63015691571E+02  0.41378241983E+03 -0.89735375930E+02  0.43732277919E+03  0.89509257406E+02 0.  0.
         23    2    4    4    0    0  0.31438576694E+03  0.70484473429E+02  0.70715747753E+03  0.78256700673E+03  0.92373971130E+02 0.  0.
          3    1    3    3  502    0 -0.89216947429E+02 -0.14475086636E+03  0.20792624486E+02  0.17130326982E+03  0.00000000000E+00 0. -1.
         -4    1    3    3    0  502 -0.16215312794E+03 -0.33951602690E+03  0.17371612801E+03  0.41441773919E+03  0.00000000000E+00 0.  1.
         13    1    5    5    0    0  0.12092372671E+02  0.37263455215E+02  0.10417383700E+02  0.40537790449E+02  0.00000000000E+00 0. -1.
        -13    1    5    5    0    0 -0.75108064242E+02  0.37651896461E+03 -0.10015275963E+03  0.39678498874E+03  0.00000000000E+00 0.  1.
          2    1    6    6  503    0  0.40521883554E+02  0.44177547368E+02  0.13394010214E+03  0.14674341450E+03  0.00000000000E+00 0. -1.
         -2    1    6    6    0  503  0.27386388338E+03  0.26306926061E+02  0.57321737539E+03  0.63582359223E+03  0.00000000000E+00 0.  1.
<mgrwt>
<rscale>  0 0.16127612E+04</rscale>
<asrwt>0</asrwt>
<pdfrwt beam="1">  1        3 0.20134936E+00 0.16127612E+04</pdfrwt>
<pdfrwt beam="2">  1       -4 0.76436919E-01 0.16127612E+04</pdfrwt>
<totfact> 0.48796613E-01</totfact>
</mgrwt>
</event>
<event>
12    5  0.5428626E-008  0.1651974E+04  0.7818608E-02  0.8789240E-01
         -2   -1    0    0    0  501 -0.00000000000E+00  0.00000000000E+00  0.33097009081E+03  0.33097009081E+03  0.00000000000E+00 0.  1.
          1   -1    0    0  501    0  0.00000000000E+00 -0.00000000000E+00 -0.20613779866E+04  0.20613779866E+04  0.00000000000E+00 0. -1.
        -24    2    1    2    0    0 -0.16537758265E+03  0.37645557680E+03 -0.25411653554E+02  0.41960177396E+03  0.79695360138E+02 0.  0.
        254    2    1    2    0    0  0.16537758265E+03 -0.37645557680E+03 -0.17049962422E+04  0.19727463034E+04  0.90313190927E+03 0.  0.
         23    2    4    4    0    0  0.78172284035E+02 -0.64799223410E+03 -0.91397890157E+03  0.11268072788E+04  0.91281814022E+02 0.  0.
         23    2    4    4    0    0  0.87205298616E+02  0.27153665730E+03 -0.79101734062E+03  0.84593902461E+03  0.92560681929E+02 0.  0.
          1    1    3    3  502    0 -0.60609780056E+02  0.98911891565E+02 -0.39669213595E+02  0.12259997650E+03  0.00000000000E+00 0. -1.
         -2    1    3    3    0  502 -0.10476780259E+03  0.27754368524E+03  0.14257560042E+02  0.29700179746E+03  0.00000000000E+00 0.  1.
         13    1    5    5    0    0  0.68774265968E+02 -0.61141060659E+03 -0.81721693565E+03  0.10229351638E+04  0.00000000000E+00 0. -1.
        -13    1    5    5    0    0  0.93980180673E+01 -0.36581627510E+02 -0.96761965922E+02  0.10387211495E+03  0.00000000000E+00 0.  1.
          1    1    6    6  503    0  0.60063119310E+02  0.25007187226E+03 -0.74646075330E+03  0.78952338523E+03  0.00000000000E+00 0. -1.
         -1    1    6    6    0  503  0.27142179306E+02  0.21464785038E+02 -0.44556587318E+02  0.56415639389E+02  0.00000000000E+00 0.  1.
<mgrwt>
<rscale>  0 0.16519739E+04</rscale>
<asrwt>0</asrwt>
<pdfrwt beam="1">  1        1 0.31713507E+00 0.16519739E+04</pdfrwt>
<pdfrwt beam="2">  1       -2 0.50918476E-01 0.16519739E+04</pdfrwt>
<totfact> 0.82836208E+00</totfact>
</mgrwt>
</event>
<event>
12    5  0.5428626E-008  0.2162632E+04  0.7818608E-02  0.8534144E-01
         -2   -1    0    0    0  501 -0.00000000000E+00  0.00000000000E+00  0.18131654036E+04  0.18131654036E+04  0.00000000000E+00 0.  1.
          1   -1    0    0  501    0  0.00000000000E+00 -0.00000000000E+00 -0.64486370665E+03  0.64486370665E+03  0.00000000000E+00 0. -1.
        -24    2    1    2    0    0 -0.19768999713E+03 -0.23879694302E+03  0.14298101577E+04  0.14651747258E+04  0.79212216115E+02 0.  0.
        254    2    1    2    0    0  0.19768999713E+03  0.23879694302E+03 -0.26150846074E+03  0.99285438443E+03  0.90623829024E+03 0.  0.
         23    2    4    4    0    0  0.27144345910E+03 -0.16252866607E+03 -0.43038109766E+03  0.54137100259E+03  0.88076980236E+02 0.  0.
         23    2    4    4    0    0 -0.73753461967E+02  0.40132560909E+03  0.16887263692E+03  0.45148338184E+03  0.93901325416E+02 0.  0.
          1    1    3    3  502    0 -0.17803215991E+02 -0.73265829132E+02  0.32081180963E+03  0.32955280823E+03  0.00000000000E+00 0. -1.
         -2    1    3    3    0  502 -0.17988678114E+03 -0.16553111388E+03  0.11089983481E+04  0.11356219176E+04  0.00000000000E+00 0.  1.
         13    1    5    5    0    0  0.14916112260E+03 -0.12790452225E+03 -0.30521345914E+03  0.36299292410E+03  0.00000000000E+00 0.  1.
        -13    1    5    5    0    0  0.12228233650E+03 -0.34624143822E+02 -0.12516763852E+03  0.17837807850E+03  0.00000000000E+00 0. -1.
          3    1    6    6  503    0 -0.32147876852E+02  0.34507083639E+03  0.15718584793E+03  0.38054534408E+03  0.00000000000E+00 0. -1.
         -3    1    6    6    0  503 -0.41605585115E+02  0.56254772697E+02  0.11686788993E+02  0.70938037757E+02  0.00000000000E+00 0.  1.
<mgrwt>
<rscale>  0 0.21626323E+04</rscale>
<asrwt>0</asrwt>
<pdfrwt beam="1">  1        1 0.99209802E-01 0.21626323E+04</pdfrwt>
<pdfrwt beam="2">  1       -2 0.27894852E+00 0.21626323E+04</pdfrwt>
<totfact> 0.10556339E+00</totfact>
</mgrwt>
</event>
<event>
12    5  0.5428626E-008  0.2834827E+04  0.7818608E-02  0.8292537E-01
          1   -1    0    0  501    0  0.00000000000E+00  0.00000000000E+00  0.20224721965E+04  0.20224721965E+04  0.00000000000E+00 0. -1.
         -2   -1    0    0    0  501 -0.00000000000E+00 -0.00000000000E+00 -0.99336894445E+03  0.99336894445E+03  0.00000000000E+00 0.  1.
        -24    2    1    2    0    0  0.70149034530E+01 -0.16531354563E+03 -0.87963927171E+03  0.89868057077E+03  0.80521690933E+02 0.  0.
        254    2    1    2    0    0 -0.70149034530E+01  0.16531354563E+03  0.19087425237E+04  0.21171605702E+04  0.90094010938E+03 0.  0.
         23    2    4    4    0    0 -0.13579375290E+03  0.36607404770E+03  0.17926672103E+04  0.18368851676E+04  0.89672964330E+02 0.  0.
         23    2    4    4    0    0  0.12877884945E+03 -0.20076050207E+03  0.11607531347E+03  0.28027540255E+03  0.90509953132E+02 0.  0.
          3    1    3    3  502    0  0.26281824244E+02 -0.13784074057E+03 -0.56117095958E+03  0.57844934948E+03  0.00000000000E+00 0. -1.
         -4    1    3    3    0  502 -0.19266920791E+02 -0.27472805056E+02 -0.31846831213E+03  0.32023122129E+03  0.00000000000E+00 0.  1.
         13    1    5    5    0    0 -0.13700784758E+03  0.36106732209E+03  0.16684547678E+04  0.17125659326E+04  0.00000000000E+00 0.  1.
        -13    1    5    5    0    0  0.12140946736E+01  0.50067256033E+01  0.12421244245E+03  0.12431923498E+03  0.00000000000E+00 0. -1.
          4    1    6    6  503    0  0.55932825532E+02 -0.28502376967E+02  0.55189012728E+02  0.83586443821E+02  0.00000000000E+00 0. -1.
         -4    1    6    6    0  503  0.72846023920E+02 -0.17225812511E+03  0.60886300745E+02  0.19668895872E+03  0.00000000000E+00 0.  1.
<mgrwt>
<rscale>  0 0.28348270E+04</rscale>
<asrwt>0</asrwt>
<pdfrwt beam="1">  1        1 0.31114957E+00 0.28348270E+04</pdfrwt>
<pdfrwt beam="2">  1       -2 0.15282599E+00 0.28348270E+04</pdfrwt>
<totfact> 0.62238327E-01</totfact>
</mgrwt>
</event>
<event>
12    5  0.5428626E-008  0.1169901E+04  0.7818608E-02  0.9139618E-01
          1   -1    0    0  501    0  0.00000000000E+00  0.00000000000E+00  0.53317733766E+03  0.53317733766E+03  0.00000000000E+00 0. -1.
         -2   -1    0    0    0  501 -0.00000000000E+00 -0.00000000000E+00 -0.64175095732E+03  0.64175095732E+03  0.00000000000E+00 0.  1.
        -24    2    1    2    0    0  0.21302818364E+03  0.29565036746E+02 -0.10186128661E+01  0.22952603536E+03  0.80162740167E+02 0.  0.
        254    2    1    2    0    0 -0.21302818364E+03 -0.29565036746E+02 -0.10755500679E+03  0.94540225962E+03  0.91430971481E+03 0.  0.
         23    2    4    4    0    0  0.94748141444E+02 -0.39719186850E+03 -0.17346595357E+03  0.45295682593E+03  0.91328300084E+02 0.  0.
         23    2    4    4    0    0 -0.30777632509E+03  0.36762683175E+03  0.65910946786E+02  0.49244543370E+03  0.91008233441E+02 0.  0.
          3    1    3    3  502    0  0.21455264998E+03  0.26560412491E+02  0.11564657114E+02  0.21649950674E+03  0.00000000000E+00 0. -1.
         -4    1    3    3    0  502 -0.15244663330E+01  0.30046242559E+01 -0.12583269980E+02  0.13026528621E+02  0.00000000000E+00 0.  1.
         13    1    5    5    0    0  0.21795909574E+02 -0.15915475960E+03 -0.23598365612E+02  0.16236434965E+03  0.00000000000E+00 0. -1.
        -13    1    5    5    0    0  0.72952231870E+02 -0.23803710890E+03 -0.14986758796E+03  0.29059247627E+03  0.00000000000E+00 0.  1.
          4    1    6    6  503    0 -0.10739158158E+03  0.19881141850E+03  0.33494501901E+02  0.22843120097E+03  0.00000000000E+00 0. -1.
         -4    1    6    6    0  503 -0.20038474351E+03  0.16881541326E+03  0.32416444885E+02  0.26401423273E+03  0.00000000000E+00 0.  1.
<mgrwt>
<rscale>  0 0.11699010E+04</rscale>
<asrwt>0</asrwt>
<pdfrwt beam="1">  1        1 0.82027283E-01 0.11699010E+04</pdfrwt>
<pdfrwt beam="2">  1       -2 0.98730916E-01 0.11699010E+04</pdfrwt>
<totfact> 0.29937802E+01</totfact>
</mgrwt>
</event>
<event>
12    5  0.5428626E-008  0.1940054E+04  0.7818608E-02  0.8635172E-01
          1   -1    0    0  501    0  0.00000000000E+00  0.00000000000E+00  0.95226070800E+03  0.95226070800E+03  0.00000000000E+00 0. -1.
         -2   -1    0    0    0  501 -0.00000000000E+00 -0.00000000000E+00 -0.98812492737E+03  0.98812492737E+03  0.00000000000E+00 0.  1.
        -24    2    1    2    0    0 -0.33167574632E+03 -0.58893209684E+00 -0.69718617333E+03  0.77657555065E+03  0.83617450601E+02 0.  0.
        254    2    1    2    0    0  0.33167574632E+03  0.58893209684E+00  0.66132195396E+03  0.11638100847E+04  0.89838635284E+03 0.  0.
         23    2    4    4    0    0  0.18089840095E+03  0.43712580370E+03  0.27650674848E+03  0.55575832727E+03  0.92780044476E+02 0.  0.
         23    2    4    4    0    0  0.15077734537E+03 -0.43653687160E+03  0.38481520548E+03  0.60805175745E+03  0.91356166853E+02 0.  0.
          1    1    3    3  502    0 -0.12069694782E+03 -0.27235668493E+02 -0.19150159523E+03  0.22799648205E+03  0.00000000000E+00 0. -1.
         -2    1    3    3    0  502 -0.21097879850E+03  0.26646736396E+02 -0.50568457810E+03  0.54857906860E+03  0.00000000000E+00 0.  1.
         13    1    5    5    0    0  0.12328808423E+03  0.36665727826E+03  0.19330281531E+03  0.43243900127E+03  0.00000000000E+00 0. -1.
        -13    1    5    5    0    0  0.57610316715E+02  0.70468525434E+02  0.83203933175E+02  0.12331932600E+03  0.00000000000E+00 0.  1.
          2    1    6    6  503    0  0.16326672289E+03 -0.39930349482E+03  0.35652043599E+03  0.55964821545E+03  0.00000000000E+00 0. -1.
         -2    1    6    6    0  503 -0.12489377518E+02 -0.37233376784E+02  0.28294769485E+02  0.48403541995E+02  0.00000000000E+00 0.  1.
<mgrwt>
<rscale>  0 0.19400542E+04</rscale>
<asrwt>0</asrwt>
<pdfrwt beam="1">  1        1 0.14650165E+00 0.19400542E+04</pdfrwt>
<pdfrwt beam="2">  1       -2 0.15201922E+00 0.19400542E+04</pdfrwt>
<totfact> 0.39000129E+00</totfact>
</mgrwt>
</event>
<event>
12    5  0.5428626E-008  0.2432518E+04  0.7818608E-02  0.8427429E-01
          1   -1    0    0  501    0  0.00000000000E+00  0.00000000000E+00  0.23145357379E+04  0.23145357379E+04  0.00000000000E+00 0. -1.
         -4   -1    0    0    0  501 -0.00000000000E+00 -0.00000000000E+00 -0.63912838613E+03  0.63912838613E+03  0.00000000000E+00 0.  1.
        -24    2    1    2    0    0 -0.19884087116E+02 -0.61546070429E+03  0.17587907348E+04  0.18651289966E+04  0.78575246430E+02 0.  0.
        254    2    1    2    0    0  0.19884087116E+02  0.61546070429E+03 -0.83383383060E+02  0.10885351275E+04  0.89373859701E+03 0.  0.
         23    2    4    4    0    0 -0.36058014178E+03  0.12223051211E+03  0.14638868571E+03  0.41797716200E+03  0.91197170541E+02 0.  0.
         23    2    4    4    0    0  0.38046422890E+03  0.49323019218E+03 -0.22977206877E+03  0.67055796549E+03  0.93934708965E+02 0.  0.
          1    1    3    3  502    0 -0.45641960244E+02 -0.46788249094E+03  0.13745848269E+04  0.14527493453E+04  0.00000000000E+00 0. -1.
         -2    1    3    3    0  502  0.25757873128E+02 -0.14757821335E+03  0.38420590795E+03  0.41237965127E+03  0.00000000000E+00 0.  1.
         13    1    5    5    0    0 -0.29936408619E+03  0.89924278125E+02  0.81334427213E+02  0.32298687426E+03  0.00000000000E+00 0.  1.
        -13    1    5    5    0    0 -0.61216055594E+02  0.32306233981E+02  0.65054258496E+02  0.94990287740E+02  0.00000000000E+00 0. -1.
          1    1    6    6  503    0  0.18230071182E+03  0.26968904739E+03 -0.16472345945E+03  0.36482811008E+03  0.00000000000E+00 0. -1.
         -1    1    6    6    0  503  0.19816351708E+03  0.22354114479E+03 -0.65048609320E+02  0.30572985541E+03  0.00000000000E+00 0.  1.
<mgrwt>
<rscale>  0 0.24325176E+04</rscale>
<asrwt>0</asrwt>
<pdfrwt beam="1">  1        1 0.35608242E+00 0.24325176E+04</pdfrwt>
<pdfrwt beam="2">  1       -4 0.98327445E-01 0.24325176E+04</pdfrwt>
<totfact> 0.68861062E-01</totfact>
</mgrwt>
</event>
<event>
12    5  0.5428626E-008  0.1109792E+04  0.7818608E-02  0.9195700E-01
          1   -1    0    0  501    0  0.00000000000E+00  0.00000000000E+00  0.43108135380E+03  0.43108135380E+03  0.00000000000E+00 0. -1.
         -2   -1    0    0    0  501 -0.00000000000E+00 -0.00000000000E+00 -0.71427231268E+03  0.71427231268E+03  0.00000000000E+00 0.  1.
        -24    2    1    2    0    0  0.76366365422E+02  0.37138662454E+02  0.11245191891E+03  0.16340943098E+03  0.82741199220E+02 0.  0.
        254    2    1    2    0    0 -0.76366365422E+02 -0.37138662454E+02 -0.39564287779E+03  0.98194423550E+03  0.89468994231E+03 0.  0.
         23    2    4    4    0    0 -0.23200814663E+03  0.33787786178E+03 -0.15060560194E+02  0.41982688971E+03  0.89658057455E+02 0.  0.
         23    2    4    4    0    0  0.15564178121E+03 -0.37501652424E+03 -0.38058231759E+03  0.56211734579E+03  0.79191239831E+02 0.  0.
          3    1    3    3  502    0  0.34794500288E+02  0.60386868313E+02  0.78152067661E+02  0.10471378512E+03  0.00000000000E+00 0. -1.
         -4    1    3    3    0  502  0.41571865133E+02 -0.23248205859E+02  0.34299851252E+02  0.58695645855E+02  0.00000000000E+00 0.  1.
         13    1    5    5    0    0 -0.19518586461E+03  0.23006754731E+03 -0.36475940247E+02  0.30390638738E+03  0.00000000000E+00 0.  1.
        -13    1    5    5    0    0 -0.36822282019E+02  0.10781031447E+03  0.21415380054E+02  0.11592050234E+03  0.00000000000E+00 0. -1.
          1    1    6    6  503    0  0.27151185890E+02 -0.16684961656E+03 -0.15369592968E+03  0.22846973594E+03  0.00000000000E+00 0. -1.
         -1    1    6    6    0  503  0.12849059532E+03 -0.20816690768E+03 -0.22688638791E+03  0.33364760985E+03  0.00000000000E+00 0.  1.
<mgrwt>
<rscale>  0 0.11097918E+04</rscale>
<asrwt>0</asrwt>
<pdfrwt beam="1">  1        1 0.66320208E-01 0.11097918E+04</pdfrwt>
<pdfrwt beam="2">  1       -2 0.10988805E+00 0.11097918E+04</pdfrwt>
<totfact> 0.31104069E+01</totfact>
</mgrwt>
</event>
<event>
12    5  0.5428626E-008  0.1351319E+04  0.7818608E-02  0.8989831E-01
         -2   -1    0    0    0  501 -0.00000000000E+00  0.00000000000E+00  0.19789074100E+03  0.19789074100E+03  0.00000000000E+00 0.  1.
          1   -1    0    0  501    0  0.00000000000E+00 -0.00000000000E+00 -0.23069065669E+04  0.23069065669E+04  0.00000000000E+00 0. -1.
        -24    2    1    2    0    0 -0.22366706752E+03  0.47361774533E+02 -0.52225394112E+02  0.24782363401E+03  0.80118456065E+02 0.  0.
        254    2    1    2    0    0  0.22366706752E+03 -0.47361774533E+02 -0.20567904318E+04  0.22569736739E+04  0.90070704979E+03 0.  0.
         23    2    4    4    0    0  0.50070102243E+03 -0.25458995093E+03 -0.13406173018E+04  0.14563655291E+04  0.90709688027E+02 0.  0.
         23    2    4    4    0    0 -0.27703395491E+03  0.20722817640E+03 -0.71617313001E+03  0.80060814480E+03  0.91532071452E+02 0.  0.
          3    1    3    3  502    0 -0.40513518482E+02  0.18167769386E+02  0.20121008336E+02  0.48746979401E+02  0.00000000000E+00 0. -1.
         -4    1    3    3    0  502 -0.18315354904E+03  0.29194005147E+02 -0.72346402449E+02  0.19907665461E+03  0.00000000000E+00 0.  1.
         13    1    5    5    0    0  0.11719956677E+03 -0.77390565468E+02 -0.43383513442E+03  0.45600215124E+03  0.00000000000E+00 0. -1.
        -13    1    5    5    0    0  0.38350145567E+03 -0.17719938546E+03 -0.90678216738E+03  0.10003633779E+04  0.00000000000E+00 0.  1.
          3    1    6    6  503    0 -0.11923266126E+03  0.42544688132E+02 -0.20630905823E+03  0.24205351786E+03  0.00000000000E+00 0. -1.
         -3    1    6    6    0  503 -0.15780129365E+03  0.16468348827E+03 -0.50986407178E+03  0.55855462694E+03  0.00000000000E+00 0.  1.
<mgrwt>
<rscale>  0 0.13513185E+04</rscale>
<asrwt>0</asrwt>
<pdfrwt beam="1">  1        1 0.35490870E+00 0.13513185E+04</pdfrwt>
<pdfrwt beam="2">  1       -2 0.30444730E-01 0.13513185E+04</pdfrwt>
<totfact> 0.15823892E+01</totfact>
</mgrwt>
</event>
<event>
12    5  0.5428626E-008  0.2003848E+04  0.7818608E-02  0.8604824E-01
         -4   -1    0    0    0  501 -0.00000000000E+00  0.00000000000E+00  0.16799868506E+04  0.16799868506E+04  0.00000000000E+00 0.  1.
          3   -1    0    0  501    0  0.00000000000E+00 -0.00000000000E+00 -0.59753549188E+03  0.59753549188E+03  0.00000000000E+00 0. -1.
        -24    2    1    2    0    0  0.73329031797E+03  0.98127433933E+01  0.78850498879E+03  0.10798187789E+04  0.80358555696E+02 0.  0.
        254    2    1    2    0    0 -0.73329031797E+03 -0.98127433933E+01  0.29394636997E+03  0.11977035637E+04  0.90015464095E+03 0.  0.
         23    2    4    4    0    0  0.87288588757E+02  0.22548849346E+03  0.21313995731E+03  0.33527577311E+03  0.92286749962E+02 0.  0.
         23    2    4    4    0    0 -0.82057890672E+03 -0.23530123685E+03  0.80806412658E+02  0.86242779055E+03  0.92388329173E+02 0.  0.
          1    1    3    3  502    0  0.90108696310E+02 -0.51720341746E+01  0.13809466563E+03  0.16497413059E+03  0.00000000000E+00 0. -1.
         -2    1    3    3    0  502  0.64318162166E+03  0.14984777568E+02  0.65041032317E+03  0.91484464827E+03  0.00000000000E+00 0.  1.
         13    1    5    5    0    0  0.74010428044E+02  0.22965245272E+03  0.21221377116E+03  0.32132923485E+03  0.00000000000E+00 0.  1.
        -13    1    5    5    0    0  0.13278160713E+02 -0.41639592597E+01  0.92618615856E+00  0.13946538260E+02  0.00000000000E+00 0. -1.
          4    1    6    6  503    0 -0.19293367600E+03 -0.56717970547E+02  0.58726931041E+02  0.20949745570E+03  0.00000000000E+00 0. -1.
         -4    1    6    6    0  503 -0.62764523073E+03 -0.17858326630E+03  0.22079481617E+02  0.65293033485E+03  0.00000000000E+00 0.  1.
<mgrwt>
<rscale>  0 0.20038481E+04</rscale>
<asrwt>0</asrwt>
<pdfrwt beam="1">  1        3 0.91928538E-01 0.20038481E+04</pdfrwt>
<pdfrwt beam="2">  1       -4 0.25845951E+00 0.20038481E+04</pdfrwt>
<totfact> 0.12617541E-01</totfact>
</mgrwt>
</event>
<event>
12    5  0.5428626E-008  0.1314359E+04  0.7818608E-02  0.9018256E-01
         -2   -1    0    0    0  501 -0.00000000000E+00  0.00000000000E+00  0.35914847889E+03  0.35914847889E+03  0.00000000000E+00 0.  1.
          1   -1    0    0  501    0  0.00000000000E+00 -0.00000000000E+00 -0.12025239467E+04  0.12025239467E+04  0.00000000000E+00 0. -1.
        -24    2    1    2    0    0 -0.11357294150E+03 -0.20299410092E+03  0.73409818253E+02  0.25990120513E+03  0.89745289342E+02 0.  0.
        254    2    1    2    0    0  0.11357294150E+03  0.20299410092E+03 -0.91678528606E+03  0.13017712205E+04  0.89443145720E+03 0.  0.
         23    2    4    4    0    0  0.74892405367E+02  0.48808740630E+03 -0.85833944720E+03  0.99448811553E+03  0.91770456821E+02 0.  0.
         23    2    4    4    0    0  0.38680536135E+02 -0.28509330538E+03 -0.58445838860E+02  0.30728310493E+03  0.90733752542E+02 0.  0.
          3    1    3    3  502    0 -0.37860436199E+02 -0.76216748888E+02 -0.16963245637E+02  0.86776478050E+02  0.00000000000E+00 0. -1.
         -4    1    3    3    0  502 -0.75712505303E+02 -0.12677735203E+03  0.90373063890E+02  0.17312472708E+03  0.00000000000E+00 0.  1.
         13    1    5    5    0    0  0.18430047003E+02  0.47466647495E+02 -0.45997043048E+02  0.68618344677E+02  0.00000000000E+00 0.  1.
        -13    1    5    5    0    0  0.56462358364E+02  0.44062075880E+03 -0.81234240415E+03  0.92586977085E+03  0.00000000000E+00 0. -1.
          2    1    6    6  503    0 -0.57136052034E+01  0.36099843046E+01  0.49608198491E+01  0.83837345303E+01  0.00000000000E+00 0.  1.
         -2    1    6    6    0  503  0.44394141339E+02 -0.28870328968E+03 -0.63406658709E+02  0.29889937040E+03  0.00000000000E+00 0. -1.
<mgrwt>
<rscale>  0 0.13143586E+04</rscale>
<asrwt>0</asrwt>
<pdfrwt beam="1">  1        1 0.18500369E+00 0.13143586E+04</pdfrwt>
<pdfrwt beam="2">  1       -2 0.55253611E-01 0.13143586E+04</pdfrwt>
<totfact> 0.28202496E+01</totfact>
</mgrwt>
</event>
<event>
12    5  0.5428626E-008  0.1163619E+04  0.7818608E-02  0.9145310E-01
          3   -1    0    0  501    0  0.00000000000E+00  0.00000000000E+00  0.24445511657E+03  0.24445511657E+03  0.00000000000E+00 0. -1.
         -4   -1    0    0    0  501 -0.00000000000E+00 -0.00000000000E+00 -0.13847227426E+04  0.13847227426E+04  0.00000000000E+00 0.  1.
        -24    2    1    2    0    0 -0.46339108961E+02  0.89601682872E+02 -0.37749971532E+03  0.39874475249E+03  0.79470547884E+02 0.  0.
        254    2    1    2    0    0  0.46339108961E+02 -0.89601682872E+02 -0.76276791069E+03  0.12304331067E+04  0.96019527690E+03 0.  0.
         23    2    4    4    0    0 -0.22192653656E+03 -0.14856791168E+03 -0.87564196970E+03  0.91995249940E+03  0.90774060443E+02 0.  0.
         23    2    4    4    0    0  0.26826564552E+03  0.58966228810E+02  0.11287405901E+03  0.31048060725E+03  0.90632122223E+02 0.  0.
          3    1    3    3  502    0 -0.21633712702E+02  0.53472522285E+02 -0.83391275224E+02  0.10139740109E+03  0.00000000000E+00 0. -1.
         -4    1    3    3    0  502 -0.24705396259E+02  0.36129160587E+02 -0.29410844010E+03  0.29734735140E+03  0.00000000000E+00 0.  1.
         13    1    5    5    0    0 -0.16546403036E+03 -0.58498760476E+02 -0.52575527001E+03  0.55427344719E+03  0.00000000000E+00 0.  1.
        -13    1    5    5    0    0 -0.56462506192E+02 -0.90069151207E+02 -0.34988669969E+03  0.36567905221E+03  0.00000000000E+00 0. -1.
          1    1    6    6  503    0  0.99106293098E+02  0.10588537596E+02  0.87674313640E+02  0.13274396307E+03  0.00000000000E+00 0. -1.
         -1    1    6    6    0  503  0.16915935242E+03  0.48377691214E+02  0.25199745370E+02  0.17773664418E+03  0.00000000000E+00 0.  1.
<mgrwt>
<rscale>  0 0.11636195E+04</rscale>
<asrwt>0</asrwt>
<pdfrwt beam="1">  1        3 0.37608479E-01 0.11636195E+04</pdfrwt>
<pdfrwt beam="2">  1       -4 0.21303427E+00 0.11636195E+04</pdfrwt>
<totfact> 0.17190981E+00</totfact>
</mgrwt>
</event>
<event>
12    5  0.5428626E-008  0.1073258E+04  0.7818608E-02  0.9231655E-01
         -2   -1    0    0    0  501 -0.00000000000E+00  0.00000000000E+00  0.28924822084E+03  0.28924822084E+03  0.00000000000E+00 0.  1.
          1   -1    0    0  501    0  0.00000000000E+00 -0.00000000000E+00 -0.99558392983E+03  0.99558392983E+03  0.00000000000E+00 0. -1.
        -24    2    1    2    0    0 -0.23475971905E+02  0.20016412901E+02 -0.28775986159E+03  0.30052209593E+03  0.80969217348E+02 0.  0.
        254    2    1    2    0    0  0.23475971905E+02 -0.20016412901E+02 -0.41857584739E+03  0.98431005474E+03  0.89034193757E+03 0.  0.
         23    2    4    4    0    0 -0.68106983003E+02 -0.42514641212E+03 -0.33088214963E+03  0.55004097294E+03  0.87601610166E+02 0.  0.
         23    2    4    4    0    0  0.91582954908E+02  0.40512999921E+03 -0.87693697766E+02  0.43426908180E+03  0.91551607757E+02 0.  0.
          1    1    3    3  502    0 -0.22810193069E+02 -0.12559580228E+02 -0.24686330950E+03  0.24823283735E+03  0.00000000000E+00 0. -1.
         -4    1    3    3    0  502 -0.66577883621E+00  0.32575993129E+02 -0.40896552096E+02  0.52289258583E+02  0.00000000000E+00 0.  1.
         13    1    5    5    0    0 -0.31704189016E+02 -0.11996383841E+03 -0.50325721652E+02  0.13389979980E+03  0.00000000000E+00 0. -1.
        -13    1    5    5    0    0 -0.36402793988E+02 -0.30518257371E+03 -0.28055642798E+03  0.41614117314E+03  0.00000000000E+00 0.  1.
          2    1    6    6  503    0  0.75478029287E+02  0.16883011206E+03 -0.66290053694E+02  0.19645587510E+03  0.00000000000E+00 0. -1.
         -2    1    6    6    0  503  0.16104925621E+02  0.23629988716E+03 -0.21403644072E+02  0.23781320670E+03  0.00000000000E+00 0.  1.
<mgrwt>
<rscale>  0 0.10732584E+04</rscale>
<asrwt>0</asrwt>
<pdfrwt beam="1">  1        1 0.15316676E+00 0.10732584E+04</pdfrwt>
<pdfrwt beam="2">  1       -2 0.44499726E-01 0.10732584E+04</pdfrwt>
<totfact> 0.63900969E+01</totfact>
</mgrwt>
</event>
<event>
12    5  0.5428626E-008  0.2111205E+04  0.7818608E-02  0.8556324E-01
          1   -1    0    0  501    0  0.00000000000E+00  0.00000000000E+00  0.26991244186E+04  0.26991244186E+04  0.00000000000E+00 0. -1.
         -2   -1    0    0    0  501 -0.00000000000E+00 -0.00000000000E+00 -0.41283632012E+03  0.41283632012E+03  0.00000000000E+00 0.  1.
        -24    2    1    2    0    0 -0.13628739589E+02 -0.84176386907E+03  0.12015629154E+04  0.14691362595E+04  0.76522908301E+02 0.  0.
        254    2    1    2    0    0  0.13628739589E+02  0.84176386907E+03  0.10847251831E+04  0.16428244792E+04  0.90193757704E+03 0.  0.
         23    2    4    4    0    0 -0.13167694772E+03  0.51567000949E+03  0.11483201905E+04  0.12690573091E+04  0.92805262895E+02 0.  0.
         23    2    4    4    0    0  0.14530568731E+03  0.32609385958E+03 -0.63595007399E+02  0.37376717006E+03  0.90590421286E+02 0.  0.
          3    1    3    3  502    0 -0.39015941444E+02 -0.70391177671E+03  0.10134612900E+04  0.12345516674E+04  0.00000000000E+00 0. -1.
         -4    1    3    3    0  502  0.25387201855E+02 -0.13785209237E+03  0.18810162540E+03  0.23458459214E+03  0.00000000000E+00 0.  1.
         13    1    5    5    0    0 -0.65077562683E+02  0.36044113519E+03  0.86263766800E+03  0.93717482219E+03  0.00000000000E+00 0. -1.
        -13    1    5    5    0    0 -0.66599385037E+02  0.15522887430E+03  0.28568252246E+03  0.33188248695E+03  0.00000000000E+00 0.  1.
          2    1    6    6  503    0  0.13798692131E+03  0.28068166232E+03 -0.25073675828E+02  0.31376946192E+03  0.00000000000E+00 0. -1.
         -2    1    6    6    0  503  0.73187659967E+01  0.45412197259E+02 -0.38521331571E+02  0.59997708136E+02  0.00000000000E+00 0.  1.
<mgrwt>
<rscale>  0 0.21112050E+04</rscale>
<asrwt>0</asrwt>
<pdfrwt beam="1">  1        1 0.41524990E+00 0.21112050E+04</pdfrwt>
<pdfrwt beam="2">  1       -2 0.63513282E-01 0.21112050E+04</pdfrwt>
<totfact> 0.18213794E+00</totfact>
</mgrwt>
</event>
<event>
12    5  0.5428626E-008  0.1373139E+04  0.7818608E-02  0.8973494E-01
         -2   -1    0    0    0  501 -0.00000000000E+00  0.00000000000E+00  0.23170926354E+03  0.23170926354E+03  0.00000000000E+00 0.  1.
          1   -1    0    0  501    0  0.00000000000E+00 -0.00000000000E+00 -0.20343507810E+04  0.20343507810E+04  0.00000000000E+00 0. -1.
        -24    2    1    2    0    0 -0.32388392758E+03 -0.20809408494E+03 -0.57016203005E+03  0.69280470865E+03  0.81790446211E+02 0.  0.
        254    2    1    2    0    0  0.32388392758E+03  0.20809408494E+03 -0.12324794874E+04  0.15732553359E+04  0.89884521374E+03 0.  0.
         23    2    4    4    0    0  0.68235652304E+00  0.18003236133E+03  0.81067238491E+02  0.21717951990E+03  0.90459548812E+02 0.  0.
         23    2    4    4    0    0  0.32320157106E+03  0.28061723613E+02 -0.13135467259E+04  0.13560758160E+04  0.91048897412E+02 0.  0.
          3    1    3    3  502    0 -0.29333599187E+03 -0.16782943955E+03 -0.52845070685E+03  0.62727416213E+03  0.00000000000E+00 0. -1.
         -4    1    3    3    0  502 -0.30547935712E+02 -0.40264645390E+02 -0.41711323195E+02  0.65530546520E+02  0.00000000000E+00 0.  1.
         13    1    5    5    0    0 -0.76165779168E+01  0.18106914029E+03  0.92136758130E+02  0.20330575010E+03  0.00000000000E+00 0.  1.
        -13    1    5    5    0    0  0.82989344399E+01 -0.10367789612E+01 -0.11069519639E+02  0.13873769801E+02  0.00000000000E+00 0. -1.
          2    1    6    6  503    0  0.99778270102E+01  0.12262046833E+01 -0.70237791835E+01  0.12263526564E+02  0.00000000000E+00 0. -1.
         -2    1    6    6    0  503  0.31322374405E+03  0.26835518930E+02 -0.13065229467E+04  0.13438122894E+04  0.00000000000E+00 0.  1.
<mgrwt>
<rscale>  0 0.13731394E+04</rscale>
<asrwt>0</asrwt>
<pdfrwt beam="1">  1        1 0.31297704E+00 0.13731394E+04</pdfrwt>
<pdfrwt beam="2">  1       -2 0.35647580E-01 0.13731394E+04</pdfrwt>
<totfact> 0.17937392E+01</totfact>
</mgrwt>
</event>
<event>
12    5  0.5428626E-008  0.1473734E+04  0.7818608E-02  0.8902110E-01
         -4   -1    0    0    0  501 -0.00000000000E+00  0.00000000000E+00  0.26293701887E+04  0.26293701887E+04  0.00000000000E+00 0.  1.
          3   -1    0    0  501    0  0.00000000000E+00 -0.00000000000E+00 -0.20650292863E+03  0.20650292863E+03  0.00000000000E+00 0. -1.
        -24    2    1    2    0    0  0.33344509700E+02  0.61489802136E+02 -0.10560183783E+03  0.14990555286E+03  0.80169037224E+02 0.  0.
        254    2    1    2    0    0 -0.33344509700E+02 -0.61489802136E+02  0.25284690979E+04  0.26859675645E+04  0.90353357783E+03 0.  0.
         23    2    4    4    0    0  0.16871232335E+03  0.20974681074E+03  0.21564994493E+04  0.21751200936E+04  0.90553708448E+02 0.  0.
         23    2    4    4    0    0 -0.20205683305E+03 -0.27123661288E+03  0.37196964862E+03  0.51084747088E+03  0.90595005741E+02 0.  0.
          1    1    3    3  502    0  0.46781824916E+02  0.41413020041E+02 -0.10887296043E+03  0.12552648678E+03  0.00000000000E+00 0. -1.
         -2    1    3    3    0  502 -0.13437315216E+02  0.20076782095E+02  0.32711225966E+01  0.24379066073E+02  0.00000000000E+00 0.  1.
         13    1    5    5    0    0  0.17171222965E+03  0.16680814733E+03  0.17372609086E+04  0.17536777105E+04  0.00000000000E+00 0.  1.
        -13    1    5    5    0    0 -0.29999062938E+01  0.42938663410E+02  0.41923854073E+03  0.42144238312E+03  0.00000000000E+00 0. -1.
          4    1    6    6  503    0 -0.11861519669E+03 -0.20996568538E+03  0.21658318824E+03  0.32413489685E+03  0.00000000000E+00 0. -1.
         -4    1    6    6    0  503 -0.83441636367E+02 -0.61270927493E+02  0.15538646037E+03  0.18671257403E+03  0.00000000000E+00 0.  1.
<mgrwt>
<rscale>  0 0.14737336E+04</rscale>
<asrwt>0</asrwt>
<pdfrwt beam="1">  1        3 0.31769683E-01 0.14737336E+04</pdfrwt>
<pdfrwt beam="2">  1       -4 0.40451847E+00 0.14737336E+04</pdfrwt>
<totfact> 0.13869576E-01</totfact>
</mgrwt>
</event>
<event>
12    5  0.5428626E-008  0.1465813E+04  0.7818608E-02  0.8907511E-01
         -2   -1    0    0    0  501 -0.00000000000E+00  0.00000000000E+00  0.61271725689E+03  0.61271725689E+03  0.00000000000E+00 0.  1.
          1   -1    0    0  501    0  0.00000000000E+00 -0.00000000000E+00 -0.87667155811E+03  0.87667155811E+03  0.00000000000E+00 0. -1.
        -24    2    1    2    0    0 -0.22749968419E+03  0.13990661893E+03 -0.46371498495E+03  0.54112891196E+03  0.80367554227E+02 0.  0.
        254    2    1    2    0    0  0.22749968419E+03 -0.13990661893E+03  0.19976068372E+03  0.94825990304E+03  0.88767254358E+03 0.  0.
         23    2    4    4    0    0  0.53193548012E+03 -0.14368596419E+03  0.27159632978E+03  0.62113276685E+03  0.91871303439E+02 0.  0.
         23    2    4    4    0    0 -0.30443579593E+03  0.37793452645E+01 -0.71835646055E+02  0.32712713619E+03  0.95688901633E+02 0.  0.
          3    1    3    3  502    0 -0.94277753579E+02  0.40925642701E+02 -0.25172579229E+03  0.27189902088E+03  0.00000000000E+00 0. -1.
         -4    1    3    3    0  502 -0.13322193061E+03  0.98980976225E+02 -0.21198919265E+03  0.26922989108E+03  0.00000000000E+00 0.  1.
         13    1    5    5    0    0  0.71088333183E+02 -0.19547876413E+02  0.37151841765E+01  0.73820547143E+02  0.00000000000E+00 0. -1.
        -13    1    5    5    0    0  0.46084714693E+03 -0.12413808778E+03  0.26788114560E+03  0.54731221971E+03  0.00000000000E+00 0.  1.
          1    1    6    6  503    0 -0.12110007051E+02 -0.12060601665E+02  0.13950989764E+02  0.22062196144E+02  0.00000000000E+00 0. -1.
         -1    1    6    6    0  503 -0.29232578887E+03  0.15839946930E+02 -0.85786635819E+02  0.30506494005E+03  0.00000000000E+00 0.  1.
<mgrwt>
<rscale>  0 0.14658128E+04</rscale>
<asrwt>0</asrwt>
<pdfrwt beam="1">  1        1 0.13487255E+00 0.14658128E+04</pdfrwt>
<pdfrwt beam="2">  1       -2 0.94264194E-01 0.14658128E+04</pdfrwt>
<totfact> 0.15347622E+01</totfact>
</mgrwt>
</event>
<event>
12    5  0.5428626E-008  0.1454760E+04  0.7818608E-02  0.8915107E-01
          1   -1    0    0  501    0  0.00000000000E+00  0.00000000000E+00  0.16705129716E+04  0.16705129716E+04  0.00000000000E+00 0. -1.
         -2   -1    0    0    0  501 -0.00000000000E+00 -0.00000000000E+00 -0.31671826066E+03  0.31671826066E+03  0.00000000000E+00 0.  1.
        -24    2    1    2    0    0  0.62652090603E+02 -0.41746658672E+03  0.43310430944E+03  0.60974036423E+03  0.77461819228E+02 0.  0.
        254    2    1    2    0    0 -0.62652090603E+02  0.41746658672E+03  0.92069040150E+03  0.13774908680E+04  0.93359875780E+03 0.  0.
         23    2    4    4    0    0 -0.44273929183E+03  0.22209264818E+03  0.21905712210E+03  0.55126459396E+03  0.10277842622E+03 0.  0.
         23    2    4    4    0    0  0.38008720123E+03  0.19537393854E+03  0.70163327940E+03  0.82622627406E+03  0.87882539723E+02 0.  0.
          1    1    3    3  502    0 -0.22841644516E+00 -0.16579217769E+03  0.21021408503E+03  0.26772571767E+03  0.00000000000E+00 0. -1.
         -2    1    3    3    0  502  0.62880507048E+02 -0.25167440903E+03  0.22289022440E+03  0.34201464656E+03  0.00000000000E+00 0.  1.
         13    1    5    5    0    0 -0.44785890533E+03  0.22352579946E+03  0.21632080205E+03  0.54528531202E+03  0.00000000000E+00 0.  1.
        -13    1    5    5    0    0  0.51196135000E+01 -0.14331512804E+01  0.27363200518E+01  0.59792819308E+01  0.00000000000E+00 0. -1.
          2    1    6    6  503    0  0.16475283668E+03  0.86073064382E+02  0.22452287705E+03  0.29148343336E+03  0.00000000000E+00 0. -1.
         -2    1    6    6    0  503  0.21533436455E+03  0.10930087416E+03  0.47711040235E+03  0.53474284070E+03  0.00000000000E+00 0.  1.
<mgrwt>
<rscale>  0 0.14547604E+04</rscale>
<asrwt>0</asrwt>
<pdfrwt beam="1">  1        1 0.25700199E+00 0.14547604E+04</pdfrwt>
<pdfrwt beam="2">  1       -2 0.48725887E-01 0.14547604E+04</pdfrwt>
<totfact> 0.16968678E+01</totfact>
</mgrwt>
</event>
<event>
12    5  0.5428626E-008  0.1793385E+04  0.7818608E-02  0.8709825E-01
          1   -1    0    0  501    0  0.00000000000E+00  0.00000000000E+00  0.29459972876E+04  0.29459972876E+04  0.00000000000E+00 0. -1.
         -2   -1    0    0    0  501 -0.00000000000E+00 -0.00000000000E+00 -0.27293229137E+03  0.27293229137E+03  0.00000000000E+00 0.  1.
        -24    2    1    2    0    0 -0.64436505468E+03 -0.15004692815E+03  0.82240559897E+03  0.10585125046E+04  0.79858305101E+02 0.  0.
        254    2    1    2    0    0  0.64436505468E+03  0.15004692815E+03  0.18506593973E+04  0.21604170744E+04  0.89707375735E+03 0.  0.
         23    2    4    4    0    0  0.65453504544E+03  0.44592339035E+03  0.14381543305E+04  0.16443096412E+04  0.90567776486E+02 0.  0.
         23    2    4    4    0    0 -0.10169990767E+02 -0.29587646221E+03  0.41250506683E+03  0.51610743317E+03  0.92521039866E+02 0.  0.
          1    1    3    3  502    0 -0.46583862288E+03 -0.91618526576E+02  0.63817146953E+03  0.79540078043E+03  0.00000000000E+00 0. -1.
         -2    1    3    3    0  502 -0.17852643180E+03 -0.58428401571E+02  0.18423412943E+03  0.26311172420E+03  0.00000000000E+00 0.  1.
         13    1    5    5    0    0  0.26730546889E+03  0.14457741988E+03  0.61556390516E+03  0.68649382035E+03  0.00000000000E+00 0.  1.
        -13    1    5    5    0    0  0.38722957655E+03  0.30134597048E+03  0.82259042532E+03  0.95781582087E+03  0.00000000000E+00 0. -1.
          2    1    6    6  503    0  0.84308590639E+01 -0.20283270104E+03  0.34268397330E+03  0.39830200797E+03  0.00000000000E+00 0. -1.
         -2    1    6    6    0  503 -0.18600849831E+02 -0.93043761166E+02  0.69821093534E+02  0.11780542521E+03  0.00000000000E+00 0.  1.
<mgrwt>
<rscale>  0 0.17933854E+04</rscale>
<asrwt>0</asrwt>
<pdfrwt beam="1">  1        1 0.45323033E+00 0.17933854E+04</pdfrwt>
<pdfrwt beam="2">  1       -2 0.41989585E-01 0.17933854E+04</pdfrwt>
<totfact> 0.29253846E+00</totfact>
</mgrwt>
</event>
<event>
12    5  0.5428626E-008  0.1761974E+04  0.7818608E-02  0.8726787E-01
          1   -1    0    0  501    0  0.00000000000E+00  0.00000000000E+00  0.72818116551E+03  0.72818116551E+03  0.00000000000E+00 0. -1.
         -2   -1    0    0    0  501 -0.00000000000E+00 -0.00000000000E+00 -0.10658584869E+04  0.10658584869E+04  0.00000000000E+00 0.  1.
        -24    2    1    2    0    0 -0.26405659768E+03 -0.54691255693E+03 -0.35165668637E+03  0.70640551186E+03  0.80666538324E+02 0.  0.
        254    2    1    2    0    0  0.26405659768E+03  0.54691255693E+03  0.13979364975E+02  0.10876341406E+04  0.90217147449E+03 0.  0.
         23    2    4    4    0    0  0.40436059234E+03  0.89570045066E+02 -0.28928813800E+03  0.51391437975E+03  0.94287227717E+02 0.  0.
         23    2    4    4    0    0 -0.14030399466E+03  0.45734251186E+03  0.30326750298E+03  0.57371976082E+03  0.91300610747E+02 0.  0.
          3    1    3    3  502    0 -0.15162341801E+03 -0.31011001155E+03 -0.15342348228E+03  0.37775209472E+03  0.00000000000E+00 0. -1.
         -4    1    3    3    0  502 -0.11243317967E+03 -0.23680254538E+03 -0.19823320409E+03  0.32865341714E+03  0.00000000000E+00 0.  1.
         13    1    5    5    0    0  0.11942959282E+03 -0.15488374554E+02 -0.95127229524E+02  0.15346826116E+03  0.00000000000E+00 0. -1.
        -13    1    5    5    0    0  0.28493099952E+03  0.10505841962E+03 -0.19416090848E+03  0.36044611859E+03  0.00000000000E+00 0.  1.
          2    1    6    6  503    0 -0.36376273202E+02  0.21700281377E+03  0.97352218888E+02  0.24060529703E+03  0.00000000000E+00 0. -1.
         -2    1    6    6    0  503 -0.10392772146E+03  0.24033969809E+03  0.20591528409E+03  0.33311446379E+03  0.00000000000E+00 0.  1.
<mgrwt>
<rscale>  0 0.17619740E+04</rscale>
<asrwt>0</asrwt>
<pdfrwt beam="1">  1        1 0.11202787E+00 0.17619740E+04</pdfrwt>
<pdfrwt beam="2">  1       -2 0.16397823E+00 0.17619740E+04</pdfrwt>
<totfact> 0.50040747E+00</totfact>
</mgrwt>
</event>
<event>
12    5  0.5428626E-008  0.2025483E+04  0.7818608E-02  0.8594798E-01
         -4   -1    0    0    0  501 -0.00000000000E+00  0.00000000000E+00  0.11377230442E+04  0.11377230442E+04  0.00000000000E+00 0.  1.
          3   -1    0    0  501    0  0.00000000000E+00 -0.00000000000E+00 -0.90148962095E+03  0.90148962095E+03  0.00000000000E+00 0. -1.
        -24    2    1    2    0    0 -0.20693052996E+03  0.32476623441E+03 -0.62563631241E+03  0.73891293307E+03  0.79234941845E+02 0.  0.
        254    2    1    2    0    0  0.20693052996E+03 -0.32476623441E+03  0.86186973562E+03  0.13002997320E+04  0.89424079571E+03 0.  0.
         23    2    4    4    0    0  0.31897815102E+03 -0.45604033831E+02  0.92139057204E+03  0.98021778814E+03  0.89663466447E+02 0.  0.
         23    2    4    4    0    0 -0.11204762106E+03 -0.27916220058E+03 -0.59520836420E+02  0.32008194389E+03  0.91779721196E+02 0.  0.
          1    1    3    3  502    0 -0.13248435223E+03  0.13566131559E+03 -0.31650931750E+03  0.36896374374E+03  0.00000000000E+00 0. -1.
         -4    1    3    3    0  502 -0.74446177730E+02  0.18910491882E+03 -0.30912699491E+03  0.36994918933E+03  0.00000000000E+00 0.  1.
         13    1    5    5    0    0  0.29818863086E+03 -0.16737475035E+02  0.81153403758E+03  0.86474510510E+03  0.00000000000E+00 0. -1.
        -13    1    5    5    0    0  0.20789520162E+02 -0.28866558796E+02  0.10985653446E+03  0.11547268304E+03  0.00000000000E+00 0.  1.
          4    1    6    6  503    0 -0.37751073221E+01 -0.46612943818E+02 -0.42179601471E+02  0.62977271670E+02  0.00000000000E+00 0.  1.
         -4    1    6    6    0  503 -0.10827251374E+03 -0.23254925676E+03 -0.17341234949E+02  0.25710467223E+03  0.00000000000E+00 0. -1.
<mgrwt>
<rscale>  0 0.20254832E+04</rscale>
<asrwt>0</asrwt>
<pdfrwt beam="1">  1        3 0.13869071E+00 0.20254832E+04</pdfrwt>
<pdfrwt beam="2">  1       -4 0.17503431E+00 0.20254832E+04</pdfrwt>
<totfact> 0.16327224E-01</totfact>
</mgrwt>
</event>
<event>
12    5  0.5428626E-008  0.2179551E+04  0.7818608E-02  0.8526988E-01
          1   -1    0    0  501    0  0.00000000000E+00  0.00000000000E+00  0.39169007725E+03  0.39169007725E+03  0.00000000000E+00 0. -1.
         -2   -1    0    0    0  501 -0.00000000000E+00 -0.00000000000E+00 -0.30320169197E+04  0.30320169197E+04  0.00000000000E+00 0.  1.
        -24    2    1    2    0    0 -0.48352306620E+03  0.56850347921E+03 -0.18948175487E+04  0.20380967693E+04  0.80710201570E+02 0.  0.
        254    2    1    2    0    0  0.48352306620E+03 -0.56850347921E+03 -0.74550929375E+03  0.13856102277E+04  0.89841017057E+03 0.  0.
         23    2    4    4    0    0  0.49653986114E+03 -0.32867591474E+03 -0.52333307593E+01  0.60234588675E+03  0.90628300817E+02 0.  0.
         23    2    4    4    0    0 -0.13016794933E+02 -0.23982756447E+03 -0.74027596299E+03  0.78326434093E+03  0.88361919235E+02 0.  0.
          1    1    3    3  502    0 -0.32708160466E+03  0.36513092451E+03 -0.11423951044E+04  0.12431289324E+04  0.00000000000E+00 0. -1.
         -2    1    3    3    0  502 -0.15644146155E+03  0.20337255469E+03 -0.75242244431E+03  0.79496783683E+03  0.00000000000E+00 0.  1.
         13    1    5    5    0    0  0.19517504021E+03 -0.79192001102E+02  0.94098258726E+01  0.21083930891E+03  0.00000000000E+00 0. -1.
        -13    1    5    5    0    0  0.30136482092E+03 -0.24948391363E+03 -0.14643156632E+02  0.39150657784E+03  0.00000000000E+00 0.  1.
          1    1    6    6  503    0  0.35696173753E+02 -0.11216504241E+03 -0.29972681154E+03  0.32201145183E+03  0.00000000000E+00 0. -1.
         -1    1    6    6    0  503 -0.48712968685E+02 -0.12766252206E+03 -0.44054915145E+03  0.46125288910E+03  0.00000000000E+00 0.  1.
<mgrwt>
<rscale>  0 0.21795513E+04</rscale>
<asrwt>0</asrwt>
<pdfrwt beam="1">  1        1 0.60260015E-01 0.21795513E+04</pdfrwt>
<pdfrwt beam="2">  1       -2 0.46646412E+00 0.21795513E+04</pdfrwt>
<totfact> 0.13329925E-01</totfact>
</mgrwt>
</event>
<event>
12    5  0.5428626E-008  0.3068626E+04  0.7818608E-02  0.8224401E-01
         -2   -1    0    0    0  501 -0.00000000000E+00  0.00000000000E+00  0.16642488561E+04  0.16642488561E+04  0.00000000000E+00 0.  1.
          1   -1    0    0  501    0  0.00000000000E+00 -0.00000000000E+00 -0.14145220342E+04  0.14145220342E+04  0.00000000000E+00 0. -1.
        -24    2    1    2    0    0  0.94021004502E+03 -0.28577594084E+03 -0.89084491365E+03  0.13274657585E+04  0.53831799818E+02 0.  0.
        254    2    1    2    0    0 -0.94021004502E+03  0.28577594084E+03  0.11405717356E+04  0.17513051317E+04  0.89470831188E+03 0.  0.
         23    2    4    4    0    0  0.11420849999E+03 -0.65876619313E+02  0.54322233794E+01  0.15997846542E+03  0.90444955123E+02 0.  0.
         23    2    4    4    0    0 -0.10544185450E+04  0.35165256015E+03  0.11351395122E+04  0.15913266663E+04  0.91218724315E+02 0.  0.
          3    1    3    3  502    0  0.83778072916E+03 -0.23674322173E+03 -0.78655091332E+03  0.11732801210E+04  0.00000000000E+00 0. -1.
         -2    1    3    3    0  502  0.10242931586E+03 -0.49032719112E+02 -0.10429400033E+03  0.15418563745E+03  0.00000000000E+00 0.  1.
         13    1    5    5    0    0  0.11474965771E+02  0.20935459669E+02 -0.70668357199E+01  0.24897961324E+02  0.00000000000E+00 0.  1.
        -13    1    5    5    0    0  0.10273353422E+03 -0.86812078981E+02  0.12499059099E+02  0.13508050410E+03  0.00000000000E+00 0. -1.
          2    1    6    6  503    0 -0.10488228725E+04  0.35650794621E+03  0.11290878592E+04  0.15817606416E+04  0.00000000000E+00 0. -1.
         -2    1    6    6    0  503 -0.55956725376E+01 -0.48553860572E+01  0.60516530194E+01  0.95660247323E+01  0.00000000000E+00 0.  1.
<mgrwt>
<rscale>  0 0.30686262E+04</rscale>
<asrwt>0</asrwt>
<pdfrwt beam="1">  1        1 0.21761877E+00 0.30686262E+04</pdfrwt>
<pdfrwt beam="2">  1       -2 0.25603829E+00 0.30686262E+04</pdfrwt>
<totfact> 0.32896652E-01</totfact>
</mgrwt>
</event>
<event>
12    5  0.5428626E-008  0.1537427E+04  0.7818608E-02  0.8859939E-01
          1   -1    0    0  501    0  0.00000000000E+00  0.00000000000E+00  0.16595935440E+04  0.16595935440E+04  0.00000000000E+00 0. -1.
         -2   -1    0    0    0  501 -0.00000000000E+00 -0.00000000000E+00 -0.35606342723E+03  0.35606342723E+03  0.00000000000E+00 0.  1.
        -24    2    1    2    0    0  0.22729101964E+03  0.20207275679E+03 -0.90819357270E+02  0.32728375277E+03  0.79824134966E+02 0.  0.
        254    2    1    2    0    0 -0.22729101964E+03 -0.20207275679E+03  0.13943494740E+04  0.16883732185E+04  0.90216354527E+03 0.  0.
         23    2    4    4    0    0 -0.46711053031E+02 -0.52828455937E+03  0.59835394492E+03  0.80480174679E+03  0.91716465760E+02 0.  0.
         23    2    4    4    0    0 -0.18057996661E+03  0.32621180259E+03  0.79599552913E+03  0.88357147168E+03  0.89813131991E+02 0.  0.
          3    1    3    3  502    0  0.59063418618E+01 -0.74380258980E+01 -0.11768378269E+01  0.95704780820E+01  0.00000000000E+00 0. -1.
         -4    1    3    3    0  502  0.22138467778E+03  0.20951078269E+03 -0.89642519443E+02  0.31771327468E+03  0.00000000000E+00 0.  1.
         13    1    5    5    0    0 -0.61405190823E+02 -0.46115208572E+03  0.55205152912E+03  0.72193679392E+03  0.00000000000E+00 0. -1.
        -13    1    5    5    0    0  0.14694137791E+02 -0.67132473656E+02  0.46302415801E+02  0.82864952867E+02  0.00000000000E+00 0.  1.
          2    1    6    6  503    0 -0.96290989762E+02  0.25653321750E+03  0.58004566574E+03  0.64150933020E+03  0.00000000000E+00 0. -1.
         -2    1    6    6    0  503 -0.84288976851E+02  0.69678585088E+02  0.21594986339E+03  0.24206214147E+03  0.00000000000E+00 0.  1.
<mgrwt>
<rscale>  0 0.15374272E+04</rscale>
<asrwt>0</asrwt>
<pdfrwt beam="1">  1        1 0.25532208E+00 0.15374272E+04</pdfrwt>
<pdfrwt beam="2">  1       -2 0.54778990E-01 0.15374272E+04</pdfrwt>
<totfact> 0.13478335E+01</totfact>
</mgrwt>
</event>
<event>
12    5  0.5428626E-008  0.3687228E+04  0.7818608E-02  0.8070798E-01
         -2   -1    0    0    0  501 -0.00000000000E+00  0.00000000000E+00  0.38100250054E+04  0.38100250054E+04  0.00000000000E+00 0.  1.
          1   -1    0    0  501    0  0.00000000000E+00 -0.00000000000E+00 -0.89209738946E+03  0.89209738946E+03  0.00000000000E+00 0. -1.
        -24    2    1    2    0    0 -0.12788483510E+04 -0.96653205917E+03  0.53412722361E+03  0.16915748230E+04  0.80598787060E+02 0.  0.
        254    2    1    2    0    0  0.12788483510E+04  0.96653205917E+03  0.23838003923E+04  0.30105475719E+04  0.90069697765E+03 0.  0.
         23    2    4    4    0    0  0.10664114464E+04  0.82614795066E+03  0.12389004630E+04  0.18340911020E+04  0.96239304683E+02 0.  0.
         23    2    4    4    0    0  0.21243690461E+03  0.14038410851E+03  0.11448999293E+04  0.11764564698E+04  0.91743342692E+02 0.  0.
          1    1    3    3  502    0 -0.75600681076E+03 -0.60061679141E+03  0.28796080093E+03  0.10075754319E+04  0.00000000000E+00 0. -1.
         -2    1    3    3    0  502 -0.52284154027E+03 -0.36591526776E+03  0.24616642267E+03  0.68399939113E+03  0.00000000000E+00 0.  1.
         13    1    5    5    0    0  0.38139218746E+03  0.24353740804E+03  0.38859488434E+03  0.59646999413E+03  0.00000000000E+00 0.  1.
        -13    1    5    5    0    0  0.68501925896E+03  0.58261054263E+03  0.85030557869E+03  0.12376211079E+04  0.00000000000E+00 0. -1.
          4    1    6    6  503    0  0.20336040596E+03  0.95153673784E+02  0.94823918035E+03  0.97445739747E+03  0.00000000000E+00 0. -1.
         -4    1    6    6    0  503  0.90764986469E+01  0.45230434724E+02  0.19666074897E+03  0.20199907237E+03  0.00000000000E+00 0.  1.
<mgrwt>
<rscale>  0 0.36872284E+04</rscale>
<asrwt>0</asrwt>
<pdfrwt beam="1">  1        1 0.13724575E+00 0.36872284E+04</pdfrwt>
<pdfrwt beam="2">  1       -2 0.58615768E+00 0.36872284E+04</pdfrwt>
<totfact> 0.74940300E-03</totfact>
</mgrwt>
</event>
<event>
12    5  0.5428626E-008  0.1951907E+04  0.7818608E-02  0.8629442E-01
         -2   -1    0    0    0  501 -0.00000000000E+00  0.00000000000E+00  0.37387077401E+03  0.37387077401E+03  0.00000000000E+00 0.  1.
          1   -1    0    0  501    0  0.00000000000E+00 -0.00000000000E+00 -0.25476320534E+04  0.25476320534E+04  0.00000000000E+00 0. -1.
        -24    2    1    2    0    0 -0.47595619760E+03 -0.17206293853E+03 -0.17175949926E+04  0.17924183077E+04  0.80565962064E+02 0.  0.
        254    2    1    2    0    0  0.47595619760E+03  0.17206293853E+03 -0.45616628674E+03  0.11290845197E+04  0.90033561219E+03 0.  0.
         23    2    4    4    0    0  0.51593615154E+03  0.47339421664E+02  0.11268880200E+03  0.53710901594E+03  0.85768266871E+02 0.  0.
         23    2    4    4    0    0 -0.39979953933E+02  0.12472351687E+03 -0.56885508874E+03  0.59197550375E+03  0.98410023246E+02 0.  0.
          1    1    3    3  502    0 -0.40452128041E+03 -0.12399250019E+03 -0.14961253336E+04  0.15547998650E+04  0.00000000000E+00 0. -1.
         -4    1    3    3    0  502 -0.71434917198E+02 -0.48070438343E+02 -0.22146965902E+03  0.23761844269E+03  0.00000000000E+00 0.  1.
         13    1    5    5    0    0  0.28127309987E+03  0.58221002093E+02  0.33385738204E+02  0.28916923991E+03  0.00000000000E+00 0. -1.
        -13    1    5    5    0    0  0.23466305167E+03 -0.10881580429E+02  0.79303063794E+02  0.24793977603E+03  0.00000000000E+00 0.  1.
          4    1    6    6  503    0 -0.56946742741E+02  0.38070492559E+02 -0.33665865681E+03  0.34355690230E+03  0.00000000000E+00 0. -1.
         -4    1    6    6    0  503  0.16966788809E+02  0.86653024307E+02 -0.23219643193E+03  0.24841860145E+03  0.00000000000E+00 0.  1.
<mgrwt>
<rscale>  0 0.19519069E+04</rscale>
<asrwt>0</asrwt>
<pdfrwt beam="1">  1        1 0.39194339E+00 0.19519069E+04</pdfrwt>
<pdfrwt beam="2">  1       -2 0.57518581E-01 0.19519069E+04</pdfrwt>
<totfact> 0.29099117E+00</totfact>
</mgrwt>
</event>
<event>
12    5  0.5428626E-008  0.1853565E+04  0.7818608E-02  0.8678322E-01
         -2   -1    0    0    0  501 -0.00000000000E+00  0.00000000000E+00  0.58071894268E+03  0.58071894268E+03  0.00000000000E+00 0.  1.
          1   -1    0    0  501    0  0.00000000000E+00 -0.00000000000E+00 -0.14790725191E+04  0.14790725191E+04  0.00000000000E+00 0. -1.
        -24    2    1    2    0    0  0.85416357170E+02  0.76376972135E+02  0.43255931234E+03  0.45472714513E+03  0.80869165191E+02 0.  0.
        254    2    1    2    0    0 -0.85416357170E+02 -0.76376972135E+02 -0.13309128888E+04  0.16050643167E+04  0.88981624349E+03 0.  0.
         23    2    4    4    0    0  0.66644403260E+02 -0.23447033969E+03 -0.45850065406E+01  0.25766316354E+03  0.83375457296E+02 0.  0.
         23    2    4    4    0    0 -0.15206076043E+03  0.15809336755E+03 -0.13263278823E+04  0.13474011532E+04  0.90709583419E+02 0.  0.
          3    1    3    3  502    0 -0.15447610736E+02  0.11004625749E+02  0.41846630314E+02  0.45944215457E+02  0.00000000000E+00 0. -1.
         -4    1    3    3    0  502  0.10086396791E+03  0.65372346386E+02  0.39071268203E+03  0.40878292967E+03  0.00000000000E+00 0.  1.
         13    1    5    5    0    0  0.85817665503E+02 -0.20734744942E+03 -0.43218013730E+01  0.22444668512E+03  0.00000000000E+00 0. -1.
        -13    1    5    5    0    0 -0.19173262243E+02 -0.27122890266E+02 -0.26320516760E+00  0.33216478417E+02  0.00000000000E+00 0.  1.
          3    1    6    6  503    0 -0.15751939457E+03  0.14877497255E+03 -0.11185093505E+04  0.11393022072E+04  0.00000000000E+00 0. -1.
         -3    1    6    6    0  503  0.54586341399E+01  0.93183950028E+01 -0.20781853179E+03  0.20809894600E+03  0.00000000000E+00 0.  1.
<mgrwt>
<rscale>  0 0.18535646E+04</rscale>
<asrwt>0</asrwt>
<pdfrwt beam="1">  1        1 0.22754962E+00 0.18535646E+04</pdfrwt>
<pdfrwt beam="2">  1       -2 0.89341377E-01 0.18535646E+04</pdfrwt>
<totfact> 0.59935957E+00</totfact>
</mgrwt>
</event>
<event>
12    5  0.5428626E-008  0.2189862E+04  0.7818608E-02  0.8522660E-01
         -2   -1    0    0    0  501 -0.00000000000E+00  0.00000000000E+00  0.63861605183E+03  0.63861605183E+03  0.00000000000E+00 0.  1.
          1   -1    0    0  501    0  0.00000000000E+00 -0.00000000000E+00 -0.18772994626E+04  0.18772994626E+04  0.00000000000E+00 0. -1.
        -24    2    1    2    0    0 -0.32117939660E+03  0.83948093403E+03 -0.68398280815E+03  0.11323842373E+04  0.81099541030E+02 0.  0.
        254    2    1    2    0    0  0.32117939660E+03 -0.83948093403E+03 -0.55470060260E+03  0.13835312772E+04  0.89363392558E+03 0.  0.
         23    2    4    4    0    0  0.35789486209E+03 -0.37638680711E+03 -0.70982477197E+03  0.88445988977E+03  0.93071632843E+02 0.  0.
         23    2    4    4    0    0 -0.36715465484E+02 -0.46309412691E+03  0.15512416937E+03  0.49907138738E+03  0.95940325172E+02 0.  0.
          3    1    3    3  502    0 -0.28045862394E+02  0.28076990401E+02 -0.27440936317E+02  0.48248241143E+02  0.00000000000E+00 0. -1.
         -4    1    3    3    0  502 -0.29313353421E+03  0.81140394362E+03 -0.65654187184E+03  0.10841359961E+04  0.00000000000E+00 0.  1.
         13    1    5    5    0    0  0.34655757991E+03 -0.33476747132E+03 -0.67321467827E+03  0.82788249110E+03  0.00000000000E+00 0.  1.
        -13    1    5    5    0    0  0.11337282182E+02 -0.41619335795E+02 -0.36610093700E+02  0.56577398668E+02  0.00000000000E+00 0. -1.
          4    1    6    6  503    0 -0.53605854447E+02 -0.29170860267E+03  0.13436354044E+03  0.32560874912E+03  0.00000000000E+00 0.  1.
         -4    1    6    6    0  503  0.16890388963E+02 -0.17138552424E+03  0.20760628922E+02  0.17346263826E+03  0.00000000000E+00 0. -1.
<mgrwt>
<rscale>  0 0.21898617E+04</rscale>
<asrwt>0</asrwt>
<pdfrwt beam="1">  1        1 0.28881530E+00 0.21898617E+04</pdfrwt>
<pdfrwt beam="2">  1       -2 0.98248623E-01 0.21898617E+04</pdfrwt>
<totfact> 0.24917667E+00</totfact>
</mgrwt>
</event>
<event>
12    5  0.5428626E-008  0.1196020E+04  0.7818608E-02  0.9116348E-01
          1   -1    0    0  501    0  0.00000000000E+00  0.00000000000E+00  0.31523129561E+03  0.31523129561E+03  0.00000000000E+00 0. -1.
         -2   -1    0    0    0  501 -0.00000000000E+00 -0.00000000000E+00 -0.11344553747E+04  0.11344553747E+04  0.00000000000E+00 0.  1.
        -24    2    1    2    0    0  0.13874229821E+03 -0.19396853286E+03 -0.26741973867E+03  0.36751249226E+03  0.81724526818E+02 0.  0.
        254    2    1    2    0    0 -0.13874229821E+03  0.19396853286E+03 -0.55180434040E+03  0.10821741780E+04  0.89985537974E+03 0.  0.
         23    2    4    4    0    0 -0.82566323996E+01  0.52734150656E+03 -0.19527778779E+03  0.56852143604E+03  0.83222426713E+02 0.  0.
         23    2    4    4    0    0 -0.13048566581E+03 -0.33337297370E+03 -0.35652655261E+03  0.51365274199E+03  0.92541385666E+02 0.  0.
          3    1    3    3  502    0  0.28573531996E+02 -0.10708391266E+02 -0.84252098717E+01  0.31655971563E+02  0.00000000000E+00 0. -1.
         -4    1    3    3    0  502  0.11016876622E+03 -0.18326014159E+03 -0.25899452880E+03  0.33585652070E+03  0.00000000000E+00 0.  1.
         13    1    5    5    0    0  0.15056519681E+02  0.86025164322E+02 -0.61399299084E+02  0.10675627199E+03  0.00000000000E+00 0. -1.
        -13    1    5    5    0    0 -0.23313152081E+02  0.44131634224E+03 -0.13387848871E+03  0.46176516404E+03  0.00000000000E+00 0.  1.
          3    1    6    6  503    0 -0.12837170022E+03 -0.29244264532E+03 -0.27118085109E+03  0.41897619051E+03  0.00000000000E+00 0. -1.
         -3    1    6    6    0  503 -0.21139655920E+01 -0.40930328382E+02 -0.85345701513E+02  0.94676551473E+02  0.00000000000E+00 0.  1.
<mgrwt>
<rscale>  0 0.11960198E+04</rscale>
<asrwt>0</asrwt>
<pdfrwt beam="1">  1        1 0.48497122E-01 0.11960198E+04</pdfrwt>
<pdfrwt beam="2">  1       -2 0.17453160E+00 0.11960198E+04</pdfrwt>
<totfact> 0.14042399E+01</totfact>
</mgrwt>
</event>
<event>
12    5  0.5428626E-008  0.2267971E+04  0.7818608E-02  0.8490658E-01
          1   -1    0    0  501    0  0.00000000000E+00  0.00000000000E+00  0.14774986740E+04  0.14774986740E+04  0.00000000000E+00 0. -1.
         -2   -1    0    0    0  501 -0.00000000000E+00 -0.00000000000E+00 -0.87033771914E+03  0.87033771914E+03  0.00000000000E+00 0.  1.
        -24    2    1    2    0    0 -0.55371628777E+03  0.29275039804E+02 -0.54767535160E+03  0.78348714388E+03  0.80281122217E+02 0.  0.
        254    2    1    2    0    0  0.55371628777E+03 -0.29275039804E+02  0.11548363065E+04  0.15643492493E+04  0.89782120918E+03 0.  0.
         23    2    4    4    0    0  0.76899338830E+03  0.47317790969E+02  0.10284538022E+04  0.12876264348E+04  0.81699496819E+02 0.  0.
         23    2    4    4    0    0 -0.21527710053E+03 -0.76592830773E+02  0.12638250431E+03  0.27672281448E+03  0.91609425947E+02 0.  0.
          3    1    3    3  502    0 -0.71494406515E+01  0.11108520858E+02 -0.16221093930E+02  0.20919790285E+02  0.00000000000E+00 0. -1.
         -4    1    3    3    0  502 -0.54656684712E+03  0.18166518946E+02 -0.53145425767E+03  0.76256735360E+03  0.00000000000E+00 0.  1.
         13    1    5    5    0    0  0.75867767924E+03  0.36372911490E+02  0.10120790381E+04  0.12653927410E+04  0.00000000000E+00 0.  1.
        -13    1    5    5    0    0  0.10315709063E+02  0.10944879479E+02  0.16374764051E+02  0.22233693756E+02  0.00000000000E+00 0. -1.
          3    1    6    6  503    0 -0.35285656974E+02 -0.30246203754E+02 -0.82764127626E+01  0.47206031795E+02  0.00000000000E+00 0. -1.
         -3    1    6    6    0  503 -0.17999144356E+03 -0.46346627020E+02  0.13465891707E+03  0.22951678269E+03  0.00000000000E+00 0.  1.
<mgrwt>
<rscale>  0 0.22679707E+04</rscale>
<asrwt>0</asrwt>
<pdfrwt beam="1">  1        1 0.22730749E+00 0.22679707E+04</pdfrwt>
<pdfrwt beam="2">  1       -2 0.13389811E+00 0.22679707E+04</pdfrwt>
<totfact> 0.21739651E+00</totfact>
</mgrwt>
</event>
<event>
12    5  0.5428626E-008  0.1885211E+04  0.7818608E-02  0.8662253E-01
         -2   -1    0    0    0  501 -0.00000000000E+00  0.00000000000E+00  0.62841155739E+03  0.62841155739E+03  0.00000000000E+00 0.  1.
          1   -1    0    0  501    0  0.00000000000E+00 -0.00000000000E+00 -0.14138901508E+04  0.14138901508E+04  0.00000000000E+00 0. -1.
        -24    2    1    2    0    0  0.22335554750E+03 -0.39837279032E+03  0.34737429849E+03  0.57904725746E+03  0.77706128772E+02 0.  0.
        254    2    1    2    0    0 -0.22335554750E+03  0.39837279032E+03 -0.11328528919E+04  0.14632544507E+04  0.80571045186E+03 0.  0.
         23    2    4    4    0    0 -0.10364554517E+03  0.58702695956E+03 -0.49182311532E+03  0.77825776050E+03  0.91935383432E+02 0.  0.
         23    2    4    4    0    0 -0.11971000233E+03 -0.18865416925E+03 -0.64102977655E+03  0.68499669021E+03  0.91544584466E+02 0.  0.
          1    1    3    3  502    0  0.38417068362E+02 -0.27744893343E+02  0.51724258336E+02  0.70150189940E+02  0.00000000000E+00 0. -1.
         -2    1    3    3    0  502  0.18493847914E+03 -0.37062789697E+03  0.29565004016E+03  0.50889706752E+03  0.00000000000E+00 0.  1.
         13    1    5    5    0    0 -0.98954728039E+02  0.51405339135E+03 -0.46555055910E+03  0.70055710005E+03  0.00000000000E+00 0. -1.
        -13    1    5    5    0    0 -0.46908171306E+01  0.72973568215E+02 -0.26272556222E+02  0.77700660447E+02  0.00000000000E+00 0.  1.
          2    1    6    6  503    0 -0.96197847667E+02 -0.14357858170E+03 -0.58186789200E+03  0.60699182759E+03  0.00000000000E+00 0. -1.
         -2    1    6    6    0  503 -0.23512154668E+02 -0.45075587541E+02 -0.59161884551E+02  0.78004862623E+02  0.00000000000E+00 0.  1.
<mgrwt>
<rscale>  0 0.18852108E+04</rscale>
<asrwt>0</asrwt>
<pdfrwt beam="1">  1        1 0.21752156E+00 0.18852108E+04</pdfrwt>
<pdfrwt beam="2">  1       -2 0.96678701E-01 0.18852108E+04</pdfrwt>
<totfact> 0.55241196E+00</totfact>
</mgrwt>
</event>
<event>
12    5  0.5428626E-008  0.2633187E+04  0.7818608E-02  0.8357015E-01
          1   -1    0    0  501    0  0.00000000000E+00  0.00000000000E+00  0.16471754881E+04  0.16471754881E+04  0.00000000000E+00 0. -1.
         -2   -1    0    0    0  501 -0.00000000000E+00 -0.00000000000E+00 -0.10523577950E+04  0.10523577950E+04  0.00000000000E+00 0.  1.
        -24    2    1    2    0    0 -0.50393236312E+03 -0.12143183925E+03 -0.80263549802E+03  0.95913948264E+03  0.83852765553E+02 0.  0.
        254    2    1    2    0    0  0.50393236312E+03  0.12143183925E+03  0.13974531911E+04  0.17403938005E+04  0.89855530785E+03 0.  0.
         23    2    4    4    0    0  0.12932774623E+03 -0.29707007916E+03  0.14856355711E+03  0.36796220669E+03  0.91371533708E+02 0.  0.
         23    2    4    4    0    0  0.37460461689E+03  0.41850191842E+03  0.12488896340E+04  0.13724315938E+04  0.91491458694E+02 0.  0.
          3    1    3    3  502    0 -0.21687583419E+02  0.11906457334E+02 -0.36299804497E+02  0.43929384327E+02  0.00000000000E+00 0. -1.
         -4    1    3    3    0  502 -0.48224477970E+03 -0.13333829659E+03 -0.76633569353E+03  0.91521009831E+03  0.00000000000E+00 0.  1.
         13    1    5    5    0    0  0.66624881077E+02 -0.23563656382E+03  0.13348691130E+03  0.27889464046E+03  0.00000000000E+00 0.  1.
        -13    1    5    5    0    0  0.62702865150E+02 -0.61433515348E+02  0.15076645805E+02  0.89067566234E+02  0.00000000000E+00 0. -1.
          4    1    6    6  503    0  0.22691365307E+03  0.28483335610E+03  0.89640750476E+03  0.96755685171E+03  0.00000000000E+00 0. -1.
         -4    1    6    6    0  503  0.14769096382E+03  0.13366856232E+03  0.35248212928E+03  0.40487474212E+03  0.00000000000E+00 0.  1.
<mgrwt>
<rscale>  0 0.26331866E+04</rscale>
<asrwt>0</asrwt>
<pdfrwt beam="1">  1        1 0.25341161E+00 0.26331866E+04</pdfrwt>
<pdfrwt beam="2">  1       -2 0.16190120E+00 0.26331866E+04</pdfrwt>
<totfact> 0.97452813E-01</totfact>
</mgrwt>
</event>
<event>
12    5  0.5428626E-008  0.1543693E+04  0.7818608E-02  0.8855906E-01
          1   -1    0    0  501    0  0.00000000000E+00  0.00000000000E+00  0.12083487640E+04  0.12083487640E+04  0.00000000000E+00 0. -1.
         -2   -1    0    0    0  501 -0.00000000000E+00 -0.00000000000E+00 -0.49302562118E+03  0.49302562118E+03  0.00000000000E+00 0.  1.
        -24    2    1    2    0    0 -0.35738070234E+03  0.29584067762E+03  0.12339657739E+02  0.47079369508E+03  0.79068092399E+02 0.  0.
        254    2    1    2    0    0  0.35738070234E+03 -0.29584067762E+03  0.70298348506E+03  0.12305806901E+04  0.89716240536E+03 0.  0.
         23    2    4    4    0    0  0.56313949853E+03 -0.12854131687E+03  0.13900470073E+03  0.60087420539E+03  0.89880692805E+02 0.  0.
         23    2    4    4    0    0 -0.20575879619E+03 -0.16729936075E+03  0.56397878433E+03  0.62970648469E+03  0.90179983155E+02 0.  0.
          1    1    3    3  502    0 -0.88459165393E+02  0.66347161618E+02 -0.30419593356E+02  0.11468357100E+03  0.00000000000E+00 0. -1.
         -2    1    3    3    0  502 -0.26892153694E+03  0.22949351601E+03  0.42759251094E+02  0.35611012408E+03  0.00000000000E+00 0.  1.
         13    1    5    5    0    0  0.40645950031E+03 -0.12849366801E+03  0.81707394553E+02  0.43404613399E+03  0.00000000000E+00 0.  1.
        -13    1    5    5    0    0  0.15667999822E+03 -0.47648858869E-01  0.57297306176E+02  0.16682807140E+03  0.00000000000E+00 0. -1.
          3    1    6    6  503    0 -0.82675745656E+02 -0.11714583064E+03  0.24065303825E+03  0.28012909412E+03  0.00000000000E+00 0. -1.
         -3    1    6    6    0  503 -0.12308305053E+03 -0.50153530107E+02  0.32332574608E+03  0.34957739056E+03  0.00000000000E+00 0.  1.
<mgrwt>
<rscale>  0 0.15436928E+04</rscale>
<asrwt>0</asrwt>
<pdfrwt beam="1">  1        1 0.18589981E+00 0.15436928E+04</pdfrwt>
<pdfrwt beam="2">  1       -2 0.75850096E-01 0.15436928E+04</pdfrwt>
<totfact> 0.13872712E+01</totfact>
</mgrwt>
</event>
<event>
12    5  0.5428626E-008  0.1713786E+04  0.7818608E-02  0.8753540E-01
         -2   -1    0    0    0  501 -0.00000000000E+00  0.00000000000E+00  0.59566964838E+03  0.59566964838E+03  0.00000000000E+00 0.  1.
          1   -1    0    0  501    0  0.00000000000E+00 -0.00000000000E+00 -0.12326728783E+04  0.12326728783E+04  0.00000000000E+00 0. -1.
        -24    2    1    2    0    0 -0.37235356665E+03  0.28440814740E+03 -0.66058692087E+03  0.81388420848E+03  0.80605532584E+02 0.  0.
        254    2    1    2    0    0  0.37235356665E+03 -0.28440814740E+03  0.23583690906E+02  0.10144583182E+04  0.89946334893E+03 0.  0.
         23    2    4    4    0    0 -0.74588545191E+01  0.90023794345E+02 -0.33908889637E+03  0.36216875037E+03  0.89582398063E+02 0.  0.
         23    2    4    4    0    0  0.37981242117E+03 -0.37443194174E+03  0.36267258728E+03  0.65228956787E+03  0.97434698739E+02 0.  0.
          1    1    3    3  502    0 -0.24661855752E+03  0.15393831628E+03 -0.45387966987E+03  0.53900322156E+03  0.00000000000E+00 0. -1.
         -2    1    3    3    0  502 -0.12573500914E+03  0.13046983112E+03 -0.20670725100E+03  0.27488098692E+03  0.00000000000E+00 0.  1.
         13    1    5    5    0    0  0.77047302214E+01 -0.17242676589E+02 -0.49771579719E+02  0.53234226880E+02  0.00000000000E+00 0. -1.
        -13    1    5    5    0    0 -0.15163584740E+02  0.10726647093E+03 -0.28931731665E+03  0.30893452349E+03  0.00000000000E+00 0.  1.
          1    1    6    6  503    0  0.20359680650E+03 -0.13829055091E+03  0.18853415657E+03  0.31003397279E+03  0.00000000000E+00 0. -1.
         -1    1    6    6    0  503  0.17621561467E+03 -0.23614139083E+03  0.17413843071E+03  0.34225559509E+03  0.00000000000E+00 0.  1.
<mgrwt>
<rscale>  0 0.17137862E+04</rscale>
<asrwt>0</asrwt>
<pdfrwt beam="1">  1        1 0.18964198E+00 0.17137862E+04</pdfrwt>
<pdfrwt beam="2">  1       -2 0.91641486E-01 0.17137862E+04</pdfrwt>
<totfact> 0.85476538E+00</totfact>
</mgrwt>
</event>
<event>
12    5  0.5428626E-008  0.1959947E+04  0.7818608E-02  0.8625579E-01
          1   -1    0    0  501    0  0.00000000000E+00  0.00000000000E+00  0.32641326055E+04  0.32641326055E+04  0.00000000000E+00 0. -1.
         -2   -1    0    0    0  501 -0.00000000000E+00 -0.00000000000E+00 -0.29421222178E+03  0.29421222178E+03  0.00000000000E+00 0.  1.
        -24    2    1    2    0    0  0.13155359328E+03 -0.34765769751E+03 -0.50687875706E+02  0.38366033819E+03  0.80335370875E+02 0.  0.
        254    2    1    2    0    0 -0.13155359328E+03  0.34765769751E+03  0.30206082594E+04  0.31746844891E+04  0.90353479500E+03 0.  0.
         23    2    4    4    0    0  0.21025980695E+03  0.27308451180E+03  0.42931045542E+03  0.55808638502E+03  0.91480101677E+02 0.  0.
         23    2    4    4    0    0 -0.34181340023E+03  0.74573185711E+02  0.25912978040E+04  0.26165981041E+04  0.96766567376E+02 0.  0.
          3    1    3    3  502    0  0.66256469440E+02 -0.25745994789E+03 -0.13234345306E+02  0.26617793373E+03  0.00000000000E+00 0. -1.
         -4    1    3    3    0  502  0.65297123836E+02 -0.90197749626E+02 -0.37453530400E+02  0.11748240446E+03  0.00000000000E+00 0.  1.
         13    1    5    5    0    0  0.19503816922E+03  0.21778882007E+03  0.39441130250E+03  0.49095023489E+03  0.00000000000E+00 0. -1.
        -13    1    5    5    0    0  0.15221637738E+02  0.55295691727E+02  0.34899152915E+02  0.67136150122E+02  0.00000000000E+00 0.  1.
          3    1    6    6  503    0 -0.12825161153E+03  0.15886176750E+02  0.65119373286E+03  0.66389315721E+03  0.00000000000E+00 0. -1.
         -3    1    6    6    0  503 -0.21356178870E+03  0.58687008961E+02  0.19401040711E+04  0.19527049469E+04  0.00000000000E+00 0.  1.
<mgrwt>
<rscale>  0 0.19599466E+04</rscale>
<asrwt>0</asrwt>
<pdfrwt beam="1">  1        1 0.50217422E+00 0.19599466E+04</pdfrwt>
<pdfrwt beam="2">  1       -2 0.45263421E-01 0.19599466E+04</pdfrwt>
<totfact> 0.14442919E+00</totfact>
</mgrwt>
</event>
<event>
12    5  0.5428626E-008  0.2207399E+04  0.7818608E-02  0.8515355E-01
          1   -1    0    0  501    0  0.00000000000E+00  0.00000000000E+00  0.63152901922E+03  0.63152901922E+03  0.00000000000E+00 0. -1.
         -2   -1    0    0    0  501 -0.00000000000E+00 -0.00000000000E+00 -0.19288934551E+04  0.19288934551E+04  0.00000000000E+00 0.  1.
        -24    2    1    2    0    0 -0.31165692612E+03  0.29610654191E+03 -0.14929500123E+04  0.15556105789E+04  0.78837872160E+02 0.  0.
        254    2    1    2    0    0  0.31165692612E+03 -0.29610654191E+03  0.19558557642E+03  0.10048118955E+04  0.88689576829E+03 0.  0.
         23    2    4    4    0    0  0.16256564634E+03  0.84969439202E+02 -0.29522936817E+03  0.35993211565E+03  0.93505898648E+02 0.  0.
         23    2    4    4    0    0  0.14909127979E+03 -0.38107598111E+03  0.49081494459E+03  0.64487977982E+03  0.86738154798E+02 0.  0.
          3    1    3    3  502    0 -0.28297750922E+02  0.51095072955E+02 -0.28446964326E+03  0.29040393786E+03  0.00000000000E+00 0. -1.
         -4    1    3    3    0  502 -0.28335917520E+03  0.24501146895E+03 -0.12084803691E+04  0.12652066410E+04  0.00000000000E+00 0.  1.
         13    1    5    5    0    0  0.10321524872E+03  0.38304242965E+02 -0.24678160573E+03  0.27022539393E+03  0.00000000000E+00 0.  1.
        -13    1    5    5    0    0  0.59350397613E+02  0.46665196238E+02 -0.48447762436E+02  0.89706721720E+02  0.00000000000E+00 0. -1.
          1    1    6    6  503    0  0.15695004402E+02 -0.14597024379E+01  0.22084669354E+02  0.27132941508E+02  0.00000000000E+00 0. -1.
         -1    1    6    6    0  503  0.13339627538E+03 -0.37961627867E+03  0.46873027523E+03  0.61774683831E+03  0.00000000000E+00 0.  1.
<mgrwt>
<rscale>  0 0.22073986E+04</rscale>
<asrwt>0</asrwt>
<pdfrwt beam="1">  1        1 0.97158311E-01 0.22073986E+04</pdfrwt>
<pdfrwt beam="2">  1       -2 0.29675284E+00 0.22073986E+04</pdfrwt>
<totfact> 0.84448266E-01</totfact>
</mgrwt>
</event>
<event>
12    5  0.5428626E-008  0.1822764E+04  0.7818608E-02  0.8694287E-01
         -2   -1    0    0    0  501 -0.00000000000E+00  0.00000000000E+00  0.68894997219E+03  0.68894997219E+03  0.00000000000E+00 0.  1.
          1   -1    0    0  501    0  0.00000000000E+00 -0.00000000000E+00 -0.12056274981E+04  0.12056274981E+04  0.00000000000E+00 0. -1.
        -24    2    1    2    0    0 -0.31460087140E+03  0.38583856563E+03  0.30124598461E+03  0.58712846370E+03  0.78266101477E+02 0.  0.
        254    2    1    2    0    0  0.31460087140E+03 -0.38583856563E+03 -0.81792351053E+03  0.13074490066E+04  0.89026902043E+03 0.  0.
         23    2    4    4    0    0  0.60879344626E+03 -0.33536318348E+03 -0.63571020789E+03  0.94623776705E+03  0.90224821075E+02 0.  0.
         23    2    4    4    0    0 -0.29419257486E+03 -0.50475382146E+02 -0.18221330264E+03  0.36121123954E+03  0.90414803000E+02 0.  0.
          3    1    3    3  502    0 -0.18786526952E+03  0.24225315396E+03  0.14108573035E+03  0.33746871471E+03  0.00000000000E+00 0. -1.
         -4    1    3    3    0  502 -0.12673560187E+03  0.14358541167E+03  0.16016025426E+03  0.24965974900E+03  0.00000000000E+00 0.  1.
         13    1    5    5    0    0  0.47957697464E+03 -0.23248641789E+03 -0.44829931756E+03  0.69643110732E+03  0.00000000000E+00 0.  1.
        -13    1    5    5    0    0  0.12921647162E+03 -0.10287676559E+03 -0.18741089033E+03  0.24980665973E+03  0.00000000000E+00 0. -1.
          4    1    6    6  503    0 -0.26034650294E+03 -0.71755718924E+02 -0.17117847030E+03  0.31973622485E+03  0.00000000000E+00 0.  1.
         -4    1    6    6    0  503 -0.33846071923E+02  0.21280336778E+02 -0.11034832343E+02  0.41475014682E+02  0.00000000000E+00 0. -1.
<mgrwt>
<rscale>  0 0.18227639E+04</rscale>
<asrwt>0</asrwt>
<pdfrwt beam="1">  1        1 0.18548115E+00 0.18227639E+04</pdfrwt>
<pdfrwt beam="2">  1       -2 0.10599230E+00 0.18227639E+04</pdfrwt>
<totfact> 0.62839001E+00</totfact>
</mgrwt>
</event>
<event>
12    5  0.5428626E-008  0.1795347E+04  0.7818608E-02  0.8708778E-01
         -2   -1    0    0    0  501 -0.00000000000E+00  0.00000000000E+00  0.82490046269E+03  0.82490046269E+03  0.00000000000E+00 0.  1.
          1   -1    0    0  501    0  0.00000000000E+00 -0.00000000000E+00 -0.97686655369E+03  0.97686655369E+03  0.00000000000E+00 0. -1.
        -24    2    1    2    0    0  0.15731438931E+03 -0.47223258712E+03 -0.49897618648E+03  0.70931078959E+03  0.79957039249E+02 0.  0.
        254    2    1    2    0    0 -0.15731438931E+03  0.47223258712E+03  0.34701009548E+03  0.10924562268E+04  0.90845647539E+03 0.  0.
         23    2    4    4    0    0  0.34823342651E+03  0.11990850308E+03  0.26873208576E+03  0.46474697970E+03  0.90156823193E+02 0.  0.
         23    2    4    4    0    0 -0.50554781582E+03  0.35232408404E+03  0.78278009721E+02  0.62770924710E+03  0.90446657273E+02 0.  0.
          3    1    3    3  502    0  0.91830729321E+02 -0.25037008922E+03 -0.32174522096E+03  0.41789717830E+03  0.00000000000E+00 0. -1.
         -4    1    3    3    0  502  0.65483659987E+02 -0.22186249791E+03 -0.17723096552E+03  0.29141361128E+03  0.00000000000E+00 0.  1.
         13    1    5    5    0    0  0.33823204082E+03  0.12942251006E+03  0.26869804929E+03  0.45094316852E+03  0.00000000000E+00 0.  1.
        -13    1    5    5    0    0  0.10001385695E+02 -0.95140069707E+01  0.34036468803E-01  0.13803811175E+02  0.00000000000E+00 0. -1.
          1    1    6    6  503    0 -0.36047533517E+02  0.33373222282E+02  0.31142218111E+02  0.58163858082E+02  0.00000000000E+00 0. -1.
         -1    1    6    6    0  503 -0.46950028230E+03  0.31895086176E+03  0.47135791610E+02  0.56954538902E+03  0.00000000000E+00 0.  1.
<mgrwt>
<rscale>  0 0.17953470E+04</rscale>
<asrwt>0</asrwt>
<pdfrwt beam="1">  1        1 0.15028716E+00 0.17953470E+04</pdfrwt>
<pdfrwt beam="2">  1       -2 0.12690776E+00 0.17953470E+04</pdfrwt>
<totfact> 0.60257028E+00</totfact>
</mgrwt>
</event>
<event>
12    5  0.5428626E-008  0.1423449E+04  0.7818608E-02  0.8937018E-01
          1   -1    0    0  501    0  0.00000000000E+00  0.00000000000E+00  0.16067512736E+04  0.16067512736E+04  0.00000000000E+00 0. -1.
         -2   -1    0    0    0  501 -0.00000000000E+00 -0.00000000000E+00 -0.31526457494E+03  0.31526457494E+03  0.00000000000E+00 0.  1.
        -24    2    1    2    0    0 -0.22909221820E+03 -0.52247240000E+02 -0.86709773590E+02  0.26286212584E+03  0.79780284766E+02 0.  0.
        254    2    1    2    0    0  0.22909221820E+03  0.52247240000E+02  0.13781964722E+04  0.16591537227E+04  0.89339383304E+03 0.  0.
         23    2    4    4    0    0 -0.23314866768E+03  0.28776514069E+03  0.43462803927E+03  0.57833684216E+03  0.91678203720E+02 0.  0.
         23    2    4    4    0    0  0.46224088588E+03 -0.23551790069E+03  0.94356843294E+03  0.10808168805E+04  0.93318933992E+02 0.  0.
          1    1    3    3  502    0 -0.13176626701E+02  0.16656620442E+02 -0.40856546354E+01  0.21627738429E+02  0.00000000000E+00 0. -1.
         -2    1    3    3    0  502 -0.21591559150E+03 -0.68903860442E+02 -0.82624118954E+02  0.24123438741E+03  0.00000000000E+00 0.  1.
         13    1    5    5    0    0 -0.16006819219E+02  0.67427602170E+00  0.45555013716E+02  0.48290083706E+02  0.00000000000E+00 0. -1.
        -13    1    5    5    0    0 -0.21714184846E+03  0.28709086467E+03  0.38907302556E+03  0.53004675845E+03  0.00000000000E+00 0.  1.
          2    1    6    6  503    0  0.12613433360E+03 -0.77347931757E+02  0.35791808275E+03  0.38729565789E+03  0.00000000000E+00 0. -1.
         -2    1    6    6    0  503  0.33610655227E+03 -0.15816996894E+03  0.58565035020E+03  0.69352122263E+03  0.00000000000E+00 0.  1.
<mgrwt>
<rscale>  0 0.14234490E+04</rscale>
<asrwt>0</asrwt>
<pdfrwt beam="1">  1        1 0.24719250E+00 0.14234490E+04</pdfrwt>
<pdfrwt beam="2">  1       -2 0.48502243E-01 0.14234490E+04</pdfrwt>
<totfact> 0.18985838E+01</totfact>
</mgrwt>
</event>
<event>
12    5  0.5428626E-008  0.2515936E+04  0.7818608E-02  0.8397330E-01
         -2   -1    0    0    0  501 -0.00000000000E+00  0.00000000000E+00  0.11339706815E+04  0.11339706815E+04  0.00000000000E+00 0.  1.
          1   -1    0    0  501    0  0.00000000000E+00 -0.00000000000E+00 -0.13955242340E+04  0.13955242340E+04  0.00000000000E+00 0. -1.
        -24    2    1    2    0    0  0.29807824032E+03  0.68984900993E+03 -0.91550431580E+03  0.11871931431E+04  0.80852414682E+02 0.  0.
        254    2    1    2    0    0 -0.29807824032E+03 -0.68984900993E+03  0.65395076325E+03  0.13423017724E+04  0.89965557499E+03 0.  0.
         23    2    4    4    0    0 -0.60718513394E+03 -0.36769209284E+03  0.38177369452E+03  0.81121491005E+03  0.91908728931E+02 0.  0.
         23    2    4    4    0    0  0.30910689362E+03 -0.32215691709E+03  0.27217706873E+03  0.53108686236E+03  0.92955622310E+02 0.  0.
          1    1    3    3  502    0  0.15242354949E+03  0.34847822277E+03 -0.52673485374E+03  0.64970733128E+03  0.00000000000E+00 0. -1.
         -2    1    3    3    0  502  0.14565469083E+03  0.34137078716E+03 -0.38876946207E+03  0.53748581184E+03  0.00000000000E+00 0.  1.
         13    1    5    5    0    0 -0.18153382723E+03 -0.89563079085E+02  0.67101896118E+02  0.21325745011E+03  0.00000000000E+00 0. -1.
        -13    1    5    5    0    0 -0.42565130670E+03 -0.27812901375E+03  0.31467179840E+03  0.59795745994E+03  0.00000000000E+00 0.  1.
          1    1    6    6  503    0  0.20266423941E+03 -0.23913330911E+03  0.23284981942E+03  0.39048248599E+03  0.00000000000E+00 0. -1.
         -1    1    6    6    0  503  0.10644265421E+03 -0.83023607985E+02  0.39327249316E+02  0.14060437637E+03  0.00000000000E+00 0.  1.
<mgrwt>
<rscale>  0 0.25159361E+04</rscale>
<asrwt>0</asrwt>
<pdfrwt beam="1">  1        1 0.21469604E+00 0.25159361E+04</pdfrwt>
<pdfrwt beam="2">  1       -2 0.17445703E+00 0.25159361E+04</pdfrwt>
<totfact> 0.11947145E+00</totfact>
</mgrwt>
</event>
<event>
12    5  0.5428626E-008  0.1401859E+04  0.7818608E-02  0.8952474E-01
         -2   -1    0    0    0  501 -0.00000000000E+00  0.00000000000E+00  0.49328446439E+03  0.49328446439E+03  0.00000000000E+00 0.  1.
          1   -1    0    0  501    0  0.00000000000E+00 -0.00000000000E+00 -0.99598145902E+03  0.99598145902E+03  0.00000000000E+00 0. -1.
        -24    2    1    2    0    0  0.20976306889E+03 -0.34861150283E+03 -0.11902048206E+03  0.43141728874E+03  0.80152834622E+02 0.  0.
        254    2    1    2    0    0 -0.20976306889E+03  0.34861150283E+03 -0.38367651258E+03  0.10578486347E+04  0.89794517795E+03 0.  0.
         23    2    4    4    0    0  0.51046361682E+02  0.42143539101E+03 -0.57008668789E+03  0.71683859744E+03  0.92979692596E+02 0.  0.
         23    2    4    4    0    0 -0.26080943057E+03 -0.72823888176E+02  0.18641017531E+03  0.34101003723E+03  0.90632302567E+02 0.  0.
          3    1    3    3  502    0  0.52490205557E+02 -0.82219281390E+02 -0.65426288629E+02  0.11745565612E+03  0.00000000000E+00 0. -1.
         -4    1    3    3    0  502  0.15727286333E+03 -0.26639222144E+03 -0.53594193426E+02  0.31396163261E+03  0.00000000000E+00 0.  1.
         13    1    5    5    0    0  0.75198313752E+02  0.25916669728E+03 -0.33508187078E+03  0.43023484691E+03  0.00000000000E+00 0. -1.
        -13    1    5    5    0    0 -0.24151952070E+02  0.16226869373E+03 -0.23500481711E+03  0.28660375053E+03  0.00000000000E+00 0.  1.
          1    1    6    6  503    0 -0.17315363835E+03 -0.10410735101E+02  0.85096286038E+02  0.19321476076E+03  0.00000000000E+00 0. -1.
         -1    1    6    6    0  503 -0.87655792225E+02 -0.62413153075E+02  0.10131388928E+03  0.14779527647E+03  0.00000000000E+00 0.  1.
<mgrwt>
<rscale>  0 0.14018590E+04</rscale>
<asrwt>0</asrwt>
<pdfrwt beam="1">  1        1 0.15322791E+00 0.14018590E+04</pdfrwt>
<pdfrwt beam="2">  1       -2 0.75889919E-01 0.14018590E+04</pdfrwt>
<totfact> 0.20263431E+01</totfact>
</mgrwt>
</event>
<event>
12    5  0.5428626E-008  0.2034377E+04  0.7818608E-02  0.8590715E-01
          1   -1    0    0  501    0  0.00000000000E+00  0.00000000000E+00  0.46466917378E+03  0.46466917378E+03  0.00000000000E+00 0. -1.
         -2   -1    0    0    0  501 -0.00000000000E+00 -0.00000000000E+00 -0.22266852198E+04  0.22266852198E+04  0.00000000000E+00 0.  1.
        -24    2    1    2    0    0  0.51830336090E+03  0.46638214698E+03 -0.13380877747E+04  0.15114016607E+04  0.87780444526E+02 0.  0.
        254    2    1    2    0    0 -0.51830336090E+03 -0.46638214698E+03 -0.42392827138E+03  0.11799527329E+04  0.85230428344E+03 0.  0.
         23    2    4    4    0    0 -0.65939482078E+03 -0.59103025535E+03 -0.35964042137E+03  0.96062335347E+03  0.96631786439E+02 0.  0.
         23    2    4    4    0    0  0.14109145987E+03  0.12464810837E+03 -0.64287850011E+02  0.21932937939E+03  0.92349867547E+02 0.  0.
          3    1    3    3  502    0  0.40430865928E+03  0.31519005314E+03 -0.94556760383E+03  0.10755967437E+04  0.00000000000E+00 0. -1.
         -4    1    3    3    0  502  0.11399470163E+03  0.15119209384E+03 -0.39252017083E+03  0.43580491708E+03  0.00000000000E+00 0.  1.
         13    1    5    5    0    0 -0.71089093580E+02 -0.85717419356E+02 -0.76138018137E+02  0.13490045594E+03  0.00000000000E+00 0. -1.
        -13    1    5    5    0    0 -0.58830572720E+03 -0.50531283599E+03 -0.28350240323E+03  0.82572289753E+03  0.00000000000E+00 0.  1.
          2    1    6    6  503    0  0.30927880463E+02 -0.11103677993E+02  0.55253299488E+00  0.32865342651E+02  0.00000000000E+00 0. -1.
         -2    1    6    6    0  503  0.11016357941E+03  0.13575178636E+03 -0.64840383006E+02  0.18646403674E+03  0.00000000000E+00 0.  1.
<mgrwt>
<rscale>  0 0.20343765E+04</rscale>
<asrwt>0</asrwt>
<pdfrwt beam="1">  1        1 0.71487567E-01 0.20343765E+04</pdfrwt>
<pdfrwt beam="2">  1       -2 0.34256695E+00 0.20343765E+04</pdfrwt>
<totfact> 0.68897045E-01</totfact>
</mgrwt>
</event>
<event>
12    5  0.5428626E-008  0.1878435E+04  0.7818608E-02  0.8665666E-01
          1   -1    0    0  501    0  0.00000000000E+00  0.00000000000E+00  0.25264255841E+04  0.25264255841E+04  0.00000000000E+00 0. -1.
         -2   -1    0    0    0  501 -0.00000000000E+00 -0.00000000000E+00 -0.34916092651E+03  0.34916092651E+03  0.00000000000E+00 0.  1.
        -24    2    1    2    0    0  0.10815217552E+03 -0.18215324729E+03  0.18955723140E+04  0.19090427276E+04  0.79831320093E+02 0.  0.
        254    2    1    2    0    0 -0.10815217552E+03  0.18215324729E+03  0.28169234356E+03  0.96654378296E+03  0.89998867181E+03 0.  0.
         23    2    4    4    0    0 -0.42358296277E+03 -0.46816413794E+02  0.35196691065E+03  0.55999530111E+03  0.89998489579E+02 0.  0.
         23    2    4    4    0    0  0.31543078725E+03  0.22896966109E+03 -0.70274567091E+02  0.40654848185E+03  0.91757648546E+02 0.  0.
          1    1    3    3  502    0  0.55849898487E+02 -0.74495531063E+02  0.11666280556E+04  0.11703374793E+04  0.00000000000E+00 0. -1.
         -2    1    3    3    0  502  0.52302277031E+02 -0.10765771623E+03  0.72894425842E+03  0.73870524835E+03  0.00000000000E+00 0.  1.
         13    1    5    5    0    0 -0.40722433223E+03 -0.28907649981E+02  0.31441199143E+03  0.51528847197E+03  0.00000000000E+00 0. -1.
        -13    1    5    5    0    0 -0.16358630536E+02 -0.17908763814E+02  0.37554919219E+02  0.44706829142E+02  0.00000000000E+00 0.  1.
          3    1    6    6  503    0  0.22648972789E+03  0.17922607193E+03 -0.90465794390E+02  0.30266093513E+03  0.00000000000E+00 0. -1.
         -3    1    6    6    0  503  0.88941059367E+02  0.49743589158E+02  0.20191227300E+02  0.10388754672E+03  0.00000000000E+00 0.  1.
<mgrwt>
<rscale>  0 0.18784346E+04</rscale>
<asrwt>0</asrwt>
<pdfrwt beam="1">  1        1 0.38868085E+00 0.18784346E+04</pdfrwt>
<pdfrwt beam="2">  1       -2 0.53717067E-01 0.18784346E+04</pdfrwt>
<totfact> 0.34941660E+00</totfact>
</mgrwt>
</event>
<event>
12    5  0.5428626E-008  0.2021554E+04  0.7818608E-02  0.8596609E-01
          1   -1    0    0  501    0  0.00000000000E+00  0.00000000000E+00  0.11544751212E+04  0.11544751212E+04  0.00000000000E+00 0. -1.
         -2   -1    0    0    0  501 -0.00000000000E+00 -0.00000000000E+00 -0.88496477321E+03  0.88496477321E+03  0.00000000000E+00 0.  1.
        -24    2    1    2    0    0 -0.69355482419E+03  0.32257363519E+03  0.38416167623E+03  0.85972595934E+03  0.80476626390E+02 0.  0.
        254    2    1    2    0    0  0.69355482419E+03 -0.32257363519E+03 -0.11465132829E+03  0.11797139350E+04  0.89079065843E+03 0.  0.
         23    2    4    4    0    0  0.66558251205E+02  0.22997396940E+03  0.15165022102E+03  0.29774695325E+03  0.91309535271E+02 0.  0.
         23    2    4    4    0    0  0.62699657299E+03 -0.55254760458E+03 -0.26630154931E+03  0.88196698178E+03  0.92280463327E+02 0.  0.
          3    1    3    3  502    0 -0.41048977621E+03  0.16912995727E+03  0.26094691625E+03  0.51497581683E+03  0.00000000000E+00 0. -1.
         -4    1    3    3    0  502 -0.28306504798E+03  0.15344367792E+03  0.12321475998E+03  0.34475014251E+03  0.00000000000E+00 0.  1.
         13    1    5    5    0    0  0.40067720579E+02  0.34195596246E+02  0.60358069280E+02  0.80111532018E+02  0.00000000000E+00 0. -1.
        -13    1    5    5    0    0  0.26490530626E+02  0.19577837315E+03  0.91292151740E+02  0.21763542123E+03  0.00000000000E+00 0.  1.
          3    1    6    6  503    0  0.13844340268E+02 -0.83733956658E+00 -0.13284729029E+02  0.19205491933E+02  0.00000000000E+00 0. -1.
         -3    1    6    6    0  503  0.61315223272E+03 -0.55171026502E+03 -0.25301682028E+03  0.86276148984E+03  0.00000000000E+00 0.  1.
<mgrwt>
<rscale>  0 0.20215537E+04</rscale>
<asrwt>0</asrwt>
<pdfrwt beam="1">  1        1 0.17761156E+00 0.20215537E+04</pdfrwt>
<pdfrwt beam="2">  1       -2 0.13614843E+00 0.20215537E+04</pdfrwt>
<totfact> 0.36191604E+00</totfact>
</mgrwt>
</event>
<event>
12    5  0.5428626E-008  0.1925025E+04  0.7818608E-02  0.8642499E-01
          3   -1    0    0  501    0  0.00000000000E+00  0.00000000000E+00  0.41945141586E+03  0.41945141586E+03  0.00000000000E+00 0. -1.
         -4   -1    0    0    0  501 -0.00000000000E+00 -0.00000000000E+00 -0.22086713390E+04  0.22086713390E+04  0.00000000000E+00 0.  1.
        -24    2    1    2    0    0  0.72213159362E+03  0.54001254528E+02 -0.92143137176E+03  0.11747323400E+04  0.81056300639E+02 0.  0.
        254    2    1    2    0    0 -0.72213159362E+03 -0.54001254528E+02 -0.86778855140E+03  0.14533904148E+04  0.91372673925E+03 0.  0.
         23    2    4    4    0    0  0.12843109991E+03 -0.15267150380E+03  0.15602117040E+02  0.22006476506E+03  0.91552931512E+02 0.  0.
         23    2    4    4    0    0 -0.85056269353E+03  0.98670249268E+02 -0.88339066844E+03  0.12333256498E+04  0.86720076203E+02 0.  0.
          3    1    3    3  502    0  0.49627996445E+03  0.27873433177E+02 -0.68909516853E+03  0.84966045141E+03  0.00000000000E+00 0. -1.
         -4    1    3    3    0  502  0.22585162918E+03  0.26127821351E+02 -0.23233620323E+03  0.32507188864E+03  0.00000000000E+00 0.  1.
         13    1    5    5    0    0  0.76883476883E+02 -0.23488466785E+02  0.75199519691E+01  0.80742348041E+02  0.00000000000E+00 0. -1.
        -13    1    5    5    0    0  0.51547623024E+02 -0.12918303701E+03  0.80821650714E+01  0.13932241702E+03  0.00000000000E+00 0.  1.
          4    1    6    6  503    0 -0.82109654276E+03  0.78330084531E+02 -0.84821053373E+03  0.11831298509E+04  0.00000000000E+00 0. -1.
         -4    1    6    6    0  503 -0.29466150773E+02  0.20340164736E+02 -0.35180134714E+02  0.50195798842E+02  0.00000000000E+00 0.  1.
<mgrwt>
<rscale>  0 0.19250250E+04</rscale>
<asrwt>0</asrwt>
<pdfrwt beam="1">  1        3 0.64530988E-01 0.19250250E+04</pdfrwt>
<pdfrwt beam="2">  1       -4 0.33979559E+00 0.19250250E+04</pdfrwt>
<totfact> 0.86045647E-02</totfact>
</mgrwt>
</event>
<event>
12    5  0.5428626E-008  0.2199427E+04  0.7818608E-02  0.8518667E-01
         -2   -1    0    0    0  501 -0.00000000000E+00  0.00000000000E+00  0.19308343717E+04  0.19308343717E+04  0.00000000000E+00 0.  1.
          1   -1    0    0  501    0  0.00000000000E+00 -0.00000000000E+00 -0.62634576251E+03  0.62634576251E+03  0.00000000000E+00 0. -1.
        -24    2    1    2    0    0 -0.20347639101E+03 -0.69972062408E+03  0.11875083514E+04  0.13955766295E+04  0.80289792587E+02 0.  0.
        254    2    1    2    0    0  0.20347639101E+03  0.69972062408E+03  0.11698025788E+03  0.11616035048E+04  0.89700988182E+03 0.  0.
         23    2    4    4    0    0 -0.17344226395E+03  0.26336293656E+03  0.39755971538E+03  0.51543376746E+03  0.90421159382E+02 0.  0.
         23    2    4    4    0    0  0.37691865495E+03  0.43635768751E+03 -0.28057945749E+03  0.64616973731E+03  0.79591416242E+02 0.  0.
          1    1    3    3  502    0 -0.15551070588E+02 -0.14960515312E+03  0.27997093056E+03  0.31781639290E+03  0.00000000000E+00 0. -1.
         -2    1    3    3    0  502 -0.18792532042E+03 -0.55011547095E+03  0.90753742079E+03  0.10777602366E+04  0.00000000000E+00 0.  1.
         13    1    5    5    0    0 -0.90312583039E+02  0.19880865403E+03  0.22672007119E+03  0.31477489457E+03  0.00000000000E+00 0.  1.
        -13    1    5    5    0    0 -0.83129680907E+02  0.64554282535E+02  0.17083964419E+03  0.20065887288E+03  0.00000000000E+00 0. -1.
          1    1    6    6  503    0  0.26197644645E+03  0.30204605134E+03 -0.15274798778E+03  0.42801334488E+03  0.00000000000E+00 0. -1.
         -1    1    6    6    0  503  0.11494220851E+03  0.13431163618E+03 -0.12783146972E+03  0.21815639243E+03  0.00000000000E+00 0.  1.
<mgrwt>
<rscale>  0 0.21994271E+04</rscale>
<asrwt>0</asrwt>
<pdfrwt beam="1">  1        1 0.96360887E-01 0.21994271E+04</pdfrwt>
<pdfrwt beam="2">  1       -2 0.29705144E+00 0.21994271E+04</pdfrwt>
<totfact> 0.85176492E-01</totfact>
</mgrwt>
</event>
<event>
12    5  0.5428626E-008  0.1862656E+04  0.7818608E-02  0.8673671E-01
         -2   -1    0    0    0  501 -0.00000000000E+00  0.00000000000E+00  0.61428004189E+03  0.61428004189E+03  0.00000000000E+00 0.  1.
          1   -1    0    0  501    0  0.00000000000E+00 -0.00000000000E+00 -0.14120136142E+04  0.14120136142E+04  0.00000000000E+00 0. -1.
        -24    2    1    2    0    0  0.50999180559E+03  0.49549995739E+03 -0.35454226183E+03  0.79930784098E+03  0.87068706748E+02 0.  0.
        254    2    1    2    0    0 -0.50999180559E+03 -0.49549995739E+03 -0.44319131047E+03  0.12269858151E+04  0.89636142446E+03 0.  0.
         23    2    4    4    0    0 -0.66668406504E+03 -0.45542797118E+03 -0.76810130629E+02  0.81615546975E+03  0.91256096413E+02 0.  0.
         23    2    4    4    0    0  0.15669225945E+03 -0.40071986206E+02 -0.36638117984E+03  0.41083034535E+03  0.91586983082E+02 0.  0.
          1    1    3    3  502    0  0.47121197250E+03  0.46752815162E+03 -0.35217909888E+03  0.75143423749E+03  0.00000000000E+00 0. -1.
         -2    1    3    3    0  502  0.38779833086E+02  0.27971805769E+02 -0.23631629496E+01  0.47873603492E+02  0.00000000000E+00 0.  1.
         13    1    5    5    0    0 -0.47916118897E+03 -0.27750256270E+03 -0.62946290411E+02  0.55728390682E+03  0.00000000000E+00 0. -1.
        -13    1    5    5    0    0 -0.18752287607E+03 -0.17792540848E+03 -0.13863840218E+02  0.25887156294E+03  0.00000000000E+00 0.  1.
          3    1    6    6  503    0  0.12801808037E+03 -0.18182753656E+02 -0.34605697831E+03  0.36942478757E+03  0.00000000000E+00 0. -1.
         -3    1    6    6    0  503  0.28674179077E+02 -0.21889232550E+02 -0.20324201528E+02  0.41405557781E+02  0.00000000000E+00 0.  1.
<mgrwt>
<rscale>  0 0.18626559E+04</rscale>
<asrwt>0</asrwt>
<pdfrwt beam="1">  1        1 0.21723286E+00 0.18626559E+04</pdfrwt>
<pdfrwt beam="2">  1       -2 0.94504623E-01 0.18626559E+04</pdfrwt>
<totfact> 0.58551981E+00</totfact>
</mgrwt>
</event>
<event>
12    5  0.5428626E-008  0.1676394E+04  0.7818608E-02  0.8774943E-01
          1   -1    0    0  501    0  0.00000000000E+00  0.00000000000E+00  0.66045449610E+03  0.66045449610E+03  0.00000000000E+00 0. -1.
         -4   -1    0    0    0  501 -0.00000000000E+00 -0.00000000000E+00 -0.10637736570E+04  0.10637736570E+04  0.00000000000E+00 0.  1.
        -24    2    1    2    0    0  0.96972376264E+02 -0.74667059926E+01  0.48841383214E+03  0.50329272894E+03  0.72774350718E+02 0.  0.
        254    2    1    2    0    0 -0.96972376264E+02  0.74667059926E+01 -0.89173299299E+03  0.12209354241E+04  0.82827301394E+03 0.  0.
         23    2    4    4    0    0  0.13830785752E+03 -0.35155519388E+03 -0.34787022337E+03  0.52211617685E+03  0.94188598188E+02 0.  0.
         23    2    4    4    0    0 -0.23528023379E+03  0.35902189987E+03 -0.54386276962E+03  0.69881924726E+03  0.91148862646E+02 0.  0.
          1    1    3    3  502    0  0.10183057141E+03  0.10954746000E+02  0.41304524456E+03  0.42555357570E+03  0.00000000000E+00 0. -1.
         -2    1    3    3    0  502 -0.48581951437E+01 -0.18421451993E+02  0.75368587575E+02  0.77739153241E+02  0.00000000000E+00 0.  1.
         13    1    5    5    0    0  0.32305880273E+01 -0.10006053648E+03 -0.12375992669E+03  0.15918249625E+03  0.00000000000E+00 0. -1.
        -13    1    5    5    0    0  0.13507726950E+03 -0.25149465740E+03 -0.22411029668E+03  0.36293368060E+03  0.00000000000E+00 0.  1.
          3    1    6    6  503    0 -0.88354837996E+01  0.77532113487E+01  0.13719033840E+01  0.11834702323E+02  0.00000000000E+00 0. -1.
         -3    1    6    6    0  503 -0.22644474999E+03  0.35126868853E+03 -0.54523467301E+03  0.68698454494E+03  0.00000000000E+00 0.  1.
<mgrwt>
<rscale>  0 0.16763939E+04</rscale>
<asrwt>0</asrwt>
<pdfrwt beam="1">  1        1 0.10160838E+00 0.16763939E+04</pdfrwt>
<pdfrwt beam="2">  1       -4 0.16365748E+00 0.16763939E+04</pdfrwt>
<totfact> 0.32068741E+00</totfact>
</mgrwt>
</event>
<event>
12    5  0.5428626E-008  0.1618297E+04  0.7818608E-02  0.8809386E-01
         -4   -1    0    0    0  501 -0.00000000000E+00  0.00000000000E+00  0.17502143682E+04  0.17502143682E+04  0.00000000000E+00 0.  1.
          3   -1    0    0  501    0  0.00000000000E+00 -0.00000000000E+00 -0.37408061689E+03  0.37408061689E+03  0.00000000000E+00 0. -1.
        -24    2    1    2    0    0 -0.33014814572E+03 -0.27425402309E+03  0.91539943127E+03  0.10141252334E+04  0.79251516925E+02 0.  0.
        254    2    1    2    0    0  0.33014814572E+03  0.27425402309E+03  0.46073432006E+03  0.11101697517E+04  0.91432362795E+03 0.  0.
         23    2    4    4    0    0  0.45277339832E+03  0.42752540338E+03  0.33242529001E+02  0.63055519983E+03  0.93343845732E+02 0.  0.
         23    2    4    4    0    0 -0.12262525260E+03 -0.15327138029E+03  0.42749179106E+03  0.47961455188E+03  0.93551153700E+02 0.  0.
          1    1    3    3  502    0 -0.10640135929E+03 -0.56151170860E+02  0.19884600969E+03  0.23240899039E+03  0.00000000000E+00 0. -1.
         -2    1    3    3    0  502 -0.22374678643E+03 -0.21810285223E+03  0.71655342158E+03  0.78171624300E+03  0.00000000000E+00 0.  1.
         13    1    5    5    0    0  0.28549721312E+03  0.29389539753E+03 -0.18996077281E+02  0.41017558964E+03  0.00000000000E+00 0.  1.
        -13    1    5    5    0    0  0.16727618521E+03  0.13363000585E+03  0.52238606283E+02  0.22037961019E+03  0.00000000000E+00 0. -1.
          3    1    6    6  503    0  0.11847829374E+01 -0.49804887700E+02  0.58187417396E+02  0.76600953601E+02  0.00000000000E+00 0. -1.
         -3    1    6    6    0  503 -0.12381003554E+03 -0.10346649259E+03  0.36930437366E+03  0.40301359828E+03  0.00000000000E+00 0.  1.
<mgrwt>
<rscale>  0 0.16182970E+04</rscale>
<asrwt>0</asrwt>
<pdfrwt beam="1">  1        3 0.57550865E-01 0.16182970E+04</pdfrwt>
<pdfrwt beam="2">  1       -4 0.26926374E+00 0.16182970E+04</pdfrwt>
<totfact> 0.31199919E-01</totfact>
</mgrwt>
</event>
<event>
12    5  0.5428626E-008  0.2126578E+04  0.7818608E-02  0.8549625E-01
          1   -1    0    0  501    0  0.00000000000E+00  0.00000000000E+00  0.12521879020E+04  0.12521879020E+04  0.00000000000E+00 0. -1.
         -2   -1    0    0    0  501 -0.00000000000E+00 -0.00000000000E+00 -0.90288658758E+03  0.90288658758E+03  0.00000000000E+00 0.  1.
        -24    2    1    2    0    0  0.57800893006E+03 -0.55950918682E+03  0.56314355199E+03  0.98524618540E+03  0.80215536739E+02 0.  0.
        254    2    1    2    0    0 -0.57800893006E+03  0.55950918682E+03 -0.21384223752E+03  0.11698283042E+04  0.82196405362E+03 0.  0.
         23    2    4    4    0    0 -0.43825202717E+03 -0.84376220434E+02 -0.21742235642E+03  0.50499777036E+03  0.92553125866E+02 0.  0.
         23    2    4    4    0    0 -0.13975690289E+03  0.64388540725E+03  0.35801189016E+01  0.66483053386E+03  0.88692795200E+02 0.  0.
          1    1    3    3  502    0  0.56026917624E+03 -0.53417431474E+03  0.52154231827E+03  0.93340780912E+03  0.00000000000E+00 0. -1.
         -2    1    3    3    0  502  0.17739753821E+02 -0.25334872081E+02  0.41601233719E+02  0.51838376286E+02  0.00000000000E+00 0.  1.
         13    1    5    5    0    0 -0.39964321234E+02 -0.48526070188E+01  0.71633446976E+01  0.40890197772E+02  0.00000000000E+00 0.  1.
        -13    1    5    5    0    0 -0.39828770593E+03 -0.79523613415E+02 -0.22458570112E+03  0.46410757259E+03  0.00000000000E+00 0. -1.
          1    1    6    6  503    0 -0.86264909706E+02  0.51931000192E+03  0.27580325971E+02  0.52714816429E+03  0.00000000000E+00 0. -1.
         -1    1    6    6    0  503 -0.53491993188E+02  0.12457540534E+03 -0.24000207070E+02  0.13768236957E+03  0.00000000000E+00 0.  1.
<mgrwt>
<rscale>  0 0.21265782E+04</rscale>
<asrwt>0</asrwt>
<pdfrwt beam="1">  1        1 0.19264429E+00 0.21265782E+04</pdfrwt>
<pdfrwt beam="2">  1       -2 0.13890563E+00 0.21265782E+04</pdfrwt>
<totfact> 0.28893505E+00</totfact>
</mgrwt>
</event>
<event>
12    5  0.5428626E-008  0.1994580E+04  0.7818608E-02  0.8609159E-01
          1   -1    0    0  501    0  0.00000000000E+00  0.00000000000E+00  0.14404061140E+04  0.14404061140E+04  0.00000000000E+00 0. -1.
         -2   -1    0    0    0  501 -0.00000000000E+00 -0.00000000000E+00 -0.69049113650E+03  0.69049113650E+03  0.00000000000E+00 0.  1.
        -24    2    1    2    0    0  0.14822494214E+03 -0.24862113548E+03  0.10840143592E+04  0.11248773656E+04  0.80491331070E+02 0.  0.
        254    2    1    2    0    0 -0.14822494214E+03  0.24862113548E+03 -0.33409938164E+03  0.10060198849E+04  0.90369824028E+03 0.  0.
         23    2    4    4    0    0  0.21186558770E+02  0.29409110892E+03  0.24400218495E+03  0.39346517218E+03  0.91319903876E+02 0.  0.
         23    2    4    4    0    0 -0.16941150091E+03 -0.45469973433E+02 -0.57810156659E+03  0.61255471270E+03  0.10126242950E+03 0.  0.
          3    1    3    3  502    0  0.14994939191E+03 -0.25130804198E+03  0.10299341196E+04  0.10707029666E+04  0.00000000000E+00 0. -1.
         -2    1    3    3    0  502 -0.17244497710E+01  0.26869064971E+01  0.54080239603E+02  0.54174399019E+02  0.00000000000E+00 0.  1.
         13    1    5    5    0    0  0.14435087580E+02  0.26047172958E+03  0.16854576738E+03  0.31058262889E+03  0.00000000000E+00 0. -1.
        -13    1    5    5    0    0  0.67514711899E+01  0.33619379332E+02  0.75456417575E+02  0.82882543296E+02  0.00000000000E+00 0.  1.
          2    1    6    6  503    0  0.79387470613E+01 -0.14323116644E+02 -0.18550218625E+02  0.24744413235E+02  0.00000000000E+00 0. -1.
         -2    1    6    6    0  503 -0.17735024797E+03 -0.31146856789E+02 -0.55955134796E+03  0.58781029946E+03  0.00000000000E+00 0.  1.
<mgrwt>
<rscale>  0 0.19945803E+04</rscale>
<asrwt>0</asrwt>
<pdfrwt beam="1">  1        1 0.22160094E+00 0.19945803E+04</pdfrwt>
<pdfrwt beam="2">  1       -2 0.10622941E+00 0.19945803E+04</pdfrwt>
<totfact> 0.41906239E+00</totfact>
</mgrwt>
</event>
<event>
12    5  0.5428626E-008  0.1757773E+04  0.7818608E-02  0.8729083E-01
         -2   -1    0    0    0  501 -0.00000000000E+00  0.00000000000E+00  0.93004410564E+03  0.93004410564E+03  0.00000000000E+00 0.  1.
          1   -1    0    0  501    0  0.00000000000E+00 -0.00000000000E+00 -0.83054258219E+03  0.83054258219E+03  0.00000000000E+00 0. -1.
        -24    2    1    2    0    0 -0.19853015188E+03  0.22338999756E+03 -0.54021556927E+03  0.62607351045E+03  0.10400897554E+03 0.  0.
        254    2    1    2    0    0  0.19853015188E+03 -0.22338999756E+03  0.63971709272E+03  0.11345131774E+04  0.88801175594E+03 0.  0.
         23    2    4    4    0    0  0.51407422829E+03 -0.12523260519E+03  0.56936329747E+03  0.78406422256E+03  0.10308551298E+03 0.  0.
         23    2    4    4    0    0 -0.31554407642E+03 -0.98157392365E+02  0.70353795249E+02  0.35044895481E+03  0.93069197830E+02 0.  0.
          3    1    3    3  502    0 -0.17983597927E+03  0.18609908522E+03 -0.37470669930E+03  0.45538880032E+03  0.00000000000E+00 0. -1.
         -4    1    3    3    0  502 -0.18694172603E+02  0.37290912342E+02 -0.16550886997E+03  0.17068471013E+03  0.00000000000E+00 0.  1.
         13    1    5    5    0    0  0.46552755475E+03 -0.14290646325E+03  0.52356558561E+03  0.71502383450E+03  0.00000000000E+00 0.  1.
        -13    1    5    5    0    0  0.48546673547E+02  0.17673858061E+02  0.45797711863E+02  0.69040388057E+02  0.00000000000E+00 0. -1.
          2    1    6    6  503    0 -0.23278275384E+03 -0.79835438470E+02  0.92393979020E+02  0.26286527934E+03  0.00000000000E+00 0. -1.
         -2    1    6    6    0  503 -0.82761322577E+02 -0.18321953896E+02 -0.22040183771E+02  0.87583675476E+02  0.00000000000E+00 0.  1.
<mgrwt>
<rscale>  0 0.17577727E+04</rscale>
<asrwt>0</asrwt>
<pdfrwt beam="1">  1        1 0.12777578E+00 0.17577727E+04</pdfrwt>
<pdfrwt beam="2">  1       -2 0.14308371E+00 0.17577727E+04</pdfrwt>
<totfact> 0.58554351E+00</totfact>
</mgrwt>
</event>
<event>
12    5  0.5428626E-008  0.1957202E+04  0.7818608E-02  0.8626896E-01
          1   -1    0    0  501    0  0.00000000000E+00  0.00000000000E+00  0.12178311463E+04  0.12178311463E+04  0.00000000000E+00 0. -1.
         -2   -1    0    0    0  501 -0.00000000000E+00 -0.00000000000E+00 -0.78636542453E+03  0.78636542453E+03  0.00000000000E+00 0.  1.
        -24    2    1    2    0    0  0.96970229164E+01 -0.56972270563E+03  0.68747765023E+03  0.89633503767E+03  0.78185590808E+02 0.  0.
        254    2    1    2    0    0 -0.96970229164E+01  0.56972270563E+03 -0.25601192843E+03  0.11078615332E+04  0.91495195265E+03 0.  0.
         23    2    4    4    0    0 -0.38076495722E+03  0.57290835410E+03 -0.19593639228E+03  0.72108977881E+03  0.91506636102E+02 0.  0.
         23    2    4    4    0    0  0.37106793430E+03 -0.31856484638E+01 -0.60075536154E+02  0.38677175438E+03  0.91004174156E+02 0.  0.
          3    1    3    3  502    0  0.23792610145E+02 -0.55070085530E+03  0.66419723634E+03  0.86313121197E+03  0.00000000000E+00 0. -1.
         -4    1    3    3    0  502 -0.14095587229E+02 -0.19021850334E+02  0.23280413897E+02  0.33203825693E+02  0.00000000000E+00 0.  1.
         13    1    5    5    0    0 -0.10446121686E+03  0.23665620547E+03 -0.68398398368E+02  0.26757549648E+03  0.00000000000E+00 0. -1.
        -13    1    5    5    0    0 -0.27630374036E+03  0.33625214862E+03 -0.12753799391E+03  0.45351428234E+03  0.00000000000E+00 0.  1.
          2    1    6    6  503    0  0.22937757661E+03  0.30359525193E+02 -0.67356436129E+02  0.24098270251E+03  0.00000000000E+00 0.  1.
         -2    1    6    6    0  503  0.14169035770E+03 -0.33545173657E+02  0.72808999750E+01  0.14578905187E+03  0.00000000000E+00 0. -1.
<mgrwt>
<rscale>  0 0.19572024E+04</rscale>
<asrwt>0</asrwt>
<pdfrwt beam="1">  1        1 0.18735864E+00 0.19572024E+04</pdfrwt>
<pdfrwt beam="2">  1       -2 0.12097930E+00 0.19572024E+04</pdfrwt>
<totfact> 0.44072879E+00</totfact>
</mgrwt>
</event>
<event>
12    5  0.5428626E-008  0.1982933E+04  0.7818608E-02  0.8614642E-01
         -2   -1    0    0    0  501 -0.00000000000E+00  0.00000000000E+00  0.56151940580E+03  0.56151940580E+03  0.00000000000E+00 0.  1.
          1   -1    0    0  501    0  0.00000000000E+00 -0.00000000000E+00 -0.17506170245E+04  0.17506170245E+04  0.00000000000E+00 0. -1.
        -24    2    1    2    0    0  0.40016000353E+02  0.16613977146E+03  0.41969399889E+03  0.46021566307E+03  0.80322474351E+02 0.  0.
        254    2    1    2    0    0 -0.40016000353E+02 -0.16613977146E+03 -0.16087916176E+04  0.18519207672E+04  0.90121937135E+03 0.  0.
         23    2    4    4    0    0  0.27180558066E+03 -0.41249206640E+02 -0.10152298791E+03  0.30507363715E+03  0.84753975031E+02 0.  0.
         23    2    4    4    0    0 -0.31182158101E+03 -0.12489056482E+03 -0.15072686297E+04  0.15468471301E+04  0.89704906365E+02 0.  0.
          1    1    3    3  502    0  0.82080120897E+01  0.42362763831E+02  0.21204296104E+03  0.21638898435E+03  0.00000000000E+00 0. -1.
         -2    1    3    3    0  502  0.31807988263E+02  0.12377700763E+03  0.20765103785E+03  0.24382667872E+03  0.00000000000E+00 0.  1.
         13    1    5    5    0    0  0.11108734357E+03  0.24742178213E+02 -0.44800910767E+02  0.12230983153E+03  0.00000000000E+00 0.  1.
        -13    1    5    5    0    0  0.16071823709E+03 -0.65991384853E+02 -0.56722077145E+02  0.18276380562E+03  0.00000000000E+00 0. -1.
          1    1    6    6  503    0 -0.68820342140E+02 -0.29108093211E+01 -0.19787824723E+03  0.20952449268E+03  0.00000000000E+00 0. -1.
         -1    1    6    6    0  503 -0.24300123887E+03 -0.12197975550E+03 -0.13093903824E+04  0.13373226374E+04  0.00000000000E+00 0.  1.
<mgrwt>
<rscale>  0 0.19829326E+04</rscale>
<asrwt>0</asrwt>
<pdfrwt beam="1">  1        1 0.26932569E+00 0.19829326E+04</pdfrwt>
<pdfrwt beam="2">  1       -2 0.86387603E-01 0.19829326E+04</pdfrwt>
<totfact> 0.41689429E+00</totfact>
</mgrwt>
</event>
<event>
12    5  0.5428626E-008  0.2142781E+04  0.7818608E-02  0.8542629E-01
          1   -1    0    0  501    0  0.00000000000E+00  0.00000000000E+00  0.14076983364E+04  0.14076983364E+04  0.00000000000E+00 0. -1.
         -2   -1    0    0    0  501 -0.00000000000E+00 -0.00000000000E+00 -0.81542860361E+03  0.81542860361E+03  0.00000000000E+00 0.  1.
        -24    2    1    2    0    0  0.31257575223E+03  0.38289268469E+03 -0.50924083737E+03  0.71425766974E+03  0.80792199268E+02 0.  0.
        254    2    1    2    0    0 -0.31257575223E+03 -0.38289268469E+03  0.11015105701E+04  0.15088692702E+04  0.90501410468E+03 0.  0.
         23    2    4    4    0    0 -0.76714365285E+02 -0.21454347168E+03  0.11718043727E+04  0.11969983005E+04  0.88121781934E+02 0.  0.
         23    2    4    4    0    0 -0.23586138695E+03 -0.16834921302E+03 -0.70293802537E+02  0.31187096976E+03  0.91379602371E+02 0.  0.
          3    1    3    3  502    0  0.51976327848E+02  0.24257929694E+02 -0.64228189038E+02  0.86111823095E+02  0.00000000000E+00 0. -1.
         -4    1    3    3    0  502  0.26059942438E+03  0.35863475500E+03 -0.44501264833E+03  0.62814584665E+03  0.00000000000E+00 0.  1.
         13    1    5    5    0    0 -0.66111743924E+02 -0.10680347913E+03  0.45320962323E+03  0.47029427854E+03  0.00000000000E+00 0.  1.
        -13    1    5    5    0    0 -0.10602621361E+02 -0.10773999254E+03  0.71859474943E+03  0.72670402192E+03  0.00000000000E+00 0. -1.
          3    1    6    6  503    0 -0.24324666158E+03 -0.16910803776E+03 -0.66930559388E+02  0.30372054027E+03  0.00000000000E+00 0. -1.
         -3    1    6    6    0  503  0.73852746325E+01  0.75882474064E+00 -0.33632431489E+01  0.81504294895E+01  0.00000000000E+00 0.  1.
<mgrwt>
<rscale>  0 0.21427809E+04</rscale>
<asrwt>0</asrwt>
<pdfrwt beam="1">  1        1 0.21656897E+00 0.21427809E+04</pdfrwt>
<pdfrwt beam="2">  1       -2 0.12545055E+00 0.21427809E+04</pdfrwt>
<totfact> 0.28995956E+00</totfact>
</mgrwt>
</event>
<event>
12    5  0.5428626E-008  0.1237272E+04  0.7818608E-02  0.9080844E-01
         -2   -1    0    0    0  501 -0.00000000000E+00  0.00000000000E+00  0.18172126310E+03  0.18172126310E+03  0.00000000000E+00 0.  1.
          1   -1    0    0  501    0  0.00000000000E+00 -0.00000000000E+00 -0.21060289797E+04  0.21060289797E+04  0.00000000000E+00 0. -1.
        -24    2    1    2    0    0 -0.17490940004E+02  0.13505788338E+03 -0.93216877287E+03  0.94541037530E+03  0.79470697542E+02 0.  0.
        254    2    1    2    0    0  0.17490940004E+02 -0.13505788338E+03 -0.99213894377E+03  0.13423398676E+04  0.89386244547E+03 0.  0.
         23    2    4    4    0    0  0.35589789518E+03 -0.33158590670E+03 -0.63667360144E+03  0.80618049963E+03  0.89225545027E+02 0.  0.
         23    2    4    4    0    0 -0.33840695518E+03  0.19652802332E+03 -0.35546534233E+03  0.53615936793E+03  0.89267726276E+02 0.  0.
          3    1    3    3  502    0 -0.47136841920E+00  0.10346929574E+03 -0.84248187399E+03  0.84881200825E+03  0.00000000000E+00 0. -1.
         -4    1    3    3    0  502 -0.17019571585E+02  0.31588587640E+02 -0.89686898875E+02  0.96598367046E+02  0.00000000000E+00 0.  1.
         13    1    5    5    0    0  0.10436538147E+03 -0.57122014697E+02 -0.19616700268E+03  0.22942656854E+03  0.00000000000E+00 0. -1.
        -13    1    5    5    0    0  0.25153251372E+03 -0.27446389200E+03 -0.44050659877E+03  0.57675393109E+03  0.00000000000E+00 0.  1.
          4    1    6    6  503    0 -0.22258314140E+03  0.78786624356E+02 -0.20296741011E+03  0.31136209881E+03  0.00000000000E+00 0. -1.
         -4    1    6    6    0  503 -0.11582381378E+03  0.11774139896E+03 -0.15249793222E+03  0.22479726911E+03  0.00000000000E+00 0.  1.
<mgrwt>
<rscale>  0 0.12372716E+04</rscale>
<asrwt>0</asrwt>
<pdfrwt beam="1">  1        1 0.32400446E+00 0.12372716E+04</pdfrwt>
<pdfrwt beam="2">  1       -2 0.27957117E-01 0.12372716E+04</pdfrwt>
<totfact> 0.25631896E+01</totfact>
</mgrwt>
</event>
<event>
12    5  0.5428626E-008  0.1517010E+04  0.7818608E-02  0.8873219E-01
          1   -1    0    0  501    0  0.00000000000E+00  0.00000000000E+00  0.95599410966E+03  0.95599410966E+03  0.00000000000E+00 0. -1.
         -2   -1    0    0    0  501 -0.00000000000E+00 -0.00000000000E+00 -0.60181348856E+03  0.60181348856E+03  0.00000000000E+00 0.  1.
        -24    2    1    2    0    0  0.10485706839E+03  0.91329633428E+02 -0.36678851497E+03  0.40022134544E+03  0.79417906706E+02 0.  0.
        254    2    1    2    0    0 -0.10485706839E+03 -0.91329633428E+02  0.72096913606E+03  0.11575862528E+04  0.89491526455E+03 0.  0.
         23    2    4    4    0    0  0.34106552200E+03 -0.17619812334E+03  0.14699560052E+03  0.42012282742E+03  0.86741077808E+02 0.  0.
         23    2    4    4    0    0 -0.44592259039E+03  0.84868489913E+02  0.57397353554E+03  0.73746342535E+03  0.91416995333E+02 0.  0.
          1    1    3    3  502    0 -0.33874205609E+01  0.66039355709E+01  0.10886441670E+01  0.75014484737E+01  0.00000000000E+00 0. -1.
         -2    1    3    3    0  502  0.10824448895E+03  0.84725697857E+02 -0.36787715913E+03  0.39271989697E+03  0.00000000000E+00 0.  1.
         13    1    5    5    0    0  0.22965310345E+03 -0.10278749881E+03  0.53581475803E+02  0.25724850318E+03  0.00000000000E+00 0.  1.
        -13    1    5    5    0    0  0.11141241855E+03 -0.73410624532E+02  0.93414124719E+02  0.16287432425E+03  0.00000000000E+00 0. -1.
          4    1    6    6  503    0 -0.37221240611E+03  0.48491978905E+02  0.51033344583E+03  0.63350909482E+03  0.00000000000E+00 0.  1.
         -4    1    6    6    0  503 -0.73710184277E+02  0.36376511008E+02  0.63640089706E+02  0.10395433054E+03  0.00000000000E+00 0. -1.
<mgrwt>
<rscale>  0 0.15170104E+04</rscale>
<asrwt>0</asrwt>
<pdfrwt beam="1">  1        1 0.14707602E+00 0.15170104E+04</pdfrwt>
<pdfrwt beam="2">  1       -2 0.92586691E-01 0.15170104E+04</pdfrwt>
<totfact> 0.13737655E+01</totfact>
</mgrwt>
</event>
<event>
12    5  0.5428626E-008  0.2576670E+04  0.7818608E-02  0.8376169E-01
          1   -1    0    0  501    0  0.00000000000E+00  0.00000000000E+00  0.14410668252E+04  0.14410668252E+04  0.00000000000E+00 0. -1.
         -2   -1    0    0    0  501 -0.00000000000E+00 -0.00000000000E+00 -0.11517907844E+04  0.11517907844E+04  0.00000000000E+00 0.  1.
        -24    2    1    2    0    0  0.74922781814E+03 -0.24566625664E+03  0.95766874560E+03  0.12430802654E+04  0.80155391419E+02 0.  0.
        254    2    1    2    0    0 -0.74922781814E+03  0.24566625664E+03 -0.66839270475E+03  0.13497773442E+04  0.86801833972E+03 0.  0.
         23    2    4    4    0    0  0.44720259736E+00 -0.19935921608E+03 -0.35962827381E+03  0.42028587993E+03  0.86967974117E+02 0.  0.
         23    2    4    4    0    0 -0.74967502074E+03  0.44502547271E+03 -0.30876443094E+03  0.92949146429E+03  0.92512703437E+02 0.  0.
          3    1    3    3  502    0  0.71018195298E+03 -0.24584515270E+03  0.88908865237E+03  0.11641635956E+04  0.00000000000E+00 0. -1.
         -4    1    3    3    0  502  0.39045865160E+02  0.17889606855E+00  0.68580093224E+02  0.78916669827E+02  0.00000000000E+00 0.  1.
         13    1    5    5    0    0 -0.31777459730E+02 -0.90749900186E+02 -0.10966654608E+03  0.14584958917E+03  0.00000000000E+00 0. -1.
        -13    1    5    5    0    0  0.32224662328E+02 -0.10860931589E+03 -0.24996172772E+03  0.27443629076E+03  0.00000000000E+00 0.  1.
          4    1    6    6  503    0 -0.32375634198E+03  0.23891222021E+03 -0.16590632123E+03  0.43522652190E+03  0.00000000000E+00 0. -1.
         -4    1    6    6    0  503 -0.42591867876E+03  0.20611325250E+03 -0.14285810971E+03  0.49426494239E+03  0.00000000000E+00 0.  1.
<mgrwt>
<rscale>  0 0.25766703E+04</rscale>
<asrwt>0</asrwt>
<pdfrwt beam="1">  1        1 0.22170259E+00 0.25766703E+04</pdfrwt>
<pdfrwt beam="2">  1       -2 0.17719858E+00 0.25766703E+04</pdfrwt>
<totfact> 0.10565542E+00</totfact>
</mgrwt>
</event>
<event>
12    5  0.5428626E-008  0.1569610E+04  0.7818608E-02  0.8839438E-01
         -2   -1    0    0    0  501 -0.00000000000E+00  0.00000000000E+00  0.11985733058E+04  0.11985733058E+04  0.00000000000E+00 0.  1.
          1   -1    0    0  501    0  0.00000000000E+00 -0.00000000000E+00 -0.51387701309E+03  0.51387701309E+03  0.00000000000E+00 0. -1.
        -24    2    1    2    0    0 -0.12360805164E+03 -0.50069257031E+03  0.34487732539E+03  0.62534291940E+03  0.78367065009E+02 0.  0.
        254    2    1    2    0    0  0.12360805164E+03  0.50069257031E+03  0.33981896729E+03  0.10871073995E+04  0.89462481914E+03 0.  0.
         23    2    4    4    0    0  0.94859881358E+02 -0.43063335559E+02  0.49440102796E+03  0.51412492408E+03  0.95074776636E+02 0.  0.
         23    2    4    4    0    0  0.28748170282E+02  0.54375590587E+03 -0.15458206068E+03  0.57298247537E+03  0.88973935147E+02 0.  0.
          3    1    3    3  502    0 -0.86424642246E+02 -0.29282035886E+03  0.16007772860E+03  0.34472867671E+03  0.00000000000E+00 0. -1.
         -4    1    3    3    0  502 -0.37183409394E+02 -0.20787221145E+03  0.18479959679E+03  0.28061424269E+03  0.00000000000E+00 0.  1.
         13    1    5    5    0    0  0.89961061939E+02 -0.52544190836E+02  0.49235770676E+03  0.50325937256E+03  0.00000000000E+00 0. -1.
        -13    1    5    5    0    0  0.48988194194E+01  0.94808552768E+01  0.20433211995E+01  0.10865551528E+02  0.00000000000E+00 0.  1.
          3    1    6    6  503    0  0.23986376715E+02  0.94554712313E+02 -0.58003675564E+02  0.11349170132E+03  0.00000000000E+00 0. -1.
         -3    1    6    6    0  503  0.47617935675E+01  0.44920119356E+03 -0.96578385113E+02  0.45949077406E+03  0.00000000000E+00 0.  1.
<mgrwt>
<rscale>  0 0.15696105E+04</rscale>
<asrwt>0</asrwt>
<pdfrwt beam="1">  1        1 0.79058002E-01 0.15696105E+04</pdfrwt>
<pdfrwt beam="2">  1       -2 0.18439589E+00 0.15696105E+04</pdfrwt>
<totfact> 0.60672126E+00</totfact>
</mgrwt>
</event>
<event>
12    5  0.5428626E-008  0.1151902E+04  0.7818608E-02  0.9156031E-01
          1   -1    0    0  501    0  0.00000000000E+00  0.00000000000E+00  0.88428847255E+03  0.88428847255E+03  0.00000000000E+00 0. -1.
         -2   -1    0    0    0  501 -0.00000000000E+00 -0.00000000000E+00 -0.37512599614E+03  0.37512599614E+03  0.00000000000E+00 0.  1.
        -24    2    1    2    0    0 -0.39314914044E+02 -0.19554162383E+03  0.65295223009E+01  0.21490561709E+03  0.79747103272E+02 0.  0.
        254    2    1    2    0    0  0.39314914044E+02  0.19554162383E+03  0.50263295411E+03  0.10445088516E+04  0.89363116854E+03 0.  0.
         23    2    4    4    0    0  0.53970787889E+02 -0.32986165011E+03  0.34140925236E+03  0.48685015085E+03  0.93494586074E+02 0.  0.
         23    2    4    4    0    0 -0.14655873845E+02  0.52540327394E+03  0.16122370175E+03  0.55765870074E+03  0.93417073384E+02 0.  0.
          1    1    3    3  502    0 -0.26425157885E+02 -0.18458847348E+03  0.26929783000E+02  0.18840490101E+03  0.00000000000E+00 0. -1.
         -2    1    3    3    0  502 -0.12889756159E+02 -0.10953150348E+02 -0.20400260699E+02  0.26500716084E+02  0.00000000000E+00 0.  1.
         13    1    5    5    0    0  0.34454061454E+02 -0.28106533865E+03  0.23426858872E+03  0.36751405225E+03  0.00000000000E+00 0.  1.
        -13    1    5    5    0    0  0.19516726436E+02 -0.48796311462E+02  0.10714066365E+03  0.11933609860E+03  0.00000000000E+00 0. -1.
          2    1    6    6  503    0 -0.18569984463E+02  0.22720049461E+02 -0.12102152370E+01  0.29368513606E+02  0.00000000000E+00 0. -1.
         -2    1    6    6    0  503  0.39141106181E+01  0.50268322448E+03  0.16243391699E+03  0.52829018714E+03  0.00000000000E+00 0.  1.
<mgrwt>
<rscale>  0 0.11519021E+04</rscale>
<asrwt>0</asrwt>
<pdfrwt beam="1">  1        1 0.13604438E+00 0.11519021E+04</pdfrwt>
<pdfrwt beam="2">  1       -2 0.57711692E-01 0.11519021E+04</pdfrwt>
<totfact> 0.45873414E+01</totfact>
</mgrwt>
</event>
<event>
12    5  0.5428626E-008  0.1507320E+04  0.7818608E-02  0.8879600E-01
          1   -1    0    0  501    0  0.00000000000E+00  0.00000000000E+00  0.12630766544E+04  0.12630766544E+04  0.00000000000E+00 0. -1.
         -2   -1    0    0    0  501 -0.00000000000E+00 -0.00000000000E+00 -0.44969838836E+03  0.44969838836E+03  0.00000000000E+00 0.  1.
        -24    2    1    2    0    0  0.28017695088E+03 -0.30864147321E+03 -0.91521320521E+01  0.42423771284E+03  0.78327470819E+02 0.  0.
        254    2    1    2    0    0 -0.28017695088E+03  0.30864147321E+03  0.82253039808E+03  0.12885373299E+04  0.90000750665E+03 0.  0.
         23    2    4    4    0    0  0.13268090275E+03 -0.23823798331E+03  0.34017712606E+03  0.44543905146E+03  0.91290266868E+02 0.  0.
         23    2    4    4    0    0 -0.41285785363E+03  0.54687945652E+03  0.48235327202E+03  0.84309827845E+03  0.92850852647E+02 0.  0.
          1    1    3    3  502    0  0.61905778883E+02 -0.37242178737E+02  0.19352490945E+02  0.74791872833E+02  0.00000000000E+00 0. -1.
         -2    1    3    3    0  502  0.21827117200E+03 -0.27139929448E+03 -0.28504622997E+02  0.34944584001E+03  0.00000000000E+00 0.  1.
         13    1    5    5    0    0 -0.30913706669E+01 -0.45762065889E+02  0.25845142086E+02  0.52646886104E+02  0.00000000000E+00 0. -1.
        -13    1    5    5    0    0  0.13577227341E+03 -0.19247591742E+03  0.31433198397E+03  0.39279216535E+03  0.00000000000E+00 0.  1.
          1    1    6    6  503    0 -0.95807095162E+02  0.75674314959E+02  0.65101992137E+02  0.13836137759E+03  0.00000000000E+00 0. -1.
         -1    1    6    6    0  503 -0.31705075846E+03  0.47120514156E+03  0.41725127988E+03  0.70473690087E+03  0.00000000000E+00 0.  1.
<mgrwt>
<rscale>  0 0.15073202E+04</rscale>
<asrwt>0</asrwt>
<pdfrwt beam="1">  1        1 0.19431948E+00 0.15073202E+04</pdfrwt>
<pdfrwt beam="2">  1       -2 0.69184368E-01 0.15073202E+04</pdfrwt>
<totfact> 0.15550552E+01</totfact>
</mgrwt>
</event>
<event>
12    5  0.5428626E-008  0.2205747E+04  0.7818608E-02  0.8516040E-01
         -2   -1    0    0    0  501 -0.00000000000E+00  0.00000000000E+00  0.19908982666E+04  0.19908982666E+04  0.00000000000E+00 0.  1.
          1   -1    0    0  501    0  0.00000000000E+00 -0.00000000000E+00 -0.61094522893E+03  0.61094522893E+03  0.00000000000E+00 0. -1.
        -24    2    1    2    0    0  0.72840736130E+02 -0.40004244008E+03  0.15523124706E+04  0.16068402152E+04  0.83197020525E+02 0.  0.
        254    2    1    2    0    0 -0.72840736130E+02  0.40004244008E+03 -0.17235943296E+03  0.99500328027E+03  0.89161876770E+03 0.  0.
         23    2    4    4    0    0  0.29798349950E+03  0.12087859625E+03 -0.35525950270E+03  0.48791333738E+03  0.91892924291E+02 0.  0.
         23    2    4    4    0    0 -0.37082423563E+03  0.27916384382E+03  0.18290006974E+03  0.50708994289E+03  0.90800381265E+02 0.  0.
          3    1    3    3  502    0  0.65322693691E+02 -0.39793648815E+03  0.14749256927E+04  0.15290605945E+04  0.00000000000E+00 0. -1.
         -4    1    3    3    0  502  0.75180424389E+01 -0.21059519240E+01  0.77386777940E+02  0.77779620696E+02  0.00000000000E+00 0.  1.
         13    1    5    5    0    0  0.68898732323E+01 -0.39748748906E+01  0.40514873149E+01  0.89266193498E+01  0.00000000000E+00 0. -1.
        -13    1    5    5    0    0  0.29109362626E+03  0.12485347114E+03 -0.35931099001E+03  0.47898671803E+03  0.00000000000E+00 0.  1.
          1    1    6    6  503    0 -0.43929108653E+01  0.28528189061E+01 -0.83862298706E+01  0.98876232242E+01  0.00000000000E+00 0. -1.
         -1    1    6    6    0  503 -0.36643132476E+03  0.27631102492E+03  0.19128629961E+03  0.49720231966E+03  0.00000000000E+00 0.  1.
<mgrwt>
<rscale>  0 0.22057469E+04</rscale>
<asrwt>0</asrwt>
<pdfrwt beam="1">  1        1 0.93991575E-01 0.22057469E+04</pdfrwt>
<pdfrwt beam="2">  1       -2 0.30629204E+00 0.22057469E+04</pdfrwt>
<totfact> 0.77500768E-01</totfact>
</mgrwt>
</event>
<event>
12    5  0.5428626E-008  0.1869154E+04  0.7818608E-02  0.8670365E-01
         -2   -1    0    0    0  501 -0.00000000000E+00  0.00000000000E+00  0.38261229276E+03  0.38261229276E+03  0.00000000000E+00 0.  1.
          1   -1    0    0  501    0  0.00000000000E+00 -0.00000000000E+00 -0.22828166991E+04  0.22828166991E+04  0.00000000000E+00 0. -1.
        -24    2    1    2    0    0  0.16289455659E+03 -0.43805294393E+03  0.44220853346E+02  0.47624145954E+03  0.80158752871E+02 0.  0.
        254    2    1    2    0    0 -0.16289455659E+03  0.43805294393E+03 -0.19444252597E+04  0.21891875323E+04  0.89068930774E+03 0.  0.
         23    2    4    4    0    0 -0.78025591046E+02  0.58929247360E+03 -0.18945812716E+04  0.19880149097E+04  0.97012752763E+02 0.  0.
         23    2    4    4    0    0 -0.84868965540E+02 -0.15123952967E+03 -0.49843988137E+02  0.20117262267E+03  0.88937417948E+02 0.  0.
          3    1    3    3  502    0  0.36281219702E+01 -0.59986872371E+00  0.85806569677E+01  0.93354585058E+01  0.00000000000E+00 0. -1.
         -4    1    3    3    0  502  0.15926643462E+03 -0.43745307521E+03  0.35640196379E+02  0.46690600103E+03  0.00000000000E+00 0.  1.
         13    1    5    5    0    0 -0.76927157893E+02  0.48571404702E+03 -0.14356759540E+04  0.15175642879E+04  0.00000000000E+00 0.  1.
        -13    1    5    5    0    0 -0.10984331528E+01  0.10357842658E+03 -0.45890531757E+03  0.47045062175E+03  0.00000000000E+00 0. -1.
          2    1    6    6  503    0 -0.26629370934E+02 -0.44108106025E+02  0.25856401720E+02  0.57647219563E+02  0.00000000000E+00 0. -1.
         -2    1    6    6    0  503 -0.58239594606E+02 -0.10713142365E+03 -0.75700389857E+02  0.14352540311E+03  0.00000000000E+00 0.  1.
<mgrwt>
<rscale>  0 0.18691535E+04</rscale>
<asrwt>0</asrwt>
<pdfrwt beam="1">  1        1 0.35120257E+00 0.18691535E+04</pdfrwt>
<pdfrwt beam="2">  1       -2 0.58863429E-01 0.18691535E+04</pdfrwt>
<totfact> 0.42503943E+00</totfact>
</mgrwt>
</event>
<event>
12    5  0.5428626E-008  0.1617817E+04  0.7818608E-02  0.8809676E-01
         -2   -1    0    0    0  501 -0.00000000000E+00  0.00000000000E+00  0.52563433662E+03  0.52563433662E+03  0.00000000000E+00 0.  1.
          1   -1    0    0  501    0  0.00000000000E+00 -0.00000000000E+00 -0.12448451554E+04  0.12448451554E+04  0.00000000000E+00 0. -1.
        -24    2    1    2    0    0  0.37306829476E+03 -0.14697103938E+03  0.16277354155E+03  0.44133976099E+03  0.86632094698E+02 0.  0.
        254    2    1    2    0    0 -0.37306829476E+03  0.14697103938E+03 -0.88198436038E+03  0.13291397311E+04  0.90990965146E+03 0.  0.
         23    2    4    4    0    0  0.39815948618E+02  0.10148655956E+03  0.15523424723E+03  0.20819650030E+03  0.85809554752E+02 0.  0.
         23    2    4    4    0    0 -0.41288424337E+03  0.45484479823E+02 -0.10372186076E+04  0.11209432308E+04  0.90272090552E+02 0.  0.
          3    1    3    3  502    0  0.56067816361E+02 -0.75995271603E+01 -0.45204080235E+01  0.56760786933E+02  0.00000000000E+00 0. -1.
         -4    1    3    3    0  502  0.31700047840E+03 -0.13937151222E+03  0.16729394958E+03  0.38457897406E+03  0.00000000000E+00 0.  1.
         13    1    5    5    0    0  0.58269554643E+02  0.55190835737E+02  0.12886022188E+03  0.15181016478E+03  0.00000000000E+00 0. -1.
        -13    1    5    5    0    0 -0.18453606025E+02  0.46295723824E+02  0.26374025349E+02  0.56386335515E+02  0.00000000000E+00 0.  1.
          3    1    6    6  503    0 -0.30101857422E+03  0.66456640883E+02 -0.81324603997E+03  0.86971132491E+03  0.00000000000E+00 0. -1.
         -3    1    6    6    0  503 -0.11186566915E+03 -0.20972161061E+02 -0.22397256764E+03  0.25123190588E+03  0.00000000000E+00 0.  1.
<mgrwt>
<rscale>  0 0.16178175E+04</rscale>
<asrwt>0</asrwt>
<pdfrwt beam="1">  1        1 0.19151464E+00 0.16178175E+04</pdfrwt>
<pdfrwt beam="2">  1       -2 0.80866821E-01 0.16178175E+04</pdfrwt>
<totfact> 0.11238248E+01</totfact>
</mgrwt>
</event>
<event>
12    5  0.5428626E-008  0.1235386E+04  0.7818608E-02  0.9082435E-01
         -2   -1    0    0    0  501 -0.00000000000E+00  0.00000000000E+00  0.39986433593E+03  0.39986433593E+03  0.00000000000E+00 0.  1.
          1   -1    0    0  501    0  0.00000000000E+00 -0.00000000000E+00 -0.95418478116E+03  0.95418478116E+03  0.00000000000E+00 0. -1.
        -24    2    1    2    0    0  0.10345162942E+03 -0.21650236682E+03  0.13015746704E+02  0.25284892453E+03  0.78661645712E+02 0.  0.
        254    2    1    2    0    0 -0.10345162942E+03  0.21650236682E+03 -0.56733619194E+03  0.11012001926E+04  0.91279570274E+03 0.  0.
         23    2    4    4    0    0 -0.41848597418E+03 -0.14790927664E+03 -0.29715928266E+03  0.54195085913E+03  0.91648402837E+02 0.  0.
         23    2    4    4    0    0  0.31503434476E+03  0.36441164345E+03 -0.27017690928E+03  0.55924933343E+03  0.87873604517E+02 0.  0.
          1    1    3    3  502    0 -0.38372803571E+01 -0.32124032777E+00  0.10834733265E+02  0.11498667784E+02  0.00000000000E+00 0. -1.
         -2    1    3    3    0  502  0.10728890978E+03 -0.21618112649E+03  0.21810134395E+01  0.24135025674E+03  0.00000000000E+00 0.  1.
         13    1    5    5    0    0 -0.79265555288E+02 -0.21367062924E+02 -0.16219760432E+02  0.83681899247E+02  0.00000000000E+00 0. -1.
        -13    1    5    5    0    0 -0.33922041889E+03 -0.12654221371E+03 -0.28093952223E+03  0.45826895989E+03  0.00000000000E+00 0.  1.
          2    1    6    6  503    0  0.88767729478E+02  0.93461740008E+02 -0.11831912807E+03  0.17496920503E+03  0.00000000000E+00 0. -1.
         -2    1    6    6    0  503  0.22626661528E+03  0.27094990344E+03 -0.15185778121E+03  0.38428012840E+03  0.00000000000E+00 0.  1.
<mgrwt>
<rscale>  0 0.12353857E+04</rscale>
<asrwt>0</asrwt>
<pdfrwt beam="1">  1        1 0.14679766E+00 0.12353857E+04</pdfrwt>
<pdfrwt beam="2">  1       -2 0.61517590E-01 0.12353857E+04</pdfrwt>
<totfact> 0.34961877E+01</totfact>
</mgrwt>
</event>
<event>
12    5  0.5428626E-008  0.2003163E+04  0.7818608E-02  0.8605143E-01
         -2   -1    0    0    0  501 -0.00000000000E+00  0.00000000000E+00  0.69586172712E+03  0.69586172712E+03  0.00000000000E+00 0.  1.
          1   -1    0    0  501    0  0.00000000000E+00 -0.00000000000E+00 -0.14416162433E+04  0.14416162433E+04  0.00000000000E+00 0. -1.
        -24    2    1    2    0    0  0.54244791627E+03  0.61219652921E+03 -0.30731959573E+03  0.87750380546E+03  0.80828599146E+02 0.  0.
        254    2    1    2    0    0 -0.54244791627E+03 -0.61219652921E+03 -0.43843492042E+03  0.12599741649E+04  0.85221792083E+03 0.  0.
         23    2    4    4    0    0 -0.17652074206E+02  0.10722008388E+03  0.13586917880E+03  0.19640051453E+03  0.91131697281E+02 0.  0.
         23    2    4    4    0    0 -0.52479584207E+03 -0.71941661309E+03 -0.57430409922E+03  0.10635736504E+04  0.91612075620E+02 0.  0.
          1    1    3    3  502    0  0.58325974195E+02  0.36084510473E+02 -0.36849196030E+02  0.77858040111E+02  0.00000000000E+00 0. -1.
         -2    1    3    3    0  502  0.48412194208E+03  0.57611201874E+03 -0.27047039970E+03  0.79964576535E+03  0.00000000000E+00 0.  1.
         13    1    5    5    0    0 -0.23781329459E+02  0.11727315146E+03  0.91888184990E+02  0.15087074675E+03  0.00000000000E+00 0. -1.
        -13    1    5    5    0    0  0.61292552533E+01 -0.10053067580E+02  0.43980993807E+02  0.45529767779E+02  0.00000000000E+00 0.  1.
          2    1    6    6  503    0 -0.32591273572E+03 -0.51854472484E+03 -0.38741040000E+03  0.72470308472E+03  0.00000000000E+00 0. -1.
         -2    1    6    6    0  503 -0.19888310635E+03 -0.20087188824E+03 -0.18689369922E+03  0.33887056568E+03  0.00000000000E+00 0.  1.
<mgrwt>
<rscale>  0 0.20031631E+04</rscale>
<asrwt>0</asrwt>
<pdfrwt beam="1">  1        1 0.22178711E+00 0.20031631E+04</pdfrwt>
<pdfrwt beam="2">  1       -2 0.10705565E+00 0.20031631E+04</pdfrwt>
<totfact> 0.41021119E+00</totfact>
</mgrwt>
</event>
<event>
12    5  0.5428626E-008  0.1597330E+04  0.7818608E-02  0.8822190E-01
         -4   -1    0    0    0  501 -0.00000000000E+00  0.00000000000E+00  0.17103155520E+04  0.17103155520E+04  0.00000000000E+00 0.  1.
          3   -1    0    0  501    0  0.00000000000E+00 -0.00000000000E+00 -0.37295220869E+03  0.37295220869E+03  0.00000000000E+00 0. -1.
        -24    2    1    2    0    0  0.38285876351E+03 -0.22226110389E+03  0.87923970541E+03  0.98754994991E+03  0.78813786212E+02 0.  0.
        254    2    1    2    0    0 -0.38285876351E+03  0.22226110389E+03  0.45812363787E+03  0.10957178108E+04  0.89148158822E+03 0.  0.
         23    2    4    4    0    0 -0.92000830440E+02  0.34196501986E+02  0.66820857085E+03  0.68195314444E+03  0.94466097103E+02 0.  0.
         23    2    4    4    0    0 -0.29085793307E+03  0.18806460190E+03 -0.21008493298E+03  0.41376466631E+03  0.84254900792E+02 0.  0.
          3    1    3    3  502    0  0.13279711319E+03 -0.67727855619E+02  0.38002458253E+03  0.40821663247E+03  0.00000000000E+00 0. -1.
         -4    1    3    3    0  502  0.25006165032E+03 -0.15453324827E+03  0.49921512287E+03  0.57933331743E+03  0.00000000000E+00 0.  1.
         13    1    5    5    0    0 -0.82782514281E+02  0.45147527396E+02  0.65710789892E+03  0.66383886202E+03  0.00000000000E+00 0. -1.
        -13    1    5    5    0    0 -0.92183161599E+01 -0.10951025409E+02  0.11100671929E+02  0.18114282421E+02  0.00000000000E+00 0.  1.
          3    1    6    6  503    0 -0.15214595077E+03  0.48696022248E+02 -0.89803869428E+02  0.18326054644E+03  0.00000000000E+00 0. -1.
         -3    1    6    6    0  503 -0.13871198229E+03  0.13936857965E+03 -0.12028106355E+03  0.23050411987E+03  0.00000000000E+00 0.  1.
<mgrwt>
<rscale>  0 0.15973302E+04</rscale>
<asrwt>0</asrwt>
<pdfrwt beam="1">  1        3 0.57377264E-01 0.15973302E+04</pdfrwt>
<pdfrwt beam="2">  1       -4 0.26312547E+00 0.15973302E+04</pdfrwt>
<totfact> 0.34323715E-01</totfact>
</mgrwt>
</event>
<event>
12    5  0.5428626E-008  0.1347383E+04  0.7818608E-02  0.8992811E-01
          1   -1    0    0  501    0  0.00000000000E+00  0.00000000000E+00  0.29551853072E+04  0.29551853072E+04  0.00000000000E+00 0. -1.
         -2   -1    0    0    0  501 -0.00000000000E+00 -0.00000000000E+00 -0.15358102982E+03  0.15358102982E+03  0.00000000000E+00 0.  1.
        -24    2    1    2    0    0  0.70083659148E+02  0.31360392042E+02 -0.44889523921E+02  0.12261037305E+03  0.84398108707E+02 0.  0.
        254    2    1    2    0    0 -0.70083659148E+02 -0.31360392042E+02  0.28464938013E+04  0.29861559640E+04  0.89928042728E+03 0.  0.
         23    2    4    4    0    0  0.18501263096E+03 -0.39434952995E+03  0.12542488908E+04  0.13309022128E+04  0.91756169422E+02 0.  0.
         23    2    4    4    0    0 -0.25509629011E+03  0.36298913790E+03  0.15922449105E+04  0.16552537512E+04  0.88237714481E+02 0.  0.
          3    1    3    3  502    0  0.93954031640E+01  0.49135176346E+02 -0.12513961451E+02  0.51566834171E+02  0.00000000000E+00 0. -1.
         -4    1    3    3    0  502  0.60688255984E+02 -0.17774784304E+02 -0.32375562470E+02  0.71043538880E+02  0.00000000000E+00 0.  1.
         13    1    5    5    0    0  0.19181532068E+03 -0.38635979615E+03  0.12419945315E+04  0.13147689628E+04  0.00000000000E+00 0. -1.
        -13    1    5    5    0    0 -0.68026897188E+01 -0.79897337921E+01  0.12254359299E+02  0.16133249992E+02  0.00000000000E+00 0.  1.
          1    1    6    6  503    0 -0.24444218659E+03  0.29589798068E+03  0.13821088735E+04  0.14344101700E+04  0.00000000000E+00 0. -1.
         -1    1    6    6    0  503 -0.10654103515E+02  0.67091157227E+02  0.21013603701E+03  0.22084358119E+03  0.00000000000E+00 0.  1.
<mgrwt>
<rscale>  0 0.13473832E+04</rscale>
<asrwt>0</asrwt>
<pdfrwt beam="1">  1        1 0.45464385E+00 0.13473832E+04</pdfrwt>
<pdfrwt beam="2">  1       -2 0.23627853E-01 0.13473832E+04</pdfrwt>
<totfact> 0.88759859E+00</totfact>
</mgrwt>
</event>
<event>
12    5  0.5428626E-008  0.2218685E+04  0.7818608E-02  0.8510691E-01
          1   -1    0    0  501    0  0.00000000000E+00  0.00000000000E+00  0.89871781244E+03  0.89871781244E+03  0.00000000000E+00 0. -1.
         -2   -1    0    0    0  501 -0.00000000000E+00 -0.00000000000E+00 -0.13693298488E+04  0.13693298488E+04  0.00000000000E+00 0.  1.
        -24    2    1    2    0    0 -0.82739198436E+03  0.27424614907E+03 -0.52254131721E+03  0.10192926347E+04  0.78227878335E+02 0.  0.
        254    2    1    2    0    0  0.82739198436E+03 -0.27424614907E+03  0.51929280885E+02  0.12487550265E+04  0.89269480783E+03 0.  0.
         23    2    4    4    0    0  0.62176798484E+03 -0.46240935820E+03  0.32737773169E+03  0.84632539819E+03  0.93127111495E+02 0.  0.
         23    2    4    4    0    0  0.20562399952E+03  0.18816320914E+03 -0.27544845080E+03  0.40242962830E+03  0.91603134437E+02 0.  0.
          3    1    3    3  502    0 -0.51794689471E+02  0.17292215993E+02 -0.56923939291E+02  0.78879943305E+02  0.00000000000E+00 0. -1.
         -4    1    3    3    0  502 -0.77559729489E+03  0.25695393307E+03 -0.46561737792E+03  0.94041269142E+03  0.00000000000E+00 0.  1.
         13    1    5    5    0    0  0.60944244647E+03 -0.46451554058E+03  0.32858249315E+03  0.83376329843E+03  0.00000000000E+00 0. -1.
        -13    1    5    5    0    0  0.12325538370E+02  0.21061823784E+01 -0.12047614621E+01  0.12562099765E+02  0.00000000000E+00 0.  1.
          1    1    6    6  503    0  0.20201773976E+03  0.14163527709E+03 -0.23131627215E+03  0.33819955153E+03  0.00000000000E+00 0. -1.
         -1    1    6    6    0  503  0.36062597573E+01  0.46527932045E+02 -0.44132178652E+02  0.64230076774E+02  0.00000000000E+00 0.  1.
<mgrwt>
<rscale>  0 0.22186853E+04</rscale>
<asrwt>0</asrwt>
<pdfrwt beam="1">  1        1 0.13826428E+00 0.22186853E+04</pdfrwt>
<pdfrwt beam="2">  1       -2 0.21066613E+00 0.22186853E+04</pdfrwt>
<totfact> 0.16498376E+00</totfact>
</mgrwt>
</event>
<event>
12    5  0.5428626E-008  0.1798683E+04  0.7818608E-02  0.8707000E-01
         -2   -1    0    0    0  501 -0.00000000000E+00  0.00000000000E+00  0.50353147671E+03  0.50353147671E+03  0.00000000000E+00 0.  1.
          1   -1    0    0  501    0  0.00000000000E+00 -0.00000000000E+00 -0.16062844749E+04  0.16062844749E+04  0.00000000000E+00 0. -1.
        -24    2    1    2    0    0 -0.47336365996E+03 -0.46889360902E+03 -0.33160097260E+03  0.74851701082E+03  0.79900809220E+02 0.  0.
        254    2    1    2    0    0  0.47336365996E+03  0.46889360902E+03 -0.77115202558E+03  0.13612989408E+04  0.90251038135E+03 0.  0.
         23    2    4    4    0    0  0.49419331439E+03  0.44614783574E+03 -0.94666497758E+03  0.11611887085E+04  0.94391279563E+02 0.  0.
         23    2    4    4    0    0 -0.20829654422E+02  0.22745773272E+02  0.17551295200E+03  0.20011023227E+03  0.91038805116E+02 0.  0.
          3    1    3    3  502    0 -0.36959268961E+03 -0.35192886230E+03 -0.21655005998E+03  0.55438849989E+03  0.00000000000E+00 0. -1.
         -4    1    3    3    0  502 -0.10377097035E+03 -0.11696474672E+03 -0.11505091262E+03  0.19412851093E+03  0.00000000000E+00 0.  1.
         13    1    5    5    0    0  0.25555821867E+03  0.24419382137E+03 -0.42232251021E+03  0.55072400361E+03  0.00000000000E+00 0.  1.
        -13    1    5    5    0    0  0.23863509571E+03  0.20195401437E+03 -0.52434246737E+03  0.61046470489E+03  0.00000000000E+00 0. -1.
          2    1    6    6  503    0  0.22895371020E+02  0.41974622919E+02  0.77187140532E+02  0.90796044225E+02  0.00000000000E+00 0. -1.
         -2    1    6    6    0  503 -0.43725025442E+02 -0.19228849647E+02  0.98325811463E+02  0.10931418805E+03  0.00000000000E+00 0.  1.
<mgrwt>
<rscale>  0 0.17986826E+04</rscale>
<asrwt>0</asrwt>
<pdfrwt beam="1">  1        1 0.24712070E+00 0.17986826E+04</pdfrwt>
<pdfrwt beam="2">  1       -2 0.77466379E-01 0.17986826E+04</pdfrwt>
<totfact> 0.67991827E+00</totfact>
</mgrwt>
</event>
<event>
12    5  0.5428626E-008  0.1549175E+04  0.7818608E-02  0.8852395E-01
          1   -1    0    0  501    0  0.00000000000E+00  0.00000000000E+00  0.31753742386E+04  0.31753742386E+04  0.00000000000E+00 0. -1.
         -2   -1    0    0    0  501 -0.00000000000E+00 -0.00000000000E+00 -0.18894972499E+03  0.18894972499E+03  0.00000000000E+00 0.  1.
        -24    2    1    2    0    0 -0.44907812379E+02  0.45684924949E+03  0.52042876710E+03  0.69874148232E+03  0.81643181645E+02 0.  0.
        254    2    1    2    0    0  0.44907812379E+02 -0.45684924949E+03  0.24659957465E+04  0.26655824813E+04  0.90192405127E+03 0.  0.
         23    2    4    4    0    0  0.31507200155E+03  0.12996702204E+03  0.10058302853E+04  0.10662066276E+04  0.94552719633E+02 0.  0.
         23    2    4    4    0    0 -0.27016418917E+03 -0.58681627154E+03  0.14601654612E+04  0.15993758537E+04  0.92617070489E+02 0.  0.
          3    1    3    3  502    0  0.75605548650E+01  0.18084370971E+03  0.25121388051E+03  0.30962884732E+03  0.00000000000E+00 0. -1.
         -4    1    3    3    0  502 -0.52468367244E+02  0.27600553978E+03  0.26921488659E+03  0.38911263500E+03  0.00000000000E+00 0.  1.
         13    1    5    5    0    0  0.16368049756E+02  0.13850430272E+02  0.16472863613E+03  0.16611824413E+03  0.00000000000E+00 0.  1.
        -13    1    5    5    0    0  0.29870395179E+03  0.11611659177E+03  0.84110164920E+03  0.90008838343E+03  0.00000000000E+00 0. -1.
          3    1    6    6  503    0 -0.27000288165E+03 -0.55238098980E+03  0.13390273993E+04  0.14734383903E+04  0.00000000000E+00 0. -1.
         -3    1    6    6    0  503 -0.16130752156E+00 -0.34435281734E+02  0.12113806187E+03  0.12593746337E+03  0.00000000000E+00 0.  1.
<mgrwt>
<rscale>  0 0.15491754E+04</rscale>
<asrwt>0</asrwt>
<pdfrwt beam="1">  1        1 0.48851907E+00 0.15491754E+04</pdfrwt>
<pdfrwt beam="2">  1       -2 0.29069191E-01 0.15491754E+04</pdfrwt>
<totfact> 0.41104217E+00</totfact>
</mgrwt>
</event>
<event>
12    5  0.5428626E-008  0.2210982E+04  0.7818608E-02  0.8513871E-01
         -2   -1    0    0    0  501 -0.00000000000E+00  0.00000000000E+00  0.41099838400E+03  0.41099838400E+03  0.00000000000E+00 0.  1.
          1   -1    0    0  501    0  0.00000000000E+00 -0.00000000000E+00 -0.29735170971E+04  0.29735170971E+04  0.00000000000E+00 0. -1.
        -24    2    1    2    0    0 -0.51047308372E+02  0.88517106188E+03 -0.68865377461E+03  0.11254354829E+04  0.78913677182E+02 0.  0.
        254    2    1    2    0    0  0.51047308372E+02 -0.88517106188E+03 -0.18738649385E+04  0.22590799982E+04  0.89774105066E+03 0.  0.
         23    2    4    4    0    0  0.80849805356E+02  0.47556340411E-01 -0.10128935094E+04  0.10205821918E+04  0.95383727762E+02 0.  0.
         23    2    4    4    0    0 -0.29802496984E+02 -0.88521861822E+03 -0.86097142911E+03  0.12384978064E+04  0.90026795398E+02 0.  0.
          1    1    3    3  502    0 -0.27825735259E+02  0.30807856282E+03 -0.19511020700E+03  0.36572484915E+03  0.00000000000E+00 0. -1.
         -2    1    3    3    0  502 -0.23221573113E+02  0.57709249906E+03 -0.49354356761E+03  0.75971063377E+03  0.00000000000E+00 0.  1.
         13    1    5    5    0    0  0.42263340518E+02 -0.45409867371E+02 -0.63373394146E+03  0.63676287154E+03  0.00000000000E+00 0.  1.
        -13    1    5    5    0    0  0.38586464838E+02  0.45457423712E+02 -0.37915956794E+03  0.38381932025E+03  0.00000000000E+00 0. -1.
          1    1    6    6  503    0 -0.33658960296E+02 -0.85141593981E+03 -0.84784065104E+03  0.12020298656E+04  0.00000000000E+00 0. -1.
         -1    1    6    6    0  503  0.38564633122E+01 -0.33802678406E+02 -0.13130778072E+02  0.36467940845E+02  0.00000000000E+00 0.  1.
<mgrwt>
<rscale>  0 0.22109823E+04</rscale>
<asrwt>0</asrwt>
<pdfrwt beam="1">  1        1 0.45746418E+00 0.22109823E+04</pdfrwt>
<pdfrwt beam="2">  1       -2 0.63230520E-01 0.22109823E+04</pdfrwt>
<totfact> 0.11596974E+00</totfact>
</mgrwt>
</event>
<event>
12    5  0.5428626E-008  0.2089912E+04  0.7818608E-02  0.8565700E-01
          1   -1    0    0  501    0  0.00000000000E+00  0.00000000000E+00  0.36008313398E+04  0.36008313398E+04  0.00000000000E+00 0. -1.
         -2   -1    0    0    0  501 -0.00000000000E+00 -0.00000000000E+00 -0.30324460871E+03  0.30324460871E+03  0.00000000000E+00 0.  1.
        -24    2    1    2    0    0 -0.83279387581E+03  0.77104635229E+02  0.10298084944E+04  0.13290711438E+04  0.80211008068E+02 0.  0.
        254    2    1    2    0    0  0.83279387581E+03 -0.77104635229E+02  0.22677782368E+04  0.25750048048E+04  0.88788560584E+03 0.  0.
         23    2    4    4    0    0 -0.92773731401E+02 -0.23713796315E+03  0.61005446398E+03  0.66738630492E+03  0.91633248174E+02 0.  0.
         23    2    4    4    0    0  0.92556760721E+03  0.16003332792E+03  0.16577237728E+04  0.19076184998E+04  0.93135237789E+02 0.  0.
          3    1    3    3  502    0 -0.68312497102E+02  0.21078038196E+02  0.11687962485E+03  0.13700995460E+03  0.00000000000E+00 0. -1.
         -4    1    3    3    0  502 -0.76448137871E+03  0.56026597033E+02  0.91292886951E+03  0.11920611892E+04  0.00000000000E+00 0.  1.
         13    1    5    5    0    0 -0.10334005701E+02 -0.15081563390E+03  0.33224075154E+03  0.36501515597E+03  0.00000000000E+00 0. -1.
        -13    1    5    5    0    0 -0.82439725700E+02 -0.86322329255E+02  0.27781371243E+03  0.30237114895E+03  0.00000000000E+00 0.  1.
          2    1    6    6  503    0  0.87461665393E+02  0.29837916176E+02  0.11956164215E+03  0.15111197976E+03  0.00000000000E+00 0. -1.
         -2    1    6    6    0  503  0.83810594182E+03  0.13019541175E+03  0.15381621306E+04  0.17565065201E+04  0.00000000000E+00 0.  1.
<mgrwt>
<rscale>  0 0.20899117E+04</rscale>
<asrwt>0</asrwt>
<pdfrwt beam="1">  1        1 0.55397402E+00 0.20899117E+04</pdfrwt>
<pdfrwt beam="2">  1       -2 0.46653019E-01 0.20899117E+04</pdfrwt>
<totfact> 0.73480569E-01</totfact>
</mgrwt>
</event>
<event>
12    5  0.5428626E-008  0.1285321E+04  0.7818608E-02  0.9041287E-01
          1   -1    0    0  501    0  0.00000000000E+00  0.00000000000E+00  0.91132410045E+03  0.91132410045E+03  0.00000000000E+00 0. -1.
         -2   -1    0    0    0  501 -0.00000000000E+00 -0.00000000000E+00 -0.45320063281E+03  0.45320063281E+03  0.00000000000E+00 0.  1.
        -24    2    1    2    0    0 -0.10662563754E+02  0.29900366141E+03 -0.72146078875E+01  0.30865809900E+03  0.75504249630E+02 0.  0.
        254    2    1    2    0    0  0.10662563754E+02 -0.29900366141E+03  0.46533807552E+03  0.10558666343E+04  0.89933194373E+03 0.  0.
         23    2    4    4    0    0 -0.34176137946E+03 -0.31185865760E+03  0.50459194233E+03  0.69025404070E+03  0.88209691213E+02 0.  0.
         23    2    4    4    0    0  0.35242394322E+03  0.12854996196E+02 -0.39253866812E+02  0.36561259355E+03  0.88112517982E+02 0.  0.
          3    1    3    3  502    0  0.92909642771E+01  0.11085784745E+03 -0.36763311987E+02  0.11716366957E+03  0.00000000000E+00 0. -1.
         -4    1    3    3    0  502 -0.19953528031E+02  0.18814581396E+03  0.29548704099E+02  0.19149442943E+03  0.00000000000E+00 0.  1.
         13    1    5    5    0    0 -0.31071152968E+03 -0.27657931614E+03  0.40716158642E+03  0.58208103409E+03  0.00000000000E+00 0. -1.
        -13    1    5    5    0    0 -0.31049849781E+02 -0.35279341460E+02  0.97430355915E+02  0.10817300661E+03  0.00000000000E+00 0.  1.
          1    1    6    6  503    0  0.27708061867E+03  0.10315888403E+01 -0.65926501951E+02  0.28481755051E+03  0.00000000000E+00 0. -1.
         -1    1    6    6    0  503  0.75343324547E+02  0.11823407355E+02  0.26672635140E+02  0.80795043045E+02  0.00000000000E+00 0.  1.
<mgrwt>
<rscale>  0 0.12853212E+04</rscale>
<asrwt>0</asrwt>
<pdfrwt beam="1">  1        1 0.14020371E+00 0.12853212E+04</pdfrwt>
<pdfrwt beam="2">  1       -2 0.69723174E-01 0.12853212E+04</pdfrwt>
<totfact> 0.28796747E+01</totfact>
</mgrwt>
</event>
<event>
12    5  0.5428626E-008  0.2023333E+04  0.7818608E-02  0.8595789E-01
         -2   -1    0    0    0  501 -0.00000000000E+00  0.00000000000E+00  0.66814659497E+03  0.66814659497E+03  0.00000000000E+00 0.  1.
          1   -1    0    0  501    0  0.00000000000E+00 -0.00000000000E+00 -0.15318039231E+04  0.15318039231E+04  0.00000000000E+00 0. -1.
        -24    2    1    2    0    0  0.68312319103E+03 -0.42509179859E+03 -0.20324715262E+03  0.83366908233E+03  0.79588959298E+02 0.  0.
        254    2    1    2    0    0 -0.68312319103E+03  0.42509179859E+03 -0.66041017553E+03  0.13662814357E+04  0.88499888722E+03 0.  0.
         23    2    4    4    0    0 -0.26737926974E+03  0.59162048159E+03 -0.62911863506E+03  0.90854107842E+03  0.90278270212E+02 0.  0.
         23    2    4    4    0    0 -0.41574392129E+03 -0.16652868300E+03 -0.31291540467E+02  0.45774035733E+03  0.89287534777E+02 0.  0.
          3    1    3    3  502    0  0.54574864781E+03 -0.31306585166E+03 -0.13347093342E+03  0.64316895458E+03  0.00000000000E+00 0. -1.
         -4    1    3    3    0  502  0.13737454322E+03 -0.11202594693E+03 -0.69776219197E+02  0.19050012776E+03  0.00000000000E+00 0.  1.
         13    1    5    5    0    0 -0.14439516283E+03  0.38011971038E+03 -0.44154976466E+03  0.60025590537E+03  0.00000000000E+00 0. -1.
        -13    1    5    5    0    0 -0.12298410691E+03  0.21150077122E+03 -0.18756887040E+03  0.30828517305E+03  0.00000000000E+00 0.  1.
          4    1    6    6  503    0 -0.23517195946E+03 -0.61635524901E+02 -0.49562543463E+02  0.24811536462E+03  0.00000000000E+00 0. -1.
         -4    1    6    6    0  503 -0.18057196183E+03 -0.10489315810E+03  0.18271002996E+02  0.20962499271E+03  0.00000000000E+00 0.  1.
<mgrwt>
<rscale>  0 0.20233335E+04</rscale>
<asrwt>0</asrwt>
<pdfrwt beam="1">  1        1 0.23566214E+00 0.20233335E+04</pdfrwt>
<pdfrwt beam="2">  1       -2 0.10279178E+00 0.20233335E+04</pdfrwt>
<totfact> 0.39086632E+00</totfact>
</mgrwt>
</event>
<event>
12    5  0.5428626E-008  0.1483828E+04  0.7818608E-02  0.8895279E-01
          3   -1    0    0  501    0  0.00000000000E+00  0.00000000000E+00  0.20287133591E+04  0.20287133591E+04  0.00000000000E+00 0. -1.
         -4   -1    0    0    0  501 -0.00000000000E+00 -0.00000000000E+00 -0.27132292750E+03  0.27132292750E+03  0.00000000000E+00 0.  1.
        -24    2    1    2    0    0 -0.46378660484E+02  0.72432870281E+02  0.12685839463E+04  0.12741684358E+04  0.82477105817E+02 0.  0.
        254    2    1    2    0    0  0.46378660484E+02 -0.72432870281E+02  0.48880648525E+03  0.10258678508E+04  0.89781711192E+03 0.  0.
         23    2    4    4    0    0  0.10600369653E+03  0.32039978947E+03 -0.46521821044E+02  0.35259578279E+03  0.90921380530E+02 0.  0.
         23    2    4    4    0    0 -0.59625036041E+02 -0.39283265975E+03  0.53532830630E+03  0.67327206802E+03  0.94054444699E+02 0.  0.
          3    1    3    3  502    0  0.86783104728E+01  0.61030621176E+02  0.56929582461E+03  0.57262359863E+03  0.00000000000E+00 0. -1.
         -4    1    3    3    0  502 -0.55056970957E+02  0.11402249105E+02  0.69928812170E+03  0.70154483712E+03  0.00000000000E+00 0.  1.
         13    1    5    5    0    0  0.11683529720E+03  0.26078285880E+03 -0.20016048797E+02  0.28645912156E+03  0.00000000000E+00 0. -1.
        -13    1    5    5    0    0 -0.10831600679E+02  0.59616930670E+02 -0.26505772247E+02  0.66136661226E+02  0.00000000000E+00 0.  1.
          1    1    6    6  503    0 -0.72135271555E+01 -0.28973142338E+03  0.34523913447E+03  0.45076201331E+03  0.00000000000E+00 0. -1.
         -1    1    6    6    0  503 -0.52411508886E+02 -0.10310123636E+03  0.19008917183E+03  0.22251005472E+03  0.00000000000E+00 0.  1.
<mgrwt>
<rscale>  0 0.14838281E+04</rscale>
<asrwt>0</asrwt>
<pdfrwt beam="1">  1        3 0.31210974E+00 0.14838281E+04</pdfrwt>
<pdfrwt beam="2">  1       -4 0.41741990E-01 0.14838281E+04</pdfrwt>
<totfact> 0.41419604E-01</totfact>
</mgrwt>
</event>
<event>
12    5  0.5463625E-008  0.1456183E+04  0.7818608E-02  0.8914125E-01
         -2   -1    0    0    0  501 -0.00000000000E+00  0.00000000000E+00  0.20898743052E+03  0.20898743052E+03  0.00000000000E+00 0.  1.
          1   -1    0    0  501    0  0.00000000000E+00 -0.00000000000E+00 -0.25365978187E+04  0.25365978187E+04  0.00000000000E+00 0. -1.
        -24    2    1    2    0    0 -0.24087539677E+03  0.34293803919E+01 -0.14325091200E+04  0.14549578232E+04  0.82384289759E+02 0.  0.
        254    2    1    2    0    0  0.24087539677E+03 -0.34293803919E+01 -0.89510126820E+03  0.12906274260E+04  0.89804240152E+03 0.  0.
         23    2    4    4    0    0  0.21575062162E+03  0.41776943688E+03 -0.34005362507E+03  0.58727428904E+03  0.90415648677E+02 0.  0.
         23    2    4    4    0    0  0.25124775160E+02 -0.42119881727E+03 -0.55504764314E+03  0.70335313694E+03  0.92671738374E+02 0.  0.
          1    1    3    3  502    0 -0.19777406864E+03 -0.22595430299E+02 -0.12446922080E+04  0.12605093527E+04  0.00000000000E+00 0. -1.
         -2    1    3    3    0  502 -0.43101328131E+02  0.26024810691E+02 -0.18781691201E+03  0.19444847054E+03  0.00000000000E+00 0.  1.
         13    1    5    5    0    0  0.15748016984E+03  0.36462380255E+03 -0.30593142475E+03  0.50134275494E+03  0.00000000000E+00 0.  1.
        -13    1    5    5    0    0  0.58270451776E+02  0.53145634329E+02 -0.34122200320E+02  0.85931534102E+02  0.00000000000E+00 0. -1.
          1    1    6    6  503    0  0.23615001066E+02 -0.39404438458E+03 -0.46850716466E+03  0.61263986863E+03  0.00000000000E+00 0.  1.
         -1    1    6    6    0  503  0.15097740935E+01 -0.27154432688E+02 -0.86540478476E+02  0.90713268309E+02  0.00000000000E+00 0. -1.
<mgrwt>
<rscale>  0 0.14561828E+04</rscale>
<asrwt>0</asrwt>
<pdfrwt beam="1">  1        1 0.39024582E+00 0.14561828E+04</pdfrwt>
<pdfrwt beam="2">  1       -2 0.32151913E-01 0.14561828E+04</pdfrwt>
<totfact> 0.98365416E+00</totfact>
</mgrwt>
</event>
<event>
12    5  0.5428626E-008  0.1500649E+04  0.7818608E-02  0.8884022E-01
          1   -1    0    0  501    0  0.00000000000E+00  0.00000000000E+00  0.72368508783E+03  0.72368508783E+03  0.00000000000E+00 0. -1.
         -2   -1    0    0    0  501 -0.00000000000E+00 -0.00000000000E+00 -0.77794431177E+03  0.77794431177E+03  0.00000000000E+00 0.  1.
        -24    2    1    2    0    0 -0.97459375690E+02  0.22271609534E+03 -0.42525079186E+03  0.49621562563E+03  0.79315333353E+02 0.  0.
        254    2    1    2    0    0  0.97459375690E+02 -0.22271609534E+03  0.37099156792E+03  0.10054137740E+04  0.90228671961E+03 0.  0.
         23    2    4    4    0    0 -0.32574057686E+03 -0.21479808381E+03  0.40624864476E+03  0.57124527995E+03  0.95068755483E+02 0.  0.
         23    2    4    4    0    0  0.42319995255E+03 -0.79180115255E+01 -0.35257076841E+02  0.43416849402E+03  0.89990693889E+02 0.  0.
          1    1    3    3  502    0 -0.23285494228E+02  0.13636913236E+03 -0.19175089024E+03  0.23644694629E+03  0.00000000000E+00 0. -1.
         -2    1    3    3    0  502 -0.74173881462E+02  0.86346962975E+02 -0.23349990162E+03  0.25976867934E+03  0.00000000000E+00 0.  1.
         13    1    5    5    0    0 -0.13189346409E+03 -0.93881570682E+02  0.10422366018E+03  0.19254144106E+03  0.00000000000E+00 0. -1.
        -13    1    5    5    0    0 -0.19384711277E+03 -0.12091651313E+03  0.30202498458E+03  0.37870383889E+03  0.00000000000E+00 0.  1.
          2    1    6    6  503    0  0.18755226160E+03 -0.27864759614E+02  0.21893059735E+02  0.19087064133E+03  0.00000000000E+00 0. -1.
         -2    1    6    6    0  503  0.23564769096E+03  0.19946748089E+02 -0.57150136576E+02  0.24329785269E+03  0.00000000000E+00 0.  1.
<mgrwt>
<rscale>  0 0.15006488E+04</rscale>
<asrwt>0</asrwt>
<pdfrwt beam="1">  1        1 0.11133617E+00 0.15006488E+04</pdfrwt>
<pdfrwt beam="2">  1       -2 0.11968374E+00 0.15006488E+04</pdfrwt>
<totfact> 0.11719329E+01</totfact>
</mgrwt>
</event>
<event>
12    5  0.5428626E-008  0.1724322E+04  0.7818608E-02  0.8747613E-01
         -2   -1    0    0    0  501 -0.00000000000E+00  0.00000000000E+00  0.56495321094E+03  0.56495321094E+03  0.00000000000E+00 0.  1.
          1   -1    0    0  501    0  0.00000000000E+00 -0.00000000000E+00 -0.13157220251E+04  0.13157220251E+04  0.00000000000E+00 0. -1.
        -24    2    1    2    0    0  0.49680273344E+03 -0.20476282187E+03  0.87717407144E+02  0.55010467601E+03  0.78613242394E+02 0.  0.
        254    2    1    2    0    0 -0.49680273344E+03  0.20476282187E+03 -0.83848622135E+03  0.13305705601E+04  0.88239339457E+03 0.  0.
         23    2    4    4    0    0  0.21688212931E+03  0.19696049883E+03 -0.31960855990E+03  0.44365547982E+03  0.94070490092E+02 0.  0.
         23    2    4    4    0    0 -0.71368486274E+03  0.78023230338E+01 -0.51887766145E+03  0.88691508025E+03  0.89316137776E+02 0.  0.
          1    1    3    3  502    0  0.30498628258E+02 -0.17609882846E+02 -0.13201244337E+02  0.37610465984E+02  0.00000000000E+00 0. -1.
         -4    1    3    3    0  502  0.46630410518E+03 -0.18715293902E+03  0.10091865148E+03  0.51249421002E+03  0.00000000000E+00 0.  1.
         13    1    5    5    0    0  0.61849900211E+02  0.11215037391E+03 -0.16485466155E+03  0.20875865481E+03  0.00000000000E+00 0. -1.
        -13    1    5    5    0    0  0.15503222910E+03  0.84810124927E+02 -0.15475389835E+03  0.23489682502E+03  0.00000000000E+00 0.  1.
          2    1    6    6  503    0 -0.71382833953E+03  0.45725791691E+01 -0.50956333301E+03  0.87705564084E+03  0.00000000000E+00 0. -1.
         -2    1    6    6    0  503  0.14347678421E+00  0.32297438647E+01 -0.93143284421E+01  0.98594394033E+01  0.00000000000E+00 0.  1.
<mgrwt>
<rscale>  0 0.17243218E+04</rscale>
<asrwt>0</asrwt>
<pdfrwt beam="1">  1        1 0.20241877E+00 0.17243218E+04</pdfrwt>
<pdfrwt beam="2">  1       -2 0.86915880E-01 0.17243218E+04</pdfrwt>
<totfact> 0.84092854E+00</totfact>
</mgrwt>
</event>
<event>
12    5  0.5428626E-008  0.1850941E+04  0.7818608E-02  0.8679669E-01
         -2   -1    0    0    0  501 -0.00000000000E+00  0.00000000000E+00  0.95583032954E+03  0.95583032954E+03  0.00000000000E+00 0.  1.
          1   -1    0    0  501    0  0.00000000000E+00 -0.00000000000E+00 -0.89607500388E+03  0.89607500388E+03  0.00000000000E+00 0. -1.
        -24    2    1    2    0    0  0.45397379509E+03  0.40041983942E+03  0.37875914750E+03  0.71865475494E+03  0.81104318953E+02 0.  0.
        254    2    1    2    0    0 -0.45397379509E+03 -0.40041983942E+03 -0.31900382183E+03  0.11332505785E+04  0.90336326073E+03 0.  0.
         23    2    4    4    0    0 -0.14663467031E+02 -0.13555797059E+03 -0.54148984495E+03  0.56593835093E+03  0.92108545874E+02 0.  0.
         23    2    4    4    0    0 -0.43931032806E+03 -0.26486186883E+03  0.22248602311E+03  0.56731222754E+03  0.95904948442E+02 0.  0.
          1    1    3    3  502    0  0.97140657000E+02  0.50442872046E+02  0.87802771706E+02  0.14032147841E+03  0.00000000000E+00 0. -1.
         -2    1    3    3    0  502  0.35683313809E+03  0.34997696738E+03  0.29095637579E+03  0.57833327653E+03  0.00000000000E+00 0.  1.
         13    1    5    5    0    0 -0.40629247758E+01 -0.14570293209E+03 -0.51904537006E+03  0.53912331424E+03  0.00000000000E+00 0. -1.
        -13    1    5    5    0    0 -0.10600542255E+02  0.10144961502E+02 -0.22444474889E+02  0.26815036696E+02  0.00000000000E+00 0.  1.
          2    1    6    6  503    0 -0.34922533516E+03 -0.17844674114E+03  0.20086360799E+03  0.44062201847E+03  0.00000000000E+00 0. -1.
         -2    1    6    6    0  503 -0.90084992898E+02 -0.86415127693E+02  0.21622415121E+02  0.12669020907E+03  0.00000000000E+00 0.  1.
<mgrwt>
<rscale>  0 0.18509410E+04</rscale>
<asrwt>0</asrwt>
<pdfrwt beam="1">  1        1 0.13785769E+00 0.18509410E+04</pdfrwt>
<pdfrwt beam="2">  1       -2 0.14705082E+00 0.18509410E+04</pdfrwt>
<totfact> 0.47652857E+00</totfact>
</mgrwt>
</event>
<event>
12    5  0.5428626E-008  0.2731878E+04  0.7818608E-02  0.8324735E-01
         -2   -1    0    0    0  501 -0.00000000000E+00  0.00000000000E+00  0.40977324439E+03  0.40977324439E+03  0.00000000000E+00 0.  1.
          1   -1    0    0  501    0  0.00000000000E+00 -0.00000000000E+00 -0.45532227482E+04  0.45532227482E+04  0.00000000000E+00 0. -1.
        -24    2    1    2    0    0  0.10493414200E+04 -0.49910557995E+03 -0.12297326149E+04  0.16934146392E+04  0.72021109965E+02 0.  0.
        254    2    1    2    0    0 -0.10493414200E+04  0.49910557995E+03 -0.29137168889E+04  0.32695813534E+04  0.92205874109E+03 0.  0.
         23    2    4    4    0    0 -0.67954287652E+03  0.24209756444E+03 -0.70657163157E+03  0.10150330649E+04  0.10324195140E+03 0.  0.
         23    2    4    4    0    0 -0.36979854353E+03  0.25700801551E+03 -0.22071452574E+04  0.22545482885E+04  0.93240095582E+02 0.  0.
          1    1    3    3  502    0  0.77930774847E+03 -0.34552394322E+03 -0.93326761625E+03  0.12639999231E+04  0.00000000000E+00 0. -1.
         -2    1    3    3    0  502  0.27003367157E+03 -0.15358163672E+03 -0.29646499864E+03  0.42941471603E+03  0.00000000000E+00 0.  1.
         13    1    5    5    0    0 -0.65127007173E+03  0.20801945342E+03 -0.67410588468E+03  0.96012683698E+03  0.00000000000E+00 0.  1.
        -13    1    5    5    0    0 -0.28272804789E+02  0.34078111013E+02 -0.32465746884E+02  0.54906227894E+02  0.00000000000E+00 0. -1.
          4    1    6    6  503    0  0.76001642813E+00  0.61146838847E+01 -0.68804527894E+01  0.92362121331E+01  0.00000000000E+00 0. -1.
         -4    1    6    6    0  503 -0.37055855996E+03  0.25089333163E+03 -0.22002648046E+04  0.22453120764E+04  0.00000000000E+00 0.  1.
<mgrwt>
<rscale>  0 0.27318776E+04</rscale>
<asrwt>0</asrwt>
<pdfrwt beam="1">  1        1 0.70049587E+00 0.27318776E+04</pdfrwt>
<pdfrwt beam="2">  1       -2 0.63042032E-01 0.27318776E+04</pdfrwt>
<totfact> 0.50770496E-02</totfact>
</mgrwt>
</event>
<event>
12    5  0.5428626E-008  0.2625614E+04  0.7818608E-02  0.8359553E-01
         -2   -1    0    0    0  501 -0.00000000000E+00  0.00000000000E+00  0.60465544096E+03  0.60465544096E+03  0.00000000000E+00 0.  1.
          1   -1    0    0  501    0  0.00000000000E+00 -0.00000000000E+00 -0.28503201303E+04  0.28503201303E+04  0.00000000000E+00 0. -1.
        -24    2    1    2    0    0 -0.73057920305E+03  0.23132189072E+03 -0.21300546092E+04  0.22651515162E+04  0.80764869055E+02 0.  0.
        254    2    1    2    0    0  0.73057920305E+03 -0.23132189072E+03 -0.11561008021E+03  0.11898240551E+04  0.90280662518E+03 0.  0.
         23    2    4    4    0    0 -0.15382046933E+03 -0.14376411022E+03  0.12772390800E+03  0.26337612639E+03  0.93406269070E+02 0.  0.
         23    2    4    4    0    0  0.88439967238E+03 -0.87557780504E+02 -0.24333398821E+03  0.92644792875E+03  0.96255853966E+02 0.  0.
          3    1    3    3  502    0 -0.53915702011E+03  0.20018648200E+03 -0.16524488724E+04  0.17496720252E+04  0.00000000000E+00 0. -1.
         -4    1    3    3    0  502 -0.19142218294E+03  0.31135408721E+02 -0.47760573683E+03  0.51547949101E+03  0.00000000000E+00 0.  1.
         13    1    5    5    0    0 -0.34629716394E+02 -0.13755335128E+02  0.67317645456E+02  0.76942133398E+02  0.00000000000E+00 0. -1.
        -13    1    5    5    0    0 -0.11919075294E+03 -0.13000877509E+03  0.60406262547E+02  0.18643399299E+03  0.00000000000E+00 0.  1.
          4    1    6    6  503    0  0.35077178562E+03 -0.20258940770E+02 -0.49975360483E+02  0.35489266959E+03  0.00000000000E+00 0. -1.
         -4    1    6    6    0  503  0.53362788676E+03 -0.67298839734E+02 -0.19335862773E+03  0.57155525916E+03  0.00000000000E+00 0.  1.
<mgrwt>
<rscale>  0 0.26256135E+04</rscale>
<asrwt>0</asrwt>
<pdfrwt beam="1">  1        1 0.43851080E+00 0.26256135E+04</pdfrwt>
<pdfrwt beam="2">  1       -2 0.93023913E-01 0.26256135E+04</pdfrwt>
<totfact> 0.58013686E-01</totfact>
</mgrwt>
</event>
<event>
12    5  0.5428626E-008  0.1639116E+04  0.7818608E-02  0.8796871E-01
         -2   -1    0    0    0  501 -0.00000000000E+00  0.00000000000E+00  0.61609800909E+03  0.61609800909E+03  0.00000000000E+00 0.  1.
          1   -1    0    0  501    0  0.00000000000E+00 -0.00000000000E+00 -0.10902085862E+04  0.10902085862E+04  0.00000000000E+00 0. -1.
        -24    2    1    2    0    0 -0.26063144798E+03  0.18960877319E+03  0.31981990054E+03  0.46091171952E+03  0.79212409745E+02 0.  0.
        254    2    1    2    0    0  0.26063144798E+03 -0.18960877319E+03 -0.79393047761E+03  0.12453948757E+04  0.90377129555E+03 0.  0.
         23    2    4    4    0    0  0.20772788289E+03 -0.27755319086E+03 -0.96356848446E+03  0.10273420419E+04  0.82345611145E+02 0.  0.
         23    2    4    4    0    0  0.52903565088E+02  0.87944417672E+02  0.16963800685E+03  0.21805283384E+03  0.90757794039E+02 0.  0.
          3    1    3    3  502    0 -0.16531381906E+03  0.13018017070E+03  0.15452300764E+03  0.26106109535E+03  0.00000000000E+00 0. -1.
         -4    1    3    3    0  502 -0.95317628920E+02  0.59428602494E+02  0.16529689290E+03  0.19985062416E+03  0.00000000000E+00 0.  1.
         13    1    5    5    0    0  0.20226036975E+03 -0.25151068721E+03 -0.81815447929E+03  0.87951329434E+03  0.00000000000E+00 0. -1.
        -13    1    5    5    0    0  0.54675131412E+01 -0.26042503657E+02 -0.14541400518E+03  0.14782874754E+03  0.00000000000E+00 0.  1.
          3    1    6    6  503    0  0.78387018251E+02  0.61527997179E+02  0.13301480353E+03  0.16620215710E+03  0.00000000000E+00 0.  1.
         -3    1    6    6    0  503 -0.25483453163E+02  0.26416420494E+02  0.36623203324E+02  0.51850676741E+02  0.00000000000E+00 0. -1.
<mgrwt>
<rscale>  0 0.16391160E+04</rscale>
<asrwt>0</asrwt>
<pdfrwt beam="1">  1        1 0.16772440E+00 0.16391160E+04</pdfrwt>
<pdfrwt beam="2">  1       -2 0.94784310E-01 0.16391160E+04</pdfrwt>
<totfact> 0.10134536E+01</totfact>
</mgrwt>
</event>
<event>
12    5  0.5428626E-008  0.1320650E+04  0.7818608E-02  0.9013348E-01
          1   -1    0    0  501    0  0.00000000000E+00  0.00000000000E+00  0.72507651380E+03  0.72507651380E+03  0.00000000000E+00 0. -1.
         -2   -1    0    0    0  501 -0.00000000000E+00 -0.00000000000E+00 -0.60135615229E+03  0.60135615229E+03  0.00000000000E+00 0.  1.
        -24    2    1    2    0    0 -0.28230584878E+03 -0.18402134269E+03 -0.23494974920E+02  0.34750095385E+03  0.81513509692E+02 0.  0.
        254    2    1    2    0    0  0.28230584878E+03  0.18402134269E+03  0.14721533643E+03  0.97893171223E+03  0.90723453148E+03 0.  0.
         23    2    4    4    0    0  0.41704566938E+03  0.41742532213E+03 -0.96606784160E+02  0.60415085935E+03  0.86570203928E+02 0.  0.
         23    2    4    4    0    0 -0.13473982060E+03 -0.23340397943E+03  0.24382212059E+03  0.37478085288E+03  0.91538103124E+02 0.  0.
          3    1    3    3  502    0 -0.19040608532E+03 -0.12208027275E+03  0.22937798550E+02  0.22734162162E+03  0.00000000000E+00 0. -1.
         -4    1    3    3    0  502 -0.91899763459E+02 -0.61941069946E+02 -0.46432773470E+02  0.12015933223E+03  0.00000000000E+00 0.  1.
         13    1    5    5    0    0  0.38833464904E+03  0.35923019584E+03 -0.68470059207E+02  0.53342129902E+03  0.00000000000E+00 0. -1.
        -13    1    5    5    0    0  0.28711020340E+02  0.58195126290E+02 -0.28136724953E+02  0.70729560326E+02  0.00000000000E+00 0.  1.
          2    1    6    6  503    0 -0.12694655535E+03 -0.17343851830E+03  0.22566827777E+03  0.31164486059E+03  0.00000000000E+00 0. -1.
         -2    1    6    6    0  503 -0.77932652542E+01 -0.59965461138E+02  0.18153842826E+02  0.63135992288E+02  0.00000000000E+00 0.  1.
<mgrwt>
<rscale>  0 0.13206502E+04</rscale>
<asrwt>0</asrwt>
<pdfrwt beam="1">  1        1 0.11155023E+00 0.13206502E+04</pdfrwt>
<pdfrwt beam="2">  1       -2 0.92516331E-01 0.13206502E+04</pdfrwt>
<totfact> 0.21989029E+01</totfact>
</mgrwt>
</event>
<event>
12    5  0.5428626E-008  0.1216029E+04  0.7818608E-02  0.9098941E-01
         -2   -1    0    0    0  501 -0.00000000000E+00  0.00000000000E+00  0.33733973407E+03  0.33733973407E+03  0.00000000000E+00 0.  1.
          1   -1    0    0  501    0  0.00000000000E+00 -0.00000000000E+00 -0.10958734779E+04  0.10958734779E+04  0.00000000000E+00 0. -1.
        -24    2    1    2    0    0  0.67716328881E+02 -0.18728757746E+03 -0.39223239552E+03  0.44803795242E+03  0.85027153577E+02 0.  0.
        254    2    1    2    0    0 -0.67716328881E+02  0.18728757746E+03 -0.36630134834E+03  0.98517525958E+03  0.89259816067E+03 0.  0.
         23    2    4    4    0    0 -0.44179928719E+02 -0.76474991773E+02 -0.60435094747E+03  0.61752093758E+03  0.91059047792E+02 0.  0.
         23    2    4    4    0    0 -0.23536400162E+02  0.26376256923E+03  0.23804959912E+03  0.36765432200E+03  0.91528322297E+02 0.  0.
          1    1    3    3  502    0  0.79786454725E+02 -0.14833305152E+03 -0.35450216726E+03  0.39247975632E+03  0.00000000000E+00 0. -1.
         -2    1    3    3    0  502 -0.12070125843E+02 -0.38954525939E+02 -0.37730228258E+02  0.55558196095E+02  0.00000000000E+00 0.  1.
         13    1    5    5    0    0 -0.69749073410E+01  0.16711447870E+02 -0.35115366310E+02  0.39509628870E+02  0.00000000000E+00 0. -1.
        -13    1    5    5    0    0 -0.37205021378E+02 -0.93186439643E+02 -0.56923558115E+03  0.57801130871E+03  0.00000000000E+00 0.  1.
          4    1    6    6  503    0 -0.71233103570E+01  0.28713252121E+02  0.76359553125E+02  0.81890010083E+02  0.00000000000E+00 0. -1.
         -4    1    6    6    0  503 -0.16413089805E+02  0.23504931711E+03  0.16169004600E+03  0.28576431192E+03  0.00000000000E+00 0.  1.
<mgrwt>
<rscale>  0 0.12160291E+04</rscale>
<asrwt>0</asrwt>
<pdfrwt beam="1">  1        1 0.16859591E+00 0.12160291E+04</pdfrwt>
<pdfrwt beam="2">  1       -2 0.51898422E-01 0.12160291E+04</pdfrwt>
<totfact> 0.38805368E+01</totfact>
</mgrwt>
</event>
<event>
12    5  0.5428626E-008  0.1867578E+04  0.7818608E-02  0.8671165E-01
         -4   -1    0    0    0  501 -0.00000000000E+00  0.00000000000E+00  0.39090537735E+03  0.39090537735E+03  0.00000000000E+00 0.  1.
          3   -1    0    0  501    0  0.00000000000E+00 -0.00000000000E+00 -0.22306218107E+04  0.22306218107E+04  0.00000000000E+00 0. -1.
        -24    2    1    2    0    0  0.40568083422E+03 -0.24418639304E+03 -0.14729688710E+04  0.15492965662E+04  0.80489883050E+02 0.  0.
        254    2    1    2    0    0 -0.40568083422E+03  0.24418639304E+03 -0.36674756237E+03  0.10722306219E+04  0.88936539072E+03 0.  0.
         23    2    4    4    0    0 -0.18246961078E+03 -0.31162324091E+03 -0.26569306094E+03  0.45749403397E+03  0.91125108277E+02 0.  0.
         23    2    4    4    0    0 -0.22321122344E+03  0.55580963395E+03 -0.10105450144E+03  0.61473658792E+03  0.94559297810E+02 0.  0.
          1    1    3    3  502    0  0.26054696605E+03 -0.18542164666E+03 -0.89176487536E+03  0.94737030853E+03  0.00000000000E+00 0. -1.
         -2    1    3    3    0  502  0.14513386818E+03 -0.58764746380E+02 -0.58120399562E+03  0.60192625763E+03  0.00000000000E+00 0.  1.
         13    1    5    5    0    0 -0.18415549675E+03 -0.31572236588E+03 -0.25429284363E+03  0.44526251764E+03  0.00000000000E+00 0.  1.
        -13    1    5    5    0    0  0.16858859748E+01  0.40991249663E+01 -0.11400217309E+02  0.12231516329E+02  0.00000000000E+00 0. -1.
          2    1    6    6  503    0 -0.34583105424E+02  0.62660968699E+02  0.17320695686E+02  0.73636911112E+02  0.00000000000E+00 0. -1.
         -2    1    6    6    0  503 -0.18862811802E+03  0.49314866525E+03 -0.11837519713E+03  0.54109967681E+03  0.00000000000E+00 0.  1.
<mgrwt>
<rscale>  0 0.18675782E+04</rscale>
<asrwt>0</asrwt>
<pdfrwt beam="1">  1        3 0.34317258E+00 0.18675782E+04</pdfrwt>
<pdfrwt beam="2">  1       -4 0.60139290E-01 0.18675782E+04</pdfrwt>
<totfact> 0.12656580E-01</totfact>
</mgrwt>
</event>
<event>
12    5  0.5428626E-008  0.1907801E+04  0.7818608E-02  0.8650983E-01
         -2   -1    0    0    0  501 -0.00000000000E+00  0.00000000000E+00  0.84899188760E+03  0.84899188760E+03  0.00000000000E+00 0.  1.
          1   -1    0    0  501    0  0.00000000000E+00 -0.00000000000E+00 -0.10717727545E+04  0.10717727545E+04  0.00000000000E+00 0. -1.
        -24    2    1    2    0    0  0.40053566807E+03  0.18164220377E+02 -0.71178935494E+03  0.82075790078E+03  0.78998009967E+02 0.  0.
        254    2    1    2    0    0 -0.40053566807E+03 -0.18164220377E+02  0.48900848807E+03  0.11000067413E+04  0.90007042457E+03 0.  0.
         23    2    4    4    0    0  0.15208156218E+02 -0.12717203059E+03  0.62124057525E+03  0.64041829826E+03  0.88270782423E+02 0.  0.
         23    2    4    4    0    0 -0.41574382429E+03  0.10900781021E+03 -0.13223208718E+03  0.45958844303E+03  0.94924085271E+02 0.  0.
          1    1    3    3  502    0  0.16116637842E+03  0.86669119256E+01 -0.36692849222E+03  0.40085687633E+03  0.00000000000E+00 0. -1.
         -2    1    3    3    0  502  0.23936928966E+03  0.94973084514E+01 -0.34486086272E+03  0.41990102445E+03  0.00000000000E+00 0.  1.
         13    1    5    5    0    0 -0.59552134907E+01 -0.11529791141E+02  0.64560879956E+01  0.14494196207E+02  0.00000000000E+00 0. -1.
        -13    1    5    5    0    0  0.21163369709E+02 -0.11564223945E+03  0.61478448726E+03  0.62592410205E+03  0.00000000000E+00 0.  1.
          1    1    6    6  503    0 -0.22072585135E+02 -0.98302562701E+01 -0.24680344582E+02  0.34539142456E+02  0.00000000000E+00 0. -1.
         -1    1    6    6    0  503 -0.39367123916E+03  0.11883806648E+03 -0.10755174260E+03  0.42504930058E+03  0.00000000000E+00 0.  1.
<mgrwt>
<rscale>  0 0.19078012E+04</rscale>
<asrwt>0</asrwt>
<pdfrwt beam="1">  1        1 0.16488812E+00 0.19078012E+04</pdfrwt>
<pdfrwt beam="2">  1       -2 0.13061414E+00 0.19078012E+04</pdfrwt>
<totfact> 0.46858430E+00</totfact>
</mgrwt>
</event>
<event>
12    5  0.5428626E-008  0.2378216E+04  0.7818608E-02  0.8447704E-01
         -2   -1    0    0    0  501 -0.00000000000E+00  0.00000000000E+00  0.10505081666E+04  0.10505081666E+04  0.00000000000E+00 0.  1.
          1   -1    0    0  501    0  0.00000000000E+00 -0.00000000000E+00 -0.13459945671E+04  0.13459945671E+04  0.00000000000E+00 0. -1.
        -24    2    1    2    0    0 -0.62057124728E+03  0.79741599953E+03 -0.24954655041E+03  0.10438389615E+04  0.79657689492E+02 0.  0.
        254    2    1    2    0    0  0.62057124728E+03 -0.79741599953E+03 -0.45939850105E+02  0.13526637722E+04  0.89811350141E+03 0.  0.
         23    2    4    4    0    0  0.57334194761E+03 -0.94122898650E+03 -0.19358785247E+03  0.11228180112E+04  0.92795666905E+02 0.  0.
         23    2    4    4    0    0  0.47229299676E+02  0.14381298696E+03  0.14764800236E+03  0.22984576094E+03  0.90090838883E+02 0.  0.
          1    1    3    3  502    0 -0.12199171925E+03  0.14536479317E+03 -0.16041077325E+02  0.19044741747E+03  0.00000000000E+00 0. -1.
         -2    1    3    3    0  502 -0.49857952804E+03  0.65205120636E+03 -0.23350547309E+03  0.85339154405E+03  0.00000000000E+00 0.  1.
         13    1    5    5    0    0  0.47884961127E+03 -0.83222460830E+03 -0.18841720109E+03  0.97846603954E+03  0.00000000000E+00 0. -1.
        -13    1    5    5    0    0  0.94492336334E+02 -0.10900437820E+03 -0.51706513815E+01  0.14435197168E+03  0.00000000000E+00 0.  1.
          4    1    6    6  503    0  0.59588272431E+02  0.13386032685E+03  0.94440778695E+02  0.17432271796E+03  0.00000000000E+00 0. -1.
         -4    1    6    6    0  503 -0.12358972755E+02  0.99526601136E+01  0.53207223670E+02  0.55523042978E+02  0.00000000000E+00 0.  1.
<mgrwt>
<rscale>  0 0.23782164E+04</rscale>
<asrwt>0</asrwt>
<pdfrwt beam="1">  1        1 0.20707609E+00 0.23782164E+04</pdfrwt>
<pdfrwt beam="2">  1       -2 0.16161664E+00 0.23782164E+04</pdfrwt>
<totfact> 0.16199445E+00</totfact>
</mgrwt>
</event>
<event>
12    5  0.5428626E-008  0.1379967E+04  0.7818608E-02  0.8968448E-01
          1   -1    0    0  501    0  0.00000000000E+00  0.00000000000E+00  0.50598779141E+03  0.50598779141E+03  0.00000000000E+00 0. -1.
         -2   -1    0    0    0  501 -0.00000000000E+00 -0.00000000000E+00 -0.94088679325E+03  0.94088679325E+03  0.00000000000E+00 0.  1.
        -24    2    1    2    0    0  0.29328897875E+03  0.36752259150E+01  0.96751395371E+02  0.31900317423E+03  0.79813910560E+02 0.  0.
        254    2    1    2    0    0 -0.29328897875E+03 -0.36752259150E+01 -0.53165039721E+03  0.11278714104E+04  0.95047874320E+03 0.  0.
         23    2    4    4    0    0  0.16740530321E+03 -0.19675998506E+03  0.12194912780E+03  0.30016930800E+03  0.92146602919E+02 0.  0.
         23    2    4    4    0    0 -0.46069428196E+03  0.19308475915E+03 -0.65359952501E+03  0.82770210244E+03  0.91528605572E+02 0.  0.
          1    1    3    3  502    0  0.29362883549E+03 -0.27231206268E+01  0.85130198369E+02  0.30573265951E+03  0.00000000000E+00 0. -1.
         -2    1    3    3    0  502 -0.33985674039E+00  0.63983465417E+01  0.11621197002E+02  0.13270514716E+02  0.00000000000E+00 0.  1.
         13    1    5    5    0    0  0.32496969099E+02 -0.16882111473E+02 -0.11890880265E+02  0.38502619675E+02  0.00000000000E+00 0. -1.
        -13    1    5    5    0    0  0.13490833411E+03 -0.17987787359E+03  0.13384000807E+03  0.26166668832E+03  0.00000000000E+00 0.  1.
          1    1    6    6  503    0 -0.14328219771E+02 -0.56666754894E+01 -0.42945556886E+02  0.45625978885E+02  0.00000000000E+00 0. -1.
         -1    1    6    6    0  503 -0.44636606218E+03  0.19875143464E+03 -0.61065396813E+03  0.78207612355E+03  0.00000000000E+00 0.  1.
<mgrwt>
<rscale>  0 0.13799670E+04</rscale>
<asrwt>0</asrwt>
<pdfrwt beam="1">  1        1 0.77844276E-01 0.13799670E+04</pdfrwt>
<pdfrwt beam="2">  1       -2 0.14475181E+00 0.13799670E+04</pdfrwt>
<totfact> 0.12246566E+01</totfact>
</mgrwt>
</event>
<event>
12    5  0.5428626E-008  0.1097278E+04  0.7818608E-02  0.9207849E-01
          1   -1    0    0  501    0  0.00000000000E+00  0.00000000000E+00  0.51326064141E+03  0.51326064141E+03  0.00000000000E+00 0. -1.
         -2   -1    0    0    0  501 -0.00000000000E+00 -0.00000000000E+00 -0.58645618726E+03  0.58645618726E+03  0.00000000000E+00 0.  1.
        -24    2    1    2    0    0  0.46804876658E+01  0.21123826854E+02  0.14978233050E+03  0.17117185931E+03  0.79980846841E+02 0.  0.
        254    2    1    2    0    0 -0.46804876658E+01 -0.21123826854E+02 -0.22297787636E+03  0.92854496936E+03  0.90111514456E+03 0.  0.
         23    2    4    4    0    0 -0.12476110288E+03 -0.62437803255E+02 -0.54553944529E+03  0.57010228848E+03  0.89103989254E+02 0.  0.
         23    2    4    4    0    0  0.12008061521E+03  0.41313976401E+02  0.32256156893E+03  0.35844268088E+03  0.91153666556E+02 0.  0.
          3    1    3    3  502    0  0.15024948070E+02  0.11373566223E+02  0.15491602933E+03  0.15605794826E+03  0.00000000000E+00 0. -1.
         -4    1    3    3    0  502 -0.10344460404E+02  0.97502606309E+01 -0.51336988239E+01  0.15113911044E+02  0.00000000000E+00 0.  1.
         13    1    5    5    0    0 -0.21653764536E+02  0.79161486986E+01 -0.22401489409E+03  0.22519818761E+03  0.00000000000E+00 0. -1.
        -13    1    5    5    0    0 -0.10310733834E+03 -0.70353951953E+02 -0.32152455120E+03  0.34490410088E+03  0.00000000000E+00 0.  1.
          4    1    6    6  503    0  0.17260422516E+02  0.35948687209E+02  0.16842312264E+03  0.17307968840E+03  0.00000000000E+00 0. -1.
         -4    1    6    6    0  503  0.10282019269E+03  0.53652891918E+01  0.15413844629E+03  0.18536299248E+03  0.00000000000E+00 0.  1.
<mgrwt>
<rscale>  0 0.10972782E+04</rscale>
<asrwt>0</asrwt>
<pdfrwt beam="1">  1        1 0.78963176E-01 0.10972782E+04</pdfrwt>
<pdfrwt beam="2">  1       -2 0.90224028E-01 0.10972782E+04</pdfrwt>
<totfact> 0.39162646E+01</totfact>
</mgrwt>
</event>
<event>
12    5  0.5428626E-008  0.2765756E+04  0.7818608E-02  0.8313979E-01
         -2   -1    0    0    0  501 -0.00000000000E+00  0.00000000000E+00  0.11184941059E+04  0.11184941059E+04  0.00000000000E+00 0.  1.
          1   -1    0    0  501    0  0.00000000000E+00 -0.00000000000E+00 -0.17097554584E+04  0.17097554584E+04  0.00000000000E+00 0. -1.
        -24    2    1    2    0    0 -0.59853465033E+03  0.10602396510E+04 -0.47211705806E+03  0.13083755064E+04  0.81241023964E+02 0.  0.
        254    2    1    2    0    0  0.59853465033E+03 -0.10602396510E+04 -0.11914429447E+03  0.15198740579E+04  0.90192568638E+03 0.  0.
         23    2    4    4    0    0 -0.13717009267E+03 -0.60227165051E+03  0.71043857839E+02  0.62839126675E+03  0.91003181599E+02 0.  0.
         23    2    4    4    0    0  0.73570474300E+03 -0.45796800053E+03 -0.19018815231E+03  0.89148279117E+03  0.87028014363E+02 0.  0.
          3    1    3    3  502    0 -0.45799651098E+03  0.79584833676E+03 -0.39215984005E+03  0.99846117568E+03  0.00000000000E+00 0. -1.
         -4    1    3    3    0  502 -0.14053813936E+03  0.26439131428E+03 -0.79957218015E+02  0.30991433074E+03  0.00000000000E+00 0.  1.
         13    1    5    5    0    0 -0.32249585455E+01 -0.14178720373E+03  0.42136487336E+02  0.14795098872E+03  0.00000000000E+00 0. -1.
        -13    1    5    5    0    0 -0.13394513413E+03 -0.46048444678E+03  0.28907370503E+02  0.48044027802E+03  0.00000000000E+00 0.  1.
          1    1    6    6  503    0  0.11364995520E+03 -0.10002761184E+03 -0.11197069268E+02  0.15181307521E+03  0.00000000000E+00 0. -1.
         -1    1    6    6    0  503  0.62205478781E+03 -0.35794038870E+03 -0.17899108304E+03  0.73966971596E+03  0.00000000000E+00 0.  1.
<mgrwt>
<rscale>  0 0.27657559E+04</rscale>
<asrwt>0</asrwt>
<pdfrwt beam="1">  1        1 0.26303930E+00 0.27657559E+04</pdfrwt>
<pdfrwt beam="2">  1       -2 0.17207602E+00 0.27657559E+04</pdfrwt>
<totfact> 0.73768516E-01</totfact>
</mgrwt>
</event>
<event>
12    5  0.5428626E-008  0.1290930E+04  0.7818608E-02  0.9036789E-01
         -2   -1    0    0    0  501 -0.00000000000E+00  0.00000000000E+00  0.22967666963E+03  0.22967666963E+03  0.00000000000E+00 0.  1.
          1   -1    0    0  501    0  0.00000000000E+00 -0.00000000000E+00 -0.18139643176E+04  0.18139643176E+04  0.00000000000E+00 0. -1.
        -24    2    1    2    0    0 -0.32417634980E+03  0.36666350005E+02 -0.42723996851E+03  0.54320937521E+03  0.78151824244E+02 0.  0.
        254    2    1    2    0    0  0.32417634980E+03 -0.36666350005E+02 -0.11570476794E+04  0.15004316120E+04  0.89783125521E+03 0.  0.
         23    2    4    4    0    0  0.38838586225E+02 -0.69630199674E+02  0.13056084436E+03  0.17801774338E+03  0.91035061342E+02 0.  0.
         23    2    4    4    0    0  0.28533776357E+03  0.32963849669E+02 -0.12876085238E+04  0.13224138686E+04  0.91315248865E+02 0.  0.
          1    1    3    3  502    0 -0.31390446316E+03  0.48149474067E+02 -0.41895425681E+03  0.52571575318E+03  0.00000000000E+00 0. -1.
         -2    1    3    3    0  502 -0.10271886637E+02 -0.11483124062E+02 -0.82857117046E+01  0.17493622031E+02  0.00000000000E+00 0.  1.
         13    1    5    5    0    0  0.26721226596E+02  0.14871140767E+02  0.59688882702E+02  0.67066664571E+02  0.00000000000E+00 0.  1.
        -13    1    5    5    0    0  0.12117359628E+02 -0.84501340441E+02  0.70871961655E+02  0.11095107881E+03  0.00000000000E+00 0. -1.
          3    1    6    6  503    0  0.15855279778E+03  0.60894841063E+02 -0.65864823994E+03  0.68019458637E+03  0.00000000000E+00 0. -1.
         -3    1    6    6    0  503  0.12678496579E+03 -0.27930991394E+02 -0.62896028386E+03  0.64221928226E+03  0.00000000000E+00 0.  1.
<mgrwt>
<rscale>  0 0.12909303E+04</rscale>
<asrwt>0</asrwt>
<pdfrwt beam="1">  1        1 0.27907144E+00 0.12909303E+04</pdfrwt>
<pdfrwt beam="2">  1       -2 0.35334872E-01 0.12909303E+04</pdfrwt>
<totfact> 0.25889940E+01</totfact>
</mgrwt>
</event>
<event>
12    5  0.5428626E-008  0.2135680E+04  0.7818608E-02  0.8545687E-01
          1   -1    0    0  501    0  0.00000000000E+00  0.00000000000E+00  0.98101883115E+03  0.98101883115E+03  0.00000000000E+00 0. -1.
         -2   -1    0    0    0  501 -0.00000000000E+00 -0.00000000000E+00 -0.11623453405E+04  0.11623453405E+04  0.00000000000E+00 0.  1.
        -24    2    1    2    0    0  0.16000715639E+03 -0.10622527303E+03 -0.91118248384E+03  0.93465104049E+03  0.80205672497E+02 0.  0.
        254    2    1    2    0    0 -0.16000715639E+03  0.10622527303E+03  0.72985597445E+03  0.12087131312E+04  0.94414595873E+03 0.  0.
         23    2    4    4    0    0  0.28800801728E+03  0.15055478236E+03  0.66413709395E+03  0.74480014570E+03  0.89631562406E+02 0.  0.
         23    2    4    4    0    0 -0.44801517366E+03 -0.44329509332E+02  0.65718880501E+02  0.46391298550E+03  0.90628834453E+02 0.  0.
          1    1    3    3  502    0  0.64191857154E+02 -0.65263452726E+02 -0.58804116933E+03  0.59512379352E+03  0.00000000000E+00 0. -1.
         -2    1    3    3    0  502  0.95815299234E+02 -0.40961820301E+02 -0.32314131452E+03  0.33952724697E+03  0.00000000000E+00 0.  1.
         13    1    5    5    0    0  0.25844910214E+02  0.38945000713E+02  0.14841571299E+03  0.15560172341E+03  0.00000000000E+00 0. -1.
        -13    1    5    5    0    0  0.26216310706E+03  0.11160978165E+03  0.51572138095E+03  0.58919842229E+03  0.00000000000E+00 0.  1.
          4    1    6    6  503    0 -0.62538214501E+01 -0.12811191480E+02  0.10272095173E+02  0.17571364463E+02  0.00000000000E+00 0. -1.
         -4    1    6    6    0  503 -0.44176135221E+03 -0.31518317852E+02  0.55446785328E+02  0.44634162104E+03  0.00000000000E+00 0.  1.
<mgrwt>
<rscale>  0 0.21356804E+04</rscale>
<asrwt>0</asrwt>
<pdfrwt beam="1">  1        1 0.15092597E+00 0.21356804E+04</pdfrwt>
<pdfrwt beam="2">  1       -2 0.17882236E+00 0.21356804E+04</pdfrwt>
<totfact> 0.23252972E+00</totfact>
</mgrwt>
</event>
<event>
12    5  0.5428626E-008  0.2202853E+04  0.7818608E-02  0.8517241E-01
         -2   -1    0    0    0  501 -0.00000000000E+00  0.00000000000E+00  0.92737774558E+03  0.92737774558E+03  0.00000000000E+00 0.  1.
          1   -1    0    0  501    0  0.00000000000E+00 -0.00000000000E+00 -0.13081407213E+04  0.13081407213E+04  0.00000000000E+00 0. -1.
        -24    2    1    2    0    0  0.91095190158E+03 -0.32123362152E+02 -0.35692765282E+02  0.91561505672E+03  0.78814219534E+02 0.  0.
        254    2    1    2    0    0 -0.91095190158E+03  0.32123362152E+02 -0.34507021039E+03  0.13199034101E+04  0.89005970841E+03 0.  0.
         23    2    4    4    0    0 -0.58897163661E+03 -0.79596406941E+01 -0.63839519162E+03  0.87361216284E+03  0.93267602946E+02 0.  0.
         23    2    4    4    0    0 -0.32198026497E+03  0.40083002846E+02  0.29332498123E+03  0.44629124727E+03  0.88647586740E+02 0.  0.
          3    1    3    3  502    0  0.53992372843E+03  0.58605003066E+01  0.86208944504E+01  0.54002434927E+03  0.00000000000E+00 0. -1.
         -4    1    3    3    0  502  0.37102817315E+03 -0.37983862459E+02 -0.44313659732E+02  0.37559070745E+03  0.00000000000E+00 0.  1.
         13    1    5    5    0    0 -0.31629427305E+03 -0.44987656350E+02 -0.30991271804E+03  0.44509757266E+03  0.00000000000E+00 0. -1.
        -13    1    5    5    0    0 -0.27267736357E+03  0.37028015656E+02 -0.32848247358E+03  0.42851459018E+03  0.00000000000E+00 0.  1.
          4    1    6    6  503    0 -0.27512134705E+03  0.49417166927E+02  0.28226212297E+03  0.39724767847E+03  0.00000000000E+00 0. -1.
         -4    1    6    6    0  503 -0.46858917921E+02 -0.93341640805E+01  0.11062858255E+02  0.49043568800E+02  0.00000000000E+00 0.  1.
<mgrwt>
<rscale>  0 0.22028532E+04</rscale>
<asrwt>0</asrwt>
<pdfrwt beam="1">  1        1 0.20125242E+00 0.22028532E+04</pdfrwt>
<pdfrwt beam="2">  1       -2 0.14267350E+00 0.22028532E+04</pdfrwt>
<totfact> 0.24406774E+00</totfact>
</mgrwt>
</event>
<event>
12    5  0.5428626E-008  0.1511298E+04  0.7818608E-02  0.8876975E-01
          1   -1    0    0  501    0  0.00000000000E+00  0.00000000000E+00  0.98264431921E+03  0.98264431921E+03  0.00000000000E+00 0. -1.
         -2   -1    0    0    0  501 -0.00000000000E+00 -0.00000000000E+00 -0.58109053566E+03  0.58109053566E+03  0.00000000000E+00 0.  1.
        -24    2    1    2    0    0  0.19246595325E+03  0.30855365171E+03 -0.20788078333E+03  0.42613718515E+03  0.78294197413E+02 0.  0.
        254    2    1    2    0    0 -0.19246595325E+03 -0.30855365171E+03  0.60943456688E+03  0.11375976697E+04  0.88908349872E+03 0.  0.
         23    2    4    4    0    0 -0.27909184507E+03  0.20625455590E+03  0.46559787839E+03  0.58826414405E+03  0.94021906981E+02 0.  0.
         23    2    4    4    0    0  0.86625891814E+02 -0.51480820760E+03  0.14383668848E+03  0.54933352567E+03  0.92448870873E+02 0.  0.
          1    1    3    3  502    0  0.10722020463E+03  0.10069920314E+03 -0.74750152851E+02  0.16499723375E+03  0.00000000000E+00 0. -1.
         -2    1    3    3    0  502  0.85245748627E+02  0.20785444857E+03 -0.13313063047E+03  0.26113995140E+03  0.00000000000E+00 0.  1.
         13    1    5    5    0    0 -0.12153482703E+03  0.14783106521E+03  0.24001513746E+03  0.30697231835E+03  0.00000000000E+00 0. -1.
        -13    1    5    5    0    0 -0.15755701803E+03  0.58423490690E+02  0.22558274094E+03  0.28129182570E+03  0.00000000000E+00 0.  1.
          2    1    6    6  503    0  0.93824808699E+02 -0.49428265458E+03  0.15281058446E+03  0.52580368206E+03  0.00000000000E+00 0. -1.
         -2    1    6    6    0  503 -0.71989168845E+01 -0.20525553025E+02 -0.89738959820E+01  0.23529843612E+02  0.00000000000E+00 0.  1.
<mgrwt>
<rscale>  0 0.15112979E+04</rscale>
<asrwt>0</asrwt>
<pdfrwt beam="1">  1        1 0.15117605E+00 0.15112979E+04</pdfrwt>
<pdfrwt beam="2">  1       -2 0.89398544E-01 0.15112979E+04</pdfrwt>
<totfact> 0.14198403E+01</totfact>
</mgrwt>
</event>
<event>
12    5  0.5428626E-008  0.1469009E+04  0.7818608E-02  0.8905327E-01
         -2   -1    0    0    0  501 -0.00000000000E+00  0.00000000000E+00  0.53635259956E+03  0.53635259956E+03  0.00000000000E+00 0.  1.
          1   -1    0    0  501    0  0.00000000000E+00 -0.00000000000E+00 -0.10058626492E+04  0.10058626492E+04  0.00000000000E+00 0. -1.
        -24    2    1    2    0    0  0.29448275441E+03  0.32480261212E+03 -0.25870287811E+02  0.44639651660E+03  0.79898365205E+02 0.  0.
        254    2    1    2    0    0 -0.29448275441E+03 -0.32480261212E+03 -0.44363976185E+03  0.10958187322E+04  0.90099146835E+03 0.  0.
         23    2    4    4    0    0  0.74900819573E+02 -0.45510506521E+03 -0.50386328744E+03  0.68930037147E+03  0.92336539526E+02 0.  0.
         23    2    4    4    0    0 -0.36938357398E+03  0.13030245309E+03  0.60223525593E+02  0.40651836071E+03  0.90594428921E+02 0.  0.
          3    1    3    3  502    0  0.20480287972E+03  0.23588278813E+03 -0.53981078671E+02  0.31701556134E+03  0.00000000000E+00 0. -1.
         -4    1    3    3    0  502  0.89679874690E+02  0.88919823988E+02  0.28110790860E+02  0.12938095526E+03  0.00000000000E+00 0.  1.
         13    1    5    5    0    0  0.90318171108E+02 -0.31296691085E+03 -0.32274504718E+03  0.45855209606E+03  0.00000000000E+00 0.  1.
        -13    1    5    5    0    0 -0.15417351535E+02 -0.14213815437E+03 -0.18111824025E+03  0.23074827542E+03  0.00000000000E+00 0. -1.
          1    1    6    6  503    0 -0.11949207057E+03  0.78652342252E+02  0.48585024404E+02  0.15107961632E+03  0.00000000000E+00 0. -1.
         -1    1    6    6    0  503 -0.24989150341E+03  0.51650110842E+02  0.11638501189E+02  0.25543874439E+03  0.00000000000E+00 0.  1.
<mgrwt>
<rscale>  0 0.14690093E+04</rscale>
<asrwt>0</asrwt>
<pdfrwt beam="1">  1        1 0.15474810E+00 0.14690093E+04</pdfrwt>
<pdfrwt beam="2">  1       -2 0.82515785E-01 0.14690093E+04</pdfrwt>
<totfact> 0.16407328E+01</totfact>
</mgrwt>
</event>
<event>
12    5  0.5428626E-008  0.3046466E+04  0.7818608E-02  0.8230585E-01
          1   -1    0    0  501    0  0.00000000000E+00  0.00000000000E+00  0.15395765321E+04  0.15395765321E+04  0.00000000000E+00 0. -1.
         -2   -1    0    0    0  501 -0.00000000000E+00 -0.00000000000E+00 -0.15070626015E+04  0.15070626015E+04  0.00000000000E+00 0.  1.
        -24    2    1    2    0    0  0.36480399231E+03  0.16369297398E+03  0.13426328586E+04  0.14031318956E+04  0.78985954466E+02 0.  0.
        254    2    1    2    0    0 -0.36480399231E+03 -0.16369297398E+03 -0.13101189281E+04  0.16435072379E+04  0.90819991905E+03 0.  0.
         23    2    4    4    0    0 -0.35208168955E+03 -0.47580899792E+03 -0.53999478436E+03  0.80649630698E+03  0.92120613381E+02 0.  0.
         23    2    4    4    0    0 -0.12722302758E+02  0.31211602394E+03 -0.77012414369E+03  0.83701093096E+03  0.99588314859E+02 0.  0.
          1    1    3    3  502    0  0.32984042216E+03  0.12419815732E+03  0.11107944656E+04  0.11653687104E+04  0.00000000000E+00 0. -1.
         -2    1    3    3    0  502  0.34963570151E+02  0.39494816664E+02  0.23183839305E+03  0.23776318528E+03  0.00000000000E+00 0.  1.
         13    1    5    5    0    0 -0.29231353071E+03 -0.42936813063E+03 -0.49962025713E+03  0.72071117181E+03  0.00000000000E+00 0.  1.
        -13    1    5    5    0    0 -0.59768158848E+02 -0.46440867289E+02 -0.40374527228E+02  0.85785135166E+02  0.00000000000E+00 0. -1.
          2    1    6    6  503    0 -0.20039950226E+02  0.36159193661E+02 -0.19146660459E+03  0.19587891046E+03  0.00000000000E+00 0. -1.
         -2    1    6    6    0  503  0.73176474685E+01  0.27595683028E+03 -0.57865753910E+03  0.64113202049E+03  0.00000000000E+00 0.  1.
<mgrwt>
<rscale>  0 0.30464656E+04</rscale>
<asrwt>0</asrwt>
<pdfrwt beam="1">  1        1 0.23685793E+00 0.30464656E+04</pdfrwt>
<pdfrwt beam="2">  1       -2 0.23185578E+00 0.30464656E+04</pdfrwt>
<totfact> 0.38067549E-01</totfact>
</mgrwt>
</event>
<event>
12    5  0.5428626E-008  0.1764103E+04  0.7818608E-02  0.8725625E-01
         -2   -1    0    0    0  501 -0.00000000000E+00  0.00000000000E+00  0.21441177468E+04  0.21441177468E+04  0.00000000000E+00 0.  1.
          1   -1    0    0  501    0  0.00000000000E+00 -0.00000000000E+00 -0.36286018516E+03  0.36286018516E+03  0.00000000000E+00 0. -1.
        -24    2    1    2    0    0 -0.46595641670E+03 -0.42792373805E+02  0.26924931738E+02  0.47531369781E+03  0.79066996035E+02 0.  0.
        254    2    1    2    0    0  0.46595641670E+03  0.42792373805E+02  0.17543326299E+04  0.20316642342E+04  0.91160847653E+03 0.  0.
         23    2    4    4    0    0  0.13401512017E+02  0.41484508065E+03  0.85130995851E+03  0.95147662763E+03  0.91121270845E+02 0.  0.
         23    2    4    4    0    0  0.45255490468E+03 -0.37205270684E+03  0.90302267143E+03  0.10801876066E+04  0.90145226364E+02 0.  0.
          1    1    3    3  502    0 -0.37729350620E+03 -0.44120865128E+02 -0.81599773966E+01  0.37995213619E+03  0.00000000000E+00 0. -1.
         -2    1    3    3    0  502 -0.88662910493E+02  0.13284913229E+01  0.35084909135E+02  0.95361561623E+02  0.00000000000E+00 0.  1.
         13    1    5    5    0    0  0.87827431411E+01  0.27785754797E+03  0.65977572369E+03  0.71595108710E+03  0.00000000000E+00 0.  1.
        -13    1    5    5    0    0  0.46187688756E+01  0.13698753268E+03  0.19153423482E+03  0.23552554053E+03  0.00000000000E+00 0. -1.
          3    1    6    6  503    0  0.53114085484E+02 -0.17165844148E+02  0.58734360974E+02  0.81027757226E+02  0.00000000000E+00 0. -1.
         -3    1    6    6    0  503  0.39944081919E+03 -0.35488686269E+03  0.84428831046E+03  0.99915984933E+03  0.00000000000E+00 0.  1.
<mgrwt>
<rscale>  0 0.17641031E+04</rscale>
<asrwt>0</asrwt>
<pdfrwt beam="1">  1        1 0.55824645E-01 0.17641031E+04</pdfrwt>
<pdfrwt beam="2">  1       -2 0.32986426E+00 0.17641031E+04</pdfrwt>
<totfact> 0.11791273E+00</totfact>
</mgrwt>
</event>
<event>
12    5  0.5428626E-008  0.1709305E+04  0.7818608E-02  0.8756075E-01
         -2   -1    0    0    0  501 -0.00000000000E+00  0.00000000000E+00  0.92135245551E+03  0.92135245551E+03  0.00000000000E+00 0.  1.
          1   -1    0    0  501    0  0.00000000000E+00 -0.00000000000E+00 -0.79278128469E+03  0.79278128469E+03  0.00000000000E+00 0. -1.
        -24    2    1    2    0    0  0.33135716192E+03 -0.48166237971E+03  0.22924939187E+03  0.63318023033E+03  0.81029029502E+02 0.  0.
        254    2    1    2    0    0 -0.33135716192E+03  0.48166237971E+03 -0.10067822105E+03  0.10809535099E+04  0.90361948270E+03 0.  0.
         23    2    4    4    0    0  0.27441241519E+03  0.34055669951E+03 -0.22875281222E+02  0.44742304254E+03  0.91559059132E+02 0.  0.
         23    2    4    4    0    0 -0.60576957711E+03  0.14110568020E+03 -0.77802939823E+02  0.63353046733E+03  0.91869266085E+02 0.  0.
          3    1    3    3  502    0  0.54902259050E+01 -0.44308103224E+02  0.21408026526E+02  0.49514181721E+02  0.00000000000E+00 0. -1.
         -4    1    3    3    0  502  0.32586693601E+03 -0.43735427649E+03  0.20784136535E+03  0.58366604861E+03  0.00000000000E+00 0.  1.
         13    1    5    5    0    0  0.60042904239E+02  0.32701435240E+02 -0.23460719386E+02  0.72283743472E+02  0.00000000000E+00 0. -1.
        -13    1    5    5    0    0  0.21436951095E+03  0.30785526427E+03  0.58543816403E+00  0.37513929907E+03  0.00000000000E+00 0.  1.
          1    1    6    6  503    0 -0.18953033513E+03  0.97323435908E+01 -0.49528205081E+02  0.19613645644E+03  0.00000000000E+00 0.  1.
         -1    1    6    6    0  503 -0.41623924198E+03  0.13137333661E+03 -0.28274734742E+02  0.43739401089E+03  0.00000000000E+00 0. -1.
<mgrwt>
<rscale>  0 0.17093051E+04</rscale>
<asrwt>0</asrwt>
<pdfrwt beam="1">  1        1 0.12196635E+00 0.17093051E+04</pdfrwt>
<pdfrwt beam="2">  1       -2 0.14174653E+00 0.17093051E+04</pdfrwt>
<totfact> 0.64956808E+00</totfact>
</mgrwt>
</event>
<event>
12    5  0.5428626E-008  0.1608475E+04  0.7818608E-02  0.8815359E-01
         -2   -1    0    0    0  501 -0.00000000000E+00  0.00000000000E+00  0.56628880238E+03  0.56628880238E+03  0.00000000000E+00 0.  1.
          1   -1    0    0  501    0  0.00000000000E+00 -0.00000000000E+00 -0.11421690866E+04  0.11421690866E+04  0.00000000000E+00 0. -1.
        -24    2    1    2    0    0  0.94374273979E+02 -0.17711044789E+03  0.34241032548E+03  0.40499485156E+03  0.80631163046E+02 0.  0.
        254    2    1    2    0    0 -0.94374273979E+02  0.17711044789E+03 -0.91829060965E+03  0.13034630374E+04  0.90304132335E+03 0.  0.
         23    2    4    4    0    0 -0.39621341371E+03 -0.10659966685E+03 -0.72320312513E+03  0.83637251361E+03  0.90264406806E+02 0.  0.
         23    2    4    4    0    0  0.30183913974E+03  0.28371011474E+03 -0.19508748452E+03  0.46709052376E+03  0.92282908993E+02 0.  0.
          1    1    3    3  502    0 -0.12966200803E+02 -0.90048516391E+01  0.16047898193E+02  0.22510991820E+02  0.00000000000E+00 0. -1.
         -2    1    3    3    0  502  0.10734047478E+03 -0.16810559625E+03  0.32636242729E+03  0.38248385974E+03  0.00000000000E+00 0.  1.
         13    1    5    5    0    0 -0.30523660570E+03 -0.41982025428E+02 -0.51416239554E+03  0.59941208271E+03  0.00000000000E+00 0.  1.
        -13    1    5    5    0    0 -0.90976808016E+02 -0.64617641424E+02 -0.20904072960E+03  0.23696043090E+03  0.00000000000E+00 0. -1.
          3    1    6    6  503    0  0.29391441903E+03  0.28825215631E+03 -0.19888529195E+03  0.45719837126E+03  0.00000000000E+00 0. -1.
         -3    1    6    6    0  503  0.79247207054E+01 -0.45420415691E+01  0.37978074288E+01  0.98921525029E+01  0.00000000000E+00 0.  1.
<mgrwt>
<rscale>  0 0.16084745E+04</rscale>
<asrwt>0</asrwt>
<pdfrwt beam="1">  1        1 0.17571832E+00 0.16084745E+04</pdfrwt>
<pdfrwt beam="2">  1       -2 0.87121356E-01 0.16084745E+04</pdfrwt>
<totfact> 0.11290702E+01</totfact>
</mgrwt>
</event>
<event>
12    5  0.5428626E-008  0.2006361E+04  0.7818608E-02  0.8603652E-01
          1   -1    0    0  501    0  0.00000000000E+00  0.00000000000E+00  0.76320306974E+03  0.76320306974E+03  0.00000000000E+00 0. -1.
         -2   -1    0    0    0  501 -0.00000000000E+00 -0.00000000000E+00 -0.13186151226E+04  0.13186151226E+04  0.00000000000E+00 0.  1.
        -24    2    1    2    0    0 -0.39340288261E+03 -0.47637359825E+03  0.30512139029E+03  0.69370427287E+03  0.80180560111E+02 0.  0.
        254    2    1    2    0    0  0.39340288261E+03  0.47637359825E+03 -0.86053344320E+03  0.13881139195E+04  0.89701996274E+03 0.  0.
         23    2    4    4    0    0  0.50444365787E+03 -0.39267297224E+02 -0.60589581042E+03  0.79485715726E+03  0.93181772734E+02 0.  0.
         23    2    4    4    0    0 -0.11104077526E+03  0.51564089548E+03 -0.25463763278E+03  0.59325676226E+03  0.94327488488E+02 0.  0.
          3    1    3    3  502    0 -0.39709512064E+03 -0.46802310574E+03  0.30198269385E+03  0.68404949363E+03  0.00000000000E+00 0. -1.
         -4    1    3    3    0  502  0.36922380275E+01 -0.83504925119E+01  0.31386964369E+01  0.96547792396E+01  0.00000000000E+00 0.  1.
         13    1    5    5    0    0  0.88372475748E+02 -0.23349013303E+02 -0.64526954713E+02  0.11188654422E+03  0.00000000000E+00 0. -1.
        -13    1    5    5    0    0  0.41607118212E+03 -0.15918283921E+02 -0.54136885570E+03  0.68297061304E+03  0.00000000000E+00 0.  1.
          1    1    6    6  503    0 -0.23216912024E+02  0.15239374984E+03 -0.12240283561E+03  0.19683834525E+03  0.00000000000E+00 0. -1.
         -1    1    6    6    0  503 -0.87823863234E+02  0.36324714564E+03 -0.13223479717E+03  0.39641841702E+03  0.00000000000E+00 0.  1.
<mgrwt>
<rscale>  0 0.20063610E+04</rscale>
<asrwt>0</asrwt>
<pdfrwt beam="1">  1        1 0.11741586E+00 0.20063610E+04</pdfrwt>
<pdfrwt beam="2">  1       -2 0.20286387E+00 0.20063610E+04</pdfrwt>
<totfact> 0.24643864E+00</totfact>
</mgrwt>
</event>
<event>
12    5  0.5428626E-008  0.1934282E+04  0.7818608E-02  0.8637978E-01
         -2   -1    0    0    0  501 -0.00000000000E+00  0.00000000000E+00  0.46045727963E+03  0.46045727963E+03  0.00000000000E+00 0.  1.
          1   -1    0    0  501    0  0.00000000000E+00 -0.00000000000E+00 -0.20313761125E+04  0.20313761125E+04  0.00000000000E+00 0. -1.
        -24    2    1    2    0    0  0.63351838143E+03 -0.39642982031E+03 -0.82493316146E+03  0.11159161154E+04  0.79069043642E+02 0.  0.
        254    2    1    2    0    0 -0.63351838143E+03  0.39642982031E+03 -0.74598567142E+03  0.13759172767E+04  0.88212900896E+03 0.  0.
         23    2    4    4    0    0 -0.33519412835E+03  0.43834006014E+03 -0.87239710511E+03  0.10363094520E+04  0.91451950956E+02 0.  0.
         23    2    4    4    0    0 -0.29832425307E+03 -0.41910239830E+02  0.12641143369E+03  0.33960782472E+03  0.92735084352E+02 0.  0.
          3    1    3    3  502    0  0.29802884176E+03 -0.20398702768E+03 -0.34409383508E+03  0.49883109900E+03  0.00000000000E+00 0. -1.
         -4    1    3    3    0  502  0.33548953967E+03 -0.19244279263E+03 -0.48083932638E+03  0.61708501639E+03  0.00000000000E+00 0.  1.
         13    1    5    5    0    0 -0.30701816713E+03  0.34744088038E+03 -0.74008840647E+03  0.87333050427E+03  0.00000000000E+00 0. -1.
        -13    1    5    5    0    0 -0.28175961224E+02  0.90899179759E+02 -0.13230869865E+03  0.16297894775E+03  0.00000000000E+00 0.  1.
          1    1    6    6  503    0 -0.22518390226E+03 -0.68134452624E+02  0.77080988389E+02  0.24757134778E+03  0.00000000000E+00 0. -1.
         -1    1    6    6    0  503 -0.73140350816E+02  0.26224212794E+02  0.49330445304E+02  0.92036476942E+02  0.00000000000E+00 0.  1.
<mgrwt>
<rscale>  0 0.19342822E+04</rscale>
<asrwt>0</asrwt>
<pdfrwt beam="1">  1        1 0.31251940E+00 0.19342822E+04</pdfrwt>
<pdfrwt beam="2">  1       -2 0.70839581E-01 0.19342822E+04</pdfrwt>
<totfact> 0.42098443E+00</totfact>
</mgrwt>
</event>
<event>
12    5  0.5428626E-008  0.1486729E+04  0.7818608E-02  0.8893326E-01
          1   -1    0    0  501    0  0.00000000000E+00  0.00000000000E+00  0.61351637453E+03  0.61351637453E+03  0.00000000000E+00 0. -1.
         -2   -1    0    0    0  501 -0.00000000000E+00 -0.00000000000E+00 -0.90069493691E+03  0.90069493691E+03  0.00000000000E+00 0.  1.
        -24    2    1    2    0    0 -0.83284006452E+02  0.44620722295E+03 -0.19140796931E+03  0.49906614372E+03  0.79955572322E+02 0.  0.
        254    2    1    2    0    0  0.83284006452E+02 -0.44620722295E+03 -0.95770593067E+02  0.10151451677E+04  0.90294550972E+03 0.  0.
         23    2    4    4    0    0 -0.36035216481E+03 -0.35825313796E+03  0.78042223503E+02  0.52226993853E+03  0.92066858851E+02 0.  0.
         23    2    4    4    0    0  0.44363617127E+03 -0.87954084985E+02 -0.17381281657E+03  0.49287522919E+03  0.90366602397E+02 0.  0.
          1    1    3    3  502    0 -0.66155055083E+02  0.43560716926E+03 -0.18032328219E+03  0.47607413637E+03  0.00000000000E+00 0. -1.
         -4    1    3    3    0  502 -0.17128951369E+02  0.10600053694E+02 -0.11084687118E+02  0.22992007347E+02  0.00000000000E+00 0.  1.
         13    1    5    5    0    0 -0.25894920965E+03 -0.22429476974E+03  0.88836241388E+02  0.35391342825E+03  0.00000000000E+00 0. -1.
        -13    1    5    5    0    0 -0.10140295517E+03 -0.13395836822E+03 -0.10794017885E+02  0.16835651028E+03  0.00000000000E+00 0.  1.
          4    1    6    6  503    0  0.22067987039E+03 -0.84429156183E+02 -0.66789961584E+02  0.24553774980E+03  0.00000000000E+00 0. -1.
         -4    1    6    6    0  503  0.22295630087E+03 -0.35249288022E+01 -0.10702285499E+03  0.24733747939E+03  0.00000000000E+00 0.  1.
<mgrwt>
<rscale>  0 0.14867294E+04</rscale>
<asrwt>0</asrwt>
<pdfrwt beam="1">  1        1 0.94387135E-01 0.14867294E+04</pdfrwt>
<pdfrwt beam="2">  1       -2 0.13856845E+00 0.14867294E+04</pdfrwt>
<totfact> 0.10360394E+01</totfact>
</mgrwt>
</event>
<event>
12    5  0.5428626E-008  0.2293187E+04  0.7818608E-02  0.8480612E-01
          1   -1    0    0  501    0  0.00000000000E+00  0.00000000000E+00  0.24650813180E+04  0.24650813180E+04  0.00000000000E+00 0. -1.
         -2   -1    0    0    0  501 -0.00000000000E+00 -0.00000000000E+00 -0.53331993957E+03  0.53331993957E+03  0.00000000000E+00 0.  1.
        -24    2    1    2    0    0  0.52340454351E+03  0.49681707589E+03 -0.22884357377E+02  0.72646982960E+03  0.80344237176E+02 0.  0.
        254    2    1    2    0    0 -0.52340454351E+03 -0.49681707589E+03  0.19546457358E+04  0.22719314279E+04  0.90567816457E+03 0.  0.
         23    2    4    4    0    0 -0.66016299353E+03 -0.60900659724E+03  0.12664128980E+04  0.15552729725E+04  0.91477742909E+02 0.  0.
         23    2    4    4    0    0  0.13675845002E+03  0.11218952135E+03  0.68823283784E+03  0.71665845543E+03  0.92981397606E+02 0.  0.
          3    1    3    3  502    0  0.19839048528E+03  0.14334731140E+03  0.11739253801E+02  0.24504090764E+03  0.00000000000E+00 0. -1.
         -4    1    3    3    0  502  0.32501405824E+03  0.35346976449E+03 -0.34623611178E+02  0.48142892197E+03  0.00000000000E+00 0.  1.
         13    1    5    5    0    0 -0.12180020419E+03 -0.16385404714E+03  0.27772185742E+03  0.34469242607E+03  0.00000000000E+00 0. -1.
        -13    1    5    5    0    0 -0.53836278934E+03 -0.44515255010E+03  0.98869104053E+03  0.12105805464E+04  0.00000000000E+00 0.  1.
          3    1    6    6  503    0  0.94089640041E+02  0.52379716228E+02  0.54656680712E+03  0.55707429458E+03  0.00000000000E+00 0. -1.
         -3    1    6    6    0  503  0.42668809980E+02  0.59809805118E+02  0.14166603072E+03  0.15958416085E+03  0.00000000000E+00 0.  1.
<mgrwt>
<rscale>  0 0.22931873E+04</rscale>
<asrwt>0</asrwt>
<pdfrwt beam="1">  1        1 0.37924327E+00 0.22931873E+04</pdfrwt>
<pdfrwt beam="2">  1       -2 0.82049223E-01 0.22931873E+04</pdfrwt>
<totfact> 0.14863585E+00</totfact>
</mgrwt>
</event>
<event>
12    5  0.5428626E-008  0.1964980E+04  0.7818608E-02  0.8623171E-01
          1   -1    0    0  501    0  0.00000000000E+00  0.00000000000E+00  0.99088464889E+03  0.99088464889E+03  0.00000000000E+00 0. -1.
         -2   -1    0    0    0  501 -0.00000000000E+00 -0.00000000000E+00 -0.97416662040E+03  0.97416662040E+03  0.00000000000E+00 0.  1.
        -24    2    1    2    0    0 -0.69443739669E+03 -0.16789559784E+03  0.30474633090E+03  0.78088456254E+03  0.80486918955E+02 0.  0.
        254    2    1    2    0    0  0.69443739669E+03  0.16789559784E+03 -0.28802830241E+03  0.11841667067E+04  0.89936547448E+03 0.  0.
         23    2    4    4    0    0  0.81786698665E+03  0.20582233099E+03 -0.44816034842E+03  0.95960383049E+03  0.93394720522E+02 0.  0.
         23    2    4    4    0    0 -0.12342958996E+03 -0.37926733154E+02  0.16013204601E+03  0.22456287626E+03  0.90071707383E+02 0.  0.
          1    1    3    3  502    0 -0.23033784323E+03 -0.90748486222E+02  0.12403897654E+03  0.27690517777E+03  0.00000000000E+00 0. -1.
         -2    1    3    3    0  502 -0.46409955346E+03 -0.77147111615E+02  0.18070735436E+03  0.50397938477E+03  0.00000000000E+00 0.  1.
         13    1    5    5    0    0  0.77247746168E+03  0.20767796010E+03 -0.44159187032E+03  0.91370396948E+03  0.00000000000E+00 0. -1.
        -13    1    5    5    0    0  0.45389524967E+02 -0.18556291076E+01 -0.65684780910E+01  0.45899861008E+02  0.00000000000E+00 0.  1.
          1    1    6    6  503    0 -0.55157410390E+02 -0.76517295838E+01  0.13455202457E+03  0.14561983451E+03  0.00000000000E+00 0. -1.
         -1    1    6    6    0  503 -0.68272179567E+02 -0.30275003570E+02  0.25580021435E+02  0.78943041749E+02  0.00000000000E+00 0.  1.
<mgrwt>
<rscale>  0 0.19649802E+04</rscale>
<asrwt>0</asrwt>
<pdfrwt beam="1">  1        1 0.15244379E+00 0.19649802E+04</pdfrwt>
<pdfrwt beam="2">  1       -2 0.14987179E+00 0.19649802E+04</pdfrwt>
<totfact> 0.37672541E+00</totfact>
</mgrwt>
</event>
<event>
12    5  0.5428626E-008  0.1438948E+04  0.7818608E-02  0.8926099E-01
          1   -1    0    0  501    0  0.00000000000E+00  0.00000000000E+00  0.21992462885E+04  0.21992462885E+04  0.00000000000E+00 0. -1.
         -2   -1    0    0    0  501 -0.00000000000E+00 -0.00000000000E+00 -0.23537287779E+03  0.23537287779E+03  0.00000000000E+00 0.  1.
        -24    2    1    2    0    0  0.52038092273E+02  0.13039279185E+03 -0.89216595179E+02  0.18530523369E+03  0.81658958865E+02 0.  0.
        254    2    1    2    0    0 -0.52038092273E+02 -0.13039279185E+03  0.20530900059E+04  0.22493139326E+04  0.90803323283E+03 0.  0.
         23    2    4    4    0    0  0.25063489053E+03  0.11676434147E+03  0.16662277157E+04  0.16914697268E+04  0.91122315079E+02 0.  0.
         23    2    4    4    0    0 -0.30267298281E+03 -0.24715713333E+03  0.38686229026E+03  0.55784420588E+03  0.93968842353E+02 0.  0.
          3    1    3    3  502    0 -0.12647830056E+02  0.56650692437E+02 -0.93136575431E+01  0.58787862485E+02  0.00000000000E+00 0. -1.
         -4    1    3    3    0  502  0.64685922329E+02  0.73742099418E+02 -0.79902937636E+02  0.12651737121E+03  0.00000000000E+00 0.  1.
         13    1    5    5    0    0  0.23249346729E+03  0.12196211129E+03  0.16257090705E+04  0.16467719790E+04  0.00000000000E+00 0.  1.
        -13    1    5    5    0    0  0.18141423240E+02 -0.51977698183E+01  0.40518645123E+02  0.44697747716E+02  0.00000000000E+00 0. -1.
          4    1    6    6  503    0 -0.24876183270E+03 -0.23462755737E+03  0.35929997396E+03  0.49601311613E+03  0.00000000000E+00 0.  1.
         -4    1    6    6    0  503 -0.53911150110E+02 -0.12529575955E+02  0.27562316298E+02  0.61831089748E+02  0.00000000000E+00 0. -1.
<mgrwt>
<rscale>  0 0.14389481E+04</rscale>
<asrwt>0</asrwt>
<pdfrwt beam="1">  1        1 0.33834557E+00 0.14389481E+04</pdfrwt>
<pdfrwt beam="2">  1       -2 0.36211213E-01 0.14389481E+04</pdfrwt>
<totfact> 0.13378909E+01</totfact>
</mgrwt>
</event>
<event>
12    5  0.5428626E-008  0.1085199E+04  0.7818608E-02  0.9219740E-01
          1   -1    0    0  501    0  0.00000000000E+00  0.00000000000E+00  0.18837424557E+04  0.18837424557E+04  0.00000000000E+00 0. -1.
         -2   -1    0    0    0  501 -0.00000000000E+00 -0.00000000000E+00 -0.15629206028E+03  0.15629206028E+03  0.00000000000E+00 0.  1.
        -24    2    1    2    0    0  0.22029508199E+02 -0.10243023428E+03  0.66368554555E+02  0.14773030411E+03  0.80263351485E+02 0.  0.
        254    2    1    2    0    0 -0.22029508199E+02  0.10243023428E+03  0.16610818408E+04  0.18923042118E+04  0.90035831537E+03 0.  0.
         23    2    4    4    0    0  0.35662277222E+03  0.58567887954E+02  0.30828502738E+03  0.48381111610E+03  0.91779838736E+02 0.  0.
         23    2    4    4    0    0 -0.37865228042E+03  0.43862346330E+02  0.13527968135E+04  0.14084930957E+04  0.92152739136E+02 0.  0.
          1    1    3    3  502    0  0.23796711745E+02 -0.86854832316E+02  0.84687280153E+02  0.12362030904E+03  0.00000000000E+00 0. -1.
         -2    1    3    3    0  502 -0.17672035462E+01 -0.15575401968E+02 -0.18318725599E+02  0.24109995072E+02  0.00000000000E+00 0.  1.
         13    1    5    5    0    0  0.71544486860E+02  0.43690768027E+02  0.99699515092E+02  0.13025931875E+03  0.00000000000E+00 0.  1.
        -13    1    5    5    0    0  0.28507828536E+03  0.14877119927E+02  0.20858551228E+03  0.35355179736E+03  0.00000000000E+00 0. -1.
          2    1    6    6  503    0  0.39401615301E+01 -0.19642629138E+01  0.48401867297E+01  0.65429816794E+01  0.00000000000E+00 0.  1.
         -2    1    6    6    0  503 -0.38259244195E+03  0.45826609244E+02  0.13479566267E+04  0.14019501141E+04  0.00000000000E+00 0. -1.
<mgrwt>
<rscale>  0 0.10851986E+04</rscale>
<asrwt>0</asrwt>
<pdfrwt beam="1">  1        1 0.28980652E+00 0.10851986E+04</pdfrwt>
<pdfrwt beam="2">  1       -2 0.24044934E-01 0.10851986E+04</pdfrwt>
<totfact> 0.48269856E+01</totfact>
</mgrwt>
</event>
<event>
12    5  0.5428626E-008  0.1093448E+04  0.7818608E-02  0.9211601E-01
         -2   -1    0    0    0  501 -0.00000000000E+00  0.00000000000E+00  0.20105288396E+03  0.20105288396E+03  0.00000000000E+00 0.  1.
          1   -1    0    0  501    0  0.00000000000E+00 -0.00000000000E+00 -0.14867101475E+04  0.14867101475E+04  0.00000000000E+00 0. -1.
        -24    2    1    2    0    0  0.63123049020E+02  0.11740345763E+03 -0.36629270001E+03  0.39744815557E+03  0.77631199286E+02 0.  0.
        254    2    1    2    0    0 -0.63123049020E+02 -0.11740345763E+03 -0.91936456348E+03  0.12903148759E+04  0.89549605643E+03 0.  0.
         23    2    4    4    0    0 -0.26376094882E+03 -0.38902139081E+03 -0.26245892191E+03  0.54647469169E+03  0.94034155135E+02 0.  0.
         23    2    4    4    0    0  0.20063789980E+03  0.27161793317E+03 -0.65690564157E+03  0.74384018417E+03  0.87984823687E+02 0.  0.
          3    1    3    3  502    0  0.70769164218E+01  0.26996307545E+02 -0.18626265070E+03  0.18834186580E+03  0.00000000000E+00 0. -1.
         -4    1    3    3    0  502  0.56046132598E+02  0.90407150088E+02 -0.18003004931E+03  0.20910628976E+03  0.00000000000E+00 0.  1.
         13    1    5    5    0    0 -0.17763792414E+03 -0.18047493938E+03 -0.12682369779E+03  0.28321491161E+03  0.00000000000E+00 0.  1.
        -13    1    5    5    0    0 -0.86123024684E+02 -0.20854645142E+03 -0.13563522412E+03  0.26325978008E+03  0.00000000000E+00 0. -1.
          4    1    6    6  503    0  0.16205371553E+02  0.89239228457E+00 -0.68481952805E+02  0.70378890949E+02  0.00000000000E+00 0. -1.
         -4    1    6    6    0  503  0.18443252825E+03  0.27072554089E+03 -0.58842368876E+03  0.67346129322E+03  0.00000000000E+00 0.  1.
<mgrwt>
<rscale>  0 0.10934484E+04</rscale>
<asrwt>0</asrwt>
<pdfrwt beam="1">  1        1 0.22872465E+00 0.10934484E+04</pdfrwt>
<pdfrwt beam="2">  1       -2 0.30931211E-01 0.10934484E+04</pdfrwt>
<totfact> 0.56597669E+01</totfact>
</mgrwt>
</event>
<event>
12    5  0.5428626E-008  0.2139959E+04  0.7818608E-02  0.8543842E-01
         -2   -1    0    0    0  501 -0.00000000000E+00  0.00000000000E+00  0.10949127831E+04  0.10949127831E+04  0.00000000000E+00 0.  1.
          1   -1    0    0  501    0  0.00000000000E+00 -0.00000000000E+00 -0.10456143860E+04  0.10456143860E+04  0.00000000000E+00 0. -1.
        -24    2    1    2    0    0  0.76780964935E+03  0.23076485298E+03  0.39907474116E+03  0.89911222553E+03  0.79737507228E+02 0.  0.
        254    2    1    2    0    0 -0.76780964935E+03 -0.23076485298E+03 -0.34977634408E+03  0.12414149436E+04  0.88089925431E+03 0.  0.
         23    2    4    4    0    0 -0.27663496822E+03  0.47901368042E+02  0.26869950624E+03  0.39918843871E+03  0.91271782302E+02 0.  0.
         23    2    4    4    0    0 -0.49117468113E+03 -0.27866622102E+03 -0.61847585032E+03  0.84222650486E+03  0.89026276754E+02 0.  0.
          1    1    3    3  502    0  0.49255828553E+02  0.95484470342E+01  0.54493189138E+01  0.50467856739E+02  0.00000000000E+00 0. -1.
         -2    1    3    3    0  502  0.71855382079E+03  0.22121640594E+03  0.39362542224E+03  0.84864436879E+03  0.00000000000E+00 0.  1.
         13    1    5    5    0    0 -0.14580123352E+03  0.65110205962E+02  0.11597731874E+03  0.19735267183E+03  0.00000000000E+00 0.  1.
        -13    1    5    5    0    0 -0.13083373470E+03 -0.17208837920E+02  0.15272218749E+03  0.20183576688E+03  0.00000000000E+00 0. -1.
          4    1    6    6  503    0 -0.45071268388E+02 -0.12603134646E+02 -0.23332678160E+02  0.52294092468E+02  0.00000000000E+00 0. -1.
         -4    1    6    6    0  503 -0.44610341274E+03 -0.26606308637E+03 -0.59514317216E+03  0.78993241240E+03  0.00000000000E+00 0.  1.
<mgrwt>
<rscale>  0 0.21399594E+04</rscale>
<asrwt>0</asrwt>
<pdfrwt beam="1">  1        1 0.16086375E+00 0.21399594E+04</pdfrwt>
<pdfrwt beam="2">  1       -2 0.16844812E+00 0.21399594E+04</pdfrwt>
<totfact> 0.24503746E+00</totfact>
</mgrwt>
</event>
<event>
12    5  0.5428626E-008  0.1635792E+04  0.7818608E-02  0.8798857E-01
         -2   -1    0    0    0  501 -0.00000000000E+00  0.00000000000E+00  0.23923695649E+04  0.23923695649E+04  0.00000000000E+00 0.  1.
          1   -1    0    0  501    0  0.00000000000E+00 -0.00000000000E+00 -0.27961965063E+03  0.27961965063E+03  0.00000000000E+00 0. -1.
        -24    2    1    2    0    0 -0.21366029029E+03 -0.28556837281E+03  0.20340616965E+02  0.36707147434E+03  0.84425774344E+02 0.  0.
        254    2    1    2    0    0  0.21366029029E+03  0.28556837281E+03  0.20924092973E+04  0.23049177412E+04  0.89848155856E+03 0.  0.
         23    2    4    4    0    0  0.36964732561E+02 -0.11351285936E+03  0.17119969752E+04  0.17186138052E+04  0.91914132430E+02 0.  0.
         23    2    4    4    0    0  0.17669555773E+03  0.39908123217E+03  0.38041232215E+03  0.58630393602E+03  0.92474972595E+02 0.  0.
          3    1    3    3  502    0 -0.13719623172E+03 -0.20027569848E+03 -0.24636299239E+02  0.24400841920E+03  0.00000000000E+00 0. -1.
         -4    1    3    3    0  502 -0.76464058574E+02 -0.85292674330E+02  0.44976916204E+02  0.12306305514E+03  0.00000000000E+00 0.  1.
         13    1    5    5    0    0  0.48377364540E+02 -0.14876316185E+02  0.66221285036E+03  0.66414421127E+03  0.00000000000E+00 0. -1.
        -13    1    5    5    0    0 -0.11412631979E+02 -0.98636543171E+02  0.10497841248E+04  0.10544695939E+04  0.00000000000E+00 0.  1.
          3    1    6    6  503    0  0.18431147624E+03  0.36794351772E+03  0.33458190975E+03  0.53037553378E+03  0.00000000000E+00 0. -1.
         -3    1    6    6    0  503 -0.76159185052E+01  0.31137714450E+02  0.45830412402E+02  0.55928402238E+02  0.00000000000E+00 0.  1.
<mgrwt>
<rscale>  0 0.16357916E+04</rscale>
<asrwt>0</asrwt>
<pdfrwt beam="1">  1        1 0.43018410E-01 0.16357916E+04</pdfrwt>
<pdfrwt beam="2">  1       -2 0.36805684E+00 0.16357916E+04</pdfrwt>
<totfact> 0.96539247E-01</totfact>
</mgrwt>
</event>
<event>
12    5  0.5428626E-008  0.1982777E+04  0.7818608E-02  0.8614715E-01
         -2   -1    0    0    0  501 -0.00000000000E+00  0.00000000000E+00  0.10536347944E+04  0.10536347944E+04  0.00000000000E+00 0.  1.
          1   -1    0    0  501    0  0.00000000000E+00 -0.00000000000E+00 -0.93281993852E+03  0.93281993852E+03  0.00000000000E+00 0. -1.
        -24    2    1    2    0    0 -0.45504212941E+03 -0.42704393819E+03 -0.42137233813E+03  0.75746896869E+03  0.82308726794E+02 0.  0.
        254    2    1    2    0    0  0.45504212941E+03  0.42704393819E+03  0.54218719398E+03  0.12289857642E+04  0.90940045667E+03 0.  0.
         23    2    4    4    0    0  0.23206793030E+03 -0.25998767496E+03  0.27724995383E+03  0.45433900906E+03  0.90040451204E+02 0.  0.
         23    2    4    4    0    0  0.22297419911E+03  0.68703161315E+03  0.26493724015E+03  0.77464675513E+03  0.90310149372E+02 0.  0.
          1    1    3    3  502    0 -0.41091415888E+03 -0.36397433260E+03 -0.39431042091E+03  0.67587607503E+03  0.00000000000E+00 0. -1.
         -2    1    3    3    0  502 -0.44127970525E+02 -0.63069605588E+02 -0.27061917219E+02  0.81592893657E+02  0.00000000000E+00 0.  1.
         13    1    5    5    0    0  0.16603676455E+03 -0.12230983083E+03  0.14225764032E+03  0.25052971507E+03  0.00000000000E+00 0. -1.
        -13    1    5    5    0    0  0.66031165751E+02 -0.13767784413E+03  0.13499231351E+03  0.20380929400E+03  0.00000000000E+00 0.  1.
          3    1    6    6  503    0  0.34599741307E+02  0.23793352482E+03  0.10101608676E+03  0.26079446719E+03  0.00000000000E+00 0. -1.
         -3    1    6    6    0  503  0.18837445780E+03  0.44909808833E+03  0.16392115338E+03  0.51385228794E+03  0.00000000000E+00 0.  1.
<mgrwt>
<rscale>  0 0.19827774E+04</rscale>
<asrwt>0</asrwt>
<pdfrwt beam="1">  1        1 0.14351076E+00 0.19827774E+04</pdfrwt>
<pdfrwt beam="2">  1       -2 0.16209766E+00 0.19827774E+04</pdfrwt>
<totfact> 0.33860798E+00</totfact>
</mgrwt>
</event>
<event>
12    5  0.5428626E-008  0.1720282E+04  0.7818608E-02  0.8749880E-01
          1   -1    0    0  501    0  0.00000000000E+00  0.00000000000E+00  0.91129971045E+03  0.91129971045E+03  0.00000000000E+00 0. -1.
         -2   -1    0    0    0  501 -0.00000000000E+00 -0.00000000000E+00 -0.81185469971E+03  0.81185469971E+03  0.00000000000E+00 0.  1.
        -24    2    1    2    0    0  0.16282187041E+03 -0.64595759946E+03  0.72765743519E+02  0.67537298681E+03  0.84033541484E+02 0.  0.
        254    2    1    2    0    0 -0.16282187041E+03  0.64595759946E+03  0.26679267219E+02  0.10477814233E+04  0.80830807619E+03 0.  0.
         23    2    4    4    0    0 -0.10615616953E+03  0.80621467571E+03 -0.87978582158E+02  0.82353367883E+03  0.96001320772E+02 0.  0.
         23    2    4    4    0    0 -0.56665700885E+02 -0.16025707625E+03  0.11465784938E+03  0.22424774452E+03  0.90814626309E+02 0.  0.
          3    1    3    3  502    0  0.54913581341E+02 -0.11905716768E+03 -0.87099528343E+01  0.13140005278E+03  0.00000000000E+00 0. -1.
         -4    1    3    3    0  502  0.10790828907E+03 -0.52690043178E+03  0.81475696354E+02  0.54397293403E+03  0.00000000000E+00 0.  1.
         13    1    5    5    0    0 -0.67041198346E+02  0.19252037429E+03 -0.24510891843E+02  0.20532754470E+03  0.00000000000E+00 0. -1.
        -13    1    5    5    0    0 -0.39114971182E+02  0.61369430142E+03 -0.63467690315E+02  0.61820613413E+03  0.00000000000E+00 0.  1.
          2    1    6    6  503    0  0.35338047024E+01 -0.84404960945E+02  0.15952914022E+02  0.85971976095E+02  0.00000000000E+00 0. -1.
         -2    1    6    6    0  503 -0.60199505587E+02 -0.75852115308E+02  0.98704935355E+02  0.13827576842E+03  0.00000000000E+00 0.  1.
<mgrwt>
<rscale>  0 0.17202825E+04</rscale>
<asrwt>0</asrwt>
<pdfrwt beam="1">  1        1 0.14019996E+00 0.17202825E+04</pdfrwt>
<pdfrwt beam="2">  1       -2 0.12490072E+00 0.17202825E+04</pdfrwt>
<totfact> 0.71241838E+00</totfact>
</mgrwt>
</event>
<event>
12    5  0.5428626E-008  0.1029084E+04  0.7818608E-02  0.9277209E-01
          1   -1    0    0  501    0  0.00000000000E+00  0.00000000000E+00  0.99926633097E+03  0.99926633097E+03  0.00000000000E+00 0. -1.
         -2   -1    0    0    0  501 -0.00000000000E+00 -0.00000000000E+00 -0.26494765873E+03  0.26494765873E+03  0.00000000000E+00 0.  1.
        -24    2    1    2    0    0 -0.72947110569E+02  0.53395042997E+02  0.37525326583E+02  0.13167772302E+03  0.88082694365E+02 0.  0.
        254    2    1    2    0    0  0.72947110569E+02 -0.53395042997E+02  0.69679334566E+03  0.11325362667E+04  0.88822582558E+03 0.  0.
         23    2    4    4    0    0  0.13794984107E+03 -0.11261573940E+03 -0.16624422598E+03  0.26042206557E+03  0.92032853658E+02 0.  0.
         23    2    4    4    0    0 -0.65002730496E+02  0.59220696403E+02  0.86303757164E+03  0.87211420110E+03  0.89537052929E+02 0.  0.
          3    1    3    3  502    0  0.13228088559E+02  0.13195180697E+02  0.31213201017E+02  0.36378002120E+02  0.00000000000E+00 0. -1.
         -4    1    3    3    0  502 -0.86175199128E+02  0.40199862300E+02  0.63121255666E+01  0.95299720896E+02  0.00000000000E+00 0.  1.
         13    1    5    5    0    0  0.13645656086E+03 -0.91829179340E+02 -0.17281074974E+03  0.23857188939E+03  0.00000000000E+00 0. -1.
        -13    1    5    5    0    0  0.14932802064E+01 -0.20786560060E+02  0.65665237589E+01  0.21850176182E+02  0.00000000000E+00 0.  1.
          1    1    6    6  503    0 -0.11921334070E+02 -0.23983495393E+02  0.19051560494E+03  0.19238898613E+03  0.00000000000E+00 0.  1.
         -1    1    6    6    0  503 -0.53081396426E+02  0.83204191796E+02  0.67252196670E+03  0.67972521497E+03  0.00000000000E+00 0. -1.
<mgrwt>
<rscale>  0 0.10290836E+04</rscale>
<asrwt>0</asrwt>
<pdfrwt beam="1">  1        1 0.15373328E+00 0.10290836E+04</pdfrwt>
<pdfrwt beam="2">  1       -2 0.40761179E-01 0.10290836E+04</pdfrwt>
<totfact> 0.75736686E+01</totfact>
</mgrwt>
</event>
<event>
12    5  0.5428626E-008  0.2126581E+04  0.7818608E-02  0.8549624E-01
          1   -1    0    0  501    0  0.00000000000E+00  0.00000000000E+00  0.72622277559E+03  0.72622277559E+03  0.00000000000E+00 0. -1.
         -2   -1    0    0    0  501 -0.00000000000E+00 -0.00000000000E+00 -0.15568043160E+04  0.15568043160E+04  0.00000000000E+00 0.  1.
        -24    2    1    2    0    0 -0.72100437522E+03 -0.26865746922E+03  0.94248069186E+02  0.77932867539E+03  0.80289108138E+02 0.  0.
        254    2    1    2    0    0  0.72100437522E+03  0.26865746922E+03 -0.92482960959E+03  0.15036984162E+04  0.90209477066E+03 0.  0.
         23    2    4    4    0    0  0.76601918449E+03  0.20388235451E+03 -0.10576573270E+04  0.13248398838E+04  0.90599618071E+02 0.  0.
         23    2    4    4    0    0 -0.45014809276E+02  0.64775114701E+02  0.13282771746E+03  0.17885853238E+03  0.90138912470E+02 0.  0.
          1    1    3    3  502    0 -0.67573144205E+03 -0.27087863495E+03  0.83776388801E+02  0.73280740988E+03  0.00000000000E+00 0. -1.
         -2    1    3    3    0  502 -0.45272933164E+02  0.22211657310E+01  0.10471680385E+02  0.46521265509E+02  0.00000000000E+00 0.  1.
         13    1    5    5    0    0  0.71378102144E+03  0.19484689845E+03 -0.10187216112E+04  0.12590640895E+04  0.00000000000E+00 0. -1.
        -13    1    5    5    0    0  0.52238163055E+02  0.90354560624E+01 -0.38935715832E+02  0.65775794279E+02  0.00000000000E+00 0.  1.
          3    1    6    6  503    0 -0.52577296720E+02  0.82223596177E+02  0.12424821490E+03  0.15799592022E+03  0.00000000000E+00 0. -1.
         -3    1    6    6    0  503  0.75624874441E+01 -0.17448481476E+02  0.85795025550E+01  0.20862612163E+02  0.00000000000E+00 0.  1.
<mgrwt>
<rscale>  0 0.21265811E+04</rscale>
<asrwt>0</asrwt>
<pdfrwt beam="1">  1        1 0.11172658E+00 0.21265811E+04</pdfrwt>
<pdfrwt beam="2">  1       -2 0.23950835E+00 0.21265811E+04</pdfrwt>
<totfact> 0.15438104E+00</totfact>
</mgrwt>
</event>
<event>
12    5  0.5428626E-008  0.1855665E+04  0.7818608E-02  0.8677245E-01
          1   -1    0    0  501    0  0.00000000000E+00  0.00000000000E+00  0.27692057226E+04  0.27692057226E+04  0.00000000000E+00 0. -1.
         -2   -1    0    0    0  501 -0.00000000000E+00 -0.00000000000E+00 -0.31087353755E+03  0.31087353755E+03  0.00000000000E+00 0.  1.
        -24    2    1    2    0    0 -0.31200256092E+03 -0.59077737643E+03  0.55597696453E+03  0.87289241345E+03  0.80419362397E+02 0.  0.
        254    2    1    2    0    0  0.31200256092E+03  0.59077737643E+03  0.19023552205E+04  0.22071868467E+04  0.89797265253E+03 0.  0.
         23    2    4    4    0    0  0.30554812004E+03  0.80997102352E+03  0.16100005556E+04  0.18302639677E+04  0.91387579276E+02 0.  0.
         23    2    4    4    0    0  0.64544408856E+01 -0.21919364709E+03  0.29235466485E+03  0.37692287899E+03  0.92260998872E+02 0.  0.
          1    1    3    3  502    0 -0.27110199367E+03 -0.52614480925E+03  0.45685234019E+03  0.74768891393E+03  0.00000000000E+00 0. -1.
         -2    1    3    3    0  502 -0.40900567255E+02 -0.64632567173E+02  0.99124624347E+02  0.12520349952E+03  0.00000000000E+00 0.  1.
         13    1    5    5    0    0  0.30320718535E+02  0.11946449027E+03  0.17335570756E+03  0.21270475254E+03  0.00000000000E+00 0.  1.
        -13    1    5    5    0    0  0.27522740150E+03  0.69050653325E+03  0.14366448481E+04  0.16175592151E+04  0.00000000000E+00 0. -1.
          3    1    6    6  503    0  0.12301311318E+02 -0.20361718518E+03  0.20947042444E+03  0.29238525797E+03  0.00000000000E+00 0. -1.
         -3    1    6    6    0  503 -0.58468704329E+01 -0.15576461912E+02  0.82884240415E+02  0.84537621026E+02  0.00000000000E+00 0.  1.
<mgrwt>
<rscale>  0 0.18556646E+04</rscale>
<asrwt>0</asrwt>
<pdfrwt beam="1">  1        1 0.42603163E+00 0.18556646E+04</pdfrwt>
<pdfrwt beam="2">  1       -2 0.47826700E-01 0.18556646E+04</pdfrwt>
<totfact> 0.30005709E+00</totfact>
</mgrwt>
</event>
<event>
12    5  0.5428626E-008  0.1341726E+04  0.7818608E-02  0.8997115E-01
         -2   -1    0    0    0  501 -0.00000000000E+00  0.00000000000E+00  0.27296404560E+03  0.27296404560E+03  0.00000000000E+00 0.  1.
          1   -1    0    0  501    0  0.00000000000E+00 -0.00000000000E+00 -0.16487776144E+04  0.16487776144E+04  0.00000000000E+00 0. -1.
        -24    2    1    2    0    0 -0.22917622275E+03 -0.80851543827E+02 -0.78041593888E+03  0.82165864521E+03  0.83756661696E+02 0.  0.
        254    2    1    2    0    0  0.22917622275E+03  0.80851543827E+02 -0.59539762995E+03  0.11000830148E+04  0.89253884428E+03 0.  0.
         23    2    4    4    0    0 -0.42616495837E+02  0.54127240524E+02  0.21288672756E+03  0.24213573929E+03  0.92536660771E+02 0.  0.
         23    2    4    4    0    0  0.27179271858E+03  0.26724303303E+02 -0.80828435751E+03  0.85794727554E+03  0.90357372425E+02 0.  0.
          1    1    3    3  502    0 -0.22901320269E+03 -0.82099417874E+02 -0.78237634684E+03  0.81932906059E+03  0.00000000000E+00 0. -1.
         -2    1    3    3    0  502 -0.16302005951E+00  0.12478740466E+01  0.19604079588E+01  0.23295846285E+01  0.00000000000E+00 0.  1.
         13    1    5    5    0    0 -0.12611775897E+02 -0.18103878248E+01  0.15713790913E+03  0.15765359775E+03  0.00000000000E+00 0. -1.
        -13    1    5    5    0    0 -0.30004719940E+02  0.55937628349E+02  0.55748818422E+02  0.84482141541E+02  0.00000000000E+00 0.  1.
          1    1    6    6  503    0  0.17881063511E+03  0.32195575564E+02 -0.40243670849E+03  0.44154852808E+03  0.00000000000E+00 0. -1.
         -1    1    6    6    0  503  0.92982083471E+02 -0.54712722604E+01 -0.40584764902E+03  0.41639874746E+03  0.00000000000E+00 0.  1.
<mgrwt>
<rscale>  0 0.13417258E+04</rscale>
<asrwt>0</asrwt>
<pdfrwt beam="1">  1        1 0.25365810E+00 0.13417258E+04</pdfrwt>
<pdfrwt beam="2">  1       -2 0.41994468E-01 0.13417258E+04</pdfrwt>
<totfact> 0.23867259E+01</totfact>
</mgrwt>
</event>
<event>
12    5  0.5428626E-008  0.1123698E+04  0.7818608E-02  0.9182397E-01
         -2   -1    0    0    0  501 -0.00000000000E+00  0.00000000000E+00  0.18282075367E+03  0.18282075367E+03  0.00000000000E+00 0.  1.
          1   -1    0    0  501    0  0.00000000000E+00 -0.00000000000E+00 -0.17266886128E+04  0.17266886128E+04  0.00000000000E+00 0. -1.
        -24    2    1    2    0    0 -0.80638882918E+02 -0.65323575851E+02 -0.13354398574E+02  0.13196340244E+03  0.80412689443E+02 0.  0.
        254    2    1    2    0    0  0.80638882918E+02  0.65323575851E+02 -0.15305134605E+04  0.17775459640E+04  0.89801358691E+03 0.  0.
         23    2    4    4    0    0  0.74316822027E+02 -0.26623221776E+03 -0.10362525122E+03  0.30980942400E+03  0.94027138108E+02 0.  0.
         23    2    4    4    0    0  0.63220608907E+01  0.33155579361E+03 -0.14268882093E+04  0.14677365400E+04  0.90947106971E+02 0.  0.
          3    1    3    3  502    0 -0.41038951474E+02  0.10554098341E+02 -0.18462061368E+02  0.46221556008E+02  0.00000000000E+00 0. -1.
         -4    1    3    3    0  502 -0.39599931444E+02 -0.75877674192E+02  0.51076627937E+01  0.85741846437E+02  0.00000000000E+00 0.  1.
         13    1    5    5    0    0  0.39187266314E+02 -0.30517139160E+02 -0.38241475106E+02  0.62684511978E+02  0.00000000000E+00 0. -1.
        -13    1    5    5    0    0  0.35129555713E+02 -0.23571507860E+03 -0.65383776115E+02  0.24712491202E+03  0.00000000000E+00 0.  1.
          1    1    6    6  503    0 -0.51556453765E+01 -0.27989238351E+01 -0.78797062267E+01  0.98236665305E+01  0.00000000000E+00 0. -1.
         -1    1    6    6    0  503  0.11477706267E+02  0.33435471744E+03 -0.14190085031E+04  0.14579128735E+04  0.00000000000E+00 0.  1.
<mgrwt>
<rscale>  0 0.11236984E+04</rscale>
<asrwt>0</asrwt>
<pdfrwt beam="1">  1        1 0.26564440E+00 0.11236984E+04</pdfrwt>
<pdfrwt beam="2">  1       -2 0.28126270E-01 0.11236984E+04</pdfrwt>
<totfact> 0.46172764E+01</totfact>
</mgrwt>
</event>
<event>
12    5  0.5428626E-008  0.3222075E+04  0.7818608E-02  0.8183012E-01
         -2   -1    0    0    0  501 -0.00000000000E+00  0.00000000000E+00  0.10228479687E+04  0.10228479687E+04  0.00000000000E+00 0.  1.
          1   -1    0    0  501    0  0.00000000000E+00 -0.00000000000E+00 -0.25374652945E+04  0.25374652945E+04  0.00000000000E+00 0. -1.
        -24    2    1    2    0    0  0.56469723557E+03  0.11038281750E+04  0.21251194454E+03  0.12608810580E+04  0.85674429848E+02 0.  0.
        254    2    1    2    0    0 -0.56469723557E+03 -0.11038281750E+04 -0.17271292704E+04  0.22994322052E+04  0.87583865050E+03 0.  0.
         23    2    4    4    0    0  0.10598488008E+03 -0.24616406337E+02 -0.53936241441E+03  0.55773107930E+03  0.91177741119E+02 0.  0.
         23    2    4    4    0    0 -0.67068211565E+03 -0.10792117687E+04 -0.11877668559E+04  0.17417011258E+04  0.90665129728E+02 0.  0.
          1    1    3    3  502    0  0.26319220120E+03  0.43298707565E+03  0.66532399408E+02  0.51105234822E+03  0.00000000000E+00 0. -1.
         -2    1    3    3    0  502  0.30150503437E+03  0.67084109939E+03  0.14597954513E+03  0.74982870975E+03  0.00000000000E+00 0.  1.
         13    1    5    5    0    0  0.46578420830E+01 -0.11837968956E+02 -0.49550191174E+01  0.13652297108E+02  0.00000000000E+00 0.  1.
        -13    1    5    5    0    0  0.10132703800E+03 -0.12778437381E+02 -0.53440739529E+03  0.54407878219E+03  0.00000000000E+00 0. -1.
          2    1    6    6  503    0 -0.54862843997E+03 -0.81391559437E+03 -0.89982658549E+03  0.13315928972E+04  0.00000000000E+00 0. -1.
         -2    1    6    6    0  503 -0.12205367568E+03 -0.26529617433E+03 -0.28794027046E+03  0.41010822866E+03  0.00000000000E+00 0.  1.
<mgrwt>
<rscale>  0 0.32220746E+04</rscale>
<asrwt>0</asrwt>
<pdfrwt beam="1">  1        1 0.39037927E+00 0.32220746E+04</pdfrwt>
<pdfrwt beam="2">  1       -2 0.15736123E+00 0.32220746E+04</pdfrwt>
<totfact> 0.24700017E-01</totfact>
</mgrwt>
</event>
<event>
12    5  0.5428626E-008  0.1612142E+04  0.7818608E-02  0.8813123E-01
          1   -1    0    0  501    0  0.00000000000E+00  0.00000000000E+00  0.33946544770E+04  0.33946544770E+04  0.00000000000E+00 0. -1.
         -2   -1    0    0    0  501 -0.00000000000E+00 -0.00000000000E+00 -0.19140393882E+03  0.19140393882E+03  0.00000000000E+00 0.  1.
        -24    2    1    2    0    0  0.30236375363E+03  0.14792555798E+03  0.13428621937E+03  0.37012828543E+03  0.75208701264E+02 0.  0.
        254    2    1    2    0    0 -0.30236375363E+03 -0.14792555798E+03  0.30689643188E+04  0.32159301304E+04  0.90019931309E+03 0.  0.
         23    2    4    4    0    0  0.24566295340E+03  0.15244035687E+03  0.13783101466E+04  0.14109958990E+04  0.87075930780E+02 0.  0.
         23    2    4    4    0    0 -0.54802670704E+03 -0.30036591485E+03  0.16906541722E+04  0.18049342314E+04  0.94462136384E+02 0.  0.
          1    1    3    3  502    0  0.11517050781E+02  0.24588879012E+02  0.21666753332E+02  0.34737639956E+02  0.00000000000E+00 0. -1.
         -2    1    3    3    0  502  0.29084670285E+03  0.12333667897E+03  0.11261946604E+03  0.33539064547E+03  0.00000000000E+00 0.  1.
         13    1    5    5    0    0  0.71399948786E+02  0.59936545950E+02  0.28012666603E+03  0.29523091174E+03  0.00000000000E+00 0.  1.
        -13    1    5    5    0    0  0.17426300462E+03  0.92503810924E+02  0.10981834806E+04  0.11157649873E+04  0.00000000000E+00 0. -1.
          1    1    6    6  503    0 -0.39570345247E+03 -0.16670405135E+03  0.11516081491E+04  0.12290536164E+04  0.00000000000E+00 0. -1.
         -1    1    6    6    0  503 -0.15232325456E+03 -0.13366186350E+03  0.53904602310E+03  0.57588061493E+03  0.00000000000E+00 0.  1.
<mgrwt>
<rscale>  0 0.16121417E+04</rscale>
<asrwt>0</asrwt>
<pdfrwt beam="1">  1        1 0.52225449E+00 0.16121417E+04</pdfrwt>
<pdfrwt beam="2">  1       -2 0.29446762E-01 0.16121417E+04</pdfrwt>
<totfact> 0.27224286E+00</totfact>
</mgrwt>
</event>
<event>
12    5  0.5428626E-008  0.1554440E+04  0.7818608E-02  0.8849037E-01
         -2   -1    0    0    0  501 -0.00000000000E+00  0.00000000000E+00  0.11008247971E+04  0.11008247971E+04  0.00000000000E+00 0.  1.
          1   -1    0    0  501    0  0.00000000000E+00 -0.00000000000E+00 -0.54874390733E+03  0.54874390733E+03  0.00000000000E+00 0. -1.
        -24    2    1    2    0    0 -0.25957093966E+03  0.41139288951E+02  0.69689732685E+03  0.74904937198E+03  0.79621377002E+02 0.  0.
        254    2    1    2    0    0  0.25957093966E+03 -0.41139288951E+02 -0.14481643711E+03  0.90051933242E+03  0.84905462356E+03 0.  0.
         23    2    4    4    0    0  0.62304249892E+02  0.33169644311E+02 -0.48070615400E+03  0.49433469791E+03  0.91139136503E+02 0.  0.
         23    2    4    4    0    0  0.19726668977E+03 -0.74308933262E+02  0.33588971689E+03  0.40618463451E+03  0.87909561198E+02 0.  0.
          3    1    3    3  502    0 -0.42666015818E+02 -0.22501880827E+02  0.10926030919E+03  0.11943424429E+03  0.00000000000E+00 0. -1.
         -4    1    3    3    0  502 -0.21690492384E+03  0.63641169778E+02  0.58763701766E+03  0.62961512768E+03  0.00000000000E+00 0.  1.
         13    1    5    5    0    0 -0.70149156564E+01  0.37947617453E+02 -0.26280787800E+03  0.26562607450E+03  0.00000000000E+00 0.  1.
        -13    1    5    5    0    0  0.69319165548E+02 -0.47779731416E+01 -0.21789827600E+03  0.22870862341E+03  0.00000000000E+00 0. -1.
          2    1    6    6  503    0 -0.59666111301E+01 -0.35766211204E+01 -0.36696898293E+00  0.69661562753E+01  0.00000000000E+00 0. -1.
         -2    1    6    6    0  503  0.20323330090E+03 -0.70732312141E+02  0.33625668587E+03  0.39921847824E+03  0.00000000000E+00 0.  1.
<mgrwt>
<rscale>  0 0.15544400E+04</rscale>
<asrwt>0</asrwt>
<pdfrwt beam="1">  1        1 0.84422139E-01 0.15544400E+04</pdfrwt>
<pdfrwt beam="2">  1       -2 0.16935766E+00 0.15544400E+04</pdfrwt>
<totfact> 0.70567104E+00</totfact>
</mgrwt>
</event>
<event>
12    5  0.5428626E-008  0.1623523E+04  0.7818608E-02  0.8806226E-01
         -2   -1    0    0    0  501 -0.00000000000E+00  0.00000000000E+00  0.62826450311E+03  0.62826450311E+03  0.00000000000E+00 0.  1.
          1   -1    0    0  501    0  0.00000000000E+00 -0.00000000000E+00 -0.10488525203E+04  0.10488525203E+04  0.00000000000E+00 0. -1.
        -24    2    1    2    0    0  0.97140444078E+02 -0.30923094556E+03  0.31047669357E+03  0.45608825829E+03  0.80998015600E+02 0.  0.
        254    2    1    2    0    0 -0.97140444078E+02  0.30923094556E+03 -0.73106471079E+03  0.12210287652E+04  0.92271100048E+03 0.  0.
         23    2    4    4    0    0 -0.30696046682E+03 -0.21297722283E+03 -0.16951381202E+03  0.42028537295E+03  0.91218619886E+02 0.  0.
         23    2    4    4    0    0  0.20982002274E+03  0.52220816839E+03 -0.56155089877E+03  0.80074339221E+03  0.95523584377E+02 0.  0.
          1    1    3    3  502    0 -0.16470153013E+01 -0.12064100704E+03  0.12499137643E+03  0.17372337039E+03  0.00000000000E+00 0. -1.
         -2    1    3    3    0  502  0.98787459380E+02 -0.18858993852E+03  0.18548531714E+03  0.28236488790E+03  0.00000000000E+00 0.  1.
         13    1    5    5    0    0 -0.10212130298E+03 -0.22122613119E+02 -0.41394813740E+02  0.11239084099E+03  0.00000000000E+00 0.  1.
        -13    1    5    5    0    0 -0.20483916384E+03 -0.19085460971E+03 -0.12811899828E+03  0.30789453196E+03  0.00000000000E+00 0. -1.
          3    1    6    6  503    0  0.16730303341E+03  0.46539560368E+03 -0.52373968630E+03  0.72033785956E+03  0.00000000000E+00 0. -1.
         -3    1    6    6    0  503  0.42516989337E+02  0.56812564710E+02 -0.37811212471E+02  0.80405532644E+02  0.00000000000E+00 0.  1.
<mgrwt>
<rscale>  0 0.16235231E+04</rscale>
<asrwt>0</asrwt>
<pdfrwt beam="1">  1        1 0.16136193E+00 0.16235231E+04</pdfrwt>
<pdfrwt beam="2">  1       -2 0.96656077E-01 0.16235231E+04</pdfrwt>
<totfact> 0.10421591E+01</totfact>
</mgrwt>
</event>
<event>
12    5  0.5428626E-008  0.2073066E+04  0.7818608E-02  0.8573202E-01
         -2   -1    0    0    0  501 -0.00000000000E+00  0.00000000000E+00  0.11310842152E+04  0.11310842152E+04  0.00000000000E+00 0.  1.
          1   -1    0    0  501    0  0.00000000000E+00 -0.00000000000E+00 -0.94988562630E+03  0.94988562630E+03  0.00000000000E+00 0. -1.
        -24    2    1    2    0    0  0.14409858420E+03 -0.82459713325E+03  0.10956064171E+03  0.84815278205E+03  0.81454118099E+02 0.  0.
        254    2    1    2    0    0 -0.14409858420E+03  0.82459713325E+03  0.71637947223E+02  0.12328170595E+04  0.90220899602E+03 0.  0.
         23    2    4    4    0    0 -0.12754211394E+03  0.42809647711E+02 -0.31575344009E+03  0.35551840119E+03  0.92700819278E+02 0.  0.
         23    2    4    4    0    0 -0.16556470260E+02  0.78178748554E+03  0.38739138731E+03  0.87729865827E+03  0.90083625530E+02 0.  0.
          3    1    3    3  502    0  0.39199721878E+02 -0.89400612708E+02  0.10342815238E+01  0.97622525506E+02  0.00000000000E+00 0. -1.
         -4    1    3    3    0  502  0.10489886233E+03 -0.73519652055E+03  0.10852636018E+03  0.75053025655E+03  0.00000000000E+00 0.  1.
         13    1    5    5    0    0 -0.49343629421E+01 -0.93615203205E+01 -0.10922872224E+03  0.10974014654E+03  0.00000000000E+00 0. -1.
        -13    1    5    5    0    0 -0.12260775100E+03  0.52171168032E+02 -0.20652471785E+03  0.24577825466E+03  0.00000000000E+00 0.  1.
          3    1    6    6  503    0  0.60565939878E+01  0.64146829251E+03  0.34800765691E+03  0.72981338841E+03  0.00000000000E+00 0.  1.
         -3    1    6    6    0  503 -0.22613064248E+02  0.14031919303E+03  0.39383730397E+02  0.14748526987E+03  0.00000000000E+00 0. -1.
<mgrwt>
<rscale>  0 0.20730660E+04</rscale>
<asrwt>0</asrwt>
<pdfrwt beam="1">  1        1 0.14613625E+00 0.20730660E+04</pdfrwt>
<pdfrwt beam="2">  1       -2 0.17401296E+00 0.20730660E+04</pdfrwt>
<totfact> 0.26739179E+00</totfact>
</mgrwt>
</event>
<event>
12    5  0.5428626E-008  0.1477938E+04  0.7818608E-02  0.8899258E-01
         -4   -1    0    0    0  501 -0.00000000000E+00  0.00000000000E+00  0.78343606907E+03  0.78343606907E+03  0.00000000000E+00 0.  1.
          3   -1    0    0  501    0  0.00000000000E+00 -0.00000000000E+00 -0.69702567588E+03  0.69702567588E+03  0.00000000000E+00 0. -1.
        -24    2    1    2    0    0  0.28122681873E+03  0.28924130448E+03  0.26992975906E+03  0.49185035234E+03  0.79408050435E+02 0.  0.
        254    2    1    2    0    0 -0.28122681873E+03 -0.28924130448E+03 -0.18351936587E+03  0.98861139261E+03  0.88369908462E+03 0.  0.
         23    2    4    4    0    0  0.25366761838E+02  0.40497572758E+02  0.30311083777E+03  0.31928475738E+03  0.88221597796E+02 0.  0.
         23    2    4    4    0    0 -0.30659358056E+03 -0.32973887724E+03 -0.48663020363E+03  0.66932663523E+03  0.91988253267E+02 0.  0.
          3    1    3    3  502    0  0.13311057580E+03  0.18810834698E+03  0.13176397201E+03  0.26545229310E+03  0.00000000000E+00 0. -1.
         -4    1    3    3    0  502  0.14811624292E+03  0.10113295750E+03  0.13816578706E+03  0.22639805923E+03  0.00000000000E+00 0.  1.
         13    1    5    5    0    0 -0.27688826836E+01  0.65544225425E+01 -0.45731193107E+01  0.84581668469E+01  0.00000000000E+00 0. -1.
        -13    1    5    5    0    0  0.28135644522E+02  0.33943150216E+02  0.30768395708E+03  0.31082659053E+03  0.00000000000E+00 0.  1.
          1    1    6    6  503    0 -0.26452620659E+02 -0.40421767076E+02 -0.99994432794E+02  0.11105200126E+03  0.00000000000E+00 0. -1.
         -1    1    6    6    0  503 -0.28014095991E+03 -0.28931711017E+03 -0.38663577084E+03  0.55827463398E+03  0.00000000000E+00 0.  1.
<mgrwt>
<rscale>  0 0.14779378E+04</rscale>
<asrwt>0</asrwt>
<pdfrwt beam="1">  1        3 0.10723472E+00 0.14779378E+04</pdfrwt>
<pdfrwt beam="2">  1       -4 0.12052863E+00 0.14779378E+04</pdfrwt>
<totfact> 0.86074382E-01</totfact>
</mgrwt>
</event>
<event>
12    5  0.5428626E-008  0.2547917E+04  0.7818608E-02  0.8386111E-01
          1   -1    0    0  501    0  0.00000000000E+00  0.00000000000E+00  0.20602638946E+04  0.20602638946E+04  0.00000000000E+00 0. -1.
         -2   -1    0    0    0  501 -0.00000000000E+00 -0.00000000000E+00 -0.78774856622E+03  0.78774856622E+03  0.00000000000E+00 0.  1.
        -24    2    1    2    0    0 -0.39122651121E+03  0.95318570899E+03  0.84001870736E+02  0.10374836742E+04  0.87720471325E+02 0.  0.
        254    2    1    2    0    0  0.39122651121E+03 -0.95318570899E+03  0.11885134577E+04  0.18105287866E+04  0.89656515060E+03 0.  0.
         23    2    4    4    0    0  0.37172676146E+03  0.86102671636E+01  0.47159755321E+03  0.60741011477E+03  0.91037758387E+02 0.  0.
         23    2    4    4    0    0  0.19499749751E+02 -0.96179597615E+03  0.71691590447E+03  0.12031186719E+04  0.89968797529E+02 0.  0.
          1    1    3    3  502    0 -0.13126675844E+03  0.28252459027E+03 -0.12366140491E+02  0.31177560425E+03  0.00000000000E+00 0. -1.
         -2    1    3    3    0  502 -0.25995975277E+03  0.67066111872E+03  0.96368011227E+02  0.72570806996E+03  0.00000000000E+00 0.  1.
         13    1    5    5    0    0  0.30139485010E+03  0.33322634116E+02  0.33545490450E+03  0.45219381527E+03  0.00000000000E+00 0.  1.
        -13    1    5    5    0    0  0.70331911358E+02 -0.24712366952E+02  0.13614264871E+03  0.15521629951E+03  0.00000000000E+00 0. -1.
          1    1    6    6  503    0 -0.21581644885E+02 -0.78319400230E+02  0.49645755330E+02  0.95207126154E+02  0.00000000000E+00 0. -1.
         -1    1    6    6    0  503  0.41081394635E+02 -0.88347657592E+03  0.66727014914E+03  0.11079115457E+04  0.00000000000E+00 0.  1.
<mgrwt>
<rscale>  0 0.25479167E+04</rscale>
<asrwt>0</asrwt>
<pdfrwt beam="1">  1        1 0.31696367E+00 0.25479167E+04</pdfrwt>
<pdfrwt beam="2">  1       -2 0.12119209E+00 0.25479167E+04</pdfrwt>
<totfact> 0.10924308E+00</totfact>
</mgrwt>
</event>
<event>
12    5  0.5428626E-008  0.1410963E+04  0.7818608E-02  0.8945921E-01
          1   -1    0    0  501    0  0.00000000000E+00  0.00000000000E+00  0.18770979925E+04  0.18770979925E+04  0.00000000000E+00 0. -1.
         -2   -1    0    0    0  501 -0.00000000000E+00 -0.00000000000E+00 -0.26514548931E+03  0.26514548931E+03  0.00000000000E+00 0.  1.
        -24    2    1    2    0    0 -0.52634477031E+02 -0.11121357387E+02  0.11015380342E+04  0.11057213337E+04  0.79621318273E+02 0.  0.
        254    2    1    2    0    0  0.52634477031E+02  0.11121357387E+02  0.51041446902E+03  0.10365221481E+04  0.90053381979E+03 0.  0.
         23    2    4    4    0    0  0.39256383168E+03  0.15710855181E+03  0.49221783113E+03  0.65556012260E+03  0.93226723983E+02 0.  0.
         23    2    4    4    0    0 -0.33992935465E+03 -0.14598719442E+03  0.18196637893E+02  0.38096202552E+03  0.89088271771E+02 0.  0.
          1    1    3    3  502    0 -0.92796505370E+01  0.26028946789E+02  0.65011897526E+03  0.65070600119E+03  0.00000000000E+00 0. -1.
         -2    1    3    3    0  502 -0.43354826494E+02 -0.37150304176E+02  0.45141905895E+03  0.45501533256E+03  0.00000000000E+00 0.  1.
         13    1    5    5    0    0  0.38005854167E+03  0.15608221886E+03  0.49438821033E+03  0.64282645921E+03  0.00000000000E+00 0. -1.
        -13    1    5    5    0    0  0.12505290009E+02  0.10263329543E+01 -0.21703792011E+01  0.12733663394E+02  0.00000000000E+00 0.  1.
          3    1    6    6  503    0 -0.24939809628E+03 -0.14776579850E+03  0.10294842214E+02  0.29006917349E+03  0.00000000000E+00 0. -1.
         -3    1    6    6    0  503 -0.90531258365E+02  0.17786040745E+01  0.79017956796E+01  0.90892852022E+02  0.00000000000E+00 0.  1.
<mgrwt>
<rscale>  0 0.14109629E+04</rscale>
<asrwt>0</asrwt>
<pdfrwt beam="1">  1        1 0.28878430E+00 0.14109629E+04</pdfrwt>
<pdfrwt beam="2">  1       -2 0.40791615E-01 0.14109629E+04</pdfrwt>
<totfact> 0.17583467E+01</totfact>
</mgrwt>
</event>
<event>
12    5  0.5428626E-008  0.1737765E+04  0.7818608E-02  0.8740114E-01
          1   -1    0    0  501    0  0.00000000000E+00  0.00000000000E+00  0.29083098848E+04  0.29083098848E+04  0.00000000000E+00 0. -1.
         -4   -1    0    0    0  501 -0.00000000000E+00 -0.00000000000E+00 -0.25958603985E+03  0.25958603985E+03  0.00000000000E+00 0.  1.
        -24    2    1    2    0    0 -0.19441252605E+02  0.56976741279E+02 -0.17420308744E+03  0.20136095892E+03  0.81087660928E+02 0.  0.
        254    2    1    2    0    0  0.19441252605E+02 -0.56976741279E+02  0.28229269324E+04  0.29665349657E+04  0.90982906416E+03 0.  0.
         23    2    4    4    0    0  0.41313206591E+03 -0.43330963007E+02  0.20594453531E+04  0.21026536101E+04  0.85330915590E+02 0.  0.
         23    2    4    4    0    0 -0.39369081330E+03 -0.13645778271E+02  0.76348157926E+03  0.86388135568E+03  0.90599178076E+02 0.  0.
          3    1    3    3  502    0 -0.49752827671E+02  0.38547196185E+02 -0.88423678887E+02  0.10853560330E+03  0.00000000000E+00 0. -1.
         -4    1    3    3    0  502  0.30311575067E+02  0.18429545093E+02 -0.85779408548E+02  0.92825355621E+02  0.00000000000E+00 0.  1.
         13    1    5    5    0    0  0.35004650173E+02 -0.27815675449E+02  0.17849858251E+03  0.18401299219E+03  0.00000000000E+00 0.  1.
        -13    1    5    5    0    0  0.37812741574E+03 -0.15515287558E+02  0.18809467706E+04  0.19186406179E+04  0.00000000000E+00 0. -1.
          3    1    6    6  503    0 -0.20374537095E+03 -0.45025490257E+02  0.44961919902E+03  0.49567821728E+03  0.00000000000E+00 0. -1.
         -3    1    6    6    0  503 -0.18994544235E+03  0.31379711985E+02  0.31386238024E+03  0.36820313839E+03  0.00000000000E+00 0.  1.
<mgrwt>
<rscale>  0 0.17377648E+04</rscale>
<asrwt>0</asrwt>
<pdfrwt beam="1">  1        1 0.44743227E+00 0.17377648E+04</pdfrwt>
<pdfrwt beam="2">  1       -4 0.39936316E-01 0.17377648E+04</pdfrwt>
<totfact> 0.20214273E+00</totfact>
</mgrwt>
</event>
<event>
12    5  0.5428626E-008  0.2064760E+04  0.7818608E-02  0.8576928E-01
         -2   -1    0    0    0  501 -0.00000000000E+00  0.00000000000E+00  0.59626364369E+03  0.59626364369E+03  0.00000000000E+00 0.  1.
          1   -1    0    0  501    0  0.00000000000E+00 -0.00000000000E+00 -0.17874779129E+04  0.17874779129E+04  0.00000000000E+00 0. -1.
        -24    2    1    2    0    0  0.43836634797E+02 -0.45856407152E+03 -0.12816880396E+04  0.13639995430E+04  0.74618122886E+02 0.  0.
        254    2    1    2    0    0 -0.43836634797E+02  0.45856407152E+03  0.90473770427E+02  0.10197420135E+04  0.90525444644E+03 0.  0.
         23    2    4    4    0    0 -0.37045855544E+03 -0.36206844800E+01 -0.13454143799E+03  0.40372229730E+03  0.87393616174E+02 0.  0.
         23    2    4    4    0    0  0.32662192064E+03  0.46218475600E+03  0.22501520842E+03  0.61601971623E+03  0.92476045784E+02 0.  0.
          3    1    3    3  502    0  0.55873055710E+02 -0.30325024764E+03 -0.78228106018E+03  0.84086037376E+03  0.00000000000E+00 0. -1.
         -4    1    3    3    0  502 -0.12036420913E+02 -0.15531382388E+03 -0.49940697942E+03  0.52313916926E+03  0.00000000000E+00 0.  1.
         13    1    5    5    0    0 -0.27779853876E+03 -0.10294004622E+02 -0.13882098363E+03  0.31072376826E+03  0.00000000000E+00 0. -1.
        -13    1    5    5    0    0 -0.92660016684E+02  0.66733201420E+01  0.42795456334E+01  0.92998529045E+02  0.00000000000E+00 0.  1.
          4    1    6    6  503    0  0.30851853886E+03  0.41518243917E+03  0.17775884430E+03  0.54695370310E+03  0.00000000000E+00 0. -1.
         -4    1    6    6    0  503  0.18103381785E+02  0.47002316835E+02  0.47256364120E+02  0.69066013131E+02  0.00000000000E+00 0.  1.
<mgrwt>
<rscale>  0 0.20647596E+04</rscale>
<asrwt>0</asrwt>
<pdfrwt beam="1">  1        1 0.27499660E+00 0.20647596E+04</pdfrwt>
<pdfrwt beam="2">  1       -2 0.91732869E-01 0.20647596E+04</pdfrwt>
<totfact> 0.34029827E+00</totfact>
</mgrwt>
</event>
<event>
12    5  0.5428626E-008  0.1580020E+04  0.7818608E-02  0.8832917E-01
         -2   -1    0    0    0  501 -0.00000000000E+00  0.00000000000E+00  0.56059154619E+03  0.56059154619E+03  0.00000000000E+00 0.  1.
          1   -1    0    0  501    0  0.00000000000E+00 -0.00000000000E+00 -0.11133170126E+04  0.11133170126E+04  0.00000000000E+00 0. -1.
        -24    2    1    2    0    0 -0.39841620769E+03 -0.16822159555E+03 -0.52229238085E+03  0.68278897521E+03  0.79859087249E+02 0.  0.
        254    2    1    2    0    0  0.39841620769E+03  0.16822159555E+03 -0.30433085546E+02  0.99111958357E+03  0.89126756727E+03 0.  0.
         23    2    4    4    0    0 -0.68142274737E+02  0.69045415569E+01  0.34679083272E+03  0.36313975389E+03  0.83159827434E+02 0.  0.
         23    2    4    4    0    0  0.46655848243E+03  0.16131705400E+03 -0.37722391826E+03  0.62797982968E+03  0.91437260115E+02 0.  0.
          3    1    3    3  502    0 -0.38064697363E+03 -0.14435595424E+03 -0.46351205500E+03  0.61690695019E+03  0.00000000000E+00 0. -1.
         -4    1    3    3    0  502 -0.17769234059E+02 -0.23865641315E+02 -0.58780325846E+02  0.65882025022E+02  0.00000000000E+00 0.  1.
         13    1    5    5    0    0 -0.15335053951E+02  0.19147569397E+01  0.26627098382E+03  0.26671907881E+03  0.00000000000E+00 0.  1.
        -13    1    5    5    0    0 -0.52807220785E+02  0.49897846173E+01  0.80519848893E+02  0.96420675082E+02  0.00000000000E+00 0. -1.
          1    1    6    6  503    0  0.89980480721E+02 -0.49663695010E+01 -0.59795962711E+02  0.10815132405E+03  0.00000000000E+00 0. -1.
         -1    1    6    6    0  503  0.37657800171E+03  0.16628342350E+03 -0.31742795555E+03  0.51982850563E+03  0.00000000000E+00 0.  1.
<mgrwt>
<rscale>  0 0.15800204E+04</rscale>
<asrwt>0</asrwt>
<pdfrwt beam="1">  1        1 0.17127954E+00 0.15800204E+04</pdfrwt>
<pdfrwt beam="2">  1       -2 0.86244854E-01 0.15800204E+04</pdfrwt>
<totfact> 0.12171018E+01</totfact>
</mgrwt>
</event>
<event>
12    5  0.5428626E-008  0.1811883E+04  0.7818608E-02  0.8700006E-01
         -2   -1    0    0    0  501 -0.00000000000E+00  0.00000000000E+00  0.87877195841E+03  0.87877195841E+03  0.00000000000E+00 0.  1.
          1   -1    0    0  501    0  0.00000000000E+00 -0.00000000000E+00 -0.93395055175E+03  0.93395055175E+03  0.00000000000E+00 0. -1.
        -24    2    1    2    0    0 -0.40670026737E+03 -0.22136745962E+03  0.47844914710E+03  0.67069039691E+03  0.80643428038E+02 0.  0.
        254    2    1    2    0    0  0.40670026737E+03  0.22136745962E+03 -0.53362774044E+03  0.11420321132E+04  0.89725699922E+03 0.  0.
         23    2    4    4    0    0  0.47478746804E+03  0.44803416332E+03 -0.14050781284E+03  0.67394578310E+03  0.91119272281E+02 0.  0.
         23    2    4    4    0    0 -0.68087200666E+02 -0.22666670370E+03 -0.39311992761E+03  0.46808633015E+03  0.92454710686E+02 0.  0.
          1    1    3    3  502    0 -0.81840671683E+01 -0.23853784204E+02  0.26967207675E+02  0.36921704539E+02  0.00000000000E+00 0. -1.
         -4    1    3    3    0  502 -0.39851620021E+03 -0.19751367542E+03  0.45148193943E+03  0.63376869237E+03  0.00000000000E+00 0.  1.
         13    1    5    5    0    0  0.16462420628E+03  0.15462359186E+03 -0.93384127867E+02  0.24439758548E+03  0.00000000000E+00 0.  1.
        -13    1    5    5    0    0  0.31016326176E+03  0.29341057147E+03 -0.47123684971E+02  0.42954819762E+03  0.00000000000E+00 0. -1.
          4    1    6    6  503    0 -0.11047991954E+02 -0.58974674996E+02 -0.18661298349E+03  0.19602162132E+03  0.00000000000E+00 0. -1.
         -4    1    6    6    0  503 -0.57039208712E+02 -0.16769202870E+03 -0.20650694411E+03  0.27206470882E+03  0.00000000000E+00 0.  1.
<mgrwt>
<rscale>  0 0.18118825E+04</rscale>
<asrwt>0</asrwt>
<pdfrwt beam="1">  1        1 0.14368470E+00 0.18118825E+04</pdfrwt>
<pdfrwt beam="2">  1       -2 0.13519569E+00 0.18118825E+04</pdfrwt>
<totfact> 0.55439734E+00</totfact>
</mgrwt>
</event>
<event>
12    5  0.5428626E-008  0.2471745E+04  0.7818608E-02  0.8413121E-01
         -2   -1    0    0    0  501 -0.00000000000E+00  0.00000000000E+00  0.69941639909E+03  0.69941639909E+03  0.00000000000E+00 0.  1.
          1   -1    0    0  501    0  0.00000000000E+00 -0.00000000000E+00 -0.21837936216E+04  0.21837936216E+04  0.00000000000E+00 0. -1.
        -24    2    1    2    0    0 -0.38180796443E+02 -0.64601711616E+03 -0.16372457415E+04  0.17620726701E+04  0.74367931239E+02 0.  0.
        254    2    1    2    0    0  0.38180796443E+02  0.64601711616E+03  0.15286851898E+03  0.11211373506E+04  0.90265402404E+03 0.  0.
         23    2    4    4    0    0  0.18643439645E+03  0.86527989692E+02 -0.30450996714E+03  0.37847890827E+03  0.90967503745E+02 0.  0.
         23    2    4    4    0    0 -0.14825360001E+03  0.55948912647E+03  0.45737848612E+03  0.74265844228E+03  0.85669538131E+02 0.  0.
          1    1    3    3  502    0 -0.26022820327E+02 -0.56068545273E+03 -0.14781204032E+04  0.15811025553E+04  0.00000000000E+00 0. -1.
         -2    1    3    3    0  502 -0.12157976116E+02 -0.85331663439E+02 -0.15912533825E+03  0.18097011478E+03  0.00000000000E+00 0.  1.
         13    1    5    5    0    0  0.10057691772E+03  0.62483100206E+02 -0.98563176741E+02  0.15406022848E+03  0.00000000000E+00 0.  1.
        -13    1    5    5    0    0  0.85857478737E+02  0.24044889486E+02 -0.20594679040E+03  0.22441867980E+03  0.00000000000E+00 0. -1.
          1    1    6    6  503    0 -0.57023985447E+02  0.17787359206E+03  0.99724495473E+02  0.21174447966E+03  0.00000000000E+00 0. -1.
         -1    1    6    6    0  503 -0.91229614564E+02  0.38161553442E+03  0.35765399065E+03  0.53091396262E+03  0.00000000000E+00 0.  1.
<mgrwt>
<rscale>  0 0.24717452E+04</rscale>
<asrwt>0</asrwt>
<pdfrwt beam="1">  1        1 0.33596825E+00 0.24717452E+04</pdfrwt>
<pdfrwt beam="2">  1       -2 0.10760252E+00 0.24717452E+04</pdfrwt>
<totfact> 0.12119925E+00</totfact>
</mgrwt>
</event>
<event>
12    5  0.5428626E-008  0.1417987E+04  0.7818608E-02  0.8940901E-01
          1   -1    0    0  501    0  0.00000000000E+00  0.00000000000E+00  0.22857060475E+04  0.22857060475E+04  0.00000000000E+00 0. -1.
         -2   -1    0    0    0  501 -0.00000000000E+00 -0.00000000000E+00 -0.21991970792E+03  0.21991970792E+03  0.00000000000E+00 0.  1.
        -24    2    1    2    0    0 -0.32562913965E+03  0.10312548637E+03  0.19460876564E+03  0.39968263289E+03  0.72141755191E+02 0.  0.
        254    2    1    2    0    0  0.32562913965E+03 -0.10312548637E+03  0.18711775740E+04  0.21059431226E+04  0.90389253764E+03 0.  0.
         23    2    4    4    0    0  0.43825643415E+03 -0.41135300115E+03  0.10010824354E+04  0.11712411943E+04  0.91432483762E+02 0.  0.
         23    2    4    4    0    0 -0.11262729450E+03  0.30822751478E+03  0.87009513859E+03  0.93470192830E+03  0.94408877906E+02 0.  0.
          3    1    3    3  502    0 -0.18340702746E+03  0.30496123004E+02  0.13262984170E+03  0.22838306888E+03  0.00000000000E+00 0. -1.
         -4    1    3    3    0  502 -0.14222211219E+03  0.72629363363E+02  0.61978923940E+02  0.17129956401E+03  0.00000000000E+00 0.  1.
         13    1    5    5    0    0  0.41592171088E+03 -0.37792040212E+03  0.96742913438E+03  0.11188091124E+04  0.00000000000E+00 0. -1.
        -13    1    5    5    0    0  0.22334723277E+02 -0.33432599022E+02  0.33653300989E+02  0.52432081865E+02  0.00000000000E+00 0.  1.
          4    1    6    6  503    0 -0.12749499324E+03  0.24691419435E+03  0.68880532470E+03  0.74274784954E+03  0.00000000000E+00 0. -1.
         -4    1    6    6    0  503  0.14867698735E+02  0.61313320431E+02  0.18128981390E+03  0.19195407876E+03  0.00000000000E+00 0.  1.
<mgrwt>
<rscale>  0 0.14179870E+04</rscale>
<asrwt>0</asrwt>
<pdfrwt beam="1">  1        1 0.35164707E+00 0.14179870E+04</pdfrwt>
<pdfrwt beam="2">  1       -2 0.33833803E-01 0.14179870E+04</pdfrwt>
<totfact> 0.13328406E+01</totfact>
</mgrwt>
</event>
<event>
12    5  0.5428626E-008  0.2234401E+04  0.7818608E-02  0.8504245E-01
         -2   -1    0    0    0  501 -0.00000000000E+00  0.00000000000E+00  0.87074950269E+03  0.87074950269E+03  0.00000000000E+00 0.  1.
          1   -1    0    0  501    0  0.00000000000E+00 -0.00000000000E+00 -0.14334055090E+04  0.14334055090E+04  0.00000000000E+00 0. -1.
        -24    2    1    2    0    0 -0.32602949396E+03  0.77574558230E+03  0.19667275149E+03  0.86740215087E+03  0.75032531421E+02 0.  0.
        254    2    1    2    0    0  0.32602949396E+03 -0.77574558230E+03 -0.75932875784E+03  0.14367528609E+04  0.88295083745E+03 0.  0.
         23    2    4    4    0    0  0.22688174347E+03 -0.94896889900E+03 -0.71470784075E+03  0.12129565910E+04  0.91864559093E+02 0.  0.
         23    2    4    4    0    0  0.99147750485E+02  0.17322331671E+03 -0.44620917083E+02  0.22379626987E+03  0.90868863139E+02 0.  0.
          1    1    3    3  502    0 -0.24729431813E+03  0.65900344061E+03  0.15831371128E+03  0.72145910882E+03  0.00000000000E+00 0. -1.
         -2    1    3    3    0  502 -0.78735175823E+02  0.11674214169E+03  0.38359040209E+02  0.14594304205E+03  0.00000000000E+00 0.  1.
         13    1    5    5    0    0  0.13040583074E+02 -0.13121847752E+03 -0.65947394963E+02  0.14743610328E+03  0.00000000000E+00 0.  1.
        -13    1    5    5    0    0  0.21384116040E+03 -0.81775042149E+03 -0.64876044579E+03  0.10655204877E+04  0.00000000000E+00 0. -1.
          2    1    6    6  503    0  0.92511325819E+02  0.13052494548E+03 -0.68946320987E+02  0.17420878845E+03  0.00000000000E+00 0. -1.
         -2    1    6    6    0  503  0.66364246656E+01  0.42698371227E+02  0.24325403904E+02  0.49587481413E+02  0.00000000000E+00 0.  1.
<mgrwt>
<rscale>  0 0.22344012E+04</rscale>
<asrwt>0</asrwt>
<pdfrwt beam="1">  1        1 0.22052392E+00 0.22344012E+04</pdfrwt>
<pdfrwt beam="2">  1       -2 0.13396146E+00 0.22344012E+04</pdfrwt>
<totfact> 0.23372259E+00</totfact>
</mgrwt>
</event>
<event>
12    5  0.5428626E-008  0.2395089E+04  0.7818608E-02  0.8441345E-01
         -2   -1    0    0    0  501 -0.00000000000E+00  0.00000000000E+00  0.85918216177E+03  0.85918216177E+03  0.00000000000E+00 0.  1.
          1   -1    0    0  501    0  0.00000000000E+00 -0.00000000000E+00 -0.16691597084E+04  0.16691597084E+04  0.00000000000E+00 0. -1.
        -24    2    1    2    0    0  0.52044213650E+03 -0.84329295635E+03 -0.69269314518E+03  0.12116461006E+04  0.79116698390E+02 0.  0.
        254    2    1    2    0    0 -0.52044213650E+03  0.84329295635E+03 -0.11728440149E+03  0.13166957697E+04  0.85902799217E+03 0.  0.
         23    2    4    4    0    0 -0.53178682810E+03  0.75088390271E+03 -0.39816738372E+03  0.10067317682E+04  0.91365867583E+02 0.  0.
         23    2    4    4    0    0  0.11344691605E+02  0.92409053638E+02  0.28088298223E+03  0.30996400145E+03  0.92272949804E+02 0.  0.
          3    1    3    3  502    0  0.49964626862E+03 -0.78610158548E+03 -0.63148056003E+03  0.11253309709E+04  0.00000000000E+00 0. -1.
         -4    1    3    3    0  502  0.20795867874E+02 -0.57191370869E+02 -0.61212585158E+02  0.86315129637E+02  0.00000000000E+00 0.  1.
         13    1    5    5    0    0 -0.42033465068E+03  0.60885885520E+03 -0.28055202558E+03  0.79126466064E+03  0.00000000000E+00 0.  1.
        -13    1    5    5    0    0 -0.11145217743E+03  0.14202504751E+03 -0.11761535814E+03  0.21546710757E+03  0.00000000000E+00 0. -1.
          3    1    6    6  503    0  0.14280723191E+02 -0.37364538033E+01  0.19236731293E+01  0.14886257427E+02  0.00000000000E+00 0. -1.
         -3    1    6    6    0  503 -0.29360315862E+01  0.96145507441E+02  0.27895930910E+03  0.29507774402E+03  0.00000000000E+00 0.  1.
<mgrwt>
<rscale>  0 0.23950885E+04</rscale>
<asrwt>0</asrwt>
<pdfrwt beam="1">  1        1 0.25679380E+00 0.23950885E+04</pdfrwt>
<pdfrwt beam="2">  1       -2 0.13218187E+00 0.23950885E+04</pdfrwt>
<totfact> 0.16400610E+00</totfact>
</mgrwt>
</event>
<event>
12    5  0.5428626E-008  0.3525659E+04  0.7818608E-02  0.8107736E-01
         -2   -1    0    0    0  501 -0.00000000000E+00  0.00000000000E+00  0.24588365380E+04  0.24588365380E+04  0.00000000000E+00 0.  1.
          1   -1    0    0  501    0  0.00000000000E+00 -0.00000000000E+00 -0.12638369484E+04  0.12638369484E+04  0.00000000000E+00 0. -1.
        -24    2    1    2    0    0 -0.70005526390E+03  0.10008887424E+04 -0.60773930545E+03  0.13667518452E+04  0.82509973185E+02 0.  0.
        254    2    1    2    0    0  0.70005526390E+03 -0.10008887424E+04  0.18027388951E+04  0.23559216412E+04  0.89924613345E+03 0.  0.
         23    2    4    4    0    0  0.48080144162E+01 -0.18875546926E+03 -0.49568125485E+02  0.21529864754E+03  0.90800684954E+02 0.  0.
         23    2    4    4    0    0  0.69524724949E+03 -0.81213327318E+03  0.18523070206E+04  0.21406229937E+04  0.91084089556E+02 0.  0.
          1    1    3    3  502    0 -0.51306297435E+03  0.79078933658E+03 -0.45544019782E+03  0.10469036079E+04  0.00000000000E+00 0. -1.
         -2    1    3    3    0  502 -0.18699228955E+03  0.21009940586E+03 -0.15229910763E+03  0.31984823726E+03  0.00000000000E+00 0.  1.
         13    1    5    5    0    0 -0.29323128808E+02 -0.64344623047E+02  0.13036546725E+02  0.71902906399E+02  0.00000000000E+00 0.  1.
        -13    1    5    5    0    0  0.34131143224E+02 -0.12441084621E+03 -0.62604672211E+02  0.14339574114E+03  0.00000000000E+00 0. -1.
          3    1    6    6  503    0  0.18484943126E+03 -0.21667188810E+03  0.57699223083E+03  0.64345633400E+03  0.00000000000E+00 0. -1.
         -3    1    6    6    0  503  0.51039781823E+03 -0.59546138508E+03  0.12753147897E+04  0.14971666597E+04  0.00000000000E+00 0.  1.
<mgrwt>
<rscale>  0 0.35256594E+04</rscale>
<asrwt>0</asrwt>
<pdfrwt beam="1">  1        1 0.19443645E+00 0.35256594E+04</pdfrwt>
<pdfrwt beam="2">  1       -2 0.37828254E+00 0.35256594E+04</pdfrwt>
<totfact> 0.70445894E-02</totfact>
</mgrwt>
</event>
<event>
12    5  0.5428626E-008  0.1278687E+04  0.7818608E-02  0.9046640E-01
         -2   -1    0    0    0  501 -0.00000000000E+00  0.00000000000E+00  0.40864192220E+03  0.40864192220E+03  0.00000000000E+00 0.  1.
          1   -1    0    0  501    0  0.00000000000E+00 -0.00000000000E+00 -0.10002885842E+04  0.10002885842E+04  0.00000000000E+00 0. -1.
        -24    2    1    2    0    0 -0.29996648305E+02 -0.20059009383E+03  0.13132332679E+03  0.25432565778E+03  0.79369637748E+02 0.  0.
        254    2    1    2    0    0  0.29996648305E+02  0.20059009383E+03 -0.72296998876E+03  0.11546048486E+04  0.87709210867E+03 0.  0.
         23    2    4    4    0    0  0.26363810897E+03 -0.15955714672E+03 -0.15624038338E+02  0.32163969159E+03  0.90798926553E+02 0.  0.
         23    2    4    4    0    0 -0.23364146067E+03  0.36014724055E+03 -0.70734595042E+03  0.83296515700E+03  0.95907727414E+02 0.  0.
          3    1    3    3  502    0 -0.51551878710E+02 -0.10082913807E+03  0.49842645390E+02  0.12372712145E+03  0.00000000000E+00 0. -1.
         -4    1    3    3    0  502  0.21555230405E+02 -0.99760955763E+02  0.81480681396E+02  0.13059853634E+03  0.00000000000E+00 0.  1.
         13    1    5    5    0    0  0.11752500581E+03 -0.91194885396E+02  0.34522640413E+02  0.15271033630E+03  0.00000000000E+00 0.  1.
        -13    1    5    5    0    0  0.14611310317E+03 -0.68362261324E+02 -0.50146678750E+02  0.16892935529E+03  0.00000000000E+00 0. -1.
          2    1    6    6  503    0 -0.22326591415E+03  0.35724587838E+03 -0.64974132886E+03  0.77436172456E+03  0.00000000000E+00 0. -1.
         -2    1    6    6    0  503 -0.10375546518E+02  0.29013621712E+01 -0.57604621561E+02  0.58603432435E+02  0.00000000000E+00 0.  1.
<mgrwt>
<rscale>  0 0.12786866E+04</rscale>
<asrwt>0</asrwt>
<pdfrwt beam="1">  1        1 0.15389055E+00 0.12786866E+04</pdfrwt>
<pdfrwt beam="2">  1       -2 0.62867988E-01 0.12786866E+04</pdfrwt>
<totfact> 0.30597704E+01</totfact>
</mgrwt>
</event>
<event>
12    5  0.5428626E-008  0.1847834E+04  0.7818608E-02  0.8681267E-01
         -2   -1    0    0    0  501 -0.00000000000E+00  0.00000000000E+00  0.59223945387E+03  0.59223945387E+03  0.00000000000E+00 0.  1.
          1   -1    0    0  501    0  0.00000000000E+00 -0.00000000000E+00 -0.14413477898E+04  0.14413477898E+04  0.00000000000E+00 0. -1.
        -24    2    1    2    0    0  0.10847005286E+03 -0.14116639217E+03  0.42461563637E+03  0.46694293528E+03  0.77740359584E+02 0.  0.
        254    2    1    2    0    0 -0.10847005286E+03  0.14116639217E+03 -0.12737239723E+04  0.15666443084E+04  0.89459931186E+03 0.  0.
         23    2    4    4    0    0  0.23364552438E+03 -0.11353822424E+03 -0.67337582410E+02  0.28385941889E+03  0.92523836183E+02 0.  0.
         23    2    4    4    0    0 -0.34211557724E+03  0.25470461641E+03 -0.12063863899E+04  0.12827848895E+04  0.90837443960E+02 0.  0.
          3    1    3    3  502    0  0.54211095085E+02 -0.15371402959E+02  0.10399291123E+03  0.11827784427E+03  0.00000000000E+00 0. -1.
         -4    1    3    3    0  502  0.54258957775E+02 -0.12579498921E+03  0.32062272514E+03  0.34866509100E+03  0.00000000000E+00 0.  1.
         13    1    5    5    0    0  0.11272192539E+03 -0.39605455879E+02  0.14243553736E+02  0.12032332867E+03  0.00000000000E+00 0.  1.
        -13    1    5    5    0    0  0.12092359899E+03 -0.73932768357E+02 -0.81581136146E+02  0.16353609022E+03  0.00000000000E+00 0. -1.
          3    1    6    6  503    0 -0.26906938091E+03  0.21113082913E+03 -0.10560888508E+04  0.11100892845E+04  0.00000000000E+00 0. -1.
         -3    1    6    6    0  503 -0.73046196326E+02  0.43573787277E+02 -0.15029753909E+03  0.17269560501E+03  0.00000000000E+00 0.  1.
<mgrwt>
<rscale>  0 0.18478344E+04</rscale>
<asrwt>0</asrwt>
<pdfrwt beam="1">  1        1 0.22174581E+00 0.18478344E+04</pdfrwt>
<pdfrwt beam="2">  1       -2 0.91113763E-01 0.18478344E+04</pdfrwt>
<totfact> 0.60878736E+00</totfact>
</mgrwt>
</event>
<event>
12    5  0.5428626E-008  0.1527878E+04  0.7818608E-02  0.8866123E-01
         -2   -1    0    0    0  501 -0.00000000000E+00  0.00000000000E+00  0.47139948871E+03  0.47139948871E+03  0.00000000000E+00 0.  1.
          1   -1    0    0  501    0  0.00000000000E+00 -0.00000000000E+00 -0.12380209584E+04  0.12380209584E+04  0.00000000000E+00 0. -1.
        -24    2    1    2    0    0 -0.25397235884E+03  0.36741909263E+03 -0.52017768758E+02  0.45714984892E+03  0.82349179822E+02 0.  0.
        254    2    1    2    0    0  0.25397235884E+03 -0.36741909263E+03 -0.71460370090E+03  0.12522705982E+04  0.92629609360E+03 0.  0.
         23    2    4    4    0    0  0.55155383851E+03 -0.14195480395E+03 -0.20032796719E+03  0.61037790240E+03  0.89816959195E+02 0.  0.
         23    2    4    4    0    0 -0.29758147967E+03 -0.22546428868E+03 -0.51427573371E+03  0.64189269577E+03  0.90320651493E+02 0.  0.
          1    1    3    3  502    0 -0.24945026789E+03  0.36633744109E+03 -0.60661644862E+02  0.44733476508E+03  0.00000000000E+00 0. -1.
         -2    1    3    3    0  502 -0.45220909469E+01  0.10816515396E+01  0.86438761040E+01  0.98150838349E+01  0.00000000000E+00 0.  1.
         13    1    5    5    0    0  0.36418450924E+03 -0.51928697704E+02 -0.11224580813E+03  0.38461158050E+03  0.00000000000E+00 0.  1.
        -13    1    5    5    0    0  0.18736932927E+03 -0.90026106244E+02 -0.88082159063E+02  0.22576632189E+03  0.00000000000E+00 0. -1.
          3    1    6    6  503    0 -0.13105859293E+03 -0.45120300325E+02 -0.18097461435E+03  0.22795615219E+03  0.00000000000E+00 0. -1.
         -3    1    6    6    0  503 -0.16652288675E+03 -0.18034398835E+03 -0.33330111936E+03  0.41393654358E+03  0.00000000000E+00 0.  1.
<mgrwt>
<rscale>  0 0.15278775E+04</rscale>
<asrwt>0</asrwt>
<pdfrwt beam="1">  1        1 0.19046477E+00 0.15278775E+04</pdfrwt>
<pdfrwt beam="2">  1       -2 0.72522997E-01 0.15278775E+04</pdfrwt>
<totfact> 0.14596975E+01</totfact>
</mgrwt>
</event>
<event>
12    5  0.5428626E-008  0.1941386E+04  0.7818608E-02  0.8634526E-01
          1   -1    0    0  501    0  0.00000000000E+00  0.00000000000E+00  0.16285288042E+04  0.16285288042E+04  0.00000000000E+00 0. -1.
         -4   -1    0    0    0  501 -0.00000000000E+00 -0.00000000000E+00 -0.57858633223E+03  0.57858633223E+03  0.00000000000E+00 0.  1.
        -24    2    1    2    0    0 -0.54957998776E+03  0.40886454667E+03  0.64614029462E+02  0.69272912005E+03  0.80562277035E+02 0.  0.
        254    2    1    2    0    0  0.54957998776E+03 -0.40886454667E+03  0.98532844250E+03  0.15143860164E+04  0.92373399120E+03 0.  0.
         23    2    4    4    0    0 -0.18916880556E+03 -0.53508628001E+02 -0.13124478442E+02  0.21923703347E+03  0.96148919087E+02 0.  0.
         23    2    4    4    0    0  0.73874879332E+03 -0.35535591867E+03  0.99845292094E+03  0.12951489829E+04  0.92060002175E+02 0.  0.
          3    1    3    3  502    0 -0.15772112906E+03  0.89034953044E+02 -0.10260048406E+02  0.18140685216E+03  0.00000000000E+00 0. -1.
         -4    1    3    3    0  502 -0.39185885870E+03  0.31982959363E+03  0.74874077868E+02  0.51132226789E+03  0.00000000000E+00 0.  1.
         13    1    5    5    0    0 -0.16823868209E+03 -0.53432657697E+02  0.22470491643E+02  0.17794444654E+03  0.00000000000E+00 0.  1.
        -13    1    5    5    0    0 -0.20930123474E+02 -0.75970303488E-01 -0.35594970084E+02  0.41292586931E+02  0.00000000000E+00 0. -1.
          3    1    6    6  503    0  0.15370934610E+02 -0.15069310189E+02  0.95847170462E+01  0.23563033362E+02  0.00000000000E+00 0. -1.
         -3    1    6    6    0  503  0.72337785871E+03 -0.34028660848E+03  0.98886820390E+03  0.12715859495E+04  0.00000000000E+00 0.  1.
<mgrwt>
<rscale>  0 0.19413856E+04</rscale>
<asrwt>0</asrwt>
<pdfrwt beam="1">  1        1 0.25054289E+00 0.19413856E+04</pdfrwt>
<pdfrwt beam="2">  1       -4 0.89013282E-01 0.19413856E+04</pdfrwt>
<totfact> 0.26484469E+00</totfact>
</mgrwt>
</event>
<event>
12    5  0.5428626E-008  0.1818161E+04  0.7818608E-02  0.8696701E-01
         -2   -1    0    0    0  501 -0.00000000000E+00  0.00000000000E+00  0.10102492290E+04  0.10102492290E+04  0.00000000000E+00 0.  1.
          1   -1    0    0  501    0  0.00000000000E+00 -0.00000000000E+00 -0.81804313602E+03  0.81804313602E+03  0.00000000000E+00 0. -1.
        -24    2    1    2    0    0  0.43802121824E+03  0.39071476846E+02 -0.45576050441E+03  0.63834671512E+03  0.79873170727E+02 0.  0.
        254    2    1    2    0    0 -0.43802121824E+03 -0.39071476846E+02  0.64796659739E+03  0.11899456499E+04  0.89594685695E+03 0.  0.
         23    2    4    4    0    0 -0.59883373618E+03  0.10756715789E+03  0.14117433232E+03  0.63135454781E+03  0.92227088674E+02 0.  0.
         23    2    4    4    0    0  0.16081251795E+03 -0.14663863474E+03  0.50679226507E+03  0.55859110210E+03  0.88442434859E+02 0.  0.
          3    1    3    3  502    0  0.25375993530E+03  0.61117901200E+02 -0.27899505066E+03  0.38205724820E+03  0.00000000000E+00 0. -1.
         -4    1    3    3    0  502  0.18426128294E+03 -0.22046424354E+02 -0.17676545375E+03  0.25628946692E+03  0.00000000000E+00 0.  1.
         13    1    5    5    0    0 -0.58844337598E+02 -0.12325273753E+02  0.29852142790E+02  0.67124651727E+02  0.00000000000E+00 0.  1.
        -13    1    5    5    0    0 -0.53998939859E+03  0.11989243165E+03  0.11132218953E+03  0.56422989608E+03  0.00000000000E+00 0. -1.
          3    1    6    6  503    0  0.37459704157E+02 -0.89686311030E+02  0.17745612413E+03  0.20233027409E+03  0.00000000000E+00 0. -1.
         -3    1    6    6    0  503  0.12335281379E+03 -0.56952323709E+02  0.32933614094E+03  0.35626082801E+03  0.00000000000E+00 0.  1.
<mgrwt>
<rscale>  0 0.18181611E+04</rscale>
<asrwt>0</asrwt>
<pdfrwt beam="1">  1        1 0.12585279E+00 0.18181611E+04</pdfrwt>
<pdfrwt beam="2">  1       -2 0.15542296E+00 0.18181611E+04</pdfrwt>
<totfact> 0.47953576E+00</totfact>
</mgrwt>
</event>
<event>
12    5  0.5428626E-008  0.1200335E+04  0.7818608E-02  0.9112563E-01
         -2   -1    0    0    0  501 -0.00000000000E+00  0.00000000000E+00  0.27601558587E+03  0.27601558587E+03  0.00000000000E+00 0.  1.
          1   -1    0    0  501    0  0.00000000000E+00 -0.00000000000E+00 -0.13050027892E+04  0.13050027892E+04  0.00000000000E+00 0. -1.
        -24    2    1    2    0    0  0.36860000040E+02 -0.20594660339E+03 -0.43310527378E+02  0.22833443415E+03  0.80549047085E+02 0.  0.
        254    2    1    2    0    0 -0.36860000040E+02  0.20594660339E+03 -0.98567667598E+03  0.13526839409E+04  0.90245369492E+03 0.  0.
         23    2    4    4    0    0 -0.36539513159E+03 -0.63808989941E+02 -0.14920148620E+03  0.40994107285E+03  0.90583720028E+02 0.  0.
         23    2    4    4    0    0  0.32853513155E+03  0.26975559333E+03 -0.83647518977E+03  0.94274286810E+03  0.91487482457E+02 0.  0.
          1    1    3    3  502    0  0.45254971301E+02 -0.83799633218E+02 -0.46226837018E+02  0.10586459000E+03  0.00000000000E+00 0. -1.
         -2    1    3    3    0  502 -0.83949712613E+01 -0.12214697017E+03  0.29163096397E+01  0.12246984415E+03  0.00000000000E+00 0.  1.
         13    1    5    5    0    0 -0.17446950597E+01 -0.14570089173E+02 -0.33599950788E+01  0.15053937235E+02  0.00000000000E+00 0.  1.
        -13    1    5    5    0    0 -0.36365043653E+03 -0.49238900768E+02 -0.14584149112E+03  0.39488713561E+03  0.00000000000E+00 0. -1.
          4    1    6    6  503    0  0.31201877797E+03  0.26762807029E+03 -0.82712920329E+03  0.92364669693E+03  0.00000000000E+00 0. -1.
         -4    1    6    6    0  503  0.16516353579E+02  0.21275230373E+01 -0.93459864783E+01  0.19096171162E+02  0.00000000000E+00 0.  1.
<mgrwt>
<rscale>  0 0.12003351E+04</rscale>
<asrwt>0</asrwt>
<pdfrwt beam="1">  1        1 0.20076966E+00 0.12003351E+04</pdfrwt>
<pdfrwt beam="2">  1       -2 0.42463937E-01 0.12003351E+04</pdfrwt>
<totfact> 0.40934365E+01</totfact>
</mgrwt>
</event>
<event>
12    5  0.5428626E-008  0.1230292E+04  0.7818608E-02  0.9086747E-01
         -2   -1    0    0    0  501 -0.00000000000E+00  0.00000000000E+00  0.64152651252E+03  0.64152651252E+03  0.00000000000E+00 0.  1.
          1   -1    0    0  501    0  0.00000000000E+00 -0.00000000000E+00 -0.58985064731E+03  0.58985064731E+03  0.00000000000E+00 0. -1.
        -24    2    1    2    0    0 -0.23072847333E+03 -0.11046823283E+03 -0.96797216950E+02  0.28513245095E+03  0.80572665997E+02 0.  0.
        254    2    1    2    0    0  0.23072847333E+03  0.11046823283E+03  0.14847308216E+03  0.94624470888E+03  0.89883031440E+03 0.  0.
         23    2    4    4    0    0  0.33746059466E+03 -0.11200427781E+03 -0.26793505488E+03  0.45455242276E+03  0.91673879686E+02 0.  0.
         23    2    4    4    0    0 -0.10673212133E+03  0.22247251065E+03  0.41640813704E+03  0.49169228611E+03  0.86485859622E+02 0.  0.
          1    1    3    3  502    0 -0.19201783896E+03 -0.12187447806E+03 -0.87775764403E+02  0.24378027750E+03  0.00000000000E+00 0. -1.
         -2    1    3    3    0  502 -0.38710634362E+02  0.11406245223E+02 -0.90214525473E+01  0.41352173448E+02  0.00000000000E+00 0.  1.
         13    1    5    5    0    0  0.20139094824E+03 -0.68234522162E+02 -0.10290598716E+03  0.23622850429E+03  0.00000000000E+00 0. -1.
        -13    1    5    5    0    0  0.13606964642E+03 -0.43769755652E+02 -0.16502906772E+03  0.21832391847E+03  0.00000000000E+00 0.  1.
          2    1    6    6  503    0 -0.33091655782E+02  0.59396173585E+02  0.51566537512E+02  0.85335050887E+02  0.00000000000E+00 0. -1.
         -2    1    6    6    0  503 -0.73640465547E+02  0.16307633706E+03  0.36484159953E+03  0.40635723523E+03  0.00000000000E+00 0.  1.
<mgrwt>
<rscale>  0 0.12302924E+04</rscale>
<asrwt>0</asrwt>
<pdfrwt beam="1">  1        1 0.90746253E-01 0.12302924E+04</pdfrwt>
<pdfrwt beam="2">  1       -2 0.98696387E-01 0.12302924E+04</pdfrwt>
<totfact> 0.25851578E+01</totfact>
</mgrwt>
</event>
<event>
12    5  0.5428626E-008  0.1137057E+04  0.7818608E-02  0.9169808E-01
          1   -1    0    0  501    0  0.00000000000E+00  0.00000000000E+00  0.94885112264E+03  0.94885112264E+03  0.00000000000E+00 0. -1.
         -2   -1    0    0    0  501 -0.00000000000E+00 -0.00000000000E+00 -0.34064840744E+03  0.34064840744E+03  0.00000000000E+00 0.  1.
        -24    2    1    2    0    0  0.13878749047E+03  0.13147675030E+03  0.34526782729E+02  0.20912562744E+03  0.77416574101E+02 0.  0.
        254    2    1    2    0    0 -0.13878749047E+03 -0.13147675030E+03  0.57367593247E+03  0.10803739026E+04  0.89529637027E+03 0.  0.
         23    2    4    4    0    0  0.24529816520E+03 -0.33427080579E+03  0.45198557812E+03  0.62021709932E+03  0.92033287475E+02 0.  0.
         23    2    4    4    0    0 -0.38408565567E+03  0.20279405549E+03  0.12169035434E+03  0.46015680332E+03  0.91041317363E+02 0.  0.
          3    1    3    3  502    0  0.37183517998E+01  0.21135614028E+02  0.27085900468E+02  0.34557001094E+02  0.00000000000E+00 0. -1.
         -4    1    3    3    0  502  0.13506913867E+03  0.11034113627E+03  0.74408822614E+01  0.17456862635E+03  0.00000000000E+00 0.  1.
         13    1    5    5    0    0  0.22815846368E+03 -0.27480599639E+03  0.34480120825E+03  0.49644989013E+03  0.00000000000E+00 0. -1.
        -13    1    5    5    0    0  0.17139701521E+02 -0.59464809395E+02  0.10718436987E+03  0.12376720919E+03  0.00000000000E+00 0.  1.
          4    1    6    6  503    0 -0.31801330305E+03  0.12967627829E+03  0.11150216151E+03  0.36108327307E+03  0.00000000000E+00 0. -1.
         -4    1    6    6    0  503 -0.66072352622E+02  0.73117777197E+02  0.10188192830E+02  0.99073530251E+02  0.00000000000E+00 0.  1.
<mgrwt>
<rscale>  0 0.11370569E+04</rscale>
<asrwt>0</asrwt>
<pdfrwt beam="1">  1        1 0.14597710E+00 0.11370569E+04</pdfrwt>
<pdfrwt beam="2">  1       -2 0.52407448E-01 0.11370569E+04</pdfrwt>
<totfact> 0.49727701E+01</totfact>
</mgrwt>
</event>
<event>
12    5  0.5428626E-008  0.2102940E+04  0.7818608E-02  0.8559950E-01
          1   -1    0    0  501    0  0.00000000000E+00  0.00000000000E+00  0.22158287820E+04  0.22158287820E+04  0.00000000000E+00 0. -1.
         -2   -1    0    0    0  501 -0.00000000000E+00 -0.00000000000E+00 -0.49895044826E+03  0.49895044826E+03  0.00000000000E+00 0.  1.
        -24    2    1    2    0    0 -0.19725004572E+03 -0.78992499886E+03  0.39181016716E+03  0.90797006158E+03  0.89472572735E+02 0.  0.
        254    2    1    2    0    0  0.19725004572E+03  0.78992499886E+03  0.13250681666E+04  0.18068091687E+04  0.91970899831E+03 0.  0.
         23    2    4    4    0    0 -0.11566165715E+03  0.71644463044E+02 -0.89728191695E+02  0.18699691706E+03  0.91685061951E+02 0.  0.
         23    2    4    4    0    0  0.31291170286E+03  0.71828053582E+03  0.14147963583E+04  0.16198122516E+04  0.91117139902E+02 0.  0.
          1    1    3    3  502    0 -0.21030845720E+02 -0.19457780649E+02  0.15880009836E+02  0.32757845043E+02  0.00000000000E+00 0. -1.
         -2    1    3    3    0  502 -0.17621920000E+03 -0.77046721821E+03  0.37593015732E+03  0.87521221654E+03  0.00000000000E+00 0.  1.
         13    1    5    5    0    0 -0.75660952377E+02  0.72994827037E+02 -0.20619732647E+02  0.10713541834E+03  0.00000000000E+00 0. -1.
        -13    1    5    5    0    0 -0.40000704771E+02 -0.13503639932E+01 -0.69108459048E+02  0.79861498716E+02  0.00000000000E+00 0.  1.
          1    1    6    6  503    0  0.10119619911E+03  0.15280975054E+03  0.37568888040E+03  0.41801151351E+03  0.00000000000E+00 0. -1.
         -1    1    6    6    0  503  0.21171550375E+03  0.56547078528E+03  0.10391074779E+04  0.12018007381E+04  0.00000000000E+00 0.  1.
<mgrwt>
<rscale>  0 0.21029396E+04</rscale>
<asrwt>0</asrwt>
<pdfrwt beam="1">  1        1 0.34089673E+00 0.21029396E+04</pdfrwt>
<pdfrwt beam="2">  1       -2 0.76761609E-01 0.21029396E+04</pdfrwt>
<totfact> 0.26027573E+00</totfact>
</mgrwt>
</event>
<event>
12    5  0.5428626E-008  0.1475382E+04  0.7818608E-02  0.8900991E-01
         -4   -1    0    0    0  501 -0.00000000000E+00  0.00000000000E+00  0.59552734316E+03  0.59552734316E+03  0.00000000000E+00 0.  1.
          3   -1    0    0  501    0  0.00000000000E+00 -0.00000000000E+00 -0.91379169611E+03  0.91379169611E+03  0.00000000000E+00 0. -1.
        -24    2    1    2    0    0 -0.22186471804E+03 -0.43069635533E+02  0.28703189105E+03  0.37404033653E+03  0.80249113731E+02 0.  0.
        254    2    1    2    0    0  0.22186471804E+03  0.43069635533E+02 -0.60529624399E+03  0.11352787027E+04  0.93348553459E+03 0.  0.
         23    2    4    4    0    0  0.28896726749E+03 -0.39395712855E+03 -0.40311321892E+03  0.64012256651E+03  0.92478819555E+02 0.  0.
         23    2    4    4    0    0 -0.67102549449E+02  0.43702676409E+03 -0.20218302507E+03  0.49515613623E+03  0.93842841763E+02 0.  0.
          1    1    3    3  502    0 -0.15489969357E+03  0.69269075701E+01  0.20395969227E+03  0.25620588047E+03  0.00000000000E+00 0. -1.
         -2    1    3    3    0  502 -0.66965024476E+02 -0.49996543103E+02  0.83072198784E+02  0.11783445606E+03  0.00000000000E+00 0.  1.
         13    1    5    5    0    0  0.18611088567E+03 -0.27527637873E+03 -0.21823427128E+03  0.39754313428E+03  0.00000000000E+00 0. -1.
        -13    1    5    5    0    0  0.10285638182E+03 -0.11868074982E+03 -0.18487894764E+03  0.24257943223E+03  0.00000000000E+00 0.  1.
          1    1    6    6  503    0 -0.27814685251E+01  0.28186480542E+03 -0.14980562301E+03  0.31921345490E+03  0.00000000000E+00 0. -1.
         -1    1    6    6    0  503 -0.64321080924E+02  0.15516195866E+03 -0.52377402060E+02  0.17594268133E+03  0.00000000000E+00 0.  1.
<mgrwt>
<rscale>  0 0.14753819E+04</rscale>
<asrwt>0</asrwt>
<pdfrwt beam="1">  1        3 0.14058334E+00 0.14753819E+04</pdfrwt>
<pdfrwt beam="2">  1       -4 0.91619592E-01 0.14753819E+04</pdfrwt>
<totfact> 0.86006119E-01</totfact>
</mgrwt>
</event>
<event>
12    5  0.5428626E-008  0.2143740E+04  0.7818608E-02  0.8542217E-01
          1   -1    0    0  501    0  0.00000000000E+00  0.00000000000E+00  0.27758136956E+04  0.27758136956E+04  0.00000000000E+00 0. -1.
         -2   -1    0    0    0  501 -0.00000000000E+00 -0.00000000000E+00 -0.41389863246E+03  0.41389863246E+03  0.00000000000E+00 0.  1.
        -24    2    1    2    0    0  0.12977716788E+03 -0.72515374032E+03  0.26129141840E+03  0.78571106194E+03  0.79866182547E+02 0.  0.
        254    2    1    2    0    0 -0.12977716788E+03  0.72515374032E+03  0.21006236447E+04  0.24040012661E+04  0.90769616628E+03 0.  0.
         23    2    4    4    0    0  0.37178702910E+03  0.42714033710E+03  0.91895240124E+03  0.10830782350E+04  0.88940906066E+02 0.  0.
         23    2    4    4    0    0 -0.50156419698E+03  0.29801340322E+03  0.11816712435E+04  0.13209230311E+04  0.90067165381E+02 0.  0.
          1    1    3    3  502    0  0.72281725157E+02 -0.20147431487E+03  0.81848797637E+02  0.22916320171E+03  0.00000000000E+00 0. -1.
         -2    1    3    3    0  502  0.57495442724E+02 -0.52367942545E+03  0.17944262077E+03  0.55654786022E+03  0.00000000000E+00 0.  1.
         13    1    5    5    0    0  0.89919157406E+02  0.53820215420E+02  0.18878415665E+03  0.21592018956E+03  0.00000000000E+00 0. -1.
        -13    1    5    5    0    0  0.28186787169E+03  0.37332012168E+03  0.73016824459E+03  0.86715804543E+03  0.00000000000E+00 0.  1.
          1    1    6    6  503    0 -0.35389711465E+03  0.23396659707E+03  0.92980570900E+03  0.10220186851E+04  0.00000000000E+00 0.  1.
         -1    1    6    6    0  503 -0.14766708233E+03  0.64046806142E+02  0.25186553450E+03  0.29890434598E+03  0.00000000000E+00 0. -1.
<mgrwt>
<rscale>  0 0.21437402E+04</rscale>
<asrwt>0</asrwt>
<pdfrwt beam="1">  1        1 0.42704825E+00 0.21437402E+04</pdfrwt>
<pdfrwt beam="2">  1       -2 0.63676714E-01 0.21437402E+04</pdfrwt>
<totfact> 0.15939081E+00</totfact>
</mgrwt>
</event>
<event>
12    5  0.5428626E-008  0.1201843E+04  0.7818608E-02  0.9111245E-01
         -2   -1    0    0    0  501 -0.00000000000E+00  0.00000000000E+00  0.35499852637E+03  0.35499852637E+03  0.00000000000E+00 0.  1.
          1   -1    0    0  501    0  0.00000000000E+00 -0.00000000000E+00 -0.10172061346E+04  0.10172061346E+04  0.00000000000E+00 0. -1.
        -24    2    1    2    0    0 -0.24849601014E+03 -0.54554853575E+02 -0.19031242656E+03  0.32761515904E+03  0.79914789764E+02 0.  0.
        254    2    1    2    0    0  0.24849601014E+03  0.54554853575E+02 -0.47189518165E+03  0.10445895019E+04  0.89652421380E+03 0.  0.
         23    2    4    4    0    0  0.55091522113E+03  0.18363347607E+03 -0.25533425296E+03  0.64048780380E+03  0.88318807027E+02 0.  0.
         23    2    4    4    0    0 -0.30241921099E+03 -0.12907862250E+03 -0.21656092869E+03  0.40410169811E+03  0.90999322093E+02 0.  0.
          3    1    3    3  502    0 -0.14395980945E+03 -0.44806181748E+02 -0.15650845947E+03  0.21731755231E+03  0.00000000000E+00 0. -1.
         -4    1    3    3    0  502 -0.10453620069E+03 -0.97486718276E+01 -0.33803967097E+02  0.11029760672E+03  0.00000000000E+00 0.  1.
         13    1    5    5    0    0  0.80296649658E+02  0.41527279827E+02 -0.72870970924E+02  0.11611307127E+03  0.00000000000E+00 0. -1.
        -13    1    5    5    0    0  0.47061857147E+03  0.14210619624E+03 -0.18246328204E+03  0.52437473253E+03  0.00000000000E+00 0.  1.
          4    1    6    6  503    0 -0.10213367272E+03 -0.78457841959E+02 -0.47889840766E+02  0.13740581107E+03  0.00000000000E+00 0. -1.
         -4    1    6    6    0  503 -0.20028553827E+03 -0.50620780536E+02 -0.16867108792E+03  0.26669588704E+03  0.00000000000E+00 0.  1.
<mgrwt>
<rscale>  0 0.12018430E+04</rscale>
<asrwt>0</asrwt>
<pdfrwt beam="1">  1        1 0.15649325E+00 0.12018430E+04</pdfrwt>
<pdfrwt beam="2">  1       -2 0.54615158E-01 0.12018430E+04</pdfrwt>
<totfact> 0.40151845E+01</totfact>
</mgrwt>
</event>
<event>
12    5  0.5428626E-008  0.1677094E+04  0.7818608E-02  0.8774537E-01
          1   -1    0    0  501    0  0.00000000000E+00  0.00000000000E+00  0.17485247624E+04  0.17485247624E+04  0.00000000000E+00 0. -1.
         -2   -1    0    0    0  501 -0.00000000000E+00 -0.00000000000E+00 -0.40214545698E+03  0.40214545698E+03  0.00000000000E+00 0.  1.
        -24    2    1    2    0    0 -0.62005769835E+02  0.61013707138E+03  0.52873626922E+03  0.81430695968E+03  0.86149990328E+02 0.  0.
        254    2    1    2    0    0  0.62005769835E+02 -0.61013707138E+03  0.81764303621E+03  0.13363632597E+04  0.86093824743E+03 0.  0.
         23    2    4    4    0    0  0.15974546635E+03 -0.60097294126E+02 -0.12913561306E+03  0.23319503288E+03  0.92593833585E+02 0.  0.
         23    2    4    4    0    0 -0.97739696512E+02 -0.55003977725E+03  0.94677864928E+03  0.11031682268E+04  0.92160301375E+02 0.  0.
          3    1    3    3  502    0 -0.23597645874E+02  0.10393722584E+03  0.54965796405E+02  0.11992095138E+03  0.00000000000E+00 0. -1.
         -4    1    3    3    0  502 -0.38408123961E+02  0.50619984554E+03  0.47377047281E+03  0.69438600830E+03  0.00000000000E+00 0.  1.
         13    1    5    5    0    0  0.16294839566E+03 -0.49090036529E+02 -0.13767671550E+03  0.21889926753E+03  0.00000000000E+00 0. -1.
        -13    1    5    5    0    0 -0.32029293089E+01 -0.11007257597E+02  0.85411024411E+01  0.14295765347E+02  0.00000000000E+00 0.  1.
          4    1    6    6  503    0 -0.79258780384E+02 -0.36918018711E+03  0.71516323481E+03  0.80872394378E+03  0.00000000000E+00 0. -1.
         -4    1    6    6    0  503 -0.18480916128E+02 -0.18085959014E+03  0.23161541447E+03  0.29444428306E+03  0.00000000000E+00 0.  1.
<mgrwt>
<rscale>  0 0.16770943E+04</rscale>
<asrwt>0</asrwt>
<pdfrwt beam="1">  1        1 0.26900381E+00 0.16770943E+04</pdfrwt>
<pdfrwt beam="2">  1       -2 0.61868533E-01 0.16770943E+04</pdfrwt>
<totfact> 0.89692872E+00</totfact>
</mgrwt>
</event>
<event>
12    5  0.5428626E-008  0.1361173E+04  0.7818608E-02  0.8982413E-01
          1   -1    0    0  501    0  0.00000000000E+00  0.00000000000E+00  0.82407265076E+03  0.82407265076E+03  0.00000000000E+00 0. -1.
         -2   -1    0    0    0  501 -0.00000000000E+00 -0.00000000000E+00 -0.56208388665E+03  0.56208388665E+03  0.00000000000E+00 0.  1.
        -24    2    1    2    0    0 -0.25321922980E+03 -0.21942391015E+03  0.26085272341E+03  0.42881089826E+03  0.59731168284E+02 0.  0.
        254    2    1    2    0    0  0.25321922980E+03  0.21942391015E+03  0.11360406943E+01  0.95734563916E+03  0.89679571338E+03 0.  0.
         23    2    4    4    0    0  0.89053634245E+01  0.35350004659E+02 -0.41796655977E+03  0.43018944940E+03  0.95068338385E+02 0.  0.
         23    2    4    4    0    0  0.24431386637E+03  0.18407390550E+03  0.41910260046E+03  0.52715618976E+03  0.93135335401E+02 0.  0.
          1    1    3    3  502    0 -0.15454230211E+03 -0.13000743851E+03  0.19304635910E+03  0.27937815585E+03  0.00000000000E+00 0. -1.
         -2    1    3    3    0  502 -0.98676927690E+02 -0.89416471647E+02  0.67806364319E+02  0.14943274240E+03  0.00000000000E+00 0.  1.
         13    1    5    5    0    0 -0.25916229699E+02 -0.19786117036E+02 -0.20124801916E+03  0.20387228013E+03  0.00000000000E+00 0. -1.
        -13    1    5    5    0    0  0.34821593124E+02  0.55136121695E+02 -0.21671854060E+03  0.22631716926E+03  0.00000000000E+00 0.  1.
          1    1    6    6  503    0  0.67900839583E+02  0.71552854276E+02  0.72990883305E+02  0.12271105906E+03  0.00000000000E+00 0. -1.
         -1    1    6    6    0  503  0.17641302679E+03  0.11252105122E+03  0.34611171716E+03  0.40444513069E+03  0.00000000000E+00 0.  1.
<mgrwt>
<rscale>  0 0.13611730E+04</rscale>
<asrwt>0</asrwt>
<pdfrwt beam="1">  1        1 0.12678041E+00 0.13611730E+04</pdfrwt>
<pdfrwt beam="2">  1       -2 0.86474444E-01 0.13611730E+04</pdfrwt>
<totfact> 0.20921515E+01</totfact>
</mgrwt>
</event>
<event>
12    5  0.5428626E-008  0.1652188E+04  0.7818608E-02  0.8789113E-01
         -2   -1    0    0    0  501 -0.00000000000E+00  0.00000000000E+00  0.18480886040E+03  0.18480886040E+03  0.00000000000E+00 0.  1.
          1   -1    0    0  501    0  0.00000000000E+00 -0.00000000000E+00 -0.36926327402E+04  0.36926327402E+04  0.00000000000E+00 0. -1.
        -24    2    1    2    0    0 -0.34686760220E+03  0.46084691976E+03 -0.12066647228E+04  0.13396641485E+04  0.77222152419E+02 0.  0.
        254    2    1    2    0    0  0.34686760220E+03 -0.46084691976E+03 -0.23011591570E+04  0.25377774520E+04  0.90126794750E+03 0.  0.
         23    2    4    4    0    0  0.59066389981E+03 -0.43339256863E+03 -0.12226400733E+04  0.14283344056E+04  0.92614602070E+02 0.  0.
         23    2    4    4    0    0 -0.24379629761E+03 -0.27454351136E+02 -0.10785190838E+04  0.11094430464E+04  0.86429642070E+02 0.  0.
          3    1    3    3  502    0 -0.23581477981E+03  0.28670735353E+03 -0.69597213210E+03  0.78878826411E+03  0.00000000000E+00 0. -1.
         -4    1    3    3    0  502 -0.11105282239E+03  0.17413956623E+03 -0.51069259065E+03  0.55087588442E+03  0.00000000000E+00 0.  1.
         13    1    5    5    0    0  0.16488307922E+03 -0.72852082976E+02 -0.31486248609E+03  0.36281157776E+03  0.00000000000E+00 0.  1.
        -13    1    5    5    0    0  0.42578082059E+03 -0.36054048565E+03 -0.90777758716E+03  0.10655228279E+04  0.00000000000E+00 0. -1.
          4    1    6    6  503    0 -0.21761367594E+03 -0.52428784081E+02 -0.91792742729E+03  0.94482551359E+03  0.00000000000E+00 0. -1.
         -4    1    6    6    0  503 -0.26182621666E+02  0.24974432946E+02 -0.16059165647E+03  0.16461753280E+03  0.00000000000E+00 0.  1.
<mgrwt>
<rscale>  0 0.16521879E+04</rscale>
<asrwt>0</asrwt>
<pdfrwt beam="1">  1        1 0.56809740E+00 0.16521879E+04</pdfrwt>
<pdfrwt beam="2">  1       -2 0.28432130E-01 0.16521879E+04</pdfrwt>
<totfact> 0.16817510E+00</totfact>
</mgrwt>
</event>
<event>
12    5  0.5428626E-008  0.3294178E+04  0.7818608E-02  0.8164378E-01
         -2   -1    0    0    0  501 -0.00000000000E+00  0.00000000000E+00  0.17131181856E+04  0.17131181856E+04  0.00000000000E+00 0.  1.
          1   -1    0    0  501    0  0.00000000000E+00 -0.00000000000E+00 -0.15836050139E+04  0.15836050139E+04  0.00000000000E+00 0. -1.
        -24    2    1    2    0    0  0.82350404049E+03  0.86479941164E+03 -0.88647425477E+03  0.14893716314E+04  0.79714020187E+02 0.  0.
        254    2    1    2    0    0 -0.82350404049E+03 -0.86479941164E+03  0.10159874264E+04  0.18073515681E+04  0.89902853838E+03 0.  0.
         23    2    4    4    0    0 -0.49796931179E+03 -0.87536095778E+02  0.76820891299E+03  0.92429421823E+03  0.92405975449E+02 0.  0.
         23    2    4    4    0    0 -0.32553472870E+03 -0.77726331586E+03  0.24777851345E+03  0.88305734984E+03  0.91021808413E+02 0.  0.
          1    1    3    3  502    0  0.47817987226E+03  0.48853462642E+03 -0.55480168027E+03  0.88041295758E+03  0.00000000000E+00 0. -1.
         -2    1    3    3    0  502  0.34532416823E+03  0.37626478522E+03 -0.33167257450E+03  0.60895867383E+03  0.00000000000E+00 0.  1.
         13    1    5    5    0    0 -0.28908707027E+03 -0.72963169288E+01  0.46198926685E+03  0.54503087355E+03  0.00000000000E+00 0. -1.
        -13    1    5    5    0    0 -0.20888224152E+03 -0.80239778849E+02  0.30621964614E+03  0.37926334467E+03  0.00000000000E+00 0.  1.
          4    1    6    6  503    0 -0.18924194921E+03 -0.55197899140E+03  0.18797082796E+03  0.61304677998E+03  0.00000000000E+00 0. -1.
         -4    1    6    6    0  503 -0.13629277950E+03 -0.22528432446E+03  0.59807685493E+02  0.27001056986E+03  0.00000000000E+00 0.  1.
<mgrwt>
<rscale>  0 0.32941782E+04</rscale>
<asrwt>0</asrwt>
<pdfrwt beam="1">  1        1 0.24363154E+00 0.32941782E+04</pdfrwt>
<pdfrwt beam="2">  1       -2 0.26355664E+00 0.32941782E+04</pdfrwt>
<totfact> 0.22159857E-01</totfact>
</mgrwt>
</event>
<event>
12    5  0.5428626E-008  0.2624416E+04  0.7818608E-02  0.8359955E-01
         -2   -1    0    0    0  501 -0.00000000000E+00  0.00000000000E+00  0.18294053812E+04  0.18294053812E+04  0.00000000000E+00 0.  1.
          1   -1    0    0  501    0  0.00000000000E+00 -0.00000000000E+00 -0.94122899130E+03  0.94122899130E+03  0.00000000000E+00 0. -1.
        -24    2    1    2    0    0  0.23142098209E+03 -0.72912656507E+03 -0.52742400573E+03  0.93254850993E+03  0.79305880737E+02 0.  0.
        254    2    1    2    0    0 -0.23142098209E+03  0.72912656507E+03  0.14156003956E+04  0.18380858626E+04  0.88851220545E+03 0.  0.
         23    2    4    4    0    0 -0.26608094788E+03  0.39396050308E+03  0.14085860175E+04  0.14893864267E+04  0.90296238009E+02 0.  0.
         23    2    4    4    0    0  0.34659965786E+02  0.33516606199E+03  0.70143781139E+01  0.34869943584E+03  0.89467830622E+02 0.  0.
          1    1    3    3  502    0  0.58919440550E+02 -0.13752847142E+03 -0.70506282907E+02  0.16539866038E+03  0.00000000000E+00 0. -1.
         -2    1    3    3    0  502  0.17250154155E+03 -0.59159809365E+03 -0.45691772282E+03  0.76714984955E+03  0.00000000000E+00 0.  1.
         13    1    5    5    0    0 -0.26583901564E+01  0.42545582055E+01  0.78241751372E+00  0.50774482679E+01  0.00000000000E+00 0. -1.
        -13    1    5    5    0    0 -0.26342255772E+03  0.38970594488E+03  0.14078036000E+04  0.14843089785E+04  0.00000000000E+00 0.  1.
          1    1    6    6  503    0 -0.10820530088E+02  0.10728524005E+03  0.37866935442E+02  0.11428521954E+03  0.00000000000E+00 0. -1.
         -1    1    6    6    0  503  0.45480495874E+02  0.22788082193E+03 -0.30852557328E+02  0.23441421630E+03  0.00000000000E+00 0.  1.
<mgrwt>
<rscale>  0 0.26244157E+04</rscale>
<asrwt>0</asrwt>
<pdfrwt beam="1">  1        1 0.14480446E+00 0.26244157E+04</pdfrwt>
<pdfrwt beam="2">  1       -2 0.28144698E+00 0.26244157E+04</pdfrwt>
<totfact> 0.53586337E-01</totfact>
</mgrwt>
</event>
<event>
12    5  0.5428626E-008  0.1322485E+04  0.7818608E-02  0.9011922E-01
          1   -1    0    0  501    0  0.00000000000E+00  0.00000000000E+00  0.10404191305E+04  0.10404191305E+04  0.00000000000E+00 0. -1.
         -2   -1    0    0    0  501 -0.00000000000E+00 -0.00000000000E+00 -0.42025554035E+03  0.42025554035E+03  0.00000000000E+00 0.  1.
        -24    2    1    2    0    0  0.31735559395E+03  0.46884411492E+02  0.39599916142E+03  0.51605420186E+03  0.81141126205E+02 0.  0.
        254    2    1    2    0    0 -0.31735559395E+03 -0.46884411492E+02  0.22416442875E+03  0.94462046901E+03  0.85973566770E+03 0.  0.
         23    2    4    4    0    0 -0.14432940978E+03 -0.44005028452E+03  0.57288077517E+02  0.47528259867E+03  0.90201958623E+02 0.  0.
         23    2    4    4    0    0 -0.17302618417E+03  0.39316587303E+03  0.16687635124E+03  0.46933787034E+03  0.88954234404E+02 0.  0.
          3    1    3    3  502    0  0.26247142687E+03  0.62127919294E+02  0.35513465669E+03  0.44595039260E+03  0.00000000000E+00 0. -1.
         -4    1    3    3    0  502  0.54884167080E+02 -0.15243507802E+02  0.40864504735E+02  0.70103809265E+02  0.00000000000E+00 0.  1.
         13    1    5    5    0    0 -0.65630998511E+02 -0.29619070581E+03  0.68182215862E+02  0.31094240099E+03  0.00000000000E+00 0. -1.
        -13    1    5    5    0    0 -0.78698411273E+02 -0.14385957871E+03 -0.10894138345E+02  0.16434019768E+03  0.00000000000E+00 0.  1.
          4    1    6    6  503    0 -0.17055742505E+03  0.32810603469E+03  0.11879464571E+03  0.38840130419E+03  0.00000000000E+00 0. -1.
         -4    1    6    6    0  503 -0.24687591117E+01  0.65059838332E+02  0.48081705525E+02  0.80936566159E+02  0.00000000000E+00 0.  1.
<mgrwt>
<rscale>  0 0.13224854E+04</rscale>
<asrwt>0</asrwt>
<pdfrwt beam="1">  1        1 0.16006448E+00 0.13224854E+04</pdfrwt>
<pdfrwt beam="2">  1       -2 0.64654699E-01 0.13224854E+04</pdfrwt>
<totfact> 0.26733303E+01</totfact>
</mgrwt>
</event>
<event>
12    5  0.5428626E-008  0.1710600E+04  0.7818608E-02  0.8755342E-01
          1   -1    0    0  501    0  0.00000000000E+00  0.00000000000E+00  0.17054709664E+04  0.17054709664E+04  0.00000000000E+00 0. -1.
         -2   -1    0    0    0  501 -0.00000000000E+00 -0.00000000000E+00 -0.42893610782E+03  0.42893610782E+03  0.00000000000E+00 0.  1.
        -24    2    1    2    0    0 -0.28199552391E+02 -0.10711969941E+03 -0.29074520170E+03  0.32082110631E+03  0.78253211998E+02 0.  0.
        254    2    1    2    0    0  0.28199552391E+02  0.10711969941E+03  0.15672800603E+04  0.18135859679E+04  0.90579105257E+03 0.  0.
         23    2    4    4    0    0  0.20313003308E+03 -0.29038008446E+03  0.30766007173E+03  0.47800781111E+03  0.90853420153E+02 0.  0.
         23    2    4    4    0    0 -0.17493048069E+03  0.39749978387E+03  0.12596199886E+04  0.13355781568E+04  0.92302470860E+02 0.  0.
          3    1    3    3  502    0 -0.10375960204E+01 -0.73391170241E+02 -0.93447673435E+02  0.11882679894E+03  0.00000000000E+00 0. -1.
         -4    1    3    3    0  502 -0.27161956370E+02 -0.33728529168E+02 -0.19729752826E+03  0.20199430737E+03  0.00000000000E+00 0.  1.
         13    1    5    5    0    0  0.78796876136E+02 -0.17387231857E+03  0.19987464067E+03  0.27638813802E+03  0.00000000000E+00 0. -1.
        -13    1    5    5    0    0  0.12433315695E+03 -0.11650776589E+03  0.10778543106E+03  0.20161967310E+03  0.00000000000E+00 0.  1.
          3    1    6    6  503    0 -0.96432012423E+02  0.21007290178E+03  0.53047449955E+03  0.57864751944E+03  0.00000000000E+00 0. -1.
         -3    1    6    6    0  503 -0.78498468269E+02  0.18742688210E+03  0.72914548903E+03  0.75693063739E+03  0.00000000000E+00 0.  1.
<mgrwt>
<rscale>  0 0.17106000E+04</rscale>
<asrwt>0</asrwt>
<pdfrwt beam="1">  1        1 0.26238015E+00 0.17106000E+04</pdfrwt>
<pdfrwt beam="2">  1       -2 0.65990171E-01 0.17106000E+04</pdfrwt>
<totfact> 0.83329108E+00</totfact>
</mgrwt>
</event>
<event>
12    5  0.5428626E-008  0.1229243E+04  0.7818608E-02  0.9087638E-01
          1   -1    0    0  501    0  0.00000000000E+00  0.00000000000E+00  0.12012340359E+04  0.12012340359E+04  0.00000000000E+00 0. -1.
         -2   -1    0    0    0  501 -0.00000000000E+00 -0.00000000000E+00 -0.31447642083E+03  0.31447642083E+03  0.00000000000E+00 0.  1.
        -24    2    1    2    0    0 -0.94743446716E+02  0.24620885037E+03  0.21319402562E+03  0.34732330625E+03  0.74744015186E+02 0.  0.
        254    2    1    2    0    0  0.94743446716E+02 -0.24620885037E+03  0.67356358945E+03  0.11683871505E+04  0.91752139249E+03 0.  0.
         23    2    4    4    0    0 -0.13871640447E+03 -0.20906619631E+02 -0.18272267062E+03  0.24807536361E+03  0.92056960950E+02 0.  0.
         23    2    4    4    0    0  0.23345985118E+03 -0.22530223074E+03  0.85628626007E+03  0.92031178686E+03  0.92103358036E+02 0.  0.
          1    1    3    3  502    0 -0.41457187045E+02  0.18424654792E+03  0.17357306264E+03  0.25650165078E+03  0.00000000000E+00 0. -1.
         -2    1    3    3    0  502 -0.53286259671E+02  0.61962302454E+02  0.39620962983E+02  0.90821655473E+02  0.00000000000E+00 0.  1.
         13    1    5    5    0    0 -0.12845657222E+03 -0.35381554602E+02 -0.10869776253E+03  0.17195391514E+03  0.00000000000E+00 0.  1.
        -13    1    5    5    0    0 -0.10259832251E+02  0.14474934971E+02 -0.74024908088E+02  0.76121448474E+02  0.00000000000E+00 0. -1.
          3    1    6    6  503    0  0.16101228829E+03 -0.20531636180E+03  0.69537135808E+03  0.74271198391E+03  0.00000000000E+00 0.  1.
         -3    1    6    6    0  503  0.72447562896E+02 -0.19985868939E+02  0.16091490199E+03  0.17759980295E+03  0.00000000000E+00 0. -1.
<mgrwt>
<rscale>  0 0.12292433E+04</rscale>
<asrwt>0</asrwt>
<pdfrwt beam="1">  1        1 0.18480523E+00 0.12292433E+04</pdfrwt>
<pdfrwt beam="2">  1       -2 0.48380989E-01 0.12292433E+04</pdfrwt>
<totfact> 0.37372325E+01</totfact>
</mgrwt>
</event>
<event>
12    5  0.5428626E-008  0.2725588E+04  0.7818608E-02  0.8326750E-01
          1   -1    0    0  501    0  0.00000000000E+00  0.00000000000E+00  0.15701649099E+04  0.15701649099E+04  0.00000000000E+00 0. -1.
         -2   -1    0    0    0  501 -0.00000000000E+00 -0.00000000000E+00 -0.11828108573E+04  0.11828108573E+04  0.00000000000E+00 0.  1.
        -24    2    1    2    0    0  0.87717075524E+03 -0.20510028198E+03 -0.65315636549E+03  0.11155032852E+04  0.78991657786E+02 0.  0.
        254    2    1    2    0    0 -0.87717075524E+03  0.20510028198E+03  0.10405104180E+04  0.16374724820E+04  0.88722011914E+03 0.  0.
         23    2    4    4    0    0 -0.57567059633E+03  0.47814721232E+03  0.35200598417E+03  0.83256747825E+03  0.96119721288E+02 0.  0.
         23    2    4    4    0    0 -0.30150015891E+03 -0.27304693034E+03  0.68850443386E+03  0.80490500376E+03  0.91524519345E+02 0.  0.
          1    1    3    3  502    0  0.28087598577E+03 -0.83692134422E+02 -0.25319218518E+03  0.38730088482E+03  0.00000000000E+00 0. -1.
         -2    1    3    3    0  502  0.59629476947E+03 -0.12140814755E+03 -0.39996418031E+03  0.72820240038E+03  0.00000000000E+00 0.  1.
         13    1    5    5    0    0 -0.19267358484E+03  0.18711006567E+03  0.17215675791E+03  0.31901604390E+03  0.00000000000E+00 0. -1.
        -13    1    5    5    0    0 -0.38299701149E+03  0.29103714664E+03  0.17984922626E+03  0.51355143435E+03  0.00000000000E+00 0.  1.
          3    1    6    6  503    0 -0.27627385672E+03 -0.20917434468E+03  0.54538809494E+03  0.64616509073E+03  0.00000000000E+00 0. -1.
         -3    1    6    6    0  503 -0.25226302182E+02 -0.63872585662E+02  0.14311633893E+03  0.15873991303E+03  0.00000000000E+00 0.  1.
<mgrwt>
<rscale>  0 0.27255885E+04</rscale>
<asrwt>0</asrwt>
<pdfrwt beam="1">  1        1 0.24156383E+00 0.27255885E+04</pdfrwt>
<pdfrwt beam="2">  1       -2 0.18197090E+00 0.27255885E+04</pdfrwt>
<totfact> 0.78680446E-01</totfact>
</mgrwt>
</event>
<event>
12    5  0.5688071E-008  0.2449748E+04  0.7818608E-02  0.8421110E-01
          1   -1    0    0  501    0  0.00000000000E+00  0.00000000000E+00  0.16535972559E+04  0.16535972559E+04  0.00000000000E+00 0. -1.
         -2   -1    0    0    0  501 -0.00000000000E+00 -0.00000000000E+00 -0.90730476414E+03  0.90730476414E+03  0.00000000000E+00 0.  1.
        -24    2    1    2    0    0 -0.20892857445E+03 -0.82032038181E+03 -0.34012007041E+03  0.91529263411E+03  0.74177258811E+02 0.  0.
        254    2    1    2    0    0  0.20892857445E+03  0.82032038181E+03  0.10864125621E+04  0.16456093859E+04  0.90064494543E+03 0.  0.
         23    2    4    4    0    0  0.25739252511E+03  0.49048244919E+03  0.61677869057E+02  0.56406342236E+03  0.86829948539E+02 0.  0.
         23    2    4    4    0    0 -0.48463950656E+02  0.32983793261E+03  0.10247346931E+04  0.10815459635E+04  0.92296607331E+02 0.  0.
          1    1    3    3  502    0 -0.84624943944E+02 -0.25902085344E+03 -0.14155548798E+03  0.30706862398E+03  0.00000000000E+00 0. -1.
         -2    1    3    3    0  502 -0.12430363051E+03 -0.56129952837E+03 -0.19856458243E+03  0.60822401013E+03  0.00000000000E+00 0.  1.
         13    1    5    5    0    0  0.22903253418E+03  0.40190165910E+03  0.22466372524E+02  0.46312588266E+03  0.00000000000E+00 0.  1.
        -13    1    5    5    0    0  0.28359990929E+02  0.88580790096E+02  0.39211496533E+02  0.10093753970E+03  0.00000000000E+00 0. -1.
          3    1    6    6  503    0 -0.19928628682E+02  0.41756824423E+02  0.70182424442E+02  0.84061616256E+02  0.00000000000E+00 0. -1.
         -3    1    6    6    0  503 -0.28535321973E+02  0.28808110819E+03  0.95455226864E+03  0.99748434728E+03  0.00000000000E+00 0.  1.
<mgrwt>
<rscale>  0 0.24497483E+04</rscale>
<asrwt>0</asrwt>
<pdfrwt beam="1">  1        1 0.25439958E+00 0.24497483E+04</pdfrwt>
<pdfrwt beam="2">  1       -2 0.13958535E+00 0.24497483E+04</pdfrwt>
<totfact> 0.14543667E+00</totfact>
</mgrwt>
</event>
<event>
12    5  0.5428626E-008  0.3287678E+04  0.7818608E-02  0.8166038E-01
          1   -1    0    0  501    0  0.00000000000E+00  0.00000000000E+00  0.14893342944E+04  0.14893342944E+04  0.00000000000E+00 0. -1.
         -2   -1    0    0    0  501 -0.00000000000E+00 -0.00000000000E+00 -0.18143724324E+04  0.18143724324E+04  0.00000000000E+00 0.  1.
        -24    2    1    2    0    0  0.31844235870E+03 -0.14247547570E+04 -0.54943726990E+03  0.15619933109E+04  0.81302744708E+02 0.  0.
        254    2    1    2    0    0 -0.31844235870E+03  0.14247547570E+04  0.22439913187E+03  0.17417134159E+04  0.92297291378E+03 0.  0.
         23    2    4    4    0    0 -0.13765109056E+03  0.92179034177E+03 -0.30418310239E+03  0.98453319709E+03  0.90183144099E+02 0.  0.
         23    2    4    4    0    0 -0.18079126814E+03  0.50296441521E+03  0.52858223426E+03  0.75718021886E+03  0.90906654629E+02 0.  0.
          1    1    3    3  502    0  0.13581853060E+03 -0.72160267714E+03 -0.31054731682E+03  0.79724320812E+03  0.00000000000E+00 0. -1.
         -2    1    3    3    0  502  0.18262382810E+03 -0.70315207983E+03 -0.23888995308E+03  0.76475010274E+03  0.00000000000E+00 0.  1.
         13    1    5    5    0    0 -0.67541458661E+02  0.26646471614E+03 -0.12202429214E+03  0.30075774546E+03  0.00000000000E+00 0.  1.
        -13    1    5    5    0    0 -0.70109631901E+02  0.65532562563E+03 -0.18215881026E+03  0.68377545162E+03  0.00000000000E+00 0. -1.
          1    1    6    6  503    0 -0.15473524850E+03  0.35463923472E+03  0.33411256593E+03  0.51121736144E+03  0.00000000000E+00 0. -1.
         -1    1    6    6    0  503 -0.26056019635E+02  0.14832518049E+03  0.19446966833E+03  0.24596285742E+03  0.00000000000E+00 0.  1.
<mgrwt>
<rscale>  0 0.32876783E+04</rscale>
<asrwt>0</asrwt>
<pdfrwt beam="1">  1        1 0.22912835E+00 0.32876783E+04</pdfrwt>
<pdfrwt beam="2">  1       -2 0.27913422E+00 0.32876783E+04</pdfrwt>
<totfact> 0.20689232E-01</totfact>
</mgrwt>
</event>
<event>
12    5  0.5428626E-008  0.2424964E+04  0.7818608E-02  0.8430216E-01
         -2   -1    0    0    0  501 -0.00000000000E+00  0.00000000000E+00  0.80270441277E+03  0.80270441277E+03  0.00000000000E+00 0.  1.
          1   -1    0    0  501    0  0.00000000000E+00 -0.00000000000E+00 -0.18314491626E+04  0.18314491626E+04  0.00000000000E+00 0. -1.
        -24    2    1    2    0    0 -0.21771436880E+03 -0.92402031215E+03 -0.90882484255E+03  0.13166086262E+04  0.79262831332E+02 0.  0.
        254    2    1    2    0    0  0.21771436880E+03  0.92402031215E+03 -0.11991990732E+03  0.13175449492E+04  0.90572116318E+03 0.  0.
         23    2    4    4    0    0 -0.16280180502E+03  0.89682417107E+03 -0.13122333448E+03  0.92544343898E+03  0.91803996192E+02 0.  0.
         23    2    4    4    0    0  0.38051617382E+03  0.27196141081E+02  0.11303427163E+02  0.39210151025E+03  0.89909055388E+02 0.  0.
          3    1    3    3  502    0 -0.17985010139E+02 -0.10664066045E+03 -0.72144560029E+02  0.13000203304E+03  0.00000000000E+00 0. -1.
         -4    1    3    3    0  502 -0.19972935866E+03 -0.81737965169E+03 -0.83668028252E+03  0.11866065931E+04  0.00000000000E+00 0.  1.
         13    1    5    5    0    0 -0.17125348743E+03  0.84832315753E+03 -0.13569150663E+03  0.87600920174E+03  0.00000000000E+00 0. -1.
        -13    1    5    5    0    0  0.84516824069E+01  0.48501013539E+02  0.44681721512E+01  0.49434237247E+02  0.00000000000E+00 0.  1.
          1    1    6    6  503    0  0.38064497567E+03  0.16511731219E+02  0.13283429637E+02  0.38123442168E+03  0.00000000000E+00 0. -1.
         -1    1    6    6    0  503 -0.12880185078E+00  0.10684409862E+02 -0.19800024739E+01  0.10867088562E+02  0.00000000000E+00 0.  1.
<mgrwt>
<rscale>  0 0.24249638E+04</rscale>
<asrwt>0</asrwt>
<pdfrwt beam="1">  1        1 0.28176141E+00 0.24249638E+04</pdfrwt>
<pdfrwt beam="2">  1       -2 0.12349299E+00 0.24249638E+04</pdfrwt>
<totfact> 0.15059341E+00</totfact>
</mgrwt>
</event>
<event>
12    5  0.5428626E-008  0.1716319E+04  0.7818608E-02  0.8752112E-01
         -2   -1    0    0    0  501 -0.00000000000E+00  0.00000000000E+00  0.74941528144E+03  0.74941528144E+03  0.00000000000E+00 0.  1.
          1   -1    0    0  501    0  0.00000000000E+00 -0.00000000000E+00 -0.98268275623E+03  0.98268275623E+03  0.00000000000E+00 0. -1.
        -24    2    1    2    0    0 -0.61259239282E+03  0.60440582090E+02 -0.95714926391E+02  0.62806101580E+03  0.79854797838E+02 0.  0.
        254    2    1    2    0    0  0.61259239282E+03 -0.60440582090E+02 -0.13755254839E+03  0.11040370219E+04  0.90612059814E+03 0.  0.
         23    2    4    4    0    0 -0.54430287698E+02 -0.16616839706E+03 -0.33818552685E+03  0.39346706364E+03  0.99359384052E+02 0.  0.
         23    2    4    4    0    0  0.66702268051E+03  0.10572781497E+03  0.20063297845E+03  0.71056995823E+03  0.92511871199E+02 0.  0.
          1    1    3    3  502    0 -0.47678752777E+03  0.75881357701E+02 -0.57907292633E+02  0.48624847724E+03  0.00000000000E+00 0. -1.
         -2    1    3    3    0  502 -0.13580486505E+03 -0.15440775611E+02 -0.37807633758E+02  0.14181253856E+03  0.00000000000E+00 0.  1.
         13    1    5    5    0    0 -0.94589378949E+01 -0.86814283881E+01 -0.11981743425E+03  0.12050334541E+03  0.00000000000E+00 0. -1.
        -13    1    5    5    0    0 -0.44971349803E+02 -0.15748696867E+03 -0.21836809260E+03  0.27296371823E+03  0.00000000000E+00 0.  1.
          4    1    6    6  503    0  0.72490010683E+02 -0.16603351270E+02  0.15367754159E+02  0.75938401287E+02  0.00000000000E+00 0. -1.
         -4    1    6    6    0  503  0.59453266983E+03  0.12233116624E+03  0.18526522430E+03  0.63463155694E+03  0.00000000000E+00 0.  1.
<mgrwt>
<rscale>  0 0.17163187E+04</rscale>
<asrwt>0</asrwt>
<pdfrwt beam="1">  1        1 0.15118196E+00 0.17163187E+04</pdfrwt>
<pdfrwt beam="2">  1       -2 0.11529466E+00 0.17163187E+04</pdfrwt>
<totfact> 0.76207698E+00</totfact>
</mgrwt>
</event>
<event>
12    5  0.5428626E-008  0.1528442E+04  0.7818608E-02  0.8865757E-01
          1   -1    0    0  501    0  0.00000000000E+00  0.00000000000E+00  0.29027569174E+04  0.29027569174E+04  0.00000000000E+00 0. -1.
         -2   -1    0    0    0  501 -0.00000000000E+00 -0.00000000000E+00 -0.20119968607E+03  0.20119968607E+03  0.00000000000E+00 0.  1.
        -24    2    1    2    0    0  0.18204992225E+03  0.19533778189E+03  0.38684720950E+02  0.28025738547E+03  0.75819992439E+02 0.  0.
        254    2    1    2    0    0 -0.18204992225E+03 -0.19533778189E+03  0.26628725103E+04  0.28236992180E+04  0.90060437706E+03 0.  0.
         23    2    4    4    0    0  0.69683402795E+02 -0.13142908341E+03  0.30649334813E+02  0.17712750270E+03  0.91133911905E+02 0.  0.
         23    2    4    4    0    0 -0.25173332504E+03 -0.63908698483E+02  0.26322231755E+04  0.26465717153E+04  0.91043997945E+02 0.  0.
          1    1    3    3  502    0  0.13008853173E+03  0.98183307015E+02  0.47405157396E+02  0.16973578530E+03  0.00000000000E+00 0. -1.
         -2    1    3    3    0  502  0.51961390515E+02  0.97154474875E+02 -0.87204364455E+01  0.11052160017E+03  0.00000000000E+00 0.  1.
         13    1    5    5    0    0  0.70614105927E+02 -0.54564885187E+02 -0.10638333662E+02  0.89871312411E+02  0.00000000000E+00 0.  1.
        -13    1    5    5    0    0 -0.93070313136E+00 -0.76864198219E+02  0.41287668475E+02  0.87256190292E+02  0.00000000000E+00 0. -1.
          3    1    6    6  503    0 -0.59896016266E+02  0.11772642943E+02  0.91005668299E+03  0.91210158104E+03  0.00000000000E+00 0. -1.
         -3    1    6    6    0  503 -0.19183730878E+03 -0.75681341427E+02  0.17221664925E+04  0.17344701342E+04  0.00000000000E+00 0.  1.
<mgrwt>
<rscale>  0 0.15284421E+04</rscale>
<asrwt>0</asrwt>
<pdfrwt beam="1">  1        1 0.44657796E+00 0.15284421E+04</pdfrwt>
<pdfrwt beam="2">  1       -2 0.30953800E-01 0.15284421E+04</pdfrwt>
<totfact> 0.57930813E+00</totfact>
</mgrwt>
</event>
<event>
12    5  0.5937636E-008  0.2774116E+04  0.7818608E-02  0.8311350E-01
         -2   -1    0    0    0  501 -0.00000000000E+00  0.00000000000E+00  0.12416245725E+04  0.12416245725E+04  0.00000000000E+00 0.  1.
          1   -1    0    0  501    0  0.00000000000E+00 -0.00000000000E+00 -0.15495258829E+04  0.15495258829E+04  0.00000000000E+00 0. -1.
        -24    2    1    2    0    0  0.12002874400E+04 -0.10375945143E+03 -0.43418653446E+03  0.12827800830E+04  0.74503907081E+02 0.  0.
        254    2    1    2    0    0 -0.12002874400E+04  0.10375945143E+03  0.12628522409E+03  0.15083703725E+04  0.89876429630E+03 0.  0.
         23    2    4    4    0    0 -0.29303382078E+03  0.33542029588E+03 -0.22098292312E+03  0.50555407162E+03  0.91519790277E+02 0.  0.
         23    2    4    4    0    0 -0.90725361923E+03 -0.23166084445E+03  0.34726814722E+03  0.10028163008E+04  0.90936740115E+02 0.  0.
          3    1    3    3  502    0  0.10662381966E+04 -0.10144494541E+03 -0.36240760850E+03  0.11307051974E+04  0.00000000000E+00 0. -1.
         -4    1    3    3    0  502  0.13404924343E+03 -0.23145060168E+01 -0.71778925964E+02  0.15207488555E+03  0.00000000000E+00 0.  1.
         13    1    5    5    0    0 -0.27808079318E+03  0.27712753599E+03 -0.17506257578E+03  0.42985521304E+03  0.00000000000E+00 0. -1.
        -13    1    5    5    0    0 -0.14953027596E+02  0.58292759892E+02 -0.45920347347E+02  0.75698858581E+02  0.00000000000E+00 0.  1.
          3    1    6    6  503    0 -0.81625660052E+03 -0.23538832325E+03  0.31933235432E+03  0.90755476591E+03  0.00000000000E+00 0. -1.
         -3    1    6    6    0  503 -0.90997018713E+02  0.37274787950E+01  0.27935792897E+02  0.95261534932E+02  0.00000000000E+00 0.  1.
<mgrwt>
<rscale>  0 0.27741157E+04</rscale>
<asrwt>0</asrwt>
<pdfrwt beam="1">  1        1 0.23838860E+00 0.27741157E+04</pdfrwt>
<pdfrwt beam="2">  1       -2 0.19101916E+00 0.27741157E+04</pdfrwt>
<totfact> 0.70292850E-01</totfact>
</mgrwt>
</event>
<event>
12    5  0.5428626E-008  0.1477566E+04  0.7818608E-02  0.8899510E-01
         -2   -1    0    0    0  501 -0.00000000000E+00  0.00000000000E+00  0.98295212370E+03  0.98295212370E+03  0.00000000000E+00 0.  1.
          1   -1    0    0  501    0  0.00000000000E+00 -0.00000000000E+00 -0.55526659211E+03  0.55526659211E+03  0.00000000000E+00 0. -1.
        -24    2    1    2    0    0 -0.31753425099E+03 -0.32565369314E+03  0.19471597037E+03  0.50104550339E+03  0.79081976090E+02 0.  0.
        254    2    1    2    0    0  0.31753425099E+03  0.32565369314E+03  0.23296956122E+03  0.10371732124E+04  0.90253815859E+03 0.  0.
         23    2    4    4    0    0  0.36105131057E+03  0.54535692515E+03  0.37169254313E+03  0.75795097271E+03  0.92531647199E+02 0.  0.
         23    2    4    4    0    0 -0.43517059580E+02 -0.21970323201E+03 -0.13872298191E+03  0.27922223972E+03  0.92508101342E+02 0.  0.
          1    1    3    3  502    0 -0.29515680592E+03 -0.31181704792E+03  0.16162526809E+03  0.45877024613E+03  0.00000000000E+00 0. -1.
         -2    1    3    3    0  502 -0.22377445072E+02 -0.13836645222E+02  0.33090702273E+02  0.42275257254E+02  0.00000000000E+00 0.  1.
         13    1    5    5    0    0  0.12230686766E+03  0.23544284982E+03  0.19167489296E+03  0.32730959351E+03  0.00000000000E+00 0. -1.
        -13    1    5    5    0    0  0.23874444291E+03  0.30991407533E+03  0.18001765017E+03  0.43064137920E+03  0.00000000000E+00 0.  1.
          3    1    6    6  503    0 -0.14180769229E+02  0.53174147270E+01 -0.11914216709E+02  0.19269604954E+02  0.00000000000E+00 0. -1.
         -3    1    6    6    0  503 -0.29336290351E+02 -0.22502064674E+03 -0.12680876520E+03  0.25995263477E+03  0.00000000000E+00 0.  1.
<mgrwt>
<rscale>  0 0.14775662E+04</rscale>
<asrwt>0</asrwt>
<pdfrwt beam="1">  1        1 0.85425630E-01 0.14775662E+04</pdfrwt>
<pdfrwt beam="2">  1       -2 0.15122340E+00 0.14775662E+04</pdfrwt>
<totfact> 0.95069313E+00</totfact>
</mgrwt>
</event>
<event>
12    5  0.5428626E-008  0.1125688E+04  0.7818608E-02  0.9180510E-01
          1   -1    0    0  501    0  0.00000000000E+00  0.00000000000E+00  0.38771711034E+04  0.38771711034E+04  0.00000000000E+00 0. -1.
         -2   -1    0    0    0  501 -0.00000000000E+00 -0.00000000000E+00 -0.81707373700E+02  0.81707373700E+02  0.00000000000E+00 0.  1.
        -24    2    1    2    0    0  0.14606504951E+02  0.84137820651E+02  0.12116835826E+04  0.12176798880E+04  0.85291749017E+02 0.  0.
        254    2    1    2    0    0 -0.14606504951E+02 -0.84137820651E+02  0.25837801471E+04  0.27411985891E+04  0.91156861150E+03 0.  0.
         23    2    4    4    0    0  0.31790059046E+03  0.11348939546E+02  0.21660677027E+04  0.21911755936E+04  0.90617909174E+02 0.  0.
         23    2    4    4    0    0 -0.33250709541E+03 -0.95486760197E+02  0.41771244438E+03  0.55002299548E+03  0.91448999403E+02 0.  0.
          1    1    3    3  502    0  0.28723352516E+01  0.49924113560E+02  0.10788957426E+04  0.10800540222E+04  0.00000000000E+00 0. -1.
         -2    1    3    3    0  502  0.11734169700E+02  0.34213707091E+02  0.13278783999E+03  0.13762586581E+03  0.00000000000E+00 0.  1.
         13    1    5    5    0    0  0.13621279073E+03 -0.28089591793E+02  0.11338640361E+04  0.11423618524E+04  0.00000000000E+00 0.  1.
        -13    1    5    5    0    0  0.18168779973E+03  0.39438531339E+02  0.10322036667E+04  0.10488137412E+04  0.00000000000E+00 0. -1.
          2    1    6    6  503    0 -0.20138619459E+03 -0.10356995098E+03  0.26361264709E+03  0.34752663470E+03  0.00000000000E+00 0. -1.
         -2    1    6    6    0  503 -0.13112090082E+03  0.80831907781E+01  0.15409979729E+03  0.20249636078E+03  0.00000000000E+00 0.  1.
<mgrwt>
<rscale>  0 0.11256882E+04</rscale>
<asrwt>0</asrwt>
<pdfrwt beam="1">  1        1 0.59648772E+00 0.11256882E+04</pdfrwt>
<pdfrwt beam="2">  1       -2 0.12570368E-01 0.11256882E+04</pdfrwt>
<totfact> 0.52466779E+00</totfact>
</mgrwt>
</event>
<event>
12    5  0.5428626E-008  0.1721451E+04  0.7818608E-02  0.8749224E-01
         -2   -1    0    0    0  501 -0.00000000000E+00  0.00000000000E+00  0.27732509201E+04  0.27732509201E+04  0.00000000000E+00 0.  1.
          1   -1    0    0  501    0  0.00000000000E+00 -0.00000000000E+00 -0.26714067305E+03  0.26714067305E+03  0.00000000000E+00 0. -1.
        -24    2    1    2    0    0  0.11560956437E+03  0.13669568659E+03  0.19724417480E+04  0.19821304528E+04  0.79141648002E+02 0.  0.
        254    2    1    2    0    0 -0.11560956437E+03 -0.13669568659E+03  0.53366849903E+03  0.10582611404E+04  0.89613798727E+03 0.  0.
         23    2    4    4    0    0 -0.94950857930E+02  0.17120687934E+03 -0.17596807889E+03  0.27829839146E+03  0.90320368386E+02 0.  0.
         23    2    4    4    0    0 -0.20658706443E+02 -0.30790256593E+03  0.70963657791E+03  0.77996274890E+03  0.97606581202E+02 0.  0.
          3    1    3    3  502    0  0.10175818979E+02  0.30590717140E+02  0.73085591456E+03  0.73156661154E+03  0.00000000000E+00 0. -1.
         -4    1    3    3    0  502  0.10543374539E+03  0.10610496945E+03  0.12415858335E+04  0.12505638413E+04  0.00000000000E+00 0.  1.
         13    1    5    5    0    0 -0.83731911452E+02  0.17440224592E+03 -0.13552848721E+03  0.23620996428E+03  0.00000000000E+00 0.  1.
        -13    1    5    5    0    0 -0.11218946477E+02 -0.31953665774E+01 -0.40439591681E+02  0.42088427186E+02  0.00000000000E+00 0. -1.
          4    1    6    6  503    0 -0.52871580614E+02 -0.10408966899E+03  0.23449522078E+03  0.26195051402E+03  0.00000000000E+00 0. -1.
         -4    1    6    6    0  503  0.32212874171E+02 -0.20381289694E+03  0.47514135713E+03  0.51801223487E+03  0.00000000000E+00 0.  1.
<mgrwt>
<rscale>  0 0.17214507E+04</rscale>
<asrwt>0</asrwt>
<pdfrwt beam="1">  1        1 0.41098567E-01 0.17214507E+04</pdfrwt>
<pdfrwt beam="2">  1       -2 0.42665397E+00 0.17214507E+04</pdfrwt>
<totfact> 0.42170885E-01</totfact>
</mgrwt>
</event>
<event>
12    5  0.5428626E-008  0.2466900E+04  0.7818608E-02  0.8414873E-01
         -4   -1    0    0    0  501 -0.00000000000E+00  0.00000000000E+00  0.17628582555E+04  0.17628582555E+04  0.00000000000E+00 0.  1.
          3   -1    0    0  501    0  0.00000000000E+00 -0.00000000000E+00 -0.86302935663E+03  0.86302935663E+03  0.00000000000E+00 0. -1.
        -24    2    1    2    0    0 -0.77202110761E+03  0.50711099313E+03 -0.17973415326E+03  0.94445617759E+03  0.80715274815E+02 0.  0.
        254    2    1    2    0    0  0.77202110761E+03 -0.50711099313E+03  0.10795630521E+04  0.16814314345E+04  0.89920917233E+03 0.  0.
         23    2    4    4    0    0 -0.11830530341E+03 -0.34664763431E+03  0.36461729667E+03  0.52478544716E+03  0.91067366974E+02 0.  0.
         23    2    4    4    0    0  0.89032641102E+03 -0.16046335882E+03  0.71494575546E+03  0.11566459874E+04  0.90845468843E+02 0.  0.
          1    1    3    3  502    0 -0.63137708639E+03  0.40109395452E+03 -0.11491831781E+03  0.75678240290E+03  0.00000000000E+00 0. -1.
         -2    1    3    3    0  502 -0.14064402122E+03  0.10601703861E+03 -0.64815835454E+02  0.18767377469E+03  0.00000000000E+00 0.  1.
         13    1    5    5    0    0 -0.77929272858E+01 -0.15062421337E+03  0.12313101237E+03  0.19470395367E+03  0.00000000000E+00 0. -1.
        -13    1    5    5    0    0 -0.11051237612E+03 -0.19602342094E+03  0.24148628431E+03  0.33008149348E+03  0.00000000000E+00 0.  1.
          1    1    6    6  503    0  0.25825657420E+03 -0.50324749545E+01  0.20612238739E+03  0.33046667382E+03  0.00000000000E+00 0. -1.
         -1    1    6    6    0  503  0.63206983681E+03 -0.15543088386E+03  0.50882336807E+03  0.82617931357E+03  0.00000000000E+00 0.  1.
<mgrwt>
<rscale>  0 0.24668996E+04</rscale>
<asrwt>0</asrwt>
<pdfrwt beam="1">  1        3 0.13277375E+00 0.24668996E+04</pdfrwt>
<pdfrwt beam="2">  1       -4 0.27120896E+00 0.24668996E+04</pdfrwt>
<totfact> 0.41912058E-02</totfact>
</mgrwt>
</event>
<event>
12    5  0.6034988E-008  0.1623378E+04  0.7818608E-02  0.8806313E-01
         -2   -1    0    0    0  501 -0.00000000000E+00  0.00000000000E+00  0.33368765218E+03  0.33368765218E+03  0.00000000000E+00 0.  1.
          1   -1    0    0  501    0  0.00000000000E+00 -0.00000000000E+00 -0.19744195532E+04  0.19744195532E+04  0.00000000000E+00 0. -1.
        -24    2    1    2    0    0  0.45000481087E+03 -0.15148699264E+03 -0.10196825735E+04  0.11275912115E+04  0.79099625853E+02 0.  0.
        254    2    1    2    0    0 -0.45000481087E+03  0.15148699264E+03 -0.62104932754E+03  0.11805159939E+04  0.88456944661E+03 0.  0.
         23    2    4    4    0    0 -0.25702728356E+03  0.49452005256E+01 -0.81331437214E+03  0.85793608440E+03  0.92122621988E+02 0.  0.
         23    2    4    4    0    0 -0.19297752731E+03  0.14654179212E+03  0.19226504460E+03  0.32257990950E+03  0.91526650518E+02 0.  0.
          3    1    3    3  502    0  0.40042051674E+03 -0.10915488839E+03 -0.85294008695E+03  0.94855583484E+03  0.00000000000E+00 0. -1.
         -4    1    3    3    0  502  0.49584294134E+02 -0.42332104253E+02 -0.16674248658E+03  0.17903537669E+03  0.00000000000E+00 0.  1.
         13    1    5    5    0    0 -0.26082351420E+03  0.15294304643E+02 -0.79126816244E+03  0.83328754113E+03  0.00000000000E+00 0.  1.
        -13    1    5    5    0    0  0.37962306386E+01 -0.10349104117E+02 -0.22046209701E+02  0.24648543269E+02  0.00000000000E+00 0. -1.
          1    1    6    6  503    0 -0.19248915450E+03  0.15656416806E+03  0.17901340096E+03  0.30595785828E+03  0.00000000000E+00 0. -1.
         -1    1    6    6    0  503 -0.48837280818E+00 -0.10022375943E+02  0.13251643646E+02  0.16622051223E+02  0.00000000000E+00 0.  1.
<mgrwt>
<rscale>  0 0.16233785E+04</rscale>
<asrwt>0</asrwt>
<pdfrwt beam="1">  1        1 0.30375686E+00 0.16233785E+04</pdfrwt>
<pdfrwt beam="2">  1       -2 0.51336561E-01 0.16233785E+04</pdfrwt>
<totfact> 0.93524977E+00</totfact>
</mgrwt>
</event>
<event>
12    5  0.5428626E-008  0.1400268E+04  0.7818608E-02  0.8953624E-01
         -2   -1    0    0    0  501 -0.00000000000E+00  0.00000000000E+00  0.61486698082E+03  0.61486698082E+03  0.00000000000E+00 0.  1.
          1   -1    0    0  501    0  0.00000000000E+00 -0.00000000000E+00 -0.79722580635E+03  0.79722580635E+03  0.00000000000E+00 0. -1.
        -24    2    1    2    0    0  0.42081413458E+03 -0.13748263511E+02 -0.44828578122E+02  0.43105251435E+03  0.80765822585E+02 0.  0.
        254    2    1    2    0    0 -0.42081413458E+03  0.13748263511E+02 -0.13753024741E+03  0.98104027282E+03  0.87535815374E+03 0.  0.
         23    2    4    4    0    0 -0.28900014463E+03 -0.17501761165E+03 -0.45795252728E+03  0.57622269996E+03  0.90331803536E+02 0.  0.
         23    2    4    4    0    0 -0.13181398996E+03  0.18876587516E+03  0.32042227987E+03  0.40481757285E+03  0.90550241759E+02 0.  0.
          1    1    3    3  502    0  0.47887825127E+02 -0.74078564097E+01 -0.31575117356E+02  0.57836910083E+02  0.00000000000E+00 0. -1.
         -2    1    3    3    0  502  0.37292630946E+03 -0.63404071014E+01 -0.13253460766E+02  0.37321560427E+03  0.00000000000E+00 0.  1.
         13    1    5    5    0    0 -0.17939961333E+03 -0.15286194703E+03 -0.33988389037E+03  0.41360857709E+03  0.00000000000E+00 0.  1.
        -13    1    5    5    0    0 -0.10960053130E+03 -0.22155664621E+02 -0.11806863691E+03  0.16261412287E+03  0.00000000000E+00 0. -1.
          3    1    6    6  503    0 -0.41219090164E+02  0.12506024286E+03  0.21371698394E+03  0.25102594878E+03  0.00000000000E+00 0. -1.
         -3    1    6    6    0  503 -0.90594899794E+02  0.63705632296E+02  0.10670529593E+03  0.15379162407E+03  0.00000000000E+00 0.  1.
<mgrwt>
<rscale>  0 0.14002683E+04</rscale>
<asrwt>0</asrwt>
<pdfrwt beam="1">  1        1 0.12265012E+00 0.14002683E+04</pdfrwt>
<pdfrwt beam="2">  1       -2 0.94594921E-01 0.14002683E+04</pdfrwt>
<totfact> 0.17879028E+01</totfact>
</mgrwt>
</event>
<event>
12    5  0.5428626E-008  0.2075375E+04  0.7818608E-02  0.8572169E-01
          1   -1    0    0  501    0  0.00000000000E+00  0.00000000000E+00  0.26924062961E+04  0.26924062961E+04  0.00000000000E+00 0. -1.
         -2   -1    0    0    0  501 -0.00000000000E+00 -0.00000000000E+00 -0.39993776840E+03  0.39993776840E+03  0.00000000000E+00 0.  1.
        -24    2    1    2    0    0 -0.72039613632E+03  0.24728816020E+03  0.41211959128E+03  0.86966822423E+03  0.79738543494E+02 0.  0.
        254    2    1    2    0    0  0.72039613632E+03 -0.24728816020E+03  0.18803489365E+04  0.22226758403E+04  0.90799435069E+03 0.  0.
         23    2    4    4    0    0  0.27019956105E+03 -0.49825469222E+03  0.13975747827E+04  0.15108720590E+04  0.90849129619E+02 0.  0.
         23    2    4    4    0    0  0.45019657526E+03  0.25096653202E+03  0.48277415375E+03  0.71180378130E+03  0.89065049077E+02 0.  0.
          1    1    3    3  502    0 -0.16730602927E+03  0.79093843504E+02  0.13175922385E+03  0.22717314229E+03  0.00000000000E+00 0. -1.
         -2    1    3    3    0  502 -0.55309010705E+03  0.16819431670E+03  0.28036036743E+03  0.64249508193E+03  0.00000000000E+00 0.  1.
         13    1    5    5    0    0  0.38066486085E+02 -0.12203411995E+03  0.24329438681E+03  0.27483366323E+03  0.00000000000E+00 0.  1.
        -13    1    5    5    0    0  0.23213307497E+03 -0.37622057227E+03  0.11542803959E+04  0.12360383958E+04  0.00000000000E+00 0. -1.
          4    1    6    6  503    0  0.35938235753E+02  0.47485682228E+02  0.76346856567E+02  0.96826077651E+02  0.00000000000E+00 0.  1.
         -4    1    6    6    0  503  0.41425833951E+03  0.20348084979E+03  0.40642729719E+03  0.61497770365E+03  0.00000000000E+00 0. -1.
<mgrwt>
<rscale>  0 0.20753746E+04</rscale>
<asrwt>0</asrwt>
<pdfrwt beam="1">  1        1 0.41421634E+00 0.20753746E+04</pdfrwt>
<pdfrwt beam="2">  1       -2 0.61528889E-01 0.20753746E+04</pdfrwt>
<totfact> 0.19767135E+00</totfact>
</mgrwt>
</event>
<event>
12    5  0.5428626E-008  0.2263867E+04  0.7818608E-02  0.8492306E-01
         -2   -1    0    0    0  501 -0.00000000000E+00  0.00000000000E+00  0.89351668487E+03  0.89351668487E+03  0.00000000000E+00 0.  1.
          1   -1    0    0  501    0  0.00000000000E+00 -0.00000000000E+00 -0.14339664033E+04  0.14339664033E+04  0.00000000000E+00 0. -1.
        -24    2    1    2    0    0  0.12880588145E+03  0.15859276218E+03  0.71102610585E+03  0.74437044427E+03  0.82380918839E+02 0.  0.
        254    2    1    2    0    0 -0.12880588145E+03 -0.15859276218E+03 -0.12514758243E+04  0.15831126439E+04  0.94779284933E+03 0.  0.
         23    2    4    4    0    0  0.18378398484E+03 -0.32619151970E+03 -0.11361160159E+04  0.11996455577E+04  0.90622303240E+02 0.  0.
         23    2    4    4    0    0 -0.31258986628E+03  0.16759875752E+03 -0.11535980839E+03  0.38346708624E+03  0.89091822377E+02 0.  0.
          1    1    3    3  502    0  0.12612900253E+02  0.47946222609E+02  0.87883073236E+02  0.10090272581E+03  0.00000000000E+00 0. -1.
         -2    1    3    3    0  502  0.11619298119E+03  0.11064653957E+03  0.62314303261E+03  0.64346771845E+03  0.00000000000E+00 0.  1.
         13    1    5    5    0    0  0.11019001451E+03 -0.11416460101E+03 -0.40982116381E+03  0.43946419846E+03  0.00000000000E+00 0. -1.
        -13    1    5    5    0    0  0.73593970330E+02 -0.21202691869E+03 -0.72629485212E+03  0.76018135924E+03  0.00000000000E+00 0.  1.
          2    1    6    6  503    0 -0.87792581308E+02  0.10037382337E+02 -0.49010310409E+02  0.10104601379E+03  0.00000000000E+00 0. -1.
         -2    1    6    6    0  503 -0.22479728497E+03  0.15756137518E+03 -0.66349497979E+02  0.28242107245E+03  0.00000000000E+00 0.  1.
<mgrwt>
<rscale>  0 0.22638665E+04</rscale>
<asrwt>0</asrwt>
<pdfrwt beam="1">  1        1 0.22061021E+00 0.22638665E+04</pdfrwt>
<pdfrwt beam="2">  1       -2 0.13746411E+00 0.22638665E+04</pdfrwt>
<totfact> 0.21800524E+00</totfact>
</mgrwt>
</event>
<event>
12    5  0.5428626E-008  0.1290768E+04  0.7818608E-02  0.9036918E-01
         -2   -1    0    0    0  501 -0.00000000000E+00  0.00000000000E+00  0.22047169538E+03  0.22047169538E+03  0.00000000000E+00 0.  1.
          1   -1    0    0  501    0  0.00000000000E+00 -0.00000000000E+00 -0.18892256041E+04  0.18892256041E+04  0.00000000000E+00 0. -1.
        -24    2    1    2    0    0  0.32124888712E+03 -0.24423190895E+02 -0.41661319371E+03  0.53252608577E+03  0.78867858631E+02 0.  0.
        254    2    1    2    0    0 -0.32124888712E+03  0.24423190895E+02 -0.12521407150E+04  0.15771712137E+04  0.90322495949E+03 0.  0.
         23    2    4    4    0    0  0.15924978155E+02 -0.17277052435E+03 -0.11447773869E+04  0.11616155196E+04  0.93445657033E+02 0.  0.
         23    2    4    4    0    0 -0.33717386527E+03  0.19719371524E+03 -0.10736332808E+03  0.41555569408E+03  0.92671861483E+02 0.  0.
          3    1    3    3  502    0  0.12177515765E+03 -0.25993195266E+02 -0.21785017602E+03  0.25092535626E+03  0.00000000000E+00 0. -1.
         -4    1    3    3    0  502  0.19947372947E+03  0.15700043706E+01 -0.19876301769E+03  0.28160072952E+03  0.00000000000E+00 0.  1.
         13    1    5    5    0    0 -0.16562214813E+02 -0.12606075136E+03 -0.95695638849E+03  0.96536581122E+03  0.00000000000E+00 0.  1.
        -13    1    5    5    0    0  0.32487192968E+02 -0.46709772981E+02 -0.18782099841E+03  0.19624970839E+03  0.00000000000E+00 0. -1.
          2    1    6    6  503    0 -0.97588135647E+02  0.83709400137E+02  0.24819952205E+01  0.12859575495E+03  0.00000000000E+00 0. -1.
         -2    1    6    6    0  503 -0.23958572963E+03  0.11348431510E+03 -0.10984532330E+03  0.28695993913E+03  0.00000000000E+00 0.  1.
<mgrwt>
<rscale>  0 0.12907684E+04</rscale>
<asrwt>0</asrwt>
<pdfrwt beam="1">  1        1 0.29065009E+00 0.12907684E+04</pdfrwt>
<pdfrwt beam="2">  1       -2 0.33918723E-01 0.12907684E+04</pdfrwt>
<totfact> 0.24895710E+01</totfact>
</mgrwt>
</event>
<event>
12    5  0.5428626E-008  0.1519996E+04  0.7818608E-02  0.8871264E-01
          1   -1    0    0  501    0  0.00000000000E+00  0.00000000000E+00  0.11421988514E+04  0.11421988514E+04  0.00000000000E+00 0. -1.
         -4   -1    0    0    0  501 -0.00000000000E+00 -0.00000000000E+00 -0.50568874739E+03  0.50568874739E+03  0.00000000000E+00 0.  1.
        -24    2    1    2    0    0 -0.25168619501E+03  0.41907427702E+03  0.24006804930E+03  0.55044509022E+03  0.79924580953E+02 0.  0.
        254    2    1    2    0    0  0.25168619501E+03 -0.41907427702E+03  0.39644205474E+03  0.10974425086E+04  0.89902423019E+03 0.  0.
         23    2    4    4    0    0 -0.24948920087E+03 -0.43817826883E+03  0.17391499254E+03  0.54142170811E+03  0.92983787577E+02 0.  0.
         23    2    4    4    0    0  0.50117539588E+03  0.19103991812E+02  0.22252706220E+03  0.55602080048E+03  0.89994984389E+02 0.  0.
          3    1    3    3  502    0 -0.40693082514E+02  0.23489052122E+02  0.23943475529E+02  0.52734737645E+02  0.00000000000E+00 0. -1.
         -4    1    3    3    0  502 -0.21099311249E+03  0.39558522490E+03  0.21612457377E+03  0.49771035258E+03  0.00000000000E+00 0.  1.
         13    1    5    5    0    0 -0.12398728379E+03 -0.24888860047E+03  0.14153317932E+03  0.31200965183E+03  0.00000000000E+00 0.  1.
        -13    1    5    5    0    0 -0.12550191708E+03 -0.18928966836E+03  0.32381813222E+02  0.22941205628E+03  0.00000000000E+00 0. -1.
          3    1    6    6  503    0  0.17555347499E+03  0.28322196510E+02  0.11995853559E+03  0.21450226026E+03  0.00000000000E+00 0. -1.
         -3    1    6    6    0  503  0.32562192089E+03 -0.92182046983E+01  0.10256852661E+03  0.34151854022E+03  0.00000000000E+00 0.  1.
<mgrwt>
<rscale>  0 0.15199962E+04</rscale>
<asrwt>0</asrwt>
<pdfrwt beam="1">  1        1 0.17572290E+00 0.15199962E+04</pdfrwt>
<pdfrwt beam="2">  1       -4 0.77798269E-01 0.15199962E+04</pdfrwt>
<totfact> 0.82121099E+00</totfact>
</mgrwt>
</event>
<event>
12    5  0.5428626E-008  0.2236165E+04  0.7818608E-02  0.8503524E-01
          1   -1    0    0  501    0  0.00000000000E+00  0.00000000000E+00  0.22389822727E+04  0.22389822727E+04  0.00000000000E+00 0. -1.
         -2   -1    0    0    0  501 -0.00000000000E+00 -0.00000000000E+00 -0.55833783738E+03  0.55833783738E+03  0.00000000000E+00 0.  1.
        -24    2    1    2    0    0  0.64831228682E+03 -0.11006435083E+03  0.14947154782E+04  0.16353103469E+04  0.87421892756E+02 0.  0.
        254    2    1    2    0    0 -0.64831228682E+03  0.11006435083E+03  0.18592895709E+03  0.11620097631E+04  0.93982664891E+03 0.  0.
         23    2    4    4    0    0  0.66240363048E+02  0.35876838682E+03  0.13115929540E+03  0.39812625281E+03  0.90549496592E+02 0.  0.
         23    2    4    4    0    0 -0.71455264987E+03 -0.24870403598E+03  0.54769661686E+02  0.76388351034E+03  0.89883894991E+02 0.  0.
          3    1    3    3  502    0  0.47587533325E+03 -0.88954719428E+02  0.11872607728E+04  0.12821694184E+04  0.00000000000E+00 0. -1.
         -4    1    3    3    0  502  0.17243695357E+03 -0.21109631405E+02  0.30745470546E+03  0.35314092854E+03  0.00000000000E+00 0.  1.
         13    1    5    5    0    0  0.12360627631E+02  0.22322777792E+03  0.42911749808E+02  0.22765070661E+03  0.00000000000E+00 0. -1.
        -13    1    5    5    0    0  0.53879735417E+02  0.13554060890E+03  0.88247545593E+02  0.17047554620E+03  0.00000000000E+00 0.  1.
          4    1    6    6  503    0 -0.13278551028E+03 -0.30192152041E+02 -0.21170484419E+02  0.13781054820E+03  0.00000000000E+00 0.  1.
         -4    1    6    6    0  503 -0.58176713959E+03 -0.21851188394E+03  0.75940146106E+02  0.62607296213E+03  0.00000000000E+00 0. -1.
<mgrwt>
<rscale>  0 0.22361650E+04</rscale>
<asrwt>0</asrwt>
<pdfrwt beam="1">  1        1 0.34445881E+00 0.22361650E+04</pdfrwt>
<pdfrwt beam="2">  1       -2 0.85898130E-01 0.22361650E+04</pdfrwt>
<totfact> 0.19246775E+00</totfact>
</mgrwt>
</event>
<event>
12    5  0.5428626E-008  0.1020017E+04  0.7818608E-02  0.9286859E-01
          1   -1    0    0  501    0  0.00000000000E+00  0.00000000000E+00  0.15682605058E+04  0.15682605058E+04  0.00000000000E+00 0. -1.
         -2   -1    0    0    0  501 -0.00000000000E+00 -0.00000000000E+00 -0.16585809368E+03  0.16585809368E+03  0.00000000000E+00 0.  1.
        -24    2    1    2    0    0 -0.13525303653E+03 -0.55894131336E+02  0.15949733383E+03  0.22979509497E+03  0.77128777799E+02 0.  0.
        254    2    1    2    0    0  0.13525303653E+03  0.55894131336E+02  0.12429050783E+04  0.15043235045E+04  0.83472069267E+03 0.  0.
         23    2    4    4    0    0  0.12161349337E+03  0.20648174145E+03  0.75201482813E+01  0.25651318586E+03  0.91202579837E+02 0.  0.
         23    2    4    4    0    0  0.13639543165E+02 -0.15058761012E+03  0.12353849300E+04  0.12478103186E+04  0.89397989752E+02 0.  0.
          3    1    3    3  502    0 -0.41808491656E+02  0.18249067678E+02  0.36163092557E+02  0.58212951385E+02  0.00000000000E+00 0. -1.
         -4    1    3    3    0  502 -0.93444544876E+02 -0.74143199014E+02  0.12333424128E+03  0.17158214359E+03  0.00000000000E+00 0.  1.
         13    1    5    5    0    0 -0.12447641591E+02  0.13249848989E+02 -0.98738263762E+01  0.20688033418E+02  0.00000000000E+00 0. -1.
        -13    1    5    5    0    0  0.13406113496E+03  0.19323189247E+03  0.17393974658E+02  0.23582515245E+03  0.00000000000E+00 0.  1.
          2    1    6    6  503    0  0.23026833099E+02 -0.59145413547E+02  0.24211741281E+03  0.25029833514E+03  0.00000000000E+00 0. -1.
         -2    1    6    6    0  503 -0.93872899348E+01 -0.91442196571E+02  0.99326751720E+03  0.99751198351E+03  0.00000000000E+00 0.  1.
<mgrwt>
<rscale>  0 0.10200171E+04</rscale>
<asrwt>0</asrwt>
<pdfrwt beam="1">  1        1 0.24127084E+00 0.10200171E+04</pdfrwt>
<pdfrwt beam="2">  1       -2 0.25516631E-01 0.10200171E+04</pdfrwt>
<totfact> 0.71312161E+01</totfact>
</mgrwt>
</event>
<event>
12    5  0.5428626E-008  0.1593613E+04  0.7818608E-02  0.8824482E-01
          1   -1    0    0  501    0  0.00000000000E+00  0.00000000000E+00  0.14561797222E+04  0.14561797222E+04  0.00000000000E+00 0. -1.
         -2   -1    0    0    0  501 -0.00000000000E+00 -0.00000000000E+00 -0.43600416443E+03  0.43600416443E+03  0.00000000000E+00 0.  1.
        -24    2    1    2    0    0 -0.48893221232E+03  0.21783254715E+03  0.41524255698E+03  0.68227502299E+03  0.81037639566E+02 0.  0.
        254    2    1    2    0    0  0.48893221232E+03 -0.21783254715E+03  0.60493300079E+03  0.12099088636E+04  0.90079398089E+03 0.  0.
         23    2    4    4    0    0  0.13793814808E+02  0.28729828756E+03  0.26373651390E+02  0.30209636336E+03  0.88521567454E+02 0.  0.
         23    2    4    4    0    0  0.47513839751E+03 -0.50513083471E+03  0.57855934940E+03  0.90781250028E+03  0.92081257164E+02 0.  0.
          1    1    3    3  502    0 -0.20605281609E+03  0.11830889520E+03  0.14339097432E+03  0.27751707915E+03  0.00000000000E+00 0. -1.
         -2    1    3    3    0  502 -0.28287939622E+03  0.99523651949E+02  0.27185158266E+03  0.40475794383E+03  0.00000000000E+00 0.  1.
         13    1    5    5    0    0  0.43154190942E+02  0.18159553319E+03 -0.88876333278E+01  0.18686415359E+03  0.00000000000E+00 0.  1.
        -13    1    5    5    0    0 -0.29360376135E+02  0.10570275437E+03  0.35261284718E+02  0.11523220977E+03  0.00000000000E+00 0. -1.
          3    1    6    6  503    0  0.33236633791E+03 -0.28867513590E+03  0.35957333694E+03  0.56841331907E+03  0.00000000000E+00 0. -1.
         -3    1    6    6    0  503  0.14277205960E+03 -0.21645569881E+03  0.21898601246E+03  0.33939918120E+03  0.00000000000E+00 0.  1.
<mgrwt>
<rscale>  0 0.15936128E+04</rscale>
<asrwt>0</asrwt>
<pdfrwt beam="1">  1        1 0.22402765E+00 0.15936128E+04</pdfrwt>
<pdfrwt beam="2">  1       -2 0.67077564E-01 0.15936128E+04</pdfrwt>
<totfact> 0.12057110E+01</totfact>
</mgrwt>
</event>
<event>
12    5  0.5428626E-008  0.2937421E+04  0.7818608E-02  0.8261830E-01
         -2   -1    0    0    0  501 -0.00000000000E+00  0.00000000000E+00  0.94081611640E+03  0.94081611640E+03  0.00000000000E+00 0.  1.
          1   -1    0    0  501    0  0.00000000000E+00 -0.00000000000E+00 -0.22928085356E+04  0.22928085356E+04  0.00000000000E+00 0. -1.
        -24    2    1    2    0    0  0.14114745142E+03  0.95059581797E+02 -0.20653044893E+04  0.20738701114E+04  0.80595771632E+02 0.  0.
        254    2    1    2    0    0 -0.14114745142E+03 -0.95059581797E+02  0.71331207003E+03  0.11597545407E+04  0.89847512942E+03 0.  0.
         23    2    4    4    0    0  0.76845707032E+02  0.22129482794E+03  0.72261259712E+03  0.76500162708E+03  0.90453636506E+02 0.  0.
         23    2    4    4    0    0 -0.21799315845E+03 -0.31635440974E+03 -0.93005270968E+01  0.39475291357E+03  0.90234324258E+02 0.  0.
          3    1    3    3  502    0  0.36844905977E+02  0.40405663998E+02 -0.11083242832E+04  0.11096724208E+04  0.00000000000E+00 0. -1.
         -4    1    3    3    0  502  0.10430254544E+03  0.54653917799E+02 -0.95698020610E+03  0.96419769061E+03  0.00000000000E+00 0.  1.
         13    1    5    5    0    0  0.31999221414E+01  0.22840689849E+02  0.17931903182E+02  0.29214547168E+02  0.00000000000E+00 0. -1.
        -13    1    5    5    0    0  0.73645784891E+02  0.19845413809E+03  0.70468069394E+03  0.73578707992E+03  0.00000000000E+00 0.  1.
          1    1    6    6  503    0 -0.12791009259E+02  0.43602572921E+01  0.28679746371E+01  0.13814739955E+02  0.00000000000E+00 0. -1.
         -1    1    6    6    0  503 -0.20520214919E+03 -0.32071466703E+03 -0.12168501734E+02  0.38093817361E+03  0.00000000000E+00 0.  1.
<mgrwt>
<rscale>  0 0.29374215E+04</rscale>
<asrwt>0</asrwt>
<pdfrwt beam="1">  1        1 0.35273977E+00 0.29374215E+04</pdfrwt>
<pdfrwt beam="2">  1       -2 0.14474094E+00 0.29374215E+04</pdfrwt>
<totfact> 0.46626370E-01</totfact>
</mgrwt>
</event>
<event>
12    5  0.5428626E-008  0.1273394E+04  0.7818608E-02  0.9050934E-01
          1   -1    0    0  501    0  0.00000000000E+00  0.00000000000E+00  0.10095254467E+04  0.10095254467E+04  0.00000000000E+00 0. -1.
         -2   -1    0    0    0  501 -0.00000000000E+00 -0.00000000000E+00 -0.40155814166E+03  0.40155814166E+03  0.00000000000E+00 0.  1.
        -24    2    1    2    0    0  0.23885043200E+03  0.17362086663E+03  0.20626121527E+03  0.37157510395E+03  0.91272311022E+02 0.  0.
        254    2    1    2    0    0 -0.23885043200E+03 -0.17362086663E+03  0.40170608982E+03  0.10395084845E+04  0.91214931478E+03 0.  0.
         23    2    4    4    0    0 -0.15390647728E+02  0.35947288478E+03  0.19265629069E+03  0.41824269802E+03  0.91394098127E+02 0.  0.
         23    2    4    4    0    0 -0.22345978427E+03 -0.53309375141E+03  0.20904979913E+03  0.62126578644E+03  0.90255946626E+02 0.  0.
          3    1    3    3  502    0  0.15336639683E+03  0.84866901598E+02  0.16737299486E+03  0.24235792141E+03  0.00000000000E+00 0. -1.
         -4    1    3    3    0  502  0.85484035170E+02  0.88753965029E+02  0.38888220410E+02  0.12921718254E+03  0.00000000000E+00 0.  1.
         13    1    5    5    0    0 -0.51622633448E+01  0.15529041283E+03  0.13499392353E+03  0.20582789089E+03  0.00000000000E+00 0.  1.
        -13    1    5    5    0    0 -0.10228384383E+02  0.20418247195E+03  0.57662367160E+02  0.21241480712E+03  0.00000000000E+00 0. -1.
          2    1    6    6  503    0 -0.46307228585E+02 -0.14282849796E+03  0.95295971262E+02  0.17783605199E+03  0.00000000000E+00 0. -1.
         -2    1    6    6    0  503 -0.17715255569E+03 -0.39026525345E+03  0.11375382787E+03  0.44342973445E+03  0.00000000000E+00 0.  1.
<mgrwt>
<rscale>  0 0.12733941E+04</rscale>
<asrwt>0</asrwt>
<pdfrwt beam="1">  1        1 0.15531161E+00 0.12733941E+04</pdfrwt>
<pdfrwt beam="2">  1       -2 0.61778176E-01 0.12733941E+04</pdfrwt>
<totfact> 0.31250103E+01</totfact>
</mgrwt>
</event>
<event>
12    5  0.5428626E-008  0.1419204E+04  0.7818608E-02  0.8940034E-01
         -2   -1    0    0    0  501 -0.00000000000E+00  0.00000000000E+00  0.26300067470E+03  0.26300067470E+03  0.00000000000E+00 0.  1.
          3   -1    0    0  501    0  0.00000000000E+00 -0.00000000000E+00 -0.19145770822E+04  0.19145770822E+04  0.00000000000E+00 0. -1.
        -24    2    1    2    0    0  0.23098035960E+03 -0.22499684894E+03 -0.91680974913E+03  0.97503092394E+03  0.78547297789E+02 0.  0.
        254    2    1    2    0    0 -0.23098035960E+03  0.22499684894E+03 -0.73476665834E+03  0.12025468329E+04  0.89569042342E+03 0.  0.
         23    2    4    4    0    0  0.29379351694E+03  0.56629667406E+01 -0.48626361871E+03  0.57539588463E+03  0.91002293302E+02 0.  0.
         23    2    4    4    0    0 -0.52477387654E+03  0.21933388220E+03 -0.24850303963E+03  0.62715094828E+03  0.89830829069E+02 0.  0.
          3    1    3    3  502    0  0.10914173735E+03 -0.11295517287E+03 -0.33256031300E+03  0.36778682914E+03  0.00000000000E+00 0. -1.
         -4    1    3    3    0  502  0.12183862225E+03 -0.11204167607E+03 -0.58424943613E+03  0.60724409480E+03  0.00000000000E+00 0.  1.
         13    1    5    5    0    0  0.22815246368E+03  0.11018415210E+02 -0.43718758438E+03  0.49326254276E+03  0.00000000000E+00 0. -1.
        -13    1    5    5    0    0  0.65641053262E+02 -0.53554484692E+01 -0.49076034328E+02  0.82133341872E+02  0.00000000000E+00 0.  1.
          4    1    6    6  503    0 -0.11192386475E+02  0.21058462771E+02 -0.19224482162E+01  0.23925387696E+02  0.00000000000E+00 0. -1.
         -4    1    6    6    0  503 -0.51358149006E+03  0.19827541943E+03 -0.24658059142E+03  0.60322556059E+03  0.00000000000E+00 0.  1.
<mgrwt>
<rscale>  0 0.14192041E+04</rscale>
<asrwt>0</asrwt>
<pdfrwt beam="1">  1        3 0.29455031E+00 0.14192041E+04</pdfrwt>
<pdfrwt beam="2">  1       -2 0.40461644E-01 0.14192041E+04</pdfrwt>
<totfact> 0.95348384E-01</totfact>
</mgrwt>
</event>
<event>
12    5  0.5428626E-008  0.1577625E+04  0.7818608E-02  0.8834413E-01
          1   -1    0    0  501    0  0.00000000000E+00  0.00000000000E+00  0.85395583630E+03  0.85395583630E+03  0.00000000000E+00 0. -1.
         -2   -1    0    0    0  501 -0.00000000000E+00 -0.00000000000E+00 -0.72863860510E+03  0.72863860510E+03  0.00000000000E+00 0.  1.
        -24    2    1    2    0    0  0.40153209902E+03 -0.16889613232E+03 -0.26074048939E+03  0.51373950081E+03  0.78668556797E+02 0.  0.
        254    2    1    2    0    0 -0.40153209902E+03  0.16889613232E+03  0.38605772059E+03  0.10688549406E+04  0.89646884515E+03 0.  0.
         23    2    4    4    0    0  0.15145609522E+03  0.34050983648E+03  0.27554917277E+03  0.47247372087E+03  0.91750601002E+02 0.  0.
         23    2    4    4    0    0 -0.55298819425E+03 -0.17161370416E+03  0.11050854782E+03  0.59638121971E+03  0.90615747220E+02 0.  0.
          3    1    3    3  502    0  0.74279588642E+02 -0.10997626578E+02 -0.19454459035E+02  0.77568557132E+02  0.00000000000E+00 0. -1.
         -4    1    3    3    0  502  0.32725251038E+03 -0.15789850574E+03 -0.24128603035E+03  0.43617094368E+03  0.00000000000E+00 0.  1.
         13    1    5    5    0    0  0.88637211227E+02  0.25634351147E+03  0.23827347357E+03  0.36103019167E+03  0.00000000000E+00 0. -1.
        -13    1    5    5    0    0  0.62818883996E+02  0.84166325004E+02  0.37275699201E+02  0.11144352921E+03  0.00000000000E+00 0.  1.
          4    1    6    6  503    0 -0.58760540700E+02 -0.38427926424E+02 -0.89186531088E+01  0.70774635611E+02  0.00000000000E+00 0. -1.
         -4    1    6    6    0  503 -0.49422765355E+03 -0.13318577774E+03  0.11942720093E+03  0.52560658410E+03  0.00000000000E+00 0.  1.
<mgrwt>
<rscale>  0 0.15776250E+04</rscale>
<asrwt>0</asrwt>
<pdfrwt beam="1">  1        1 0.13137782E+00 0.15776250E+04</pdfrwt>
<pdfrwt beam="2">  1       -2 0.11209825E+00 0.15776250E+04</pdfrwt>
<totfact> 0.10504575E+01</totfact>
</mgrwt>
</event>
<event>
12    5  0.5428626E-008  0.1117090E+04  0.7818608E-02  0.9188693E-01
         -2   -1    0    0    0  501 -0.00000000000E+00  0.00000000000E+00  0.60974014934E+03  0.60974014934E+03  0.00000000000E+00 0.  1.
          1   -1    0    0  501    0  0.00000000000E+00 -0.00000000000E+00 -0.51164856696E+03  0.51164856696E+03  0.00000000000E+00 0. -1.
        -24    2    1    2    0    0 -0.97471174250E+02 -0.22889728382E+02  0.16981577460E+03  0.21459636884E+03  0.84791713887E+02 0.  0.
        254    2    1    2    0    0  0.97471174250E+02  0.22889728382E+02 -0.71724192209E+02  0.90679234746E+03  0.89838935445E+03 0.  0.
         23    2    4    4    0    0  0.45771923806E+03 -0.53421253085E+02  0.11565446846E+03  0.48370531358E+03  0.90742179475E+02 0.  0.
         23    2    4    4    0    0 -0.36024806381E+03  0.76310981467E+02 -0.18737866067E+03  0.42308703388E+03  0.91048571621E+02 0.  0.
          1    1    3    3  502    0 -0.14069536027E+02  0.23407391684E+02  0.76187271650E+02  0.80934283162E+02  0.00000000000E+00 0. -1.
         -2    1    3    3    0  502 -0.83401638224E+02 -0.46297120066E+02  0.93628502947E+02  0.13366208568E+03  0.00000000000E+00 0.  1.
         13    1    5    5    0    0  0.31644099615E+03 -0.65433333056E+02  0.48273739127E+02  0.32672125583E+03  0.00000000000E+00 0.  1.
        -13    1    5    5    0    0  0.14127824191E+03  0.12012079972E+02  0.67380729331E+02  0.15698405775E+03  0.00000000000E+00 0. -1.
          3    1    6    6  503    0  0.26896893681E+01 -0.54829022311E+01 -0.79891002195E+01  0.10055961818E+02  0.00000000000E+00 0. -1.
         -3    1    6    6    0  503 -0.36293775318E+03  0.81793883698E+02 -0.17938956045E+03  0.41303107206E+03  0.00000000000E+00 0.  1.
<mgrwt>
<rscale>  0 0.11170903E+04</rscale>
<asrwt>0</asrwt>
<pdfrwt beam="1">  1        1 0.78715165E-01 0.11170903E+04</pdfrwt>
<pdfrwt beam="2">  1       -2 0.93806176E-01 0.11170903E+04</pdfrwt>
<totfact> 0.35884638E+01</totfact>
</mgrwt>
</event>
<event>
12    5  0.5428626E-008  0.1632965E+04  0.7818608E-02  0.8800549E-01
         -2   -1    0    0    0  501 -0.00000000000E+00  0.00000000000E+00  0.22935271216E+04  0.22935271216E+04  0.00000000000E+00 0.  1.
          1   -1    0    0  501    0  0.00000000000E+00 -0.00000000000E+00 -0.29066299975E+03  0.29066299975E+03  0.00000000000E+00 0. -1.
        -24    2    1    2    0    0  0.52444559518E+03  0.20096639583E+03  0.60538582200E+03  0.82967951088E+03  0.80283390147E+02 0.  0.
        254    2    1    2    0    0 -0.52444559518E+03 -0.20096639583E+03  0.13974782998E+04  0.17545106105E+04  0.89996178206E+03 0.  0.
         23    2    4    4    0    0 -0.40779927488E+03  0.31371906401E+03  0.75135032774E+03  0.91516083852E+03  0.90951336706E+02 0.  0.
         23    2    4    4    0    0 -0.11664632030E+03 -0.51468545984E+03  0.64612797210E+03  0.83934977195E+03  0.92299494743E+02 0.  0.
          3    1    3    3  502    0  0.43468700176E+02  0.34058034634E+02  0.87393646484E+02  0.10337856192E+03  0.00000000000E+00 0. -1.
         -4    1    3    3    0  502  0.48097689501E+03  0.16690836119E+03  0.51799217551E+03  0.72630094896E+03  0.00000000000E+00 0.  1.
         13    1    5    5    0    0 -0.16879344783E+03  0.13928589875E+03  0.24341378319E+03  0.32732561688E+03  0.00000000000E+00 0. -1.
        -13    1    5    5    0    0 -0.23900582705E+03  0.17443316526E+03  0.50793654455E+03  0.58783522164E+03  0.00000000000E+00 0.  1.
          3    1    6    6  503    0 -0.56446157696E+02 -0.41779442102E+03  0.51472180665E+03  0.66533967655E+03  0.00000000000E+00 0. -1.
         -3    1    6    6    0  503 -0.60200162608E+02 -0.96891038823E+02  0.13140616545E+03  0.17401009540E+03  0.00000000000E+00 0.  1.
<mgrwt>
<rscale>  0 0.16329648E+04</rscale>
<asrwt>0</asrwt>
<pdfrwt beam="1">  1        1 0.44717386E-01 0.16329648E+04</pdfrwt>
<pdfrwt beam="2">  1       -2 0.35285031E+00 0.16329648E+04</pdfrwt>
<totfact> 0.11463616E+00</totfact>
</mgrwt>
</event>
<event>
12    5  0.5428626E-008  0.2657907E+04  0.7818608E-02  0.8348793E-01
         -4   -1    0    0    0  501 -0.00000000000E+00  0.00000000000E+00  0.12165073338E+04  0.12165073338E+04  0.00000000000E+00 0.  1.
          1   -1    0    0  501    0  0.00000000000E+00 -0.00000000000E+00 -0.14517936136E+04  0.14517936136E+04  0.00000000000E+00 0. -1.
        -24    2    1    2    0    0  0.76461036919E+03 -0.46518443545E+03 -0.86388326880E+03  0.12464235645E+04  0.79068479487E+02 0.  0.
        254    2    1    2    0    0 -0.76461036919E+03  0.46518443545E+03  0.62859698900E+03  0.14218773829E+04  0.90861187634E+03 0.  0.
         23    2    4    4    0    0 -0.22200517398E+02 -0.16224637620E+03  0.36579749547E+03  0.41101969711E+03  0.91173648384E+02 0.  0.
         23    2    4    4    0    0 -0.74240985179E+03  0.62743081165E+03  0.26279949354E+03  0.10108576858E+04  0.89038619282E+02 0.  0.
          3    1    3    3  502    0  0.43254880660E+03 -0.25667834819E+03 -0.43116265410E+03  0.66248281397E+03  0.00000000000E+00 0. -1.
         -4    1    3    3    0  502  0.33206156259E+03 -0.20850608726E+03 -0.43272061471E+03  0.58394075056E+03  0.00000000000E+00 0.  1.
         13    1    5    5    0    0  0.15286877283E+02 -0.12462779205E+03  0.19303593426E+03  0.23027949775E+03  0.00000000000E+00 0.  1.
        -13    1    5    5    0    0 -0.37487394681E+02 -0.37618584143E+02  0.17276156121E+03  0.18074019936E+03  0.00000000000E+00 0. -1.
          3    1    6    6  503    0 -0.70901146037E+02  0.34995141675E+02  0.61081441574E+01  0.79302849100E+02  0.00000000000E+00 0. -1.
         -3    1    6    6    0  503 -0.67150870575E+03  0.59243566997E+03  0.25669134938E+03  0.93155483671E+03  0.00000000000E+00 0.  1.
<mgrwt>
<rscale>  0 0.26579071E+04</rscale>
<asrwt>0</asrwt>
<pdfrwt beam="1">  1        1 0.22335286E+00 0.26579071E+04</pdfrwt>
<pdfrwt beam="2">  1       -4 0.18715497E+00 0.26579071E+04</pdfrwt>
<totfact> 0.48297819E-01</totfact>
</mgrwt>
</event>
<event>
12    5  0.5428626E-008  0.2952405E+04  0.7818608E-02  0.8257454E-01
         -2   -1    0    0    0  501 -0.00000000000E+00  0.00000000000E+00  0.12504553204E+04  0.12504553204E+04  0.00000000000E+00 0.  1.
          1   -1    0    0  501    0  0.00000000000E+00 -0.00000000000E+00 -0.17427038975E+04  0.17427038975E+04  0.00000000000E+00 0. -1.
        -24    2    1    2    0    0  0.85398612442E+03  0.76521471888E+02 -0.12716001626E+04  0.15356468377E+04  0.78079447136E+02 0.  0.
        254    2    1    2    0    0 -0.85398612442E+03 -0.76521471888E+02  0.77935158559E+03  0.14575123802E+04  0.88419772004E+03 0.  0.
         23    2    4    4    0    0 -0.28964714964E+03  0.23001465923E+03 -0.71725684129E+02  0.38740846152E+03  0.90213787977E+02 0.  0.
         23    2    4    4    0    0 -0.56433897478E+03 -0.30653613112E+03  0.85107726972E+03  0.10701039187E+04  0.91361915485E+02 0.  0.
          1    1    3    3  502    0  0.55372719783E+03  0.26170380916E+02 -0.87187938580E+03  0.10331855409E+04  0.00000000000E+00 0. -1.
         -2    1    3    3    0  502  0.30025892659E+03  0.50351090972E+02 -0.39972077683E+03  0.50246129681E+03  0.00000000000E+00 0.  1.
         13    1    5    5    0    0 -0.21606023487E+03  0.11777021329E+03 -0.55106610977E+02  0.25216777511E+03  0.00000000000E+00 0.  1.
        -13    1    5    5    0    0 -0.73586914772E+02  0.11224444594E+03 -0.16619073151E+02  0.13524068641E+03  0.00000000000E+00 0. -1.
          2    1    6    6  503    0 -0.19343378180E+03 -0.12510248295E+03  0.37300577385E+03  0.43840685043E+03  0.00000000000E+00 0.  1.
         -2    1    6    6    0  503 -0.37090519298E+03 -0.18143364817E+03  0.47807149587E+03  0.63169706825E+03  0.00000000000E+00 0. -1.
<mgrwt>
<rscale>  0 0.29524047E+04</rscale>
<asrwt>0</asrwt>
<pdfrwt beam="1">  1        1 0.26810829E+00 0.29524047E+04</pdfrwt>
<pdfrwt beam="2">  1       -2 0.19237774E+00 0.29524047E+04</pdfrwt>
<totfact> 0.50005898E-01</totfact>
</mgrwt>
</event>
<event>
12    5  0.5428626E-008  0.1709305E+04  0.7818608E-02  0.8756075E-01
         -2   -1    0    0    0  501 -0.00000000000E+00  0.00000000000E+00  0.46918578767E+03  0.46918578767E+03  0.00000000000E+00 0.  1.
          1   -1    0    0  501    0  0.00000000000E+00 -0.00000000000E+00 -0.15568045043E+04  0.15568045043E+04  0.00000000000E+00 0. -1.
        -24    2    1    2    0    0 -0.15503216933E+03 -0.25208699248E+01  0.30996412814E+03  0.35524128583E+03  0.77956924735E+02 0.  0.
        254    2    1    2    0    0  0.15503216933E+03  0.25208699248E+01 -0.13975828448E+04  0.16707490062E+04  0.90228770645E+03 0.  0.
         23    2    4    4    0    0  0.24005210837E+03  0.18571833450E+03 -0.14141772868E+04  0.14490781646E+04  0.88395781279E+02 0.  0.
         23    2    4    4    0    0 -0.85019939044E+02 -0.18319746458E+03  0.16594441960E+02  0.22167084159E+03  0.89849237312E+02 0.  0.
          3    1    3    3  502    0 -0.26303177156E+02  0.30847929574E+02  0.69935525417E+02  0.80835818811E+02  0.00000000000E+00 0. -1.
         -4    1    3    3    0  502 -0.12872899217E+03 -0.33368799499E+02  0.24002860272E+03  0.27440546702E+03  0.00000000000E+00 0.  1.
         13    1    5    5    0    0  0.18605917429E+03  0.16130777406E+03 -0.96120040244E+03  0.99224212164E+03  0.00000000000E+00 0.  1.
        -13    1    5    5    0    0  0.53992934078E+02  0.24410560445E+02 -0.45297688432E+03  0.45683604293E+03  0.00000000000E+00 0. -1.
          2    1    6    6  503    0 -0.26363584853E+02 -0.11293064983E+03  0.47132967347E+02  0.12517941879E+03  0.00000000000E+00 0. -1.
         -2    1    6    6    0  503 -0.58656354191E+02 -0.70266814746E+02 -0.30538525387E+02  0.96491422802E+02  0.00000000000E+00 0.  1.
<mgrwt>
<rscale>  0 0.17093046E+04</rscale>
<asrwt>0</asrwt>
<pdfrwt beam="1">  1        1 0.23950839E+00 0.17093046E+04</pdfrwt>
<pdfrwt beam="2">  1       -2 0.72182427E-01 0.17093046E+04</pdfrwt>
<totfact> 0.86657242E+00</totfact>
</mgrwt>
</event>
<event>
12    5  0.5428626E-008  0.1504947E+04  0.7818608E-02  0.8881170E-01
         -2   -1    0    0    0  501 -0.00000000000E+00  0.00000000000E+00  0.12047232247E+04  0.12047232247E+04  0.00000000000E+00 0.  1.
          1   -1    0    0  501    0  0.00000000000E+00 -0.00000000000E+00 -0.46999722230E+03  0.46999722230E+03  0.00000000000E+00 0. -1.
        -24    2    1    2    0    0 -0.40132962310E+03  0.25772963633E+03  0.13811354285E+03  0.50312406009E+03  0.81045896281E+02 0.  0.
        254    2    1    2    0    0  0.40132962310E+03 -0.25772963633E+03  0.59661245951E+03  0.11715963869E+04  0.88837021285E+03 0.  0.
         23    2    4    4    0    0 -0.20402302608E+03 -0.58000518518E+02 -0.73453541821E+02  0.24260774080E+03  0.92052364285E+02 0.  0.
         23    2    4    4    0    0  0.60535264918E+03 -0.19972911781E+03  0.67006600133E+03  0.92898864608E+03  0.87680716432E+02 0.  0.
          3    1    3    3  502    0 -0.20091882316E+03  0.94971049656E+02  0.34333519438E+02  0.22487032781E+03  0.00000000000E+00 0. -1.
         -4    1    3    3    0  502 -0.20041079994E+03  0.16275858667E+03  0.10378002341E+03  0.27825373228E+03  0.00000000000E+00 0.  1.
         13    1    5    5    0    0 -0.19810344361E+03 -0.27427709649E+02 -0.61262227896E+02  0.20916575769E+03  0.00000000000E+00 0.  1.
        -13    1    5    5    0    0 -0.59195824752E+01 -0.30572808869E+02 -0.12191313926E+02  0.33441983106E+02  0.00000000000E+00 0. -1.
          4    1    6    6  503    0  0.10979360763E+03 -0.51915805414E+01  0.13650151970E+03  0.17525482494E+03  0.00000000000E+00 0. -1.
         -4    1    6    6    0  503  0.49555904154E+03 -0.19453753727E+03  0.53356448163E+03  0.75373382114E+03  0.00000000000E+00 0.  1.
<mgrwt>
<rscale>  0 0.15049473E+04</rscale>
<asrwt>0</asrwt>
<pdfrwt beam="1">  1        1 0.72307266E-01 0.15049473E+04</pdfrwt>
<pdfrwt beam="2">  1       -2 0.18534203E+00 0.15049473E+04</pdfrwt>
<totfact> 0.67936077E+00</totfact>
</mgrwt>
</event>
<event>
12    5  0.5428626E-008  0.3778907E+04  0.7818608E-02  0.8050697E-01
         -2   -1    0    0    0  501 -0.00000000000E+00  0.00000000000E+00  0.10819975039E+04  0.10819975039E+04  0.00000000000E+00 0.  1.
          1   -1    0    0  501    0  0.00000000000E+00 -0.00000000000E+00 -0.32994847524E+04  0.32994847524E+04  0.00000000000E+00 0. -1.
        -24    2    1    2    0    0 -0.58969502799E+03  0.16747213640E+04 -0.95548547318E+03  0.20177648129E+04  0.77398177403E+02 0.  0.
        254    2    1    2    0    0  0.58969502799E+03 -0.16747213640E+04 -0.12620017753E+04  0.23637174434E+04  0.91764906049E+03 0.  0.
         23    2    4    4    0    0  0.42871433893E+03 -0.83491165797E+03 -0.14485202491E+03  0.95399359057E+03  0.90819605280E+02 0.  0.
         23    2    4    4    0    0  0.16098068906E+03 -0.83980970601E+03 -0.11171497504E+04  0.14097238528E+04  0.90014730942E+02 0.  0.
          1    1    3    3  502    0 -0.15998665919E+02  0.49135159541E+02 -0.13840259180E+02  0.53495551109E+02  0.00000000000E+00 0. -1.
         -2    1    3    3    0  502 -0.57369636207E+03  0.16255862044E+04 -0.94164521400E+03  0.19642692618E+04  0.00000000000E+00 0.  1.
         13    1    5    5    0    0  0.12142738476E+03 -0.31522104394E+03 -0.27180946335E+02  0.33889190040E+03  0.00000000000E+00 0. -1.
        -13    1    5    5    0    0  0.30728695417E+03 -0.51969061403E+03 -0.11767107858E+03  0.61510169017E+03  0.00000000000E+00 0.  1.
          1    1    6    6  503    0  0.15084402414E+03 -0.74330379655E+03 -0.94093997733E+03  0.12085621600E+04  0.00000000000E+00 0. -1.
         -1    1    6    6    0  503  0.10136664921E+02 -0.96505909464E+02 -0.17620977308E+03  0.20116169284E+03  0.00000000000E+00 0.  1.
<mgrwt>
<rscale>  0 0.37789069E+04</rscale>
<asrwt>0</asrwt>
<pdfrwt beam="1">  1        1 0.50761303E+00 0.37789069E+04</pdfrwt>
<pdfrwt beam="2">  1       -2 0.16646116E+00 0.37789069E+04</pdfrwt>
<totfact> 0.56644549E-02</totfact>
</mgrwt>
</event>
<event>
12    5  0.5428626E-008  0.1669490E+04  0.7818608E-02  0.8778959E-01
         -4   -1    0    0    0  501 -0.00000000000E+00  0.00000000000E+00  0.22608322018E+03  0.22608322018E+03  0.00000000000E+00 0.  1.
          1   -1    0    0  501    0  0.00000000000E+00 -0.00000000000E+00 -0.30820456927E+04  0.30820456927E+04  0.00000000000E+00 0. -1.
        -24    2    1    2    0    0  0.13635905582E+03 -0.24074401083E+03  0.12837038644E+02  0.28870621747E+03  0.81455629579E+02 0.  0.
        254    2    1    2    0    0 -0.13635905582E+03  0.24074401083E+03 -0.28687995112E+04  0.30194226954E+04  0.90019514965E+03 0.  0.
         23    2    4    4    0    0  0.11722094569E+03  0.34344613673E+03 -0.25946604949E+04  0.26216870381E+04  0.96352700547E+02 0.  0.
         23    2    4    4    0    0 -0.25358000151E+03 -0.10270212590E+03 -0.27413901630E+03  0.39773565736E+03  0.90503641089E+02 0.  0.
          3    1    3    3  502    0  0.12613093248E+01 -0.56547542166E+02  0.20464905146E+02  0.60150043798E+02  0.00000000000E+00 0. -1.
         -4    1    3    3    0  502  0.13509774650E+03 -0.18419646867E+03 -0.76278665015E+01  0.22855617368E+03  0.00000000000E+00 0.  1.
         13    1    5    5    0    0  0.13207414941E+03  0.32695763924E+03 -0.24738046376E+04  0.24988105698E+04  0.00000000000E+00 0. -1.
        -13    1    5    5    0    0 -0.14853203719E+02  0.16488497494E+02 -0.12085585732E+03  0.12287646829E+03  0.00000000000E+00 0.  1.
          3    1    6    6  503    0 -0.89865455374E+02  0.71116390172E+01 -0.10083481782E+03  0.13525544707E+03  0.00000000000E+00 0. -1.
         -3    1    6    6    0  503 -0.16371454613E+03 -0.10981376492E+03 -0.17330419848E+03  0.26248021029E+03  0.00000000000E+00 0.  1.
<mgrwt>
<rscale>  0 0.16694895E+04</rscale>
<asrwt>0</asrwt>
<pdfrwt beam="1">  1        1 0.47416085E+00 0.16694895E+04</pdfrwt>
<pdfrwt beam="2">  1       -4 0.34782035E-01 0.16694895E+04</pdfrwt>
<totfact> 0.20077729E+00</totfact>
</mgrwt>
</event>
<event>
12    5  0.5428626E-008  0.1468407E+04  0.7818608E-02  0.8905738E-01
         -2   -1    0    0    0  501 -0.00000000000E+00  0.00000000000E+00  0.49670706736E+03  0.49670706736E+03  0.00000000000E+00 0.  1.
          1   -1    0    0  501    0  0.00000000000E+00 -0.00000000000E+00 -0.10852572184E+04  0.10852572184E+04  0.00000000000E+00 0. -1.
        -24    2    1    2    0    0 -0.31974045667E+03 -0.22368326213E+03 -0.43711836698E+03  0.59144059937E+03  0.80382550582E+02 0.  0.
        254    2    1    2    0    0  0.31974045667E+03  0.22368326213E+03 -0.15143178403E+03  0.99052368636E+03  0.89774017769E+03 0.  0.
         23    2    4    4    0    0 -0.50126559337E+02  0.48548829787E+03  0.23368693967E+02  0.49682035877E+03  0.89848838121E+02 0.  0.
         23    2    4    4    0    0  0.36986701600E+03 -0.26180503574E+03 -0.17480047800E+03  0.49370332758E+03  0.88567952953E+02 0.  0.
          3    1    3    3  502    0 -0.10901176944E+03 -0.11962567329E+03 -0.20413269869E+03  0.26050724800E+03  0.00000000000E+00 0. -1.
         -4    1    3    3    0  502 -0.21072868723E+03 -0.10405758885E+03 -0.23298566829E+03  0.33093335137E+03  0.00000000000E+00 0.  1.
         13    1    5    5    0    0 -0.20790472686E+02  0.43222085759E+03  0.31376451790E+01  0.43273197052E+03  0.00000000000E+00 0. -1.
        -13    1    5    5    0    0 -0.29336086650E+02  0.53267440283E+02  0.20231048788E+02  0.64088388257E+02  0.00000000000E+00 0.  1.
          3    1    6    6  503    0  0.20684466450E+03 -0.17371337290E+03 -0.63260206047E+02  0.27742188959E+03  0.00000000000E+00 0. -1.
         -3    1    6    6    0  503  0.16302235150E+03 -0.88091662844E+02 -0.11154027195E+03  0.21628143799E+03  0.00000000000E+00 0.  1.
<mgrwt>
<rscale>  0 0.14684072E+04</rscale>
<asrwt>0</asrwt>
<pdfrwt beam="1">  1        1 0.16696265E+00 0.14684072E+04</pdfrwt>
<pdfrwt beam="2">  1       -2 0.76416473E-01 0.14684072E+04</pdfrwt>
<totfact> 0.16944541E+01</totfact>
</mgrwt>
</event>
<event>
12    5  0.5428626E-008  0.1920574E+04  0.7818608E-02  0.8644682E-01
          1   -1    0    0  501    0  0.00000000000E+00  0.00000000000E+00  0.14578983636E+04  0.14578983636E+04  0.00000000000E+00 0. -1.
         -2   -1    0    0    0  501 -0.00000000000E+00 -0.00000000000E+00 -0.63252104112E+03  0.63252104112E+03  0.00000000000E+00 0.  1.
        -24    2    1    2    0    0 -0.83240558071E+02 -0.14841749051E+02 -0.48417322478E+03  0.49759225622E+03  0.77621349067E+02 0.  0.
        254    2    1    2    0    0  0.83240558071E+02  0.14841749051E+02  0.13095505473E+04  0.15928271485E+04  0.90278813748E+03 0.  0.
         23    2    4    4    0    0  0.41504023451E+03  0.23772700187E+02  0.11227069601E+04  0.12010651356E+04  0.96244501860E+02 0.  0.
         23    2    4    4    0    0 -0.33179967644E+03 -0.89309511367E+01  0.18684358714E+03  0.39176201290E+03  0.91630570897E+02 0.  0.
          1    1    3    3  502    0  0.83592315892E+01  0.14268200045E+02 -0.42987548839E+02  0.46058524080E+02  0.00000000000E+00 0. -1.
         -2    1    3    3    0  502 -0.91599789660E+02 -0.29109949096E+02 -0.44118567594E+03  0.45153373214E+03  0.00000000000E+00 0.  1.
         13    1    5    5    0    0  0.20497735159E+03 -0.30978767527E+02  0.48590934111E+03  0.52828333920E+03  0.00000000000E+00 0.  1.
        -13    1    5    5    0    0  0.21006288292E+03  0.54751467714E+02  0.63679761903E+03  0.67278179643E+03  0.00000000000E+00 0. -1.
          3    1    6    6  503    0 -0.33475674795E+03 -0.17463884894E+01  0.17539644085E+03  0.37792729676E+03  0.00000000000E+00 0. -1.
         -3    1    6    6    0  503  0.29570715170E+01 -0.71845626473E+01  0.11447146296E+02  0.13834716141E+02  0.00000000000E+00 0.  1.
<mgrwt>
<rscale>  0 0.19205743E+04</rscale>
<asrwt>0</asrwt>
<pdfrwt beam="1">  1        1 0.22429206E+00 0.19205743E+04</pdfrwt>
<pdfrwt beam="2">  1       -2 0.97310930E-01 0.19205743E+04</pdfrwt>
<totfact> 0.50530548E+00</totfact>
</mgrwt>
</event>
<event>
12    5  0.5428626E-008  0.1721271E+04  0.7818608E-02  0.8749325E-01
         -2   -1    0    0    0  501 -0.00000000000E+00  0.00000000000E+00  0.58567198635E+03  0.58567198635E+03  0.00000000000E+00 0.  1.
          1   -1    0    0  501    0  0.00000000000E+00 -0.00000000000E+00 -0.12646899466E+04  0.12646899466E+04  0.00000000000E+00 0. -1.
        -24    2    1    2    0    0 -0.37367765551E+03 -0.24907105680E+03 -0.71693247384E+03  0.84985632311E+03  0.81192464708E+02 0.  0.
        254    2    1    2    0    0  0.37367765551E+03  0.24907105680E+03  0.37914513549E+02  0.10005056099E+04  0.89325393002E+03 0.  0.
         23    2    4    4    0    0  0.36944087386E+03  0.54995332919E+03 -0.58752090318E+02  0.67136313305E+03  0.91331400601E+02 0.  0.
         23    2    4    4    0    0  0.42367816499E+01 -0.30088227238E+03  0.96666603868E+02  0.32914247683E+03  0.91881693467E+02 0.  0.
          1    1    3    3  502    0 -0.15459438544E+03 -0.13410777166E+03 -0.38305266768E+03  0.43429674722E+03  0.00000000000E+00 0. -1.
         -2    1    3    3    0  502 -0.21908327007E+03 -0.11496328515E+03 -0.33387980615E+03  0.41555957589E+03  0.00000000000E+00 0.  1.
         13    1    5    5    0    0  0.25461749893E+01  0.59510015533E+01 -0.11878680397E+02  0.13527766798E+02  0.00000000000E+00 0.  1.
        -13    1    5    5    0    0  0.36689469888E+03  0.54400232763E+03 -0.46873409921E+02  0.65783536625E+03  0.00000000000E+00 0. -1.
          2    1    6    6  503    0  0.47510729382E+02 -0.16703976675E+03  0.60518683506E+02  0.18390775986E+03  0.00000000000E+00 0. -1.
         -2    1    6    6    0  503 -0.43273947732E+02 -0.13384250564E+03  0.36147920362E+02  0.14523471697E+03  0.00000000000E+00 0.  1.
<mgrwt>
<rscale>  0 0.17212710E+04</rscale>
<asrwt>0</asrwt>
<pdfrwt beam="1">  1        1 0.19456768E+00 0.17212710E+04</pdfrwt>
<pdfrwt beam="2">  1       -2 0.90103383E-01 0.17212710E+04</pdfrwt>
<totfact> 0.84226103E+00</totfact>
</mgrwt>
</event>
<event>
12    5  0.5428626E-008  0.1504704E+04  0.7818608E-02  0.8881331E-01
         -2   -1    0    0    0  501 -0.00000000000E+00  0.00000000000E+00  0.24492726226E+03  0.24492726226E+03  0.00000000000E+00 0.  1.
          1   -1    0    0  501    0  0.00000000000E+00 -0.00000000000E+00 -0.23110280273E+04  0.23110280273E+04  0.00000000000E+00 0. -1.
        -24    2    1    2    0    0 -0.38008240660E+03  0.27493619745E+03 -0.80919611159E+03  0.93853345359E+03  0.77421883336E+02 0.  0.
        254    2    1    2    0    0  0.38008240660E+03 -0.27493619745E+03 -0.12569046534E+04  0.16174218359E+04  0.90343319572E+03 0.  0.
         23    2    4    4    0    0 -0.28038302782E+03 -0.86140558609E+02 -0.53150453530E+03  0.61424769825E+03  0.93639338034E+02 0.  0.
         23    2    4    4    0    0  0.66046543441E+03 -0.18879563884E+03 -0.72540011812E+03  0.10031741377E+04  0.91074891635E+02 0.  0.
          3    1    3    3  502    0 -0.22015463085E+02  0.38487023052E+02 -0.10390139369E+03  0.11296650464E+03  0.00000000000E+00 0. -1.
         -2    1    3    3    0  502 -0.35806694351E+03  0.23644917440E+03 -0.70529471790E+03  0.82556694896E+03  0.00000000000E+00 0.  1.
         13    1    5    5    0    0 -0.15070569260E+03 -0.69867646609E+01 -0.32056203515E+03  0.35428948480E+03  0.00000000000E+00 0.  1.
        -13    1    5    5    0    0 -0.12967733522E+03 -0.79153793948E+02 -0.21094250015E+03  0.25995821344E+03  0.00000000000E+00 0. -1.
          2    1    6    6  503    0  0.44117118699E+02 -0.36659397365E+02 -0.73404648503E+02  0.93158327589E+02  0.00000000000E+00 0. -1.
         -2    1    6    6    0  503  0.61634831572E+03 -0.15213624148E+03 -0.65199546962E+03  0.91001581011E+03  0.00000000000E+00 0.  1.
<mgrwt>
<rscale>  0 0.15047043E+04</rscale>
<asrwt>0</asrwt>
<pdfrwt beam="1">  1        1 0.35554278E+00 0.15047043E+04</pdfrwt>
<pdfrwt beam="2">  1       -2 0.37681117E-01 0.15047043E+04</pdfrwt>
<totfact> 0.10336149E+01</totfact>
</mgrwt>
</event>
<event>
12    5  0.5428626E-008  0.1138432E+04  0.7818608E-02  0.9168522E-01
          1   -1    0    0  501    0  0.00000000000E+00  0.00000000000E+00  0.16383959796E+04  0.16383959796E+04  0.00000000000E+00 0. -1.
         -2   -1    0    0    0  501 -0.00000000000E+00 -0.00000000000E+00 -0.19775867795E+03  0.19775867795E+03  0.00000000000E+00 0.  1.
        -24    2    1    2    0    0 -0.78947757652E+02 -0.14335618424E+03  0.47872189748E+03  0.51219573951E+03  0.79912930370E+02 0.  0.
        254    2    1    2    0    0  0.78947757652E+02  0.14335618424E+03  0.96191540419E+03  0.13239589181E+04  0.89487553765E+03 0.  0.
         23    2    4    4    0    0  0.47037641386E+03  0.16330559247E+03  0.57266320328E+03  0.76420594420E+03  0.90249063778E+02 0.  0.
         23    2    4    4    0    0 -0.39142865621E+03 -0.19949408233E+02  0.38925220091E+03  0.55975297386E+03  0.90508254008E+02 0.  0.
          1    1    3    3  502    0 -0.65838734376E+02 -0.11134634698E+03  0.44672360793E+03  0.46507497224E+03  0.00000000000E+00 0. -1.
         -2    1    3    3    0  502 -0.13109023276E+02 -0.32009837262E+02  0.31998289558E+02  0.47120767263E+02  0.00000000000E+00 0.  1.
         13    1    5    5    0    0  0.16383555600E+03  0.10280298339E+03  0.20970062284E+03  0.28528037792E+03  0.00000000000E+00 0. -1.
        -13    1    5    5    0    0  0.30654085785E+03  0.60502609082E+02  0.36296258044E+03  0.47892556628E+03  0.00000000000E+00 0.  1.
          4    1    6    6  503    0 -0.55268938731E+02 -0.16901052216E+02  0.10349431689E+03  0.11853849494E+03  0.00000000000E+00 0. -1.
         -4    1    6    6    0  503 -0.33615971747E+03 -0.30483560173E+01  0.28575788402E+03  0.44121447892E+03  0.00000000000E+00 0.  1.
<mgrwt>
<rscale>  0 0.11384323E+04</rscale>
<asrwt>0</asrwt>
<pdfrwt beam="1">  1        1 0.25206091E+00 0.11384323E+04</pdfrwt>
<pdfrwt beam="2">  1       -2 0.30424413E-01 0.11384323E+04</pdfrwt>
<totfact> 0.45772165E+01</totfact>
</mgrwt>
</event>
<event>
12    5  0.5428626E-008  0.1654204E+04  0.7818608E-02  0.8787923E-01
          1   -1    0    0  501    0  0.00000000000E+00  0.00000000000E+00  0.45000732993E+03  0.45000732993E+03  0.00000000000E+00 0. -1.
         -2   -1    0    0    0  501 -0.00000000000E+00 -0.00000000000E+00 -0.15201928318E+04  0.15201928318E+04  0.00000000000E+00 0.  1.
        -24    2    1    2    0    0 -0.43132563435E+03  0.20338915732E+03 -0.76847624752E+03  0.90791217897E+03  0.79623046675E+02 0.  0.
        254    2    1    2    0    0  0.43132563435E+03 -0.20338915732E+03 -0.30170925433E+03  0.10622879827E+04  0.90001018438E+03 0.  0.
         23    2    4    4    0    0  0.36039453205E+03  0.17431250126E+03  0.17218664116E+03  0.44533350443E+03  0.91676736119E+02 0.  0.
         23    2    4    4    0    0  0.70931102294E+02 -0.37770165858E+03 -0.47389589550E+03  0.61695447832E+03  0.91464443264E+02 0.  0.
          3    1    3    3  502    0 -0.34198029781E+03  0.15026140748E+03 -0.53669085299E+03  0.65388537708E+03  0.00000000000E+00 0. -1.
         -4    1    3    3    0  502 -0.89345336530E+02  0.53127749838E+02 -0.23178539453E+03  0.25402680190E+03  0.00000000000E+00 0.  1.
         13    1    5    5    0    0  0.20253304616E+03  0.14515543392E+03  0.11971326575E+03  0.27644348569E+03  0.00000000000E+00 0. -1.
        -13    1    5    5    0    0  0.15786148589E+03  0.29157067342E+02  0.52473375411E+02  0.16889001874E+03  0.00000000000E+00 0.  1.
          4    1    6    6  503    0  0.40528041737E+02 -0.29072662429E+03 -0.41232771300E+03  0.50614092419E+03  0.00000000000E+00 0. -1.
         -4    1    6    6    0  503  0.30403060557E+02 -0.86975034296E+02 -0.61568182496E+02  0.11081355412E+03  0.00000000000E+00 0.  1.
<mgrwt>
<rscale>  0 0.16542042E+04</rscale>
<asrwt>0</asrwt>
<pdfrwt beam="1">  1        1 0.69231898E-01 0.16542042E+04</pdfrwt>
<pdfrwt beam="2">  1       -2 0.23387582E+00 0.16542042E+04</pdfrwt>
<totfact> 0.34578574E+00</totfact>
</mgrwt>
</event>
<event>
12    5  0.5428626E-008  0.1518789E+04  0.7818608E-02  0.8872054E-01
          1   -1    0    0  501    0  0.00000000000E+00  0.00000000000E+00  0.10844756205E+04  0.10844756205E+04  0.00000000000E+00 0. -1.
         -2   -1    0    0    0  501 -0.00000000000E+00 -0.00000000000E+00 -0.53175915099E+03  0.53175915099E+03  0.00000000000E+00 0.  1.
        -24    2    1    2    0    0 -0.28039948291E+03 -0.14749813859E+03 -0.21894470535E+03  0.39367819947E+03  0.81646615541E+02 0.  0.
        254    2    1    2    0    0  0.28039948291E+03  0.14749813859E+03  0.77166117488E+03  0.12225565720E+04  0.89375837458E+03 0.  0.
         23    2    4    4    0    0  0.13557702948E+03 -0.77772845186E+02  0.89532932087E+03  0.91329593563E+03  0.89806051311E+02 0.  0.
         23    2    4    4    0    0  0.14482245343E+03  0.22527098378E+03 -0.12366814599E+03  0.30926063642E+03  0.92885799543E+02 0.  0.
          3    1    3    3  502    0 -0.14176819117E+02 -0.17540677499E+02 -0.44487302400E+02  0.49877626670E+02  0.00000000000E+00 0. -1.
         -4    1    3    3    0  502 -0.26622266379E+03 -0.12995746110E+03 -0.17445740295E+03  0.34380057280E+03  0.00000000000E+00 0.  1.
         13    1    5    5    0    0  0.13175271857E+03 -0.37783254067E+02  0.75452524647E+03  0.76687332768E+03  0.00000000000E+00 0. -1.
        -13    1    5    5    0    0  0.38243109074E+01 -0.39989591118E+02  0.14080407440E+03  0.14642260795E+03  0.00000000000E+00 0.  1.
          1    1    6    6  503    0  0.93878794173E+02  0.20585612018E+03 -0.82039673889E+02  0.24066673701E+03  0.00000000000E+00 0. -1.
         -1    1    6    6    0  503  0.50943659256E+02  0.19414863598E+02 -0.41628472098E+02  0.68593899409E+02  0.00000000000E+00 0.  1.
<mgrwt>
<rscale>  0 0.15187888E+04</rscale>
<asrwt>0</asrwt>
<pdfrwt beam="1">  1        1 0.16684240E+00 0.15187888E+04</pdfrwt>
<pdfrwt beam="2">  1       -2 0.81809100E-01 0.15187888E+04</pdfrwt>
<totfact> 0.14499836E+01</totfact>
</mgrwt>
</event>
<event>
12    5  0.5428626E-008  0.3998294E+04  0.7818608E-02  0.8004891E-01
          1   -1    0    0  501    0  0.00000000000E+00  0.00000000000E+00  0.22960270327E+04  0.22960270327E+04  0.00000000000E+00 0. -1.
         -2   -1    0    0    0  501 -0.00000000000E+00 -0.00000000000E+00 -0.17406539580E+04  0.17406539580E+04  0.00000000000E+00 0.  1.
        -24    2    1    2    0    0  0.63841667190E+03 -0.58752301547E+03  0.19678897880E+04  0.21521112601E+04  0.78952628240E+02 0.  0.
        254    2    1    2    0    0 -0.63841667190E+03  0.58752301547E+03 -0.14125167133E+04  0.18845697306E+04  0.89645996204E+03 0.  0.
         23    2    4    4    0    0 -0.41254469636E+03 -0.10734133671E+03 -0.86090754756E+03  0.96458459338E+03  0.86869691377E+02 0.  0.
         23    2    4    4    0    0 -0.22587197554E+03  0.69486435217E+03 -0.55160916577E+03  0.91998513726E+03  0.90803985379E+02 0.  0.
          3    1    3    3  502    0  0.61420254174E+03 -0.58223401826E+03  0.19060719061E+04  0.20855098479E+04  0.00000000000E+00 0. -1.
         -4    1    3    3    0  502  0.24214130164E+02 -0.52889972072E+01  0.61817881839E+02  0.66601412193E+02  0.00000000000E+00 0.  1.
         13    1    5    5    0    0 -0.15562438724E+03 -0.69764172306E+02 -0.41350348939E+03  0.44729310902E+03  0.00000000000E+00 0. -1.
        -13    1    5    5    0    0 -0.25692030911E+03 -0.37577164399E+02 -0.44740405817E+03  0.51729148435E+03  0.00000000000E+00 0.  1.
          2    1    6    6  503    0 -0.41729541249E+02  0.47668952894E+02 -0.44846452423E+02  0.77620151880E+02  0.00000000000E+00 0.  1.
         -2    1    6    6    0  503 -0.18414243429E+03  0.64719539928E+03 -0.50676271335E+03  0.84236498538E+03  0.00000000000E+00 0. -1.
<mgrwt>
<rscale>  0 0.39982939E+04</rscale>
<asrwt>0</asrwt>
<pdfrwt beam="1">  1        1 0.35323493E+00 0.39982939E+04</pdfrwt>
<pdfrwt beam="2">  1       -2 0.26779292E+00 0.39982939E+04</pdfrwt>
<totfact> 0.64464183E-02</totfact>
</mgrwt>
</event>
<event>
12    5  0.5428626E-008  0.1292549E+04  0.7818608E-02  0.9035495E-01
         -2   -1    0    0    0  501 -0.00000000000E+00  0.00000000000E+00  0.45973441005E+03  0.45973441005E+03  0.00000000000E+00 0.  1.
          1   -1    0    0  501    0  0.00000000000E+00 -0.00000000000E+00 -0.90850439062E+03  0.90850439062E+03  0.00000000000E+00 0. -1.
        -24    2    1    2    0    0  0.25250104509E+03  0.96064149109E+02 -0.31193932738E+03  0.42077640951E+03  0.82228610073E+02 0.  0.
        254    2    1    2    0    0 -0.25250104509E+03 -0.96064149109E+02 -0.13683065319E+03  0.94746239116E+03  0.89776236082E+03 0.  0.
         23    2    4    4    0    0 -0.57145902709E+03 -0.96322402095E+02  0.55017851946E+01  0.58639799300E+03  0.89380712507E+02 0.  0.
         23    2    4    4    0    0  0.31895798200E+03  0.25825298635E+00 -0.14233243838E+03  0.36106439816E+03  0.91513472400E+02 0.  0.
          3    1    3    3  502    0  0.24691405633E+03  0.84963936819E+02 -0.26427771783E+03  0.37152137747E+03  0.00000000000E+00 0. -1.
         -4    1    3    3    0  502  0.55869887601E+01  0.11100212290E+02 -0.47661609549E+02  0.49255032038E+02  0.00000000000E+00 0.  1.
         13    1    5    5    0    0 -0.53727035310E+03 -0.10080273234E+03 -0.13922647697E+02  0.54682214959E+03  0.00000000000E+00 0.  1.
        -13    1    5    5    0    0 -0.34188673991E+02  0.44803302463E+01  0.19424432891E+02  0.39575843409E+02  0.00000000000E+00 0. -1.
          4    1    6    6  503    0  0.29546809313E+03  0.26364905760E+02 -0.12945712274E+03  0.32365977343E+03  0.00000000000E+00 0.  1.
         -4    1    6    6    0  503  0.23489888870E+02 -0.26106652773E+02 -0.12875315642E+02  0.37404624728E+02  0.00000000000E+00 0. -1.
<mgrwt>
<rscale>  0 0.12925490E+04</rscale>
<asrwt>0</asrwt>
<pdfrwt beam="1">  1        1 0.13976990E+00 0.12925490E+04</pdfrwt>
<pdfrwt beam="2">  1       -2 0.70728372E-01 0.12925490E+04</pdfrwt>
<totfact> 0.28041962E+01</totfact>
</mgrwt>
</event>
<event>
12    5  0.5428626E-008  0.1051237E+04  0.7818608E-02  0.9254067E-01
          1   -1    0    0  501    0  0.00000000000E+00  0.00000000000E+00  0.20706239034E+04  0.20706239034E+04  0.00000000000E+00 0. -1.
         -2   -1    0    0    0  501 -0.00000000000E+00 -0.00000000000E+00 -0.13342598027E+03  0.13342598027E+03  0.00000000000E+00 0.  1.
        -24    2    1    2    0    0  0.41253463772E+02  0.57228793193E+01  0.25153005545E+02  0.93283937749E+02  0.79590324369E+02 0.  0.
        254    2    1    2    0    0 -0.41253463772E+02 -0.57228793193E+01  0.19120449176E+04  0.21107659459E+04  0.89313073621E+03 0.  0.
         23    2    4    4    0    0 -0.19035123726E+03 -0.60174747890E+02  0.19154310043E+04  0.19279578137E+04  0.91053859876E+02 0.  0.
         23    2    4    4    0    0  0.14909777349E+03  0.54451868571E+02 -0.33860867121E+01  0.18280813222E+03  0.90621165139E+02 0.  0.
          3    1    3    3  502    0 -0.15392261801E+02 -0.18668453376E+02  0.20006300578E+02  0.31395619721E+02  0.00000000000E+00 0. -1.
         -4    1    3    3    0  502  0.56645725573E+02  0.24391332695E+02  0.51467049666E+01  0.61888318028E+02  0.00000000000E+00 0.  1.
         13    1    5    5    0    0 -0.88949337507E+02  0.94948907295E+01  0.10534407090E+04  0.10572319826E+04  0.00000000000E+00 0. -1.
        -13    1    5    5    0    0 -0.10140189975E+03 -0.69669638619E+02  0.86199029522E+03  0.87072583106E+03  0.00000000000E+00 0.  1.
          1    1    6    6  503    0 -0.41304941235E+01 -0.95783968231E+01 -0.12752972812E+02  0.16475587484E+02  0.00000000000E+00 0. -1.
         -1    1    6    6    0  503  0.15322826761E+03  0.64030265394E+02  0.93668861003E+01  0.16633254473E+03  0.00000000000E+00 0.  1.
<mgrwt>
<rscale>  0 0.10512374E+04</rscale>
<asrwt>0</asrwt>
<pdfrwt beam="1">  1        1 0.31855750E+00 0.10512374E+04</pdfrwt>
<pdfrwt beam="2">  1       -2 0.20527075E-01 0.10512374E+04</pdfrwt>
<totfact> 0.48018793E+01</totfact>
</mgrwt>
</event>
<event>
12    5  0.5428626E-008  0.2336306E+04  0.7818608E-02  0.8463742E-01
          1   -1    0    0  501    0  0.00000000000E+00  0.00000000000E+00  0.13662539270E+04  0.13662539270E+04  0.00000000000E+00 0. -1.
         -2   -1    0    0    0  501 -0.00000000000E+00 -0.00000000000E+00 -0.99877626745E+03  0.99877626745E+03  0.00000000000E+00 0.  1.
        -24    2    1    2    0    0  0.14969503424E+03 -0.94228886435E+03  0.43711543624E+03  0.10525538821E+04  0.80516227427E+02 0.  0.
        254    2    1    2    0    0 -0.14969503424E+03  0.94228886435E+03 -0.69637776641E+02  0.13124763124E+04  0.89856983235E+03 0.  0.
         23    2    4    4    0    0 -0.51817158088E+03  0.60053277892E+03 -0.17089269680E+02  0.79845154368E+03  0.89952313271E+02 0.  0.
         23    2    4    4    0    0  0.36847654665E+03  0.34175608543E+03 -0.52548506962E+02  0.51402476876E+03  0.94275818525E+02 0.  0.
          1    1    3    3  502    0  0.13510027331E+03 -0.78202086129E+03  0.39356487897E+03  0.88583408453E+03  0.00000000000E+00 0. -1.
         -2    1    3    3    0  502  0.14594760920E+02 -0.16026800306E+03  0.43550557269E+02  0.16671979753E+03  0.00000000000E+00 0.  1.
         13    1    5    5    0    0 -0.41912963355E+03  0.43795954087E+03  0.92581654667E+01  0.60627050298E+03  0.00000000000E+00 0. -1.
        -13    1    5    5    0    0 -0.99041947331E+02  0.16257323806E+03 -0.26347435147E+02  0.19218104069E+03  0.00000000000E+00 0.  1.
          3    1    6    6  503    0  0.15452590167E+03  0.20732852541E+03 -0.22169520102E+02  0.25952814752E+03  0.00000000000E+00 0. -1.
         -3    1    6    6    0  503  0.21395064498E+03  0.13442756002E+03 -0.30378986860E+02  0.25449662124E+03  0.00000000000E+00 0.  1.
<mgrwt>
<rscale>  0 0.23363065E+04</rscale>
<asrwt>0</asrwt>
<pdfrwt beam="1">  1        1 0.21019291E+00 0.23363065E+04</pdfrwt>
<pdfrwt beam="2">  1       -2 0.15365789E+00 0.23363065E+04</pdfrwt>
<totfact> 0.18035917E+00</totfact>
</mgrwt>
</event>
<event>
12    5  0.5428626E-008  0.1963864E+04  0.7818608E-02  0.8623704E-01
         -2   -1    0    0    0  501 -0.00000000000E+00  0.00000000000E+00  0.40591176025E+03  0.40591176025E+03  0.00000000000E+00 0.  1.
          1   -1    0    0  501    0  0.00000000000E+00 -0.00000000000E+00 -0.23753690683E+04  0.23753690683E+04  0.00000000000E+00 0. -1.
        -24    2    1    2    0    0 -0.50196757827E+02  0.42416846886E+03  0.13670774547E+03  0.45560034108E+03  0.80274894232E+02 0.  0.
        254    2    1    2    0    0  0.50196757827E+02 -0.42416846886E+03 -0.21061650536E+04  0.23256804875E+04  0.88905561846E+03 0.  0.
         23    2    4    4    0    0 -0.17112714244E+03 -0.22696956227E+03 -0.12906595431E+03  0.32432387481E+03  0.87910603080E+02 0.  0.
         23    2    4    4    0    0  0.22132390027E+03 -0.19719890659E+03 -0.19770990992E+04  0.20013566127E+04  0.92928818915E+02 0.  0.
          3    1    3    3  502    0  0.22158462884E+02  0.11005120763E+03  0.34496796883E+02  0.11744060104E+03  0.00000000000E+00 0. -1.
         -4    1    3    3    0  502 -0.72355220711E+02  0.31411726124E+03  0.10221094859E+03  0.33815974004E+03  0.00000000000E+00 0.  1.
         13    1    5    5    0    0 -0.15372789950E+03 -0.21172971271E+03 -0.14212680691E+03  0.29776125935E+03  0.00000000000E+00 0. -1.
        -13    1    5    5    0    0 -0.17399242940E+02 -0.15239849562E+02  0.13060852597E+02  0.26562615461E+02  0.00000000000E+00 0.  1.
          2    1    6    6  503    0  0.99016299451E+02 -0.14635393356E+03 -0.12258560551E+04  0.12385260471E+04  0.00000000000E+00 0.  1.
         -2    1    6    6    0  503  0.12230760082E+03 -0.50844973029E+02 -0.75124304412E+03  0.76283056561E+03  0.00000000000E+00 0. -1.
<mgrwt>
<rscale>  0 0.19638638E+04</rscale>
<asrwt>0</asrwt>
<pdfrwt beam="1">  1        1 0.36544140E+00 0.19638638E+04</pdfrwt>
<pdfrwt beam="2">  1       -2 0.62447962E-01 0.19638638E+04</pdfrwt>
<totfact> 0.32133408E+00</totfact>
</mgrwt>
</event>
<event>
12    5  0.5428626E-008  0.1766680E+04  0.7818608E-02  0.8724222E-01
         -2   -1    0    0    0  501 -0.00000000000E+00  0.00000000000E+00  0.54478241823E+03  0.54478241823E+03  0.00000000000E+00 0.  1.
          1   -1    0    0  501    0  0.00000000000E+00 -0.00000000000E+00 -0.14322961776E+04  0.14322961776E+04  0.00000000000E+00 0. -1.
        -24    2    1    2    0    0  0.29011315678E+03  0.53805003685E+03 -0.57321558432E+03  0.84173248349E+03  0.79208470279E+02 0.  0.
        254    2    1    2    0    0 -0.29011315678E+03 -0.53805003685E+03 -0.31429817508E+03  0.11353461124E+04  0.90363928982E+03 0.  0.
         23    2    4    4    0    0 -0.11041920635E+03  0.24305555116E+03 -0.11047487647E+03  0.30330343151E+03  0.92303148106E+02 0.  0.
         23    2    4    4    0    0 -0.17969395043E+03 -0.78110558801E+03 -0.20382329861E+03  0.83204268086E+03  0.91297482248E+02 0.  0.
          3    1    3    3  502    0 -0.36669223033E+01  0.89807410662E+01 -0.27657631804E+01  0.10087094490E+02  0.00000000000E+00 0. -1.
         -4    1    3    3    0  502  0.29378007908E+03  0.52906929579E+03 -0.57044982114E+03  0.83164538900E+03  0.00000000000E+00 0.  1.
         13    1    5    5    0    0 -0.26499682123E+02  0.17429066437E+02 -0.42748611502E+02  0.53230153999E+02  0.00000000000E+00 0. -1.
        -13    1    5    5    0    0 -0.83919524223E+02  0.22562648473E+03 -0.67726264970E+02  0.25007327751E+03  0.00000000000E+00 0.  1.
          1    1    6    6  503    0 -0.12773705031E+02 -0.69023540573E+01 -0.13752413799E+01  0.14584283342E+02  0.00000000000E+00 0. -1.
         -1    1    6    6    0  503 -0.16692024540E+03 -0.77420323396E+03 -0.20244805723E+03  0.81745839752E+03  0.00000000000E+00 0.  1.
<mgrwt>
<rscale>  0 0.17666802E+04</rscale>
<asrwt>0</asrwt>
<pdfrwt beam="1">  1        1 0.22035325E+00 0.17666802E+04</pdfrwt>
<pdfrwt beam="2">  1       -2 0.83812681E-01 0.17666802E+04</pdfrwt>
<totfact> 0.75331974E+00</totfact>
</mgrwt>
</event>
<event>
12    5  0.5428626E-008  0.1516479E+04  0.7818608E-02  0.8873568E-01
         -2   -1    0    0    0  501 -0.00000000000E+00  0.00000000000E+00  0.10859865718E+04  0.10859865718E+04  0.00000000000E+00 0.  1.
          1   -1    0    0  501    0  0.00000000000E+00 -0.00000000000E+00 -0.52940540068E+03  0.52940540068E+03  0.00000000000E+00 0. -1.
        -24    2    1    2    0    0  0.12096998004E+03  0.73575947088E+02  0.67695452767E+03  0.69629688096E+03  0.80714049859E+02 0.  0.
        254    2    1    2    0    0 -0.12096998004E+03 -0.73575947088E+02 -0.12037335658E+03  0.91909509150E+03  0.90011048554E+03 0.  0.
         23    2    4    4    0    0 -0.84791275586E+02 -0.10948842832E+03 -0.49960315414E+03  0.52613789506E+03  0.89668816473E+02 0.  0.
         23    2    4    4    0    0 -0.36178704451E+02  0.35912481237E+02  0.37922979756E+03  0.39295719643E+03  0.89451181704E+02 0.  0.
          3    1    3    3  502    0  0.50359646091E+02 -0.25947944431E+01  0.12746275530E+03  0.13707509220E+03  0.00000000000E+00 0. -1.
         -4    1    3    3    0  502  0.70610333946E+02  0.76170741532E+02  0.54949177237E+03  0.55922178876E+03  0.00000000000E+00 0.  1.
         13    1    5    5    0    0 -0.33724552650E+01 -0.51908722857E+02 -0.28220696997E+03  0.28696108249E+03  0.00000000000E+00 0. -1.
        -13    1    5    5    0    0 -0.81418820321E+02 -0.57579705468E+02 -0.21739618417E+03  0.23917681258E+03  0.00000000000E+00 0.  1.
          2    1    6    6  503    0 -0.65726955387E+02  0.18285704111E+02  0.26648234417E+03  0.27507678817E+03  0.00000000000E+00 0. -1.
         -2    1    6    6    0  503  0.29548250936E+02  0.17626777125E+02  0.11274745339E+03  0.11788040826E+03  0.00000000000E+00 0.  1.
<mgrwt>
<rscale>  0 0.15164790E+04</rscale>
<asrwt>0</asrwt>
<pdfrwt beam="1">  1        1 0.81446985E-01 0.15164790E+04</pdfrwt>
<pdfrwt beam="2">  1       -2 0.16707486E+00 0.15164790E+04</pdfrwt>
<totfact> 0.77296119E+00</totfact>
</mgrwt>
</event>
<event>
12    5  0.5428626E-008  0.2189621E+04  0.7818608E-02  0.8522761E-01
          1   -1    0    0  501    0  0.00000000000E+00  0.00000000000E+00  0.25835056958E+04  0.25835056958E+04  0.00000000000E+00 0. -1.
         -2   -1    0    0    0  501 -0.00000000000E+00 -0.00000000000E+00 -0.46394705210E+03  0.46394705210E+03  0.00000000000E+00 0.  1.
        -24    2    1    2    0    0 -0.14482846671E+03  0.28565743736E+03 -0.29837318373E+03  0.44516932796E+03  0.81078465063E+02 0.  0.
        254    2    1    2    0    0  0.14482846671E+03 -0.28565743736E+03  0.24179318274E+04  0.26022834199E+04  0.90714343922E+03 0.  0.
         23    2    4    4    0    0  0.20509189089E+03 -0.58316246726E+03  0.13380583801E+04  0.14768070630E+04  0.91748164072E+02 0.  0.
         23    2    4    4    0    0 -0.60263424172E+02  0.29750502990E+03  0.10798734473E+04  0.11254763570E+04  0.91812008249E+02 0.  0.
          3    1    3    3  502    0 -0.65277497141E+02  0.13693972447E+03 -0.87438224621E+02  0.17509735262E+03  0.00000000000E+00 0. -1.
         -4    1    3    3    0  502 -0.79550969573E+02  0.14871771289E+03 -0.21093495911E+03  0.27007197534E+03  0.00000000000E+00 0.  1.
         13    1    5    5    0    0  0.19849555508E+03 -0.55196843286E+03  0.13055697776E+04  0.14312868617E+04  0.00000000000E+00 0. -1.
        -13    1    5    5    0    0  0.65963358104E+01 -0.31194034402E+02  0.32488602525E+02  0.45520201257E+02  0.00000000000E+00 0.  1.
          1    1    6    6  503    0 -0.41544336105E+02  0.26734804630E+03  0.82720395163E+03  0.87032596613E+03  0.00000000000E+00 0. -1.
         -1    1    6    6    0  503 -0.18719088067E+02  0.30156983603E+02  0.25266949563E+03  0.25515039082E+03  0.00000000000E+00 0.  1.
<mgrwt>
<rscale>  0 0.21896208E+04</rscale>
<asrwt>0</asrwt>
<pdfrwt beam="1">  1        1 0.39746241E+00 0.21896208E+04</pdfrwt>
<pdfrwt beam="2">  1       -2 0.71376471E-01 0.21896208E+04</pdfrwt>
<totfact> 0.16928021E+00</totfact>
</mgrwt>
</event>
<event>
12    5  0.5428626E-008  0.1009420E+04  0.7818608E-02  0.9298273E-01
         -2   -1    0    0    0  501 -0.00000000000E+00  0.00000000000E+00  0.13318238366E+04  0.13318238366E+04  0.00000000000E+00 0.  1.
          1   -1    0    0  501    0  0.00000000000E+00 -0.00000000000E+00 -0.19126565640E+03  0.19126565640E+03  0.00000000000E+00 0. -1.
        -24    2    1    2    0    0  0.23902969446E+02  0.44924372343E+02  0.21116100551E+03  0.23101912953E+03  0.78684920919E+02 0.  0.
        254    2    1    2    0    0 -0.23902969446E+02 -0.44924372343E+02  0.92939717467E+03  0.12920703634E+04  0.89614572734E+03 0.  0.
         23    2    4    4    0    0  0.34296400771E+03  0.13588256932E+03  0.15436383084E+03  0.41112820043E+03  0.95445385876E+02 0.  0.
         23    2    4    4    0    0 -0.36686697716E+03 -0.18080694166E+03  0.77503334383E+03  0.88094216302E+03  0.89999341423E+02 0.  0.
          1    1    3    3  502    0  0.62291454854E+01  0.22887905568E+02  0.67453380267E+01  0.24660860890E+02  0.00000000000E+00 0. -1.
         -2    1    3    3    0  502  0.17673823961E+02  0.22036466775E+02  0.20441566749E+03  0.20635826864E+03  0.00000000000E+00 0.  1.
         13    1    5    5    0    0  0.29684287470E+03  0.13350844541E+03  0.10152320457E+03  0.34095037516E+03  0.00000000000E+00 0.  1.
        -13    1    5    5    0    0  0.46121133011E+02  0.23741239013E+01  0.52840626264E+02  0.70177825262E+02  0.00000000000E+00 0. -1.
          4    1    6    6  503    0 -0.36573029729E+03 -0.17192076089E+03  0.77218480902E+03  0.87154160983E+03  0.00000000000E+00 0.  1.
         -4    1    6    6    0  503 -0.11366798647E+01 -0.88861807667E+01  0.28485348123E+01  0.94005531918E+01  0.00000000000E+00 0. -1.
<mgrwt>
<rscale>  0 0.10094200E+04</rscale>
<asrwt>0</asrwt>
<pdfrwt beam="1">  1        1 0.29425486E-01 0.10094200E+04</pdfrwt>
<pdfrwt beam="2">  1       -2 0.20489597E+00 0.10094200E+04</pdfrwt>
<totfact> 0.17029594E+01</totfact>
</mgrwt>
</event>
<event>
12    5  0.5428626E-008  0.1620618E+04  0.7818608E-02  0.8807981E-01
          1   -1    0    0  501    0  0.00000000000E+00  0.00000000000E+00  0.14294851384E+04  0.14294851384E+04  0.00000000000E+00 0. -1.
         -2   -1    0    0    0  501 -0.00000000000E+00 -0.00000000000E+00 -0.45932668095E+03  0.45932668095E+03  0.00000000000E+00 0.  1.
        -24    2    1    2    0    0  0.29941210103E+03  0.19156501818E+03  0.82669741834E+03  0.90343373830E+03  0.80119508149E+02 0.  0.
        254    2    1    2    0    0 -0.29941210103E+03 -0.19156501818E+03  0.14346103911E+03  0.98537808105E+03  0.90776876486E+03 0.  0.
         23    2    4    4    0    0 -0.89227904869E+02 -0.31212738650E+03 -0.31326414030E+03  0.46039310419E+03  0.91881795671E+02 0.  0.
         23    2    4    4    0    0 -0.21018419616E+03  0.12056236833E+03  0.45672517941E+03  0.52498497686E+03  0.91096956330E+02 0.  0.
          3    1    3    3  502    0  0.28414446013E+03  0.19274594326E+03  0.74499781182E+03  0.82031141190E+03  0.00000000000E+00 0. -1.
         -4    1    3    3    0  502  0.15267640896E+02 -0.11809250799E+01  0.81699606516E+02  0.83122326407E+02  0.00000000000E+00 0.  1.
         13    1    5    5    0    0 -0.41486019661E+02 -0.38307770825E+02 -0.77682820957E+02  0.96037470837E+02  0.00000000000E+00 0.  1.
        -13    1    5    5    0    0 -0.47741885208E+02 -0.27381961568E+03 -0.23558131935E+03  0.36435563336E+03  0.00000000000E+00 0. -1.
          3    1    6    6  503    0 -0.13921778144E+03  0.93516194948E+02  0.38745070166E+03  0.42219061524E+03  0.00000000000E+00 0. -1.
         -3    1    6    6    0  503 -0.70966414717E+02  0.27046173380E+02  0.69274477753E+02  0.10279436162E+03  0.00000000000E+00 0.  1.
<mgrwt>
<rscale>  0 0.16206180E+04</rscale>
<asrwt>0</asrwt>
<pdfrwt beam="1">  1        1 0.21992079E+00 0.16206180E+04</pdfrwt>
<pdfrwt beam="2">  1       -2 0.70665644E-01 0.16206180E+04</pdfrwt>
<totfact> 0.11210267E+01</totfact>
</mgrwt>
</event>
<event>
12    5  0.5428626E-008  0.2120206E+04  0.7818608E-02  0.8552394E-01
          1   -1    0    0  501    0  0.00000000000E+00  0.00000000000E+00  0.10428990177E+04  0.10428990177E+04  0.00000000000E+00 0. -1.
         -2   -1    0    0    0  501 -0.00000000000E+00 -0.00000000000E+00 -0.10775911550E+04  0.10775911550E+04  0.00000000000E+00 0.  1.
        -24    2    1    2    0    0  0.15265401676E+03  0.43723769202E+03  0.71875151227E+03  0.85887765917E+03  0.81160636210E+02 0.  0.
        254    2    1    2    0    0 -0.15265401676E+03 -0.43723769202E+03 -0.75344364957E+03  0.12616125136E+04  0.89972704370E+03 0.  0.
         23    2    4    4    0    0 -0.24440852495E+03  0.12621309580E+03 -0.59586773880E+03  0.66231027943E+03  0.89057686268E+02 0.  0.
         23    2    4    4    0    0  0.91754508194E+02 -0.56345078782E+03 -0.15757591077E+03  0.59930223414E+03  0.91854886237E+02 0.  0.
          3    1    3    3  502    0  0.11288202107E+03  0.33780126829E+03  0.60920483117E+03  0.70567880360E+03  0.00000000000E+00 0. -1.
         -4    1    3    3    0  502  0.39771995687E+02  0.99436423730E+02  0.10954668111E+03  0.15319885557E+03  0.00000000000E+00 0.  1.
         13    1    5    5    0    0 -0.17411195531E+03  0.13054230437E+03 -0.42434952582E+03  0.47689494260E+03  0.00000000000E+00 0. -1.
        -13    1    5    5    0    0 -0.70296569645E+02 -0.43292085761E+01 -0.17151821297E+03  0.18541533683E+03  0.00000000000E+00 0.  1.
          1    1    6    6  503    0  0.67824149010E+02 -0.53469628339E+03 -0.15875214860E+03  0.56187407428E+03  0.00000000000E+00 0. -1.
         -1    1    6    6    0  503  0.23930359184E+02 -0.28754504428E+02  0.11762378221E+01  0.37428159867E+02  0.00000000000E+00 0.  1.
<mgrwt>
<rscale>  0 0.21202064E+04</rscale>
<asrwt>0</asrwt>
<pdfrwt beam="1">  1        1 0.16044600E+00 0.21202064E+04</pdfrwt>
<pdfrwt beam="2">  1       -2 0.16578326E+00 0.21202064E+04</pdfrwt>
<totfact> 0.25777139E+00</totfact>
</mgrwt>
</event>
<event>
12    5  0.5428626E-008  0.1850714E+04  0.7818608E-02  0.8679786E-01
         -2   -1    0    0    0  501 -0.00000000000E+00  0.00000000000E+00  0.76769368190E+03  0.76769368190E+03  0.00000000000E+00 0.  1.
          1   -1    0    0  501    0  0.00000000000E+00 -0.00000000000E+00 -0.11153994872E+04  0.11153994872E+04  0.00000000000E+00 0. -1.
        -24    2    1    2    0    0 -0.63835282003E+02  0.45162051765E+03 -0.67284361634E+03  0.81663146746E+03  0.78309555055E+02 0.  0.
        254    2    1    2    0    0  0.63835282003E+02 -0.45162051765E+03  0.32513781106E+03  0.10664617016E+04  0.90751855609E+03 0.  0.
         23    2    4    4    0    0  0.47237133552E+03 -0.18602028277E+03  0.12276119254E+03  0.53108344831E+03  0.96130611382E+02 0.  0.
         23    2    4    4    0    0 -0.40853605352E+03 -0.26560023488E+03  0.20237661851E+03  0.53537825332E+03  0.90710454814E+02 0.  0.
          1    1    3    3  502    0 -0.26628098476E+02  0.30615650281E+03 -0.50744564611E+03  0.59324694993E+03  0.00000000000E+00 0. -1.
         -2    1    3    3    0  502 -0.37207183527E+02  0.14546401484E+03 -0.16539797023E+03  0.22338451753E+03  0.00000000000E+00 0.  1.
         13    1    5    5    0    0  0.15030446240E+03 -0.37841985276E+02 -0.27017090207E+01  0.15501853598E+03  0.00000000000E+00 0. -1.
        -13    1    5    5    0    0  0.32206687312E+03 -0.14817829750E+03  0.12546290156E+03  0.37606491232E+03  0.00000000000E+00 0.  1.
          4    1    6    6  503    0 -0.92597374987E+02 -0.48769110108E+02  0.84378347513E+02  0.13443364714E+03  0.00000000000E+00 0. -1.
         -4    1    6    6    0  503 -0.31593867853E+03 -0.21683112477E+03  0.11799827100E+03  0.40094460617E+03  0.00000000000E+00 0.  1.
<mgrwt>
<rscale>  0 0.18507135E+04</rscale>
<asrwt>0</asrwt>
<pdfrwt beam="1">  1        1 0.17159992E+00 0.18507135E+04</pdfrwt>
<pdfrwt beam="2">  1       -2 0.11810672E+00 0.18507135E+04</pdfrwt>
<totfact> 0.56183633E+00</totfact>
</mgrwt>
</event>
<event>
12    5  0.5428626E-008  0.1845490E+04  0.7818608E-02  0.8682475E-01
          1   -1    0    0  501    0  0.00000000000E+00  0.00000000000E+00  0.16285435296E+04  0.16285435296E+04  0.00000000000E+00 0. -1.
         -2   -1    0    0    0  501 -0.00000000000E+00 -0.00000000000E+00 -0.52283448019E+03  0.52283448019E+03  0.00000000000E+00 0.  1.
        -24    2    1    2    0    0 -0.46850342752E+03  0.12185406837E+02  0.10335703701E+04  0.11364975008E+04  0.60950091854E+02 0.  0.
        254    2    1    2    0    0  0.46850342752E+03 -0.12185406837E+02  0.72138679328E+02  0.10148805090E+04  0.89729288013E+03 0.  0.
         23    2    4    4    0    0  0.28812273850E+03 -0.19964539664E+03  0.43078753264E+03  0.56284142807E+03  0.91321290149E+02 0.  0.
         23    2    4    4    0    0  0.18038068902E+03  0.18745998980E+03 -0.35864885331E+03  0.45203908092E+03  0.89620812050E+02 0.  0.
          1    1    3    3  502    0 -0.43198005485E+03  0.23575043886E+02  0.91968454294E+03  0.10163573235E+04  0.00000000000E+00 0. -1.
         -2    1    3    3    0  502 -0.36523372676E+02 -0.11389637050E+02  0.11388582716E+03  0.12014017734E+03  0.00000000000E+00 0.  1.
         13    1    5    5    0    0  0.20275020633E+02 -0.43288088865E+02  0.31477369900E+02  0.57234254735E+02  0.00000000000E+00 0. -1.
        -13    1    5    5    0    0  0.26784771787E+03 -0.15635730777E+03  0.39931016274E+03  0.50560717333E+03  0.00000000000E+00 0.  1.
          4    1    6    6  503    0  0.14963560568E+01 -0.85803153981E+01 -0.19810430096E+02  0.21640564558E+02  0.00000000000E+00 0. -1.
         -4    1    6    6    0  503  0.17888433296E+03  0.19604030520E+03 -0.33883842321E+03  0.43039851636E+03  0.00000000000E+00 0.  1.
<mgrwt>
<rscale>  0 0.18454904E+04</rscale>
<asrwt>0</asrwt>
<pdfrwt beam="1">  1        1 0.25054516E+00 0.18454904E+04</pdfrwt>
<pdfrwt beam="2">  1       -2 0.80436075E-01 0.18454904E+04</pdfrwt>
<totfact> 0.60089684E+00</totfact>
</mgrwt>
</event>
<event>
12    5  0.5428626E-008  0.1614822E+04  0.7818608E-02  0.8811494E-01
         -2   -1    0    0    0  501 -0.00000000000E+00  0.00000000000E+00  0.43269337036E+03  0.43269337036E+03  0.00000000000E+00 0.  1.
          1   -1    0    0  501    0  0.00000000000E+00 -0.00000000000E+00 -0.15066382409E+04  0.15066382409E+04  0.00000000000E+00 0. -1.
        -24    2    1    2    0    0 -0.84291001867E+02 -0.16662289776E+03  0.25588097669E+03  0.32627038433E+03  0.78160900732E+02 0.  0.
        254    2    1    2    0    0  0.84291001867E+02  0.16662289776E+03 -0.13298258473E+04  0.16130612269E+04  0.89367867535E+03 0.  0.
         23    2    4    4    0    0 -0.22787826161E+03  0.85504574094E+02 -0.18685823591E+02  0.26011389691E+03  0.89836212403E+02 0.  0.
         23    2    4    4    0    0  0.31216926348E+03  0.81118323669E+02 -0.13111400237E+04  0.13529473300E+04  0.85723302995E+02 0.  0.
          1    1    3    3  502    0 -0.47071822330E+02 -0.41659515561E+02  0.13298606752E+03  0.14709373150E+03  0.00000000000E+00 0. -1.
         -2    1    3    3    0  502 -0.37219179537E+02 -0.12496338220E+03  0.12289490918E+03  0.17917665283E+03  0.00000000000E+00 0.  1.
         13    1    5    5    0    0 -0.18225988463E+03  0.10368868403E+03 -0.79264723922E+01  0.20984002884E+03  0.00000000000E+00 0. -1.
        -13    1    5    5    0    0 -0.45618376984E+02 -0.18184109934E+02 -0.10759351199E+02  0.50273868073E+02  0.00000000000E+00 0.  1.
          2    1    6    6  503    0  0.25311101597E+03  0.81925257917E+02 -0.11715322215E+04  0.12013595133E+04  0.00000000000E+00 0. -1.
         -2    1    6    6    0  503  0.59058247510E+02 -0.80693424768E+00 -0.13960780218E+03  0.15158781670E+03  0.00000000000E+00 0.  1.
<mgrwt>
<rscale>  0 0.16148218E+04</rscale>
<asrwt>0</asrwt>
<pdfrwt beam="1">  1        1 0.23179050E+00 0.16148218E+04</pdfrwt>
<pdfrwt beam="2">  1       -2 0.66568210E-01 0.16148218E+04</pdfrwt>
<totfact> 0.11287430E+01</totfact>
</mgrwt>
</event>
<event>
12    5  0.5428626E-008  0.2857256E+04  0.7818608E-02  0.8285710E-01
          1   -1    0    0  501    0  0.00000000000E+00  0.00000000000E+00  0.14679147286E+04  0.14679147286E+04  0.00000000000E+00 0. -1.
         -2   -1    0    0    0  501 -0.00000000000E+00 -0.00000000000E+00 -0.13903927912E+04  0.13903927912E+04  0.00000000000E+00 0.  1.
        -24    2    1    2    0    0  0.38788251487E+03 -0.90928867575E+03  0.86890823636E+03  0.13173341699E+04  0.55758864053E+02 0.  0.
        254    2    1    2    0    0 -0.38788251487E+03  0.90928867575E+03 -0.79138629898E+03  0.15409733499E+04  0.87809330350E+03 0.  0.
         23    2    4    4    0    0  0.12360080032E+03  0.23660783202E+03 -0.60990381194E+03  0.67183988742E+03  0.90142944794E+02 0.  0.
         23    2    4    4    0    0 -0.51148331519E+03  0.67268084372E+03 -0.18148248704E+03  0.86913346246E+03  0.91336647844E+02 0.  0.
          1    1    3    3  502    0  0.32284707242E+03 -0.69858095203E+03  0.68053975459E+03  0.10273168627E+04  0.00000000000E+00 0. -1.
         -2    1    3    3    0  502  0.65035442448E+02 -0.21070772372E+03  0.18836848176E+03  0.29001730729E+03  0.00000000000E+00 0.  1.
         13    1    5    5    0    0 -0.91783242598E+00  0.85942600995E+02 -0.17120650246E+03  0.19156888987E+03  0.00000000000E+00 0. -1.
        -13    1    5    5    0    0  0.12451863274E+03  0.15066523103E+03 -0.43869730948E+03  0.48027099755E+03  0.00000000000E+00 0.  1.
          2    1    6    6  503    0 -0.72531870752E+02  0.14631335663E+03 -0.54001480243E+02  0.17200183275E+03  0.00000000000E+00 0. -1.
         -2    1    6    6    0  503 -0.43895144444E+03  0.52636748710E+03 -0.12748100680E+03  0.69713162971E+03  0.00000000000E+00 0.  1.
<mgrwt>
<rscale>  0 0.28572561E+04</rscale>
<asrwt>0</asrwt>
<pdfrwt beam="1">  1        1 0.22583304E+00 0.28572561E+04</pdfrwt>
<pdfrwt beam="2">  1       -2 0.21390658E+00 0.28572561E+04</pdfrwt>
<totfact> 0.56309281E-01</totfact>
</mgrwt>
</event>
<event>
12    5  0.5428626E-008  0.2610935E+04  0.7818608E-02  0.8364496E-01
         -2   -1    0    0    0  501 -0.00000000000E+00  0.00000000000E+00  0.20771382592E+04  0.20771382592E+04  0.00000000000E+00 0.  1.
          1   -1    0    0  501    0  0.00000000000E+00 -0.00000000000E+00 -0.82047758519E+03  0.82047758519E+03  0.00000000000E+00 0. -1.
        -24    2    1    2    0    0 -0.61296689500E+03 -0.33782477369E+03 -0.46318273107E+03  0.84300615184E+03  0.79165255021E+02 0.  0.
        254    2    1    2    0    0  0.61296689500E+03  0.33782477369E+03  0.17198434051E+04  0.20546096926E+04  0.87960539940E+03 0.  0.
         23    2    4    4    0    0  0.32636717788E+03  0.61167054934E+03  0.12526483851E+04  0.14351394592E+04  0.99201285173E+02 0.  0.
         23    2    4    4    0    0  0.28659971712E+03 -0.27384577565E+03  0.46719501998E+03  0.61947023333E+03  0.91330589606E+02 0.  0.
          3    1    3    3  502    0 -0.37572088393E+03 -0.24855612713E+03 -0.30959256136E+03  0.54662042132E+03  0.00000000000E+00 0. -1.
         -4    1    3    3    0  502 -0.23724601107E+03 -0.89268646559E+02 -0.15359016971E+03  0.29638573052E+03  0.00000000000E+00 0.  1.
         13    1    5    5    0    0  0.30147888795E+03  0.49486194639E+03  0.10718016846E+04  0.12184156585E+04  0.00000000000E+00 0. -1.
        -13    1    5    5    0    0  0.24888289924E+02  0.11680860295E+03  0.18084670057E+03  0.21672380073E+03  0.00000000000E+00 0.  1.
          1    1    6    6  503    0  0.25730832591E+03 -0.23813021189E+03  0.35882194327E+03  0.50166399051E+03  0.00000000000E+00 0. -1.
         -1    1    6    6    0  503  0.29291391209E+02 -0.35715563757E+02  0.10837307671E+03  0.11780624283E+03  0.00000000000E+00 0.  1.
<mgrwt>
<rscale>  0 0.26109350E+04</rscale>
<asrwt>0</asrwt>
<pdfrwt beam="1">  1        1 0.12622732E+00 0.26109350E+04</pdfrwt>
<pdfrwt beam="2">  1       -2 0.31955973E+00 0.26109350E+04</pdfrwt>
<totfact> 0.39464480E-01</totfact>
</mgrwt>
</event>
<event>
12    5  0.5428626E-008  0.2579250E+04  0.7818608E-02  0.8375284E-01
          1   -1    0    0  501    0  0.00000000000E+00  0.00000000000E+00  0.27897812416E+04  0.27897812416E+04  0.00000000000E+00 0. -1.
         -2   -1    0    0    0  501 -0.00000000000E+00 -0.00000000000E+00 -0.59615185268E+03  0.59615185268E+03  0.00000000000E+00 0.  1.
        -24    2    1    2    0    0 -0.64898743073E+03  0.82568440500E+03  0.43315666315E+03  0.11387702946E+04  0.78953575440E+02 0.  0.
        254    2    1    2    0    0  0.64898743073E+03 -0.82568440500E+03  0.17604727257E+04  0.22471627997E+04  0.92061773188E+03 0.  0.
         23    2    4    4    0    0  0.46824640919E+03 -0.38311706013E+03  0.25084285951E+03  0.66107215265E+03  0.89782344327E+02 0.  0.
         23    2    4    4    0    0  0.18074102154E+03 -0.44256734487E+03  0.15096298662E+04  0.15860906470E+04  0.90377187177E+02 0.  0.
          3    1    3    3  502    0 -0.51436271454E+03  0.64328740680E+03  0.37337657955E+03  0.90432171267E+03  0.00000000000E+00 0. -1.
         -4    1    3    3    0  502 -0.13462471619E+03  0.18239699820E+03  0.59780083602E+02  0.23444858191E+03  0.00000000000E+00 0.  1.
         13    1    5    5    0    0  0.34304609870E+02 -0.64092581612E+02  0.22756399649E+02  0.76174267315E+02  0.00000000000E+00 0. -1.
        -13    1    5    5    0    0  0.43394179932E+03 -0.31902447852E+03  0.22808645987E+03  0.58489788533E+03  0.00000000000E+00 0.  1.
          2    1    6    6  503    0  0.14728646435E+03 -0.38917903108E+03  0.13891006329E+04  0.14500876488E+04  0.00000000000E+00 0. -1.
         -2    1    6    6    0  503  0.33454557195E+02 -0.53388313786E+02  0.12052923334E+03  0.13600299826E+03  0.00000000000E+00 0.  1.
<mgrwt>
<rscale>  0 0.25792505E+04</rscale>
<asrwt>0</asrwt>
<pdfrwt beam="1">  1        1 0.42919711E+00 0.25792505E+04</pdfrwt>
<pdfrwt beam="2">  1       -2 0.91715671E-01 0.25792505E+04</pdfrwt>
<totfact> 0.66502437E-01</totfact>
</mgrwt>
</event>
<event>
12    5  0.5428626E-008  0.1804082E+04  0.7818608E-02  0.8704132E-01
         -2   -1    0    0    0  501 -0.00000000000E+00  0.00000000000E+00  0.77091657775E+03  0.77091657775E+03  0.00000000000E+00 0.  1.
          1   -1    0    0  501    0  0.00000000000E+00 -0.00000000000E+00 -0.10554683258E+04  0.10554683258E+04  0.00000000000E+00 0. -1.
        -24    2    1    2    0    0 -0.53220029995E+03 -0.30562763074E+03  0.18846183879E+03  0.64674659550E+03  0.78216917465E+02 0.  0.
        254    2    1    2    0    0  0.53220029995E+03  0.30562763074E+03 -0.47301358685E+03  0.11796383081E+04  0.88947134668E+03 0.  0.
         23    2    4    4    0    0  0.20648071473E+03 -0.25184479277E+03 -0.39956764415E+03  0.52352285888E+03  0.91442858187E+02 0.  0.
         23    2    4    4    0    0  0.32571958522E+03  0.55747242352E+03 -0.73445942700E+02  0.65611544919E+03  0.90688615515E+02 0.  0.
          1    1    3    3  502    0 -0.14519338683E+03 -0.11014731854E+03  0.27757159720E+02  0.18434752853E+03  0.00000000000E+00 0. -1.
         -2    1    3    3    0  502 -0.38700691312E+03 -0.19548031220E+03  0.16070467907E+03  0.46239906697E+03  0.00000000000E+00 0.  1.
         13    1    5    5    0    0  0.90488464001E+02 -0.10642467304E+03 -0.10345331602E+03  0.17383026705E+03  0.00000000000E+00 0. -1.
        -13    1    5    5    0    0  0.11599225073E+03 -0.14542011974E+03 -0.29611432813E+03  0.34969259182E+03  0.00000000000E+00 0.  1.
          3    1    6    6  503    0  0.14023922262E+03  0.15702419628E+03 -0.17330310078E+02  0.21124388139E+03  0.00000000000E+00 0. -1.
         -3    1    6    6    0  503  0.18548036260E+03  0.40044822723E+03 -0.56115632622E+02  0.44487156779E+03  0.00000000000E+00 0.  1.
<mgrwt>
<rscale>  0 0.18040821E+04</rscale>
<asrwt>0</asrwt>
<pdfrwt beam="1">  1        1 0.16237974E+00 0.18040821E+04</pdfrwt>
<pdfrwt beam="2">  1       -2 0.11860255E+00 0.18040821E+04</pdfrwt>
<totfact> 0.61970385E+00</totfact>
</mgrwt>
</event>
<event>
12    5  0.5428626E-008  0.1147639E+04  0.7818608E-02  0.9159965E-01
         -4   -1    0    0    0  501 -0.00000000000E+00  0.00000000000E+00  0.79028499549E+03  0.79028499549E+03  0.00000000000E+00 0.  1.
          3   -1    0    0  501    0  0.00000000000E+00 -0.00000000000E+00 -0.41664558781E+03  0.41664558781E+03  0.00000000000E+00 0. -1.
        -24    2    1    2    0    0  0.52751758424E+02  0.11819359488E+03 -0.98785126748E+02  0.17975697686E+03  0.76168205809E+02 0.  0.
        254    2    1    2    0    0 -0.52751758424E+02 -0.11819359488E+03  0.47242453442E+03  0.10271736064E+04  0.90285558267E+03 0.  0.
         23    2    4    4    0    0  0.32081531998E+03 -0.15254141069E+03 -0.58247133253E+02  0.37098785395E+03  0.89710131706E+02 0.  0.
         23    2    4    4    0    0 -0.37356707841E+03  0.34347815810E+02  0.53067166768E+03  0.65618575249E+03  0.90747938702E+02 0.  0.
          3    1    3    3  502    0  0.69819667627E+02  0.94983374174E+02 -0.93508620376E+02  0.15046756940E+03  0.00000000000E+00 0. -1.
         -4    1    3    3    0  502 -0.17067909204E+02  0.23210220707E+02 -0.52765063717E+01  0.29289407460E+02  0.00000000000E+00 0.  1.
         13    1    5    5    0    0  0.75216752132E+02 -0.81082890364E+02 -0.16663128990E+02  0.11184656802E+03  0.00000000000E+00 0.  1.
        -13    1    5    5    0    0  0.24559856785E+03 -0.71458520327E+02 -0.41584004264E+02  0.25914128592E+03  0.00000000000E+00 0. -1.
          2    1    6    6  503    0  0.10793161523E+01  0.47342072194E+01  0.28761194529E+02  0.29168201043E+02  0.00000000000E+00 0.  1.
         -2    1    6    6    0  503 -0.37464639456E+03  0.29613608591E+02  0.50191047315E+03  0.62701755145E+03  0.00000000000E+00 0. -1.
<mgrwt>
<rscale>  0 0.11476389E+04</rscale>
<asrwt>0</asrwt>
<pdfrwt beam="1">  1        3 0.64099321E-01 0.11476389E+04</pdfrwt>
<pdfrwt beam="2">  1       -4 0.12158231E+00 0.11476389E+04</pdfrwt>
<totfact> 0.27349687E+00</totfact>
</mgrwt>
</event>
<event>
12    5  0.5428626E-008  0.2445577E+04  0.7818608E-02  0.8422635E-01
         -2   -1    0    0    0  501 -0.00000000000E+00  0.00000000000E+00  0.37434364582E+03  0.37434364582E+03  0.00000000000E+00 0.  1.
          1   -1    0    0  501    0  0.00000000000E+00 -0.00000000000E+00 -0.39942228372E+04  0.39942228372E+04  0.00000000000E+00 0. -1.
        -24    2    1    2    0    0 -0.51624199284E+03 -0.87793794774E+03 -0.19860219036E+04  0.22333279259E+04  0.78675205626E+02 0.  0.
        254    2    1    2    0    0  0.51624199284E+03  0.87793794774E+03 -0.16338572877E+04  0.21352385570E+04  0.92329476523E+03 0.  0.
         23    2    4    4    0    0 -0.14057987269E+03  0.11871332658E+03  0.12076957576E+02  0.20510034483E+03  0.89803919928E+02 0.  0.
         23    2    4    4    0    0  0.65682186553E+03  0.75922462117E+03 -0.16459342453E+04  0.19301382122E+04  0.92179118412E+02 0.  0.
          1    1    3    3  502    0 -0.11603172830E+03 -0.20160051225E+03 -0.38462417242E+03  0.44949069237E+03  0.00000000000E+00 0. -1.
         -2    1    3    3    0  502 -0.40021026454E+03 -0.67633743549E+03 -0.16013977312E+04  0.17838372336E+04  0.00000000000E+00 0.  1.
         13    1    5    5    0    0 -0.13852812406E+03  0.13190747555E+03  0.96387339344E+01  0.19152683482E+03  0.00000000000E+00 0. -1.
        -13    1    5    5    0    0 -0.20517486249E+01 -0.13194148976E+02  0.24382236421E+01  0.13573510016E+02  0.00000000000E+00 0.  1.
          1    1    6    6  503    0  0.30113985394E+03  0.30589185745E+03 -0.77278934332E+03  0.88400136269E+03  0.00000000000E+00 0.  1.
         -1    1    6    6    0  503  0.35568201160E+03  0.45333276372E+03 -0.87314490200E+03  0.10461368495E+04  0.00000000000E+00 0. -1.
<mgrwt>
<rscale>  0 0.24455772E+04</rscale>
<asrwt>0</asrwt>
<pdfrwt beam="1">  1        1 0.61449580E+00 0.24455772E+04</pdfrwt>
<pdfrwt beam="2">  1       -2 0.57591332E-01 0.24455772E+04</pdfrwt>
<totfact> 0.21578510E-01</totfact>
</mgrwt>
</event>
<event>
12    5  0.5428626E-008  0.1040797E+04  0.7818608E-02  0.9264898E-01
         -2   -1    0    0    0  501 -0.00000000000E+00  0.00000000000E+00  0.47131845984E+03  0.47131845984E+03  0.00000000000E+00 0.  1.
          1   -1    0    0  501    0  0.00000000000E+00 -0.00000000000E+00 -0.57458905903E+03  0.57458905903E+03  0.00000000000E+00 0. -1.
        -24    2    1    2    0    0  0.79460279575E+02  0.31319131963E+02  0.58179977924E+01  0.11724062898E+03  0.80104256615E+02 0.  0.
        254    2    1    2    0    0 -0.79460279575E+02 -0.31319131963E+02 -0.10908859699E+03  0.92866688990E+03  0.91827394951E+03 0.  0.
         23    2    4    4    0    0  0.14920818504E+03 -0.40394194039E+03 -0.18440351968E+03  0.47745929011E+03  0.92360933025E+02 0.  0.
         23    2    4    4    0    0 -0.22866846462E+03  0.37262280843E+03  0.75314922693E+02  0.45120759979E+03  0.82334296981E+02 0.  0.
          3    1    3    3  502    0  0.94421437409E+02  0.18333551395E+02 -0.12897366479E+01  0.96193504821E+02  0.00000000000E+00 0. -1.
         -4    1    3    3    0  502 -0.14961157834E+02  0.12985580568E+02  0.71077344402E+01  0.21047124158E+02  0.00000000000E+00 0.  1.
         13    1    5    5    0    0  0.33024348445E+01 -0.12790716258E+03 -0.46510590405E+02  0.13614104206E+03  0.00000000000E+00 0.  1.
        -13    1    5    5    0    0  0.14590575020E+03 -0.27603477781E+03 -0.13789292927E+03  0.34131824804E+03  0.00000000000E+00 0. -1.
          3    1    6    6  503    0 -0.19751482001E+03  0.33868491593E+03  0.91089080066E+02  0.40251310153E+03  0.00000000000E+00 0. -1.
         -3    1    6    6    0  503 -0.31153644609E+02  0.33937892498E+02 -0.15774157372E+02  0.48694498256E+02  0.00000000000E+00 0.  1.
<mgrwt>
<rscale>  0 0.10407967E+04</rscale>
<asrwt>0</asrwt>
<pdfrwt beam="1">  1        1 0.88398316E-01 0.10407967E+04</pdfrwt>
<pdfrwt beam="2">  1       -2 0.72510533E-01 0.10407967E+04</pdfrwt>
<totfact> 0.54923589E+01</totfact>
</mgrwt>
</event>
<event>
12    5  0.5428626E-008  0.1272200E+04  0.7818608E-02  0.9051906E-01
          1   -1    0    0  501    0  0.00000000000E+00  0.00000000000E+00  0.36245523657E+03  0.36245523657E+03  0.00000000000E+00 0. -1.
         -2   -1    0    0    0  501 -0.00000000000E+00 -0.00000000000E+00 -0.11163390114E+04  0.11163390114E+04  0.00000000000E+00 0.  1.
        -24    2    1    2    0    0 -0.22196673969E+03  0.14743078017E+03 -0.39515959546E+03  0.48397731716E+03  0.84130072940E+02 0.  0.
        254    2    1    2    0    0  0.22196673969E+03 -0.14743078017E+03 -0.35872417932E+03  0.99481693077E+03  0.88880403939E+03 0.  0.
         23    2    4    4    0    0  0.32969712477E+03  0.29630153928E+03 -0.11167475200E+03  0.46778594803E+03  0.99285682136E+02 0.  0.
         23    2    4    4    0    0 -0.10773038508E+03 -0.44373231945E+03 -0.24704942732E+03  0.52703098274E+03  0.90686437992E+02 0.  0.
          3    1    3    3  502    0 -0.35826919454E+01  0.29254993206E+02 -0.60096479929E+02  0.66934872891E+02  0.00000000000E+00 0. -1.
         -4    1    3    3    0  502 -0.21838404775E+03  0.11817578696E+03 -0.33506311553E+03  0.41704244427E+03  0.00000000000E+00 0.  1.
         13    1    5    5    0    0  0.28289532976E+03  0.27865880606E+03 -0.12450211076E+03  0.41615054172E+03  0.00000000000E+00 0.  1.
        -13    1    5    5    0    0  0.46801795012E+02  0.17642733219E+02  0.12827358752E+02  0.51635406306E+02  0.00000000000E+00 0. -1.
          4    1    6    6  503    0  0.15707694874E+02 -0.66224630819E+02 -0.42973405519E+02  0.80493148697E+02  0.00000000000E+00 0. -1.
         -4    1    6    6    0  503 -0.12343807995E+03 -0.37750768863E+03 -0.20407602180E+03  0.44653783404E+03  0.00000000000E+00 0.  1.
<mgrwt>
<rscale>  0 0.12721995E+04</rscale>
<asrwt>0</asrwt>
<pdfrwt beam="1">  1        1 0.55762345E-01 0.12721995E+04</pdfrwt>
<pdfrwt beam="2">  1       -2 0.17174446E+00 0.12721995E+04</pdfrwt>
<totfact> 0.12167649E+01</totfact>
</mgrwt>
</event>
<event>
12    5  0.5428626E-008  0.2333993E+04  0.7818608E-02  0.8464637E-01
         -2   -1    0    0    0  501 -0.00000000000E+00  0.00000000000E+00  0.11798403228E+04  0.11798403228E+04  0.00000000000E+00 0.  1.
          1   -1    0    0  501    0  0.00000000000E+00 -0.00000000000E+00 -0.11542927566E+04  0.11542927566E+04  0.00000000000E+00 0. -1.
        -24    2    1    2    0    0  0.37174781282E+03  0.84764212763E+03  0.31100425225E+03  0.97968449465E+03  0.79777511019E+02 0.  0.
        254    2    1    2    0    0 -0.37174781282E+03 -0.84764212763E+03 -0.28545668605E+03  0.13544485847E+04  0.94675859443E+03 0.  0.
         23    2    4    4    0    0 -0.19733360707E+03 -0.36821391003E+03  0.33668321244E+03  0.54466144275E+03  0.93693466464E+02 0.  0.
         23    2    4    4    0    0 -0.17441420575E+03 -0.47942821760E+03 -0.62213989849E+03  0.80978714195E+03  0.91790146470E+02 0.  0.
          3    1    3    3  502    0  0.88611239855E+02  0.14852619677E+03  0.82054044552E+02  0.19142844403E+03  0.00000000000E+00 0. -1.
         -4    1    3    3    0  502  0.28313657296E+03  0.69911593086E+03  0.22895020770E+03  0.78825605062E+03  0.00000000000E+00 0.  1.
         13    1    5    5    0    0 -0.81780442481E+02 -0.24866770068E+03  0.20010547157E+03  0.32949334725E+03  0.00000000000E+00 0. -1.
        -13    1    5    5    0    0 -0.11555316459E+03 -0.11954620936E+03  0.13657774087E+03  0.21516809550E+03  0.00000000000E+00 0.  1.
          3    1    6    6  503    0 -0.11426866220E+03 -0.39099018194E+03 -0.53115331839E+03  0.66936873035E+03  0.00000000000E+00 0. -1.
         -3    1    6    6    0  503 -0.60145543546E+02 -0.88438035653E+02 -0.90986580097E+02  0.14041841160E+03  0.00000000000E+00 0.  1.
<mgrwt>
<rscale>  0 0.23339933E+04</rscale>
<asrwt>0</asrwt>
<pdfrwt beam="1">  1        1 0.17758350E+00 0.23339933E+04</pdfrwt>
<pdfrwt beam="2">  1       -2 0.18151390E+00 0.23339933E+04</pdfrwt>
<totfact> 0.16160091E+00</totfact>
</mgrwt>
</event>
<event>
12    5  0.5428626E-008  0.1347014E+04  0.7818608E-02  0.8993092E-01
         -2   -1    0    0    0  501 -0.00000000000E+00  0.00000000000E+00  0.23819831382E+03  0.23819831382E+03  0.00000000000E+00 0.  1.
          1   -1    0    0  501    0  0.00000000000E+00 -0.00000000000E+00 -0.19043442853E+04  0.19043442853E+04  0.00000000000E+00 0. -1.
        -24    2    1    2    0    0  0.22570408276E+03  0.29419438940E+03 -0.43375416528E+03  0.57706716837E+03  0.85855513435E+02 0.  0.
        254    2    1    2    0    0 -0.22570408276E+03 -0.29419438940E+03 -0.12323918062E+04  0.15654754308E+04  0.89130863824E+03 0.  0.
         23    2    4    4    0    0 -0.17301764733E+03 -0.50188240732E+02 -0.12793657521E+04  0.12950909588E+04  0.89609699902E+02 0.  0.
         23    2    4    4    0    0 -0.52686435435E+02 -0.24400614867E+03  0.46973945852E+02  0.27038447193E+03  0.92662559893E+02 0.  0.
          3    1    3    3  502    0  0.53673169781E+02  0.12249915070E+03 -0.11617267760E+03  0.17715231327E+03  0.00000000000E+00 0. -1.
         -4    1    3    3    0  502  0.17203091298E+03  0.17169523869E+03 -0.31758148768E+03  0.39991485510E+03  0.00000000000E+00 0.  1.
         13    1    5    5    0    0 -0.16816555600E+03 -0.68979832026E+02 -0.11486375286E+04  0.11629299393E+04  0.00000000000E+00 0. -1.
        -13    1    5    5    0    0 -0.48520913257E+01  0.18791591295E+02 -0.13072822344E+03  0.13216101958E+03  0.00000000000E+00 0.  1.
          3    1    6    6  503    0 -0.17749089185E+01 -0.19614152525E+03  0.39716759567E+02  0.20013013071E+03  0.00000000000E+00 0. -1.
         -3    1    6    6    0  503 -0.50911526517E+02 -0.47864623419E+02  0.72571862849E+01  0.70254341219E+02  0.00000000000E+00 0.  1.
<mgrwt>
<rscale>  0 0.13470139E+04</rscale>
<asrwt>0</asrwt>
<pdfrwt beam="1">  1        1 0.29297603E+00 0.13470139E+04</pdfrwt>
<pdfrwt beam="2">  1       -2 0.36645896E-01 0.13470139E+04</pdfrwt>
<totfact> 0.20872066E+01</totfact>
</mgrwt>
</event>
<event>
12    5  0.5428626E-008  0.1704115E+04  0.7818608E-02  0.8759021E-01
         -2   -1    0    0    0  501 -0.00000000000E+00  0.00000000000E+00  0.66133867171E+03  0.66133867171E+03  0.00000000000E+00 0.  1.
          1   -1    0    0  501    0  0.00000000000E+00 -0.00000000000E+00 -0.10977761448E+04  0.10977761448E+04  0.00000000000E+00 0. -1.
        -24    2    1    2    0    0 -0.60091291460E+03  0.27747776083E+01 -0.28430356955E+03  0.66978386734E+03  0.81718290284E+02 0.  0.
        254    2    1    2    0    0  0.60091291460E+03 -0.27747776083E+01 -0.15213390354E+03  0.10893309492E+04  0.89576401017E+03 0.  0.
         23    2    4    4    0    0  0.30527931742E+03 -0.16914401545E+03 -0.48526460028E+03  0.60558155504E+03  0.97170612425E+02 0.  0.
         23    2    4    4    0    0  0.29563359718E+03  0.16636923784E+03  0.33313069673E+03  0.48374939414E+03  0.89215851407E+02 0.  0.
          1    1    3    3  502    0 -0.52263661598E+03 -0.77326978027E+01 -0.27393900355E+03  0.59012829507E+03  0.00000000000E+00 0. -1.
         -4    1    3    3    0  502 -0.78276298619E+02  0.10507475411E+02 -0.10364566001E+02  0.79655572269E+02  0.00000000000E+00 0.  1.
         13    1    5    5    0    0  0.14433257443E+02 -0.23412529218E+02 -0.87538091997E+02  0.91757195877E+02  0.00000000000E+00 0.  1.
        -13    1    5    5    0    0  0.29084605998E+03 -0.14573148623E+03 -0.39772650828E+03  0.51382435917E+03  0.00000000000E+00 0. -1.
          3    1    6    6  503    0  0.29256984078E+03  0.15074530368E+03  0.33245811997E+03  0.46781370208E+03  0.00000000000E+00 0. -1.
         -3    1    6    6    0  503  0.30637563991E+01  0.15623934164E+02  0.67257676261E+00  0.15935692063E+02  0.00000000000E+00 0.  1.
<mgrwt>
<rscale>  0 0.17041148E+04</rscale>
<asrwt>0</asrwt>
<pdfrwt beam="1">  1        1 0.16888864E+00 0.17041148E+04</pdfrwt>
<pdfrwt beam="2">  1       -2 0.10174441E+00 0.17041148E+04</pdfrwt>
<totfact> 0.84161340E+00</totfact>
</mgrwt>
</event>
<event>
12    5  0.5428626E-008  0.3402047E+04  0.7818608E-02  0.8137404E-01
         -2   -1    0    0    0  501 -0.00000000000E+00  0.00000000000E+00  0.96664830688E+03  0.96664830688E+03  0.00000000000E+00 0.  1.
          1   -1    0    0  501    0  0.00000000000E+00 -0.00000000000E+00 -0.29933125300E+04  0.29933125300E+04  0.00000000000E+00 0. -1.
        -24    2    1    2    0    0 -0.11620279412E+04 -0.17781320333E+03  0.28358247718E+03  0.12119169643E+04  0.79982720505E+02 0.  0.
        254    2    1    2    0    0  0.11620279412E+04  0.17781320333E+03 -0.23102467003E+04  0.27480438726E+04  0.91245758142E+03 0.  0.
         23    2    4    4    0    0  0.96004706741E+03  0.38905031769E+03 -0.21810804193E+04  0.24162549984E+04  0.90143774880E+02 0.  0.
         23    2    4    4    0    0  0.20198087380E+03 -0.21123711436E+03 -0.12916628096E+03  0.33178887421E+03  0.89345044882E+02 0.  0.
          3    1    3    3  502    0 -0.69163977925E+03 -0.88324039288E+02  0.13174043538E+03  0.70959302594E+03  0.00000000000E+00 0. -1.
         -4    1    3    3    0  502 -0.47038816196E+03 -0.89489164037E+02  0.15184204179E+03  0.50232393836E+03  0.00000000000E+00 0.  1.
         13    1    5    5    0    0  0.56996074880E+03  0.20567587543E+03 -0.13611734954E+04  0.14899500346E+04  0.00000000000E+00 0.  1.
        -13    1    5    5    0    0  0.39008631861E+03  0.18337444225E+03 -0.81990692392E+03  0.92630496378E+03  0.00000000000E+00 0. -1.
          1    1    6    6  503    0  0.93747368398E+02 -0.14419142494E+03 -0.10700326776E+03  0.20255723986E+03  0.00000000000E+00 0. -1.
         -1    1    6    6    0  503  0.10823350540E+03 -0.67045689421E+02 -0.22163013196E+02  0.12923163434E+03  0.00000000000E+00 0.  1.
<mgrwt>
<rscale>  0 0.34020467E+04</rscale>
<asrwt>0</asrwt>
<pdfrwt beam="1">  1        1 0.46050962E+00 0.34020467E+04</pdfrwt>
<pdfrwt beam="2">  1       -2 0.14871513E+00 0.34020467E+04</pdfrwt>
<totfact> 0.13409971E-01</totfact>
</mgrwt>
</event>
<event>
12    5  0.5428626E-008  0.1788501E+04  0.7818608E-02  0.8712439E-01
         -4   -1    0    0    0  501 -0.00000000000E+00  0.00000000000E+00  0.52047601689E+03  0.52047601689E+03  0.00000000000E+00 0.  1.
          3   -1    0    0  501    0  0.00000000000E+00 -0.00000000000E+00 -0.15364469434E+04  0.15364469434E+04  0.00000000000E+00 0. -1.
        -24    2    1    2    0    0  0.17828967228E+03 -0.30821463311E+03  0.25770633668E+03  0.44898759906E+03  0.91617906775E+02 0.  0.
        254    2    1    2    0    0 -0.17828967228E+03  0.30821463311E+03 -0.12736772632E+04  0.16079353613E+04  0.91455939547E+03 0.  0.
         23    2    4    4    0    0 -0.14674276701E+03 -0.90690602622E+02 -0.11677677360E+04  0.11839015657E+04  0.90461080478E+02 0.  0.
         23    2    4    4    0    0 -0.31546905276E+02  0.39890523573E+03 -0.10590952726E+03  0.42403379554E+03  0.92017593274E+02 0.  0.
          1    1    3    3  502    0  0.25242607912E+01 -0.11981026627E+02  0.39216932089E+02  0.41083873406E+02  0.00000000000E+00 0. -1.
         -2    1    3    3    0  502  0.17576541149E+03 -0.29623360648E+03  0.21848940459E+03  0.40790372566E+03  0.00000000000E+00 0.  1.
         13    1    5    5    0    0 -0.11097974254E+02 -0.48326200426E+01 -0.12022528311E+02  0.17060493428E+02  0.00000000000E+00 0. -1.
        -13    1    5    5    0    0 -0.13564479275E+03 -0.85857982580E+02 -0.11557452077E+04  0.11668410723E+04  0.00000000000E+00 0.  1.
          4    1    6    6  503    0 -0.44344799303E+02  0.20162253702E+03 -0.16624914565E+02  0.20710986564E+03  0.00000000000E+00 0.  1.
         -4    1    6    6    0  503  0.12797894026E+02  0.19728269871E+03 -0.89284612693E+02  0.21692392991E+03  0.00000000000E+00 0. -1.
<mgrwt>
<rscale>  0 0.17885008E+04</rscale>
<asrwt>0</asrwt>
<pdfrwt beam="1">  1        3 0.23637645E+00 0.17885008E+04</pdfrwt>
<pdfrwt beam="2">  1       -4 0.80073234E-01 0.17885008E+04</pdfrwt>
<totfact> 0.26597910E-01</totfact>
</mgrwt>
</event>
<event>
12    5  0.5428626E-008  0.1951102E+04  0.7818608E-02  0.8629830E-01
          1   -1    0    0  501    0  0.00000000000E+00  0.00000000000E+00  0.68999347082E+03  0.68999347082E+03  0.00000000000E+00 0. -1.
         -2   -1    0    0    0  501 -0.00000000000E+00 -0.00000000000E+00 -0.13792881160E+04  0.13792881160E+04  0.00000000000E+00 0.  1.
        -24    2    1    2    0    0 -0.21016341215E+03  0.73663376582E+03 -0.26588048868E+03  0.81462678674E+03  0.78271340068E+02 0.  0.
        254    2    1    2    0    0  0.21016341215E+03 -0.73663376582E+03 -0.42341415646E+03  0.12546548000E+04  0.89893334269E+03 0.  0.
         23    2    4    4    0    0  0.50494501060E+02 -0.91532981956E+03 -0.28978796574E+03  0.96582616987E+03  0.92004087478E+02 0.  0.
         23    2    4    4    0    0  0.15966891109E+03  0.17869605374E+03 -0.13362619072E+03  0.28882863015E+03  0.90219609608E+02 0.  0.
          1    1    3    3  502    0 -0.16829463229E+03  0.56455659931E+03 -0.23791331014E+03  0.63533454197E+03  0.00000000000E+00 0. -1.
         -2    1    3    3    0  502 -0.41868779857E+02  0.17207716651E+03 -0.27967178534E+02  0.17929224477E+03  0.00000000000E+00 0.  1.
         13    1    5    5    0    0  0.14295570771E+02 -0.33621758444E+02  0.14349278729E+01  0.36562891059E+02  0.00000000000E+00 0. -1.
        -13    1    5    5    0    0  0.36198930289E+02 -0.88170806112E+03 -0.29122289361E+03  0.92926327882E+03  0.00000000000E+00 0.  1.
          4    1    6    6  503    0  0.69273035544E+02  0.21080273133E+02 -0.54605833848E+02  0.90691391317E+02  0.00000000000E+00 0. -1.
         -4    1    6    6    0  503  0.90395875546E+02  0.15761578061E+03 -0.79020356871E+02  0.19813723884E+03  0.00000000000E+00 0.  1.
<mgrwt>
<rscale>  0 0.19511020E+04</rscale>
<asrwt>0</asrwt>
<pdfrwt beam="1">  1        1 0.10615284E+00 0.19511020E+04</pdfrwt>
<pdfrwt beam="2">  1       -2 0.21219817E+00 0.19511020E+04</pdfrwt>
<totfact> 0.25168463E+00</totfact>
</mgrwt>
</event>
<event>
12    5  0.5428626E-008  0.2665115E+04  0.7818608E-02  0.8346413E-01
         -2   -1    0    0    0  501 -0.00000000000E+00  0.00000000000E+00  0.11098328133E+04  0.11098328133E+04  0.00000000000E+00 0.  1.
          1   -1    0    0  501    0  0.00000000000E+00 -0.00000000000E+00 -0.15999795036E+04  0.15999795036E+04  0.00000000000E+00 0. -1.
        -24    2    1    2    0    0  0.15253765008E+03  0.24399051477E+02 -0.13432092269E+04  0.13543383666E+04  0.78475063787E+02 0.  0.
        254    2    1    2    0    0 -0.15253765008E+03 -0.24399051477E+02  0.85306253666E+03  0.13554739502E+04  0.10419841121E+04 0.  0.
         23    2    4    4    0    0  0.36884432403E+03  0.16471869345E+03  0.62276873231E+03  0.74786820185E+03  0.91036092019E+02 0.  0.
         23    2    4    4    0    0 -0.52138197411E+03 -0.18911774493E+03  0.23029380435E+03  0.60760574838E+03  0.92438221348E+02 0.  0.
          3    1    3    3  502    0  0.10502194231E+03  0.35568410061E+02 -0.11386583281E+04  0.11440443647E+04  0.00000000000E+00 0. -1.
         -4    1    3    3    0  502  0.47515707766E+02 -0.11169358584E+02 -0.20455089882E+03  0.21029400197E+03  0.00000000000E+00 0.  1.
         13    1    5    5    0    0  0.13586862619E+03  0.38333864679E+02  0.15079713757E+03  0.20656608014E+03  0.00000000000E+00 0.  1.
        -13    1    5    5    0    0  0.23297569784E+03  0.12638482877E+03  0.47197159474E+03  0.54130212171E+03  0.00000000000E+00 0. -1.
          4    1    6    6  503    0 -0.46190474639E+03 -0.15781936148E+03  0.23183192090E+03  0.54037855726E+03  0.00000000000E+00 0. -1.
         -4    1    6    6    0  503 -0.59477227718E+02 -0.31298383444E+02 -0.15381165456E+01  0.67227191119E+02  0.00000000000E+00 0.  1.
<mgrwt>
<rscale>  0 0.26651152E+04</rscale>
<asrwt>0</asrwt>
<pdfrwt beam="1">  1        1 0.24615069E+00 0.26651152E+04</pdfrwt>
<pdfrwt beam="2">  1       -2 0.17074351E+00 0.26651152E+04</pdfrwt>
<totfact> 0.90386955E-01</totfact>
</mgrwt>
</event>
<event>
12    5  0.5428626E-008  0.1662102E+04  0.7818608E-02  0.8783279E-01
          3   -1    0    0  501    0  0.00000000000E+00  0.00000000000E+00  0.51704408019E+03  0.51704408019E+03  0.00000000000E+00 0. -1.
         -4   -1    0    0    0  501 -0.00000000000E+00 -0.00000000000E+00 -0.13357572643E+04  0.13357572643E+04  0.00000000000E+00 0.  1.
        -24    2    1    2    0    0  0.18800651375E+03  0.41222790512E+03 -0.69858365354E+03  0.83534132134E+03  0.67064947402E+02 0.  0.
        254    2    1    2    0    0 -0.18800651375E+03 -0.41222790512E+03 -0.12012953057E+03  0.10174600231E+04  0.90305896796E+03 0.  0.
         23    2    4    4    0    0 -0.10966367137E+03 -0.64058367860E+03 -0.27758690580E+03  0.71245077554E+03  0.90321908691E+02 0.  0.
         23    2    4    4    0    0 -0.78342842377E+02  0.22835577347E+03  0.15745737523E+03  0.30500924761E+03  0.99769012630E+02 0.  0.
          3    1    3    3  502    0  0.12491686366E+02  0.38621008597E+02 -0.10289569040E+03  0.11061260161E+03  0.00000000000E+00 0. -1.
         -4    1    3    3    0  502  0.17551482738E+03  0.37360689653E+03 -0.59568796314E+03  0.72472871973E+03  0.00000000000E+00 0.  1.
         13    1    5    5    0    0 -0.10890333055E+03 -0.60161738042E+03 -0.28187175397E+03  0.67324222500E+03  0.00000000000E+00 0. -1.
        -13    1    5    5    0    0 -0.76034082423E+00 -0.38966298174E+02  0.42848481755E+01  0.39208550540E+02  0.00000000000E+00 0.  1.
          3    1    6    6  503    0 -0.56882035262E+02  0.15755063762E+03  0.15907783290E+03  0.23100546805E+03  0.00000000000E+00 0. -1.
         -3    1    6    6    0  503 -0.21460807115E+02  0.70805135853E+02 -0.16204576701E+01  0.74003779553E+02  0.00000000000E+00 0.  1.
<mgrwt>
<rscale>  0 0.16621015E+04</rscale>
<asrwt>0</asrwt>
<pdfrwt beam="1">  1        3 0.79545243E-01 0.16621015E+04</pdfrwt>
<pdfrwt beam="2">  1       -4 0.20550112E+00 0.16621015E+04</pdfrwt>
<totfact> 0.38935379E-01</totfact>
</mgrwt>
</event>
<event>
12    5  0.5428626E-008  0.1835012E+04  0.7818608E-02  0.8687899E-01
         -4   -1    0    0    0  501 -0.00000000000E+00  0.00000000000E+00  0.11062690911E+04  0.11062690911E+04  0.00000000000E+00 0.  1.
          3   -1    0    0  501    0  0.00000000000E+00 -0.00000000000E+00 -0.76095141755E+03  0.76095141755E+03  0.00000000000E+00 0. -1.
        -24    2    1    2    0    0  0.30394752395E+03 -0.45573484906E+03 -0.30486894939E+03  0.63173580653E+03  0.77889042811E+02 0.  0.
        254    2    1    2    0    0 -0.30394752395E+03  0.45573484906E+03  0.65018662294E+03  0.12354847021E+04  0.89643820454E+03 0.  0.
         23    2    4    4    0    0 -0.59474110870E+03  0.37906831709E+03  0.32119646060E+03  0.78036851998E+03  0.91641067622E+02 0.  0.
         23    2    4    4    0    0  0.29079358475E+03  0.76666531964E+02  0.32899016235E+03  0.45511618215E+03  0.91964918724E+02 0.  0.
          1    1    3    3  502    0  0.30347505845E+03 -0.44008157137E+03 -0.28306969139E+03  0.60489449554E+03  0.00000000000E+00 0. -1.
         -2    1    3    3    0  502  0.47246550381E+00 -0.15653277691E+02 -0.21799258002E+02  0.26841310988E+02  0.00000000000E+00 0.  1.
         13    1    5    5    0    0 -0.13040277258E+03  0.71990186939E+02  0.10912077413E+03  0.18464780924E+03  0.00000000000E+00 0.  1.
        -13    1    5    5    0    0 -0.46433833612E+03  0.30707813015E+03  0.21207568647E+03  0.59572071073E+03  0.00000000000E+00 0. -1.
          2    1    6    6  503    0  0.22201801591E+02  0.35875688664E+02  0.34958642261E+02  0.54791346942E+02  0.00000000000E+00 0.  1.
         -2    1    6    6    0  503  0.26859178316E+03  0.40790843299E+02  0.29403152009E+03  0.40032483520E+03  0.00000000000E+00 0. -1.
<mgrwt>
<rscale>  0 0.18350118E+04</rscale>
<asrwt>0</asrwt>
<pdfrwt beam="1">  1        3 0.11706945E+00 0.18350118E+04</pdfrwt>
<pdfrwt beam="2">  1       -4 0.17019524E+00 0.18350118E+04</pdfrwt>
<totfact> 0.27306734E-01</totfact>
</mgrwt>
</event>
<event>
12    5  0.5428626E-008  0.2054257E+04  0.7818608E-02  0.8581665E-01
         -2   -1    0    0    0  501 -0.00000000000E+00  0.00000000000E+00  0.34835947403E+03  0.34835947403E+03  0.00000000000E+00 0.  1.
          1   -1    0    0  501    0  0.00000000000E+00 -0.00000000000E+00 -0.30284617243E+04  0.30284617243E+04  0.00000000000E+00 0. -1.
        -24    2    1    2    0    0  0.14220473138E+03 -0.20138847126E+03  0.21440464345E+03  0.33623186765E+03  0.79391534237E+02 0.  0.
        254    2    1    2    0    0 -0.14220473138E+03  0.20138847126E+03 -0.28945068937E+04  0.30405893306E+04  0.89790523891E+03 0.  0.
         23    2    4    4    0    0  0.35039457744E+03  0.49120170756E+02 -0.16520948558E+04  0.16920571124E+04  0.91927732036E+02 0.  0.
         23    2    4    4    0    0 -0.49259930883E+03  0.15226830050E+03 -0.12424120379E+04  0.13485322183E+04  0.95455525940E+02 0.  0.
          3    1    3    3  502    0 -0.58093681940E+01 -0.37495153103E+02  0.26628826524E+02  0.46354392101E+02  0.00000000000E+00 0. -1.
         -4    1    3    3    0  502  0.14801409958E+03 -0.16389331816E+03  0.18777581693E+03  0.28987747555E+03  0.00000000000E+00 0.  1.
         13    1    5    5    0    0  0.33964370171E+03  0.48253715544E+02 -0.14641223736E+04  0.15037754454E+04  0.00000000000E+00 0. -1.
        -13    1    5    5    0    0  0.10750875733E+02  0.86645521255E+00 -0.18797248216E+03  0.18828166699E+03  0.00000000000E+00 0.  1.
          2    1    6    6  503    0 -0.39319843410E+03  0.80424009858E+02 -0.97266884799E+03  0.10522156232E+04  0.00000000000E+00 0. -1.
         -2    1    6    6    0  503 -0.99400874721E+02  0.71844290645E+02 -0.26974318992E+03  0.29631659505E+03  0.00000000000E+00 0.  1.
<mgrwt>
<rscale>  0 0.20542574E+04</rscale>
<asrwt>0</asrwt>
<pdfrwt beam="1">  1        1 0.46591716E+00 0.20542574E+04</pdfrwt>
<pdfrwt beam="2">  1       -2 0.53593768E-01 0.20542574E+04</pdfrwt>
<totfact> 0.15190458E+00</totfact>
</mgrwt>
</event>
<event>
12    5  0.5428626E-008  0.1269670E+04  0.7818608E-02  0.9053969E-01
          1   -1    0    0  501    0  0.00000000000E+00  0.00000000000E+00  0.29804944660E+04  0.29804944660E+04  0.00000000000E+00 0. -1.
         -2   -1    0    0    0  501 -0.00000000000E+00 -0.00000000000E+00 -0.13521775331E+03  0.13521775331E+03  0.00000000000E+00 0.  1.
        -24    2    1    2    0    0 -0.20334470008E+03 -0.64545905532E+02  0.18243466369E+03  0.29171637445E+03  0.79377551184E+02 0.  0.
        254    2    1    2    0    0  0.20334470008E+03  0.64545905532E+02  0.26628420490E+04  0.28239958449E+04  0.91581084998E+03 0.  0.
         23    2    4    4    0    0  0.28942781049E+03  0.39364893451E+03  0.21145454519E+04  0.21722152033E+04  0.92132948330E+02 0.  0.
         23    2    4    4    0    0 -0.86083110410E+02 -0.32910302898E+03  0.54829659708E+03  0.65178064155E+03  0.92031194430E+02 0.  0.
          1    1    3    3  502    0 -0.10459277699E+03  0.82897326119E+01  0.84922799458E+02  0.13498240823E+03  0.00000000000E+00 0. -1.
         -2    1    3    3    0  502 -0.98751923092E+02 -0.72835638144E+02  0.97511864235E+02  0.15673396621E+03  0.00000000000E+00 0.  1.
         13    1    5    5    0    0  0.15866465902E+03  0.23897878005E+03  0.10447025434E+04  0.10833691594E+04  0.00000000000E+00 0.  1.
        -13    1    5    5    0    0  0.13076315147E+03  0.15467015446E+03  0.10698429085E+04  0.10888460439E+04  0.00000000000E+00 0. -1.
          3    1    6    6  503    0  0.14997054762E+01 -0.21875708553E+02  0.66030909382E+01  0.22899706355E+02  0.00000000000E+00 0. -1.
         -3    1    6    6    0  503 -0.87582815887E+02 -0.30722732043E+03  0.54169350614E+03  0.62888093519E+03  0.00000000000E+00 0.  1.
<mgrwt>
<rscale>  0 0.12696705E+04</rscale>
<asrwt>0</asrwt>
<pdfrwt beam="1">  1        1 0.45853756E+00 0.12696705E+04</pdfrwt>
<pdfrwt beam="2">  1       -2 0.20802734E-01 0.12696705E+04</pdfrwt>
<totfact> 0.10763134E+01</totfact>
</mgrwt>
</event>
<event>
12    5  0.5428626E-008  0.1117240E+04  0.7818608E-02  0.9188550E-01
          1   -1    0    0  501    0  0.00000000000E+00  0.00000000000E+00  0.15785125453E+04  0.15785125453E+04  0.00000000000E+00 0. -1.
         -2   -1    0    0    0  501 -0.00000000000E+00 -0.00000000000E+00 -0.19769005597E+03  0.19769005597E+03  0.00000000000E+00 0.  1.
        -24    2    1    2    0    0  0.28392436981E+02 -0.18763591428E+02 -0.42696550812E+02  0.99243395152E+02  0.82873718326E+02 0.  0.
        254    2    1    2    0    0 -0.28392436981E+02  0.18763591428E+02  0.14235190402E+04  0.16769592061E+04  0.88579202892E+03 0.  0.
         23    2    4    4    0    0  0.28447319607E+02 -0.18380840810E+02 -0.10605503694E+03  0.14319421534E+03  0.90054467653E+02 0.  0.
         23    2    4    4    0    0 -0.56839756589E+02  0.37144432238E+02  0.15295740771E+04  0.15337649908E+04  0.90706796209E+02 0.  0.
          3    1    3    3  502    0 -0.19479469686E+02 -0.10058133454E+02  0.12840537923E+02  0.25406597608E+02  0.00000000000E+00 0. -1.
         -4    1    3    3    0  502  0.47871906667E+02 -0.87054579736E+01 -0.55537088735E+02  0.73836797545E+02  0.00000000000E+00 0.  1.
         13    1    5    5    0    0 -0.18027861926E+02 -0.52832416143E+01 -0.90553186054E+02  0.92481327587E+02  0.00000000000E+00 0.  1.
        -13    1    5    5    0    0  0.46475181533E+02 -0.13097599195E+02 -0.15501850885E+02  0.50712887751E+02  0.00000000000E+00 0. -1.
          2    1    6    6  503    0 -0.72180681660E+02  0.32457137027E+01  0.80496971123E+03  0.80820592763E+03  0.00000000000E+00 0. -1.
         -2    1    6    6    0  503  0.15340925072E+02  0.33898718535E+02  0.72460436589E+03  0.72555906318E+03  0.00000000000E+00 0.  1.
<mgrwt>
<rscale>  0 0.11172399E+04</rscale>
<asrwt>0</asrwt>
<pdfrwt beam="1">  1        1 0.24284808E+00 0.11172399E+04</pdfrwt>
<pdfrwt beam="2">  1       -2 0.30413856E-01 0.11172399E+04</pdfrwt>
<totfact> 0.50411276E+01</totfact>
</mgrwt>
</event>
<event>
12    5  0.5428626E-008  0.1284951E+04  0.7818608E-02  0.9041585E-01
          1   -1    0    0  501    0  0.00000000000E+00  0.00000000000E+00  0.10002274122E+04  0.10002274122E+04  0.00000000000E+00 0. -1.
         -2   -1    0    0    0  501 -0.00000000000E+00 -0.00000000000E+00 -0.41268084221E+03  0.41268084221E+03  0.00000000000E+00 0.  1.
        -24    2    1    2    0    0 -0.56532143880E+02  0.20228843012E+03 -0.10300327814E+03  0.25399406575E+03  0.98928347187E+02 0.  0.
        254    2    1    2    0    0  0.56532143880E+02 -0.20228843012E+03  0.69054984817E+03  0.11589141887E+04  0.90670089431E+03 0.  0.
         23    2    4    4    0    0 -0.36278985797E+03 -0.17043136070E+03  0.89317698251E+02  0.41980026442E+03  0.87127957807E+02 0.  0.
         23    2    4    4    0    0  0.41932200185E+03 -0.31857069420E+02  0.60123214992E+03  0.73911392429E+03  0.89238337474E+02 0.  0.
          1    1    3    3  502    0  0.39236919939E+01  0.43632821480E+02  0.16020333594E+02  0.46646216970E+02  0.00000000000E+00 0. -1.
         -2    1    3    3    0  502 -0.60455835873E+02  0.15865560864E+03 -0.11902361173E+03  0.20734784878E+03  0.00000000000E+00 0.  1.
         13    1    5    5    0    0 -0.12018267861E+03 -0.19940760297E+02  0.49695741486E+02  0.13157194565E+03  0.00000000000E+00 0.  1.
        -13    1    5    5    0    0 -0.24260717936E+03 -0.15049060040E+03  0.39621956765E+02  0.28822831877E+03  0.00000000000E+00 0. -1.
          2    1    6    6  503    0  0.46611555258E+02  0.20268020073E+02  0.10159675875E+03  0.11360163339E+03  0.00000000000E+00 0. -1.
         -2    1    6    6    0  503  0.37271044659E+03 -0.52125089493E+02  0.49963539117E+03  0.62551229090E+03  0.00000000000E+00 0.  1.
<mgrwt>
<rscale>  0 0.12849509E+04</rscale>
<asrwt>0</asrwt>
<pdfrwt beam="1">  1        1 0.15388114E+00 0.12849509E+04</pdfrwt>
<pdfrwt beam="2">  1       -2 0.63489361E-01 0.12849509E+04</pdfrwt>
<totfact> 0.29950014E+01</totfact>
</mgrwt>
</event>
<event>
12    5  0.5428626E-008  0.1666828E+04  0.7818608E-02  0.8780513E-01
          1   -1    0    0  501    0  0.00000000000E+00  0.00000000000E+00  0.38675158639E+04  0.38675158639E+04  0.00000000000E+00 0. -1.
         -2   -1    0    0    0  501 -0.00000000000E+00 -0.00000000000E+00 -0.17959310278E+03  0.17959310278E+03  0.00000000000E+00 0.  1.
        -24    2    1    2    0    0 -0.33207328431E+03 -0.17055813198E+03  0.27814313861E+03  0.47239328247E+03  0.80181451935E+02 0.  0.
        254    2    1    2    0    0  0.33207328431E+03  0.17055813198E+03  0.34097796225E+04  0.35747156842E+04  0.10062963810E+04 0.  0.
         23    2    4    4    0    0  0.90274318152E+02  0.15197701499E+03  0.32803160059E+04  0.32864094241E+04  0.93634067871E+02 0.  0.
         23    2    4    4    0    0  0.24179896615E+03  0.18581116993E+02  0.12946361662E+03  0.28830626013E+03  0.86877348352E+02 0.  0.
          1    1    3    3  502    0 -0.21178216042E+02 -0.37416815628E+02  0.23138640877E+02  0.48825522302E+02  0.00000000000E+00 0. -1.
         -2    1    3    3    0  502 -0.31089506826E+03 -0.13314131635E+03  0.25500449773E+03  0.42356776017E+03  0.00000000000E+00 0.  1.
         13    1    5    5    0    0  0.15901316637E+02  0.56860124891E+02  0.50015968805E+03  0.50363244457E+03  0.00000000000E+00 0. -1.
        -13    1    5    5    0    0  0.74373001516E+02  0.95116890097E+02  0.27801563179E+04  0.27827769795E+04  0.00000000000E+00 0.  1.
          3    1    6    6  503    0  0.16393827797E+02 -0.14735845281E+02 -0.64847995060E+01  0.22977279008E+02  0.00000000000E+00 0. -1.
         -3    1    6    6    0  503  0.22540513836E+03  0.33316962274E+02  0.13594841613E+03  0.26532898112E+03  0.00000000000E+00 0.  1.
<mgrwt>
<rscale>  0 0.16668283E+04</rscale>
<asrwt>0</asrwt>
<pdfrwt beam="1">  1        1 0.59500238E+00 0.16668283E+04</pdfrwt>
<pdfrwt beam="2">  1       -2 0.27629711E-01 0.16668283E+04</pdfrwt>
<totfact> 0.12674885E+00</totfact>
</mgrwt>
</event>
<event>
12    5  0.5428626E-008  0.2516300E+04  0.7818608E-02  0.8397201E-01
          1   -1    0    0  501    0  0.00000000000E+00  0.00000000000E+00  0.11775500702E+04  0.11775500702E+04  0.00000000000E+00 0. -1.
         -2   -1    0    0    0  501 -0.00000000000E+00 -0.00000000000E+00 -0.13442668315E+04  0.13442668315E+04  0.00000000000E+00 0.  1.
        -24    2    1    2    0    0  0.11940456161E+03 -0.96593579713E+03 -0.57010204359E+03  0.11313050573E+04  0.86864140912E+02 0.  0.
        254    2    1    2    0    0 -0.11940456161E+03  0.96593579713E+03  0.40338528237E+03  0.13905118444E+04  0.90747677105E+03 0.  0.
         23    2    4    4    0    0  0.95627653294E+02 -0.14228762324E+03  0.98925504481E+02  0.21758227882E+03  0.90362474597E+02 0.  0.
         23    2    4    4    0    0 -0.21503221491E+03  0.11082234204E+04  0.30445977789E+03  0.11729295656E+04  0.93112870526E+02 0.  0.
          3    1    3    3  502    0  0.10829501876E+02 -0.20180121997E+03 -0.15688986245E+03  0.25584260675E+03  0.00000000000E+00 0. -1.
         -2    1    3    3    0  502  0.10857505974E+03 -0.76413457716E+03 -0.41321218114E+03  0.87546245051E+03  0.00000000000E+00 0.  1.
         13    1    5    5    0    0  0.74147040554E+01 -0.83380247656E+02  0.65743227393E+02  0.10643972700E+03  0.00000000000E+00 0.  1.
        -13    1    5    5    0    0  0.88212949239E+02 -0.58907375589E+02  0.33182277089E+02  0.11114255182E+03  0.00000000000E+00 0. -1.
          4    1    6    6  503    0 -0.92404695107E+02  0.30559038097E+03  0.11348695098E+03  0.33882649936E+03  0.00000000000E+00 0. -1.
         -4    1    6    6    0  503 -0.12262751980E+03  0.80263303940E+03  0.19097282691E+03  0.83410306628E+03  0.00000000000E+00 0.  1.
<mgrwt>
<rscale>  0 0.25163001E+04</rscale>
<asrwt>0</asrwt>
<pdfrwt beam="1">  1        1 0.18116155E+00 0.25163001E+04</pdfrwt>
<pdfrwt beam="2">  1       -2 0.20681028E+00 0.25163001E+04</pdfrwt>
<totfact> 0.10373016E+00</totfact>
</mgrwt>
</event>
<event>
12    5  0.5428626E-008  0.2243944E+04  0.7818608E-02  0.8500357E-01
          1   -1    0    0  501    0  0.00000000000E+00  0.00000000000E+00  0.88747244360E+03  0.88747244360E+03  0.00000000000E+00 0. -1.
         -2   -1    0    0    0  501 -0.00000000000E+00 -0.00000000000E+00 -0.14184337742E+04  0.14184337742E+04  0.00000000000E+00 0.  1.
        -24    2    1    2    0    0 -0.18942280828E+03  0.56047550616E+03  0.52885181061E+03  0.79789867439E+03  0.83332248870E+02 0.  0.
        254    2    1    2    0    0  0.18942280828E+03 -0.56047550616E+03 -0.10598131413E+04  0.15080075435E+04  0.89491288036E+03 0.  0.
         23    2    4    4    0    0  0.34824382894E+03 -0.48025994929E+02 -0.85045074864E+03  0.92482857050E+03  0.91984500695E+02 0.  0.
         23    2    4    4    0    0 -0.15882102066E+03 -0.51244951123E+03 -0.20936239261E+03  0.58317897295E+03  0.91850339626E+02 0.  0.
          1    1    3    3  502    0 -0.21778981723E+02  0.51459173602E+02  0.21344028924E+02  0.59815868826E+02  0.00000000000E+00 0. -1.
         -2    1    3    3    0  502 -0.16764382655E+03  0.50901633256E+03  0.50750778169E+03  0.73808280556E+03  0.00000000000E+00 0.  1.
         13    1    5    5    0    0  0.14378256926E+03 -0.12778383638E+01 -0.24498626616E+03  0.28406571546E+03  0.00000000000E+00 0.  1.
        -13    1    5    5    0    0  0.20446125968E+03 -0.46748156566E+02 -0.60546448248E+03  0.64076285504E+03  0.00000000000E+00 0. -1.
          1    1    6    6  503    0 -0.10566475430E+03 -0.34677789456E+03 -0.94298046357E+02  0.37458252763E+03  0.00000000000E+00 0. -1.
         -1    1    6    6    0  503 -0.53156266353E+02 -0.16567161668E+03 -0.11506434625E+03  0.20859644533E+03  0.00000000000E+00 0.  1.
<mgrwt>
<rscale>  0 0.22439437E+04</rscale>
<asrwt>0</asrwt>
<pdfrwt beam="1">  1        1 0.13653422E+00 0.22439437E+04</pdfrwt>
<pdfrwt beam="2">  1       -2 0.21822058E+00 0.22439437E+04</pdfrwt>
<totfact> 0.15046399E+00</totfact>
</mgrwt>
</event>
<event>
12    5  0.5428626E-008  0.1539657E+04  0.7818608E-02  0.8858501E-01
         -2   -1    0    0    0  501 -0.00000000000E+00  0.00000000000E+00  0.26679590967E+03  0.26679590967E+03  0.00000000000E+00 0.  1.
          1   -1    0    0  501    0  0.00000000000E+00 -0.00000000000E+00 -0.22213092164E+04  0.22213092164E+04  0.00000000000E+00 0. -1.
        -24    2    1    2    0    0 -0.25838843296E+03 -0.61617501225E+02 -0.13345640216E+04  0.13631451440E+04  0.80884220301E+02 0.  0.
        254    2    1    2    0    0  0.25838843296E+03  0.61617501225E+02 -0.61994928510E+03  0.11249599821E+04  0.90035356743E+03 0.  0.
         23    2    4    4    0    0  0.18496691708E+03  0.46921903124E+03 -0.37808685537E+03  0.63671343686E+03  0.89861397581E+02 0.  0.
         23    2    4    4    0    0  0.73421515887E+02 -0.40760153002E+03 -0.24186242973E+03  0.48824654520E+03  0.91419514956E+02 0.  0.
          1    1    3    3  502    0 -0.22349155123E+03 -0.61159422497E+02 -0.12557701894E+04  0.12769681739E+04  0.00000000000E+00 0. -1.
         -2    1    3    3    0  502 -0.34896881731E+02 -0.45807872843E+00 -0.78793832203E+02  0.86176970148E+02  0.00000000000E+00 0.  1.
         13    1    5    5    0    0  0.18326322808E+02  0.99147273071E+01 -0.31118050750E+02  0.37449819862E+02  0.00000000000E+00 0. -1.
        -13    1    5    5    0    0  0.16664059427E+03  0.45930430394E+03 -0.34696880462E+03  0.59926361699E+03  0.00000000000E+00 0.  1.
          4    1    6    6  503    0  0.49324427738E+02 -0.69787356165E+02 -0.48660104869E+02  0.98341141228E+02  0.00000000000E+00 0. -1.
         -4    1    6    6    0  503  0.24097088148E+02 -0.33781417385E+03 -0.19320232486E+03  0.38990540397E+03  0.00000000000E+00 0.  1.
<mgrwt>
<rscale>  0 0.15396574E+04</rscale>
<asrwt>0</asrwt>
<pdfrwt beam="1">  1        1 0.34173988E+00 0.15396574E+04</pdfrwt>
<pdfrwt beam="2">  1       -2 0.41045525E-01 0.15396574E+04</pdfrwt>
<totfact> 0.10039238E+01</totfact>
</mgrwt>
</event>
<event>
12    5  0.5428626E-008  0.1816850E+04  0.7818608E-02  0.8697390E-01
          1   -1    0    0  501    0  0.00000000000E+00  0.00000000000E+00  0.28913315127E+04  0.28913315127E+04  0.00000000000E+00 0. -1.
         -2   -1    0    0    0  501 -0.00000000000E+00 -0.00000000000E+00 -0.28541728786E+03  0.28541728786E+03  0.00000000000E+00 0.  1.
        -24    2    1    2    0    0 -0.15462890492E+03 -0.56062945348E+03  0.16855375763E+04  0.17847868625E+04  0.78814598210E+02 0.  0.
        254    2    1    2    0    0  0.15462890492E+03  0.56062945348E+03  0.92037664857E+03  0.13919619381E+04  0.86732311144E+03 0.  0.
         23    2    4    4    0    0 -0.26007597496E+03  0.53792455632E+03  0.42789581309E+03  0.74078203770E+03  0.93063738742E+02 0.  0.
         23    2    4    4    0    0  0.41470487988E+03  0.22704897164E+02  0.49248083548E+03  0.65117990044E+03  0.94880133193E+02 0.  0.
          3    1    3    3  502    0 -0.11144673215E+03 -0.39384164040E+03  0.10707449864E+04  0.11463099222E+04  0.00000000000E+00 0. -1.
         -4    1    3    3    0  502 -0.43182172768E+02 -0.16678781308E+03  0.61479258987E+03  0.63847694022E+03  0.00000000000E+00 0.  1.
         13    1    5    5    0    0 -0.10020749974E+01  0.54839479091E+02  0.55858779176E+02  0.78285221034E+02  0.00000000000E+00 0. -1.
        -13    1    5    5    0    0 -0.25907389996E+03  0.48308507723E+03  0.37203703391E+03  0.66249681666E+03  0.00000000000E+00 0.  1.
          3    1    6    6  503    0  0.14987115846E+03  0.43786235063E+02  0.22772184503E+03  0.27610837948E+03  0.00000000000E+00 0. -1.
         -3    1    6    6    0  503  0.26483372142E+03 -0.21081337899E+02  0.26475899046E+03  0.37507152096E+03  0.00000000000E+00 0.  1.
<mgrwt>
<rscale>  0 0.18168500E+04</rscale>
<asrwt>0</asrwt>
<pdfrwt beam="1">  1        1 0.44482021E+00 0.18168500E+04</pdfrwt>
<pdfrwt beam="2">  1       -2 0.43910354E-01 0.18168500E+04</pdfrwt>
<totfact> 0.29247463E+00</totfact>
</mgrwt>
</event>
<event>
12    5  0.5428626E-008  0.2789525E+04  0.7818608E-02  0.8306528E-01
         -2   -1    0    0    0  501 -0.00000000000E+00  0.00000000000E+00  0.11584164552E+04  0.11584164552E+04  0.00000000000E+00 0.  1.
          1   -1    0    0  501    0  0.00000000000E+00 -0.00000000000E+00 -0.16793291394E+04  0.16793291394E+04  0.00000000000E+00 0. -1.
        -24    2    1    2    0    0 -0.45653213868E+03 -0.43793734852E+03 -0.13321795873E+04  0.14769211238E+04  0.79892668363E+02 0.  0.
        254    2    1    2    0    0  0.45653213868E+03  0.43793734852E+03  0.81126690301E+03  0.13608244708E+04  0.89077412258E+03 0.  0.
         23    2    4    4    0    0  0.13779550862E+03 -0.11663330648E+03  0.66894311027E+03  0.69906444601E+03  0.92818556990E+02 0.  0.
         23    2    4    4    0    0  0.31873663006E+03  0.55457065500E+03  0.14232379274E+03  0.66176002476E+03  0.92350515273E+02 0.  0.
          3    1    3    3  502    0 -0.42328134828E+03 -0.42248374215E+03 -0.12833692538E+04  0.14158729653E+04  0.00000000000E+00 0. -1.
         -4    1    3    3    0  502 -0.33250790398E+02 -0.15453606364E+02 -0.48810333431E+02  0.61048158543E+02  0.00000000000E+00 0.  1.
         13    1    5    5    0    0  0.14384647545E+03 -0.11100867790E+03  0.66592554778E+03  0.69026920129E+03  0.00000000000E+00 0. -1.
        -13    1    5    5    0    0 -0.60509668264E+01 -0.56246285825E+01  0.30175624863E+01  0.87952447143E+01  0.00000000000E+00 0.  1.
          3    1    6    6  503    0  0.26065055479E+03  0.40161371949E+03  0.13725170842E+03  0.49806658477E+03  0.00000000000E+00 0. -1.
         -3    1    6    6    0  503  0.58086075262E+02  0.15295693550E+03  0.50720843260E+01  0.16369343999E+03  0.00000000000E+00 0.  1.
<mgrwt>
<rscale>  0 0.27895251E+04</rscale>
<asrwt>0</asrwt>
<pdfrwt beam="1">  1        1 0.25835833E+00 0.27895251E+04</pdfrwt>
<pdfrwt beam="2">  1       -2 0.17821792E+00 0.27895251E+04</pdfrwt>
<totfact> 0.69927901E-01</totfact>
</mgrwt>
</event>
<event>
12    5  0.5428626E-008  0.1717732E+04  0.7818608E-02  0.8751315E-01
         -2   -1    0    0    0  501 -0.00000000000E+00  0.00000000000E+00  0.26034562460E+03  0.26034562460E+03  0.00000000000E+00 0.  1.
          1   -1    0    0  501    0  0.00000000000E+00 -0.00000000000E+00 -0.28333521754E+04  0.28333521754E+04  0.00000000000E+00 0. -1.
        -24    2    1    2    0    0  0.27217396521E+02 -0.17041450110E+03  0.13567835121E+03  0.23556138779E+03  0.85432216254E+02 0.  0.
        254    2    1    2    0    0 -0.27217396521E+02  0.17041450110E+03 -0.27086849020E+04  0.28581364122E+04  0.89564946468E+03 0.  0.
         23    2    4    4    0    0 -0.38086329476E+03  0.84652984371E+02 -0.21394497317E+04  0.21767173762E+04  0.92899969169E+02 0.  0.
         23    2    4    4    0    0  0.35364589824E+03  0.85761516728E+02 -0.56923517032E+03  0.68141903603E+03  0.88784933662E+02 0.  0.
          1    1    3    3  502    0  0.20011244442E+02 -0.63986031729E+01  0.40932838154E+02  0.46009664919E+02  0.00000000000E+00 0. -1.
         -2    1    3    3    0  502  0.72061520789E+01 -0.16401589793E+03  0.94745513055E+02  0.18955172287E+03  0.00000000000E+00 0.  1.
         13    1    5    5    0    0 -0.12983024619E+03  0.16479908141E+02 -0.96303533465E+03  0.97188710043E+03  0.00000000000E+00 0. -1.
        -13    1    5    5    0    0 -0.25103304857E+03  0.68173076230E+02 -0.11764143970E+04  0.12048302757E+04  0.00000000000E+00 0.  1.
          3    1    6    6  503    0  0.32455625655E+03  0.68409320239E+02 -0.46041521962E+03  0.56744935740E+03  0.00000000000E+00 0. -1.
         -3    1    6    6    0  503  0.29089641696E+02  0.17352196489E+02 -0.10881995070E+03  0.11396967863E+03  0.00000000000E+00 0.  1.
<mgrwt>
<rscale>  0 0.17177320E+04</rscale>
<asrwt>0</asrwt>
<pdfrwt beam="1">  1        1 0.43590033E+00 0.17177320E+04</pdfrwt>
<pdfrwt beam="2">  1       -2 0.40053174E-01 0.17177320E+04</pdfrwt>
<totfact> 0.38947488E+00</totfact>
</mgrwt>
</event>
<event>
12    5  0.5428626E-008  0.1166968E+04  0.7818608E-02  0.9142271E-01
         -2   -1    0    0    0  501 -0.00000000000E+00  0.00000000000E+00  0.88327212675E+02  0.88327212675E+02  0.00000000000E+00 0.  1.
          1   -1    0    0  501    0  0.00000000000E+00 -0.00000000000E+00 -0.38544555280E+04  0.38544555280E+04  0.00000000000E+00 0. -1.
        -24    2    1    2    0    0 -0.16586260449E+03 -0.34048916483E+02 -0.21392450672E+03  0.28468653373E+03  0.81320327266E+02 0.  0.
        254    2    1    2    0    0  0.16586260449E+03  0.34048916483E+02 -0.35522038086E+04  0.36580962069E+04  0.85723172431E+03 0.  0.
         23    2    4    4    0    0  0.79675351651E+02 -0.50838427036E+02 -0.34945124360E+04  0.34969707196E+04  0.90853404343E+02 0.  0.
         23    2    4    4    0    0  0.86187252837E+02  0.84887343518E+02 -0.57691372536E+02  0.16112548728E+03  0.89437265978E+02 0.  0.
          1    1    3    3  502    0 -0.69219144624E+02  0.17332935141E+02 -0.12384846882E+03  0.14293412417E+03  0.00000000000E+00 0. -1.
         -2    1    3    3    0  502 -0.96643459864E+02 -0.51381851624E+02 -0.90076037907E+02  0.14175240956E+03  0.00000000000E+00 0.  1.
         13    1    5    5    0    0  0.95670163259E+02 -0.28852060736E+02 -0.30431254110E+04  0.30447655885E+04  0.00000000000E+00 0.  1.
        -13    1    5    5    0    0 -0.15994811608E+02 -0.21986366300E+02 -0.45138702502E+03  0.45220513117E+03  0.00000000000E+00 0. -1.
          4    1    6    6  503    0  0.33798985243E+01  0.29766784833E+02 -0.53794608176E+02  0.61573899195E+02  0.00000000000E+00 0. -1.
         -4    1    6    6    0  503  0.82807354312E+02  0.55120558686E+02 -0.38967643600E+01  0.99551588086E+02  0.00000000000E+00 0.  1.
<mgrwt>
<rscale>  0 0.11669675E+04</rscale>
<asrwt>0</asrwt>
<pdfrwt beam="1">  1        1 0.59299305E+00 0.11669675E+04</pdfrwt>
<pdfrwt beam="2">  1       -2 0.13588804E-01 0.11669675E+04</pdfrwt>
<totfact> 0.47866144E+00</totfact>
</mgrwt>
</event>
<event>
12    5  0.5428626E-008  0.1542372E+04  0.7818608E-02  0.8856755E-01
         -2   -1    0    0    0  501 -0.00000000000E+00  0.00000000000E+00  0.65247613287E+03  0.65247613287E+03  0.00000000000E+00 0.  1.
          1   -1    0    0  501    0  0.00000000000E+00 -0.00000000000E+00 -0.91149420190E+03  0.91149420190E+03  0.00000000000E+00 0. -1.
        -24    2    1    2    0    0  0.52417848242E+02 -0.44858788546E+03  0.14083980054E+03  0.48001063121E+03  0.81213514038E+02 0.  0.
        254    2    1    2    0    0 -0.52417848242E+02  0.44858788546E+03 -0.39985786957E+03  0.10839597036E+04  0.90061290313E+03 0.  0.
         23    2    4    4    0    0 -0.10440832473E+03 -0.25712118043E+03 -0.14765207982E+03  0.32666760279E+03  0.88871740942E+02 0.  0.
         23    2    4    4    0    0  0.51990476492E+02  0.70570906589E+03 -0.25220578976E+03  0.75729210077E+03  0.95683176011E+02 0.  0.
          3    1    3    3  502    0  0.28851356730E+02 -0.36773866119E+03  0.14338903374E+03  0.39575818212E+03  0.00000000000E+00 0. -1.
         -4    1    3    3    0  502  0.23566491512E+02 -0.80849224272E+02 -0.25492332046E+01  0.84252449089E+02  0.00000000000E+00 0.  1.
         13    1    5    5    0    0 -0.93275056832E+02 -0.17755105567E+03 -0.14274592354E+03  0.24617272856E+03  0.00000000000E+00 0. -1.
        -13    1    5    5    0    0 -0.11133267902E+02 -0.79570124761E+02 -0.49061562759E+01  0.80494874234E+02  0.00000000000E+00 0.  1.
          2    1    6    6  503    0  0.64337599673E+01  0.57212738255E+03 -0.18820401346E+03  0.60232207813E+03  0.00000000000E+00 0. -1.
         -2    1    6    6    0  503  0.45556716524E+02  0.13358168335E+03 -0.64001776294E+02  0.15497002263E+03  0.00000000000E+00 0.  1.
<mgrwt>
<rscale>  0 0.15423725E+04</rscale>
<asrwt>0</asrwt>
<pdfrwt beam="1">  1        1 0.14022988E+00 0.15423725E+04</pdfrwt>
<pdfrwt beam="2">  1       -2 0.10038094E+00 0.15423725E+04</pdfrwt>
<totfact> 0.12315352E+01</totfact>
</mgrwt>
</event>
<event>
12    5  0.5428626E-008  0.1502041E+04  0.7818608E-02  0.8883097E-01
         -2   -1    0    0    0  501 -0.00000000000E+00  0.00000000000E+00  0.43187260019E+03  0.43187260019E+03  0.00000000000E+00 0.  1.
          1   -1    0    0  501    0  0.00000000000E+00 -0.00000000000E+00 -0.13060145021E+04  0.13060145021E+04  0.00000000000E+00 0. -1.
        -24    2    1    2    0    0 -0.17436585568E+03 -0.16285203839E+03  0.18671939031E+03  0.31433559030E+03  0.83776455993E+02 0.  0.
        254    2    1    2    0    0  0.17436585568E+03  0.16285203839E+03 -0.10608612922E+04  0.14235515120E+04  0.91877526519E+03 0.  0.
         23    2    4    4    0    0  0.49750407102E+03  0.12440050287E+03 -0.32541471448E+03  0.61412765646E+03  0.90951944644E+02 0.  0.
         23    2    4    4    0    0 -0.32313821534E+03  0.38451535528E+02 -0.73544657772E+03  0.80942385551E+03  0.91588658670E+02 0.  0.
          1    1    3    3  502    0 -0.65084017533E+01 -0.46554364815E+02  0.21646833702E+02  0.51751846209E+02  0.00000000000E+00 0. -1.
         -2    1    3    3    0  502 -0.16785745393E+03 -0.11629767358E+03  0.16507255660E+03  0.26258374410E+03  0.00000000000E+00 0.  1.
         13    1    5    5    0    0  0.21375757882E+03  0.51009601112E+02 -0.19316674368E+03  0.29258788897E+03  0.00000000000E+00 0. -1.
        -13    1    5    5    0    0  0.28374649221E+03  0.73390901754E+02 -0.13224797080E+03  0.32153976749E+03  0.00000000000E+00 0.  1.
          2    1    6    6  503    0 -0.45693320221E+02 -0.82400398032E+01 -0.48729165576E+02  0.67307572728E+02  0.00000000000E+00 0. -1.
         -2    1    6    6    0  503 -0.27744489512E+03  0.46691575331E+02 -0.68671741214E+03  0.74211628278E+03  0.00000000000E+00 0.  1.
<mgrwt>
<rscale>  0 0.15020411E+04</rscale>
<asrwt>0</asrwt>
<pdfrwt beam="1">  1        1 0.20092531E+00 0.15020411E+04</pdfrwt>
<pdfrwt beam="2">  1       -2 0.66441938E-01 0.15020411E+04</pdfrwt>
<totfact> 0.15822509E+01</totfact>
</mgrwt>
</event>
<event>
12    5  0.5428626E-008  0.2003123E+04  0.7818608E-02  0.8605162E-01
         -2   -1    0    0    0  501 -0.00000000000E+00  0.00000000000E+00  0.73921219457E+03  0.73921219457E+03  0.00000000000E+00 0.  1.
          1   -1    0    0  501    0  0.00000000000E+00 -0.00000000000E+00 -0.13570201438E+04  0.13570201438E+04  0.00000000000E+00 0. -1.
        -24    2    1    2    0    0 -0.68996477140E+03 -0.20488338138E+03  0.10071871363E+03  0.73122428950E+03  0.80722466151E+02 0.  0.
        254    2    1    2    0    0  0.68996477140E+03  0.20488338138E+03 -0.71852666286E+03  0.13650080489E+04  0.91046022565E+03 0.  0.
         23    2    4    4    0    0 -0.26286476292E+02  0.24685327188E+02 -0.60359337546E+03  0.61193812178E+03  0.94037002166E+02 0.  0.
         23    2    4    4    0    0  0.71625124769E+03  0.18019805419E+03 -0.11493328740E+03  0.75306992709E+03  0.91746749142E+02 0.  0.
          3    1    3    3  502    0 -0.10618571990E+03 -0.18682151303E+02  0.41826656364E+02  0.11564557523E+03  0.00000000000E+00 0. -1.
         -4    1    3    3    0  502 -0.58377905150E+03 -0.18620123007E+03  0.58892057265E+02  0.61557871427E+03  0.00000000000E+00 0.  1.
         13    1    5    5    0    0 -0.25143046798E+02  0.22083240961E+02 -0.60676053193E+03  0.60768263546E+03  0.00000000000E+00 0. -1.
        -13    1    5    5    0    0 -0.11434294949E+01  0.26020862267E+01  0.31671564683E+01  0.42554863219E+01  0.00000000000E+00 0.  1.
          4    1    6    6  503    0  0.12172679137E+02  0.84262082405E+01 -0.15698996704E+02  0.21578544904E+02  0.00000000000E+00 0.  1.
         -4    1    6    6    0  503  0.70407856856E+03  0.17177184595E+03 -0.99234290699E+02  0.73149138219E+03  0.00000000000E+00 0. -1.
<mgrwt>
<rscale>  0 0.20031234E+04</rscale>
<asrwt>0</asrwt>
<pdfrwt beam="1">  1        1 0.20877233E+00 0.20031234E+04</pdfrwt>
<pdfrwt beam="2">  1       -2 0.11372495E+00 0.20031234E+04</pdfrwt>
<totfact> 0.40625200E+00</totfact>
</mgrwt>
</event>
<event>
12    5  0.5428626E-008  0.1433104E+04  0.7818608E-02  0.8930198E-01
          1   -1    0    0  501    0  0.00000000000E+00  0.00000000000E+00  0.48850130366E+03  0.48850130366E+03  0.00000000000E+00 0. -1.
         -2   -1    0    0    0  501 -0.00000000000E+00 -0.00000000000E+00 -0.10510658730E+04  0.10510658730E+04  0.00000000000E+00 0.  1.
        -24    2    1    2    0    0  0.54158592685E+02  0.35676182303E+03  0.75522638356E+02  0.37715879014E+03  0.79579724429E+02 0.  0.
        254    2    1    2    0    0 -0.54158592685E+02 -0.35676182303E+03 -0.63808720767E+03  0.11624083865E+04  0.90212295219E+03 0.  0.
         23    2    4    4    0    0 -0.94756974292E+02  0.25863804663E+03 -0.40307345477E+03  0.49684765238E+03  0.92286815925E+02 0.  0.
         23    2    4    4    0    0  0.40598381606E+02 -0.61539986966E+03 -0.23501375289E+03  0.66556073411E+03  0.85874318447E+02 0.  0.
          1    1    3    3  502    0  0.65583593296E+02  0.34630783819E+03  0.79178218314E+02  0.36124716851E+03  0.00000000000E+00 0. -1.
         -2    1    3    3    0  502 -0.11425000610E+02  0.10453984841E+02 -0.36555799582E+01  0.15911621628E+02  0.00000000000E+00 0.  1.
         13    1    5    5    0    0 -0.11161440405E+02  0.75010037820E+02 -0.18403092509E+03  0.19904387686E+03  0.00000000000E+00 0.  1.
        -13    1    5    5    0    0 -0.83595533887E+02  0.18362800881E+03 -0.21904252968E+03  0.29780377552E+03  0.00000000000E+00 0. -1.
          3    1    6    6  503    0  0.30933245609E+01 -0.51029607246E+03 -0.17980465571E+03  0.54105578681E+03  0.00000000000E+00 0. -1.
         -3    1    6    6    0  503  0.37505057045E+02 -0.10510379720E+03 -0.55209097178E+02  0.12450494730E+03  0.00000000000E+00 0.  1.
<mgrwt>
<rscale>  0 0.14331044E+04</rscale>
<asrwt>0</asrwt>
<pdfrwt beam="1">  1        1 0.75154047E-01 0.14331044E+04</pdfrwt>
<pdfrwt beam="2">  1       -2 0.16170244E+00 0.14331044E+04</pdfrwt>
<totfact> 0.95161320E+00</totfact>
</mgrwt>
</event>
<event>
12    5  0.5428626E-008  0.1828319E+04  0.7818608E-02  0.8691383E-01
          1   -1    0    0  501    0  0.00000000000E+00  0.00000000000E+00  0.10366401274E+04  0.10366401274E+04  0.00000000000E+00 0. -1.
         -2   -1    0    0    0  501 -0.00000000000E+00 -0.00000000000E+00 -0.80615038705E+03  0.80615038705E+03  0.00000000000E+00 0.  1.
        -24    2    1    2    0    0 -0.39775680294E+03  0.11111059812E+02  0.66060760988E+03  0.77391127479E+03  0.64825281135E+02 0.  0.
        254    2    1    2    0    0  0.39775680294E+03 -0.11111059812E+02 -0.43011786955E+03  0.10688792396E+04  0.89396169788E+03 0.  0.
         23    2    4    4    0    0  0.54172640114E+03 -0.30918945232E+03 -0.22328642382E+03  0.66855108483E+03  0.89655534367E+02 0.  0.
         23    2    4    4    0    0 -0.14396959819E+03  0.29807839251E+03 -0.20683144573E+03  0.40032815480E+03  0.88912379889E+02 0.  0.
          3    1    3    3  502    0 -0.32087945651E+03  0.14642491947E+02  0.57621205968E+03  0.65969566158E+03  0.00000000000E+00 0. -1.
         -4    1    3    3    0  502 -0.76877346437E+02 -0.35314321353E+01  0.84395550194E+02  0.11421561321E+03  0.00000000000E+00 0.  1.
         13    1    5    5    0    0  0.12294402049E+03 -0.10669235893E+03 -0.33732156163E+02  0.16624184187E+03  0.00000000000E+00 0. -1.
        -13    1    5    5    0    0  0.41878238065E+03 -0.20249709339E+03 -0.18955426766E+03  0.50230924296E+03  0.00000000000E+00 0.  1.
          3    1    6    6  503    0 -0.21049750165E+01  0.87887882098E+02 -0.38603063903E+02  0.96015140900E+02  0.00000000000E+00 0. -1.
         -3    1    6    6    0  503 -0.14186462318E+03  0.21019051042E+03 -0.16822838183E+03  0.30431301390E+03  0.00000000000E+00 0.  1.
<mgrwt>
<rscale>  0 0.18283193E+04</rscale>
<asrwt>0</asrwt>
<pdfrwt beam="1">  1        1 0.15948310E+00 0.18283193E+04</pdfrwt>
<pdfrwt beam="2">  1       -2 0.12402314E+00 0.18283193E+04</pdfrwt>
<totfact> 0.57189846E+00</totfact>
</mgrwt>
</event>
<event>
12    5  0.5428626E-008  0.1511901E+04  0.7818608E-02  0.8876577E-01
          1   -1    0    0  501    0  0.00000000000E+00  0.00000000000E+00  0.14606663678E+04  0.14606663678E+04  0.00000000000E+00 0. -1.
         -2   -1    0    0    0  501 -0.00000000000E+00 -0.00000000000E+00 -0.39123320235E+03  0.39123320235E+03  0.00000000000E+00 0.  1.
        -24    2    1    2    0    0 -0.20204974324E+03  0.36208356051E+03  0.66065637121E+03  0.78404217881E+03  0.79540516720E+02 0.  0.
        254    2    1    2    0    0  0.20204974324E+03 -0.36208356051E+03  0.40877679424E+03  0.10678573913E+04  0.89514933793E+03 0.  0.
         23    2    4    4    0    0  0.32148961546E+03 -0.23565040420E+03 -0.18053504765E+03  0.44672632458E+03  0.89915625955E+02 0.  0.
         23    2    4    4    0    0 -0.11943987222E+03 -0.12643315631E+03  0.58931184189E+03  0.62113106675E+03  0.90907254970E+02 0.  0.
          3    1    3    3  502    0 -0.13231400856E+03  0.30361302784E+03  0.52003592582E+03  0.61654296823E+03  0.00000000000E+00 0. -1.
         -2    1    3    3    0  502 -0.69735734685E+02  0.58470532669E+02  0.14062044539E+03  0.16749921058E+03  0.00000000000E+00 0.  1.
         13    1    5    5    0    0  0.12534289080E+02 -0.34516527353E+01  0.94485969421E+01  0.16071661194E+02  0.00000000000E+00 0. -1.
        -13    1    5    5    0    0  0.30895532638E+03 -0.23219875147E+03 -0.18998364460E+03  0.43065466339E+03  0.00000000000E+00 0.  1.
          2    1    6    6  503    0 -0.20989219370E+02 -0.85962946966E+02  0.23205848811E+03  0.24835723763E+03  0.00000000000E+00 0. -1.
         -2    1    6    6    0  503 -0.98450652851E+02 -0.40470209339E+02  0.35725335378E+03  0.37277382912E+03  0.00000000000E+00 0.  1.
<mgrwt>
<rscale>  0 0.15119010E+04</rscale>
<asrwt>0</asrwt>
<pdfrwt beam="1">  1        1 0.22471790E+00 0.15119010E+04</pdfrwt>
<pdfrwt beam="2">  1       -2 0.60189724E-01 0.15119010E+04</pdfrwt>
<totfact> 0.15198357E+01</totfact>
</mgrwt>
</event>
<event>
12    5  0.5428626E-008  0.1258724E+04  0.7818608E-02  0.9062953E-01
          1   -1    0    0  501    0  0.00000000000E+00  0.00000000000E+00  0.85147802514E+03  0.85147802514E+03  0.00000000000E+00 0. -1.
         -2   -1    0    0    0  501 -0.00000000000E+00 -0.00000000000E+00 -0.46518697141E+03  0.46518697141E+03  0.00000000000E+00 0.  1.
        -24    2    1    2    0    0  0.21244805020E+03  0.21498399945E+03  0.12108212214E+03  0.33566427384E+03  0.81592465238E+02 0.  0.
        254    2    1    2    0    0 -0.21244805020E+03 -0.21498399945E+03  0.26520893160E+03  0.98100072271E+03  0.89480408275E+03 0.  0.
         23    2    4    4    0    0 -0.53685108183E+03 -0.37447024400E+02  0.25199215093E+03  0.59983053402E+03  0.81763449749E+02 0.  0.
         23    2    4    4    0    0  0.32440303163E+03 -0.17753697505E+03  0.13216780673E+02  0.38117018869E+03  0.91429344367E+02 0.  0.
          3    1    3    3  502    0  0.16606128704E+02 -0.57545807280E+01  0.10855129440E+02  0.20657021689E+02  0.00000000000E+00 0. -1.
         -4    1    3    3    0  502  0.19584192149E+03  0.22073858017E+03  0.11022699269E+03  0.31500725215E+03  0.00000000000E+00 0.  1.
         13    1    5    5    0    0 -0.20034466597E+03 -0.41472674558E+02  0.64089618735E+02  0.21439553901E+03  0.00000000000E+00 0.  1.
        -13    1    5    5    0    0 -0.33650641586E+03  0.40256501580E+01  0.18790253219E+03  0.38543499501E+03  0.00000000000E+00 0. -1.
          4    1    6    6  503    0  0.32480438618E+03 -0.17002850755E+03  0.24696348395E+02  0.36744726463E+03  0.00000000000E+00 0. -1.
         -4    1    6    6    0  503 -0.40135454426E+00 -0.75084675013E+01 -0.11479567722E+02  0.13722924060E+02  0.00000000000E+00 0.  1.
<mgrwt>
<rscale>  0 0.12587239E+04</rscale>
<asrwt>0</asrwt>
<pdfrwt beam="1">  1        1 0.13099662E+00 0.12587239E+04</pdfrwt>
<pdfrwt beam="2">  1       -2 0.71567226E-01 0.12587239E+04</pdfrwt>
<totfact> 0.30546384E+01</totfact>
</mgrwt>
</event>
<event>
12    5  0.5428626E-008  0.1710578E+04  0.7818608E-02  0.8755354E-01
         -2   -1    0    0    0  501 -0.00000000000E+00  0.00000000000E+00  0.45315214326E+03  0.45315214326E+03  0.00000000000E+00 0.  1.
          1   -1    0    0  501    0  0.00000000000E+00 -0.00000000000E+00 -0.16142901115E+04  0.16142901115E+04  0.00000000000E+00 0. -1.
        -24    2    1    2    0    0 -0.57808267817E+03 -0.13594387454E+03 -0.22459097466E+03  0.63982392498E+03  0.79203719991E+02 0.  0.
        254    2    1    2    0    0  0.57808267817E+03  0.13594387454E+03 -0.93654699355E+03  0.14276183297E+04  0.89906256982E+03 0.  0.
         23    2    4    4    0    0  0.34084347125E+03 -0.20940705216E+03 -0.13612718970E+02  0.40996939469E+03  0.88679270823E+02 0.  0.
         23    2    4    4    0    0  0.23723920692E+03  0.34535092670E+03 -0.92293427458E+03  0.10176489351E+04  0.90840387224E+02 0.  0.
          3    1    3    3  502    0 -0.14529014468E+03 -0.39648730252E+01 -0.36783865360E+02  0.14992664576E+03  0.00000000000E+00 0. -1.
         -4    1    3    3    0  502 -0.43279253349E+03 -0.13197900151E+03 -0.18780710930E+03  0.48989727922E+03  0.00000000000E+00 0.  1.
         13    1    5    5    0    0  0.24162589533E+03 -0.12846670289E+03  0.28602292409E+02  0.27514515837E+03  0.00000000000E+00 0. -1.
        -13    1    5    5    0    0  0.99217575918E+02 -0.80940349276E+02 -0.42215011378E+02  0.13482423631E+03  0.00000000000E+00 0.  1.
          4    1    6    6  503    0  0.19676462488E+03  0.27087459466E+03 -0.80983126519E+03  0.87630818877E+03  0.00000000000E+00 0. -1.
         -4    1    6    6    0  503  0.40474582041E+02  0.74476332043E+02 -0.11310300939E+03  0.14134074628E+03  0.00000000000E+00 0.  1.
<mgrwt>
<rscale>  0 0.17105777E+04</rscale>
<asrwt>0</asrwt>
<pdfrwt beam="1">  1        1 0.24835233E+00 0.17105777E+04</pdfrwt>
<pdfrwt beam="2">  1       -2 0.69715714E-01 0.17105777E+04</pdfrwt>
<totfact> 0.85378017E+00</totfact>
</mgrwt>
</event>
<event>
12    5  0.5428626E-008  0.1331680E+04  0.7818608E-02  0.9004813E-01
         -2   -1    0    0    0  501 -0.00000000000E+00  0.00000000000E+00  0.37187282064E+03  0.37187282064E+03  0.00000000000E+00 0.  1.
          1   -1    0    0  501    0  0.00000000000E+00 -0.00000000000E+00 -0.11921892016E+04  0.11921892016E+04  0.00000000000E+00 0. -1.
        -24    2    1    2    0    0 -0.38595732518E+01 -0.36720711125E+03 -0.33318616821E+03  0.50231522258E+03  0.80321860605E+02 0.  0.
        254    2    1    2    0    0  0.38595732518E+01  0.36720711125E+03 -0.48713021278E+03  0.10617467997E+04  0.86899623911E+03 0.  0.
         23    2    4    4    0    0  0.14295995987E+03 -0.90182816321E+02 -0.53900311080E+03  0.57213277836E+03  0.90780351003E+02 0.  0.
         23    2    4    4    0    0 -0.13910038662E+03  0.45738992757E+03  0.51872898022E+02  0.48961402133E+03  0.92068609951E+02 0.  0.
          3    1    3    3  502    0  0.10753824130E+02 -0.35840208919E+03 -0.31374004811E+03  0.47644571576E+03  0.00000000000E+00 0. -1.
         -4    1    3    3    0  502 -0.14613397382E+02 -0.88050220536E+01 -0.19446120102E+02  0.25869506826E+02  0.00000000000E+00 0.  1.
         13    1    5    5    0    0  0.10474787752E+03 -0.96667793797E+02 -0.32849345563E+03  0.35808480922E+03  0.00000000000E+00 0. -1.
        -13    1    5    5    0    0  0.38212082359E+02  0.64849774755E+01 -0.21050965518E+03  0.21404796914E+03  0.00000000000E+00 0.  1.
          1    1    6    6  503    0 -0.69436928022E+02  0.11858804522E+03 -0.11745684545E+02  0.13792234246E+03  0.00000000000E+00 0. -1.
         -1    1    6    6    0  503 -0.69663458600E+02  0.33880188235E+03  0.63618582566E+02  0.35169167888E+03  0.00000000000E+00 0.  1.
<mgrwt>
<rscale>  0 0.13316798E+04</rscale>
<asrwt>0</asrwt>
<pdfrwt beam="1">  1        1 0.18341372E+00 0.13316798E+04</pdfrwt>
<pdfrwt beam="2">  1       -2 0.57211203E-01 0.13316798E+04</pdfrwt>
<totfact> 0.26648958E+01</totfact>
</mgrwt>
</event>
<event>
12    5  0.5428626E-008  0.1304497E+04  0.7818608E-02  0.9026007E-01
          1   -1    0    0  501    0  0.00000000000E+00  0.00000000000E+00  0.69094955918E+03  0.69094955918E+03  0.00000000000E+00 0. -1.
         -4   -1    0    0    0  501 -0.00000000000E+00 -0.00000000000E+00 -0.61571509447E+03  0.61571509447E+03  0.00000000000E+00 0.  1.
        -24    2    1    2    0    0  0.55614375861E+02 -0.47935693782E+02  0.35439875391E+03  0.37070662800E+03  0.80213077041E+02 0.  0.
        254    2    1    2    0    0 -0.55614375861E+02  0.47935693782E+02 -0.27916428919E+03  0.93595802565E+03  0.89033360932E+03 0.  0.
         23    2    4    4    0    0  0.23333988070E+03 -0.22331983448E+03  0.12944838686E+03  0.35977936972E+03  0.91460710787E+02 0.  0.
         23    2    4    4    0    0 -0.28895425656E+03  0.27125552826E+03 -0.40861267605E+03  0.57617865594E+03  0.89125756821E+02 0.  0.
          3    1    3    3  502    0  0.57014435415E+02 -0.14291662164E+02  0.30692884968E+03  0.31250634589E+03  0.00000000000E+00 0. -1.
         -4    1    3    3    0  502 -0.14000595542E+01 -0.33644031619E+02  0.47469904225E+02  0.58200282108E+02  0.00000000000E+00 0.  1.
         13    1    5    5    0    0  0.16167020688E+03 -0.93796204015E+02  0.60300651445E+02  0.19639539771E+03  0.00000000000E+00 0.  1.
        -13    1    5    5    0    0  0.71669673823E+02 -0.12952363046E+03  0.69147735417E+02  0.16338397200E+03  0.00000000000E+00 0. -1.
          3    1    6    6  503    0  0.43134010259E+01  0.18181756967E+01 -0.17036478869E+02  0.17667846602E+02  0.00000000000E+00 0. -1.
         -3    1    6    6    0  503 -0.29326765758E+03  0.26943735256E+03 -0.39157619718E+03  0.55851080933E+03  0.00000000000E+00 0.  1.
<mgrwt>
<rscale>  0 0.13044969E+04</rscale>
<asrwt>0</asrwt>
<pdfrwt beam="1">  1        1 0.10629993E+00 0.13044969E+04</pdfrwt>
<pdfrwt beam="2">  1       -4 0.94725399E-01 0.13044969E+04</pdfrwt>
<totfact> 0.12379193E+01</totfact>
</mgrwt>
</event>
<event>
12    5  0.5428626E-008  0.1894855E+04  0.7818608E-02  0.8657422E-01
          1   -1    0    0  501    0  0.00000000000E+00  0.00000000000E+00  0.44562695439E+04  0.44562695439E+04  0.00000000000E+00 0. -1.
         -2   -1    0    0    0  501 -0.00000000000E+00 -0.00000000000E+00 -0.20142829735E+03  0.20142829735E+03  0.00000000000E+00 0.  1.
        -24    2    1    2    0    0  0.57096804686E+03 -0.20623473333E+03  0.63160589411E+03  0.87974832521E+03  0.80584331470E+02 0.  0.
        254    2    1    2    0    0 -0.57096804686E+03  0.20623473333E+03  0.36232353524E+04  0.37779495160E+04  0.88120987900E+03 0.  0.
         23    2    4    4    0    0  0.37507316281E+02  0.40482720493E+02  0.23670229097E+04  0.23693952995E+04  0.90504036461E+02 0.  0.
         23    2    4    4    0    0 -0.60847536314E+03  0.16575201284E+03  0.12562124427E+04  0.14085542166E+04  0.90770493338E+02 0.  0.
          1    1    3    3  502    0  0.29594336789E+03 -0.13423442316E+03  0.38106448613E+03  0.50081084248E+03  0.00000000000E+00 0. -1.
         -2    1    3    3    0  502  0.27502467897E+03 -0.72000310170E+02  0.25054140798E+03  0.37893748273E+03  0.00000000000E+00 0.  1.
         13    1    5    5    0    0  0.36323037383E+02 -0.22619886191E+02  0.90662513130E+03  0.90763437077E+03  0.00000000000E+00 0. -1.
        -13    1    5    5    0    0  0.11842788982E+01  0.63102606684E+02  0.14603977784E+04  0.14617609287E+04  0.00000000000E+00 0.  1.
          1    1    6    6  503    0 -0.21097465487E+02  0.64990589543E+01  0.94968197980E+02  0.97500253563E+02  0.00000000000E+00 0. -1.
         -1    1    6    6    0  503 -0.58737789765E+03  0.15925295388E+03  0.11612442447E+04  0.13110539630E+04  0.00000000000E+00 0.  1.
<mgrwt>
<rscale>  0 0.18948549E+04</rscale>
<asrwt>0</asrwt>
<pdfrwt beam="1">  1        1 0.68557985E+00 0.18948549E+04</pdfrwt>
<pdfrwt beam="2">  1       -2 0.30988972E-01 0.18948549E+04</pdfrwt>
<totfact> 0.28768726E-01</totfact>
</mgrwt>
</event>
<event>
12    5  0.5428626E-008  0.1547667E+04  0.7818608E-02  0.8853359E-01
         -2   -1    0    0    0  501 -0.00000000000E+00  0.00000000000E+00  0.62778376349E+03  0.62778376349E+03  0.00000000000E+00 0.  1.
          1   -1    0    0  501    0  0.00000000000E+00 -0.00000000000E+00 -0.95386053705E+03  0.95386053705E+03  0.00000000000E+00 0. -1.
        -24    2    1    2    0    0  0.40771650703E+03 -0.30049523116E+03 -0.17969501526E+03  0.54334853630E+03  0.80044983150E+02 0.  0.
        254    2    1    2    0    0 -0.40771650703E+03  0.30049523116E+03 -0.14638175830E+03  0.10382957642E+04  0.89448328148E+03 0.  0.
         23    2    4    4    0    0 -0.21412074737E+03  0.76704857165E+02  0.36528197278E+03  0.44024757078E+03  0.93035876849E+02 0.  0.
         23    2    4    4    0    0 -0.19359575967E+03  0.22379037399E+03 -0.51166373107E+03  0.59804819347E+03  0.91106631792E+02 0.  0.
          3    1    3    3  502    0  0.23542400321E+03 -0.19746119122E+03 -0.14443761400E+03  0.33952556261E+03  0.00000000000E+00 0. -1.
         -4    1    3    3    0  502  0.17229250382E+03 -0.10303403994E+03 -0.35257401263E+02  0.20382297369E+03  0.00000000000E+00 0.  1.
         13    1    5    5    0    0 -0.50399313352E+02 -0.21465877581E+02  0.77480711329E+02  0.94890122325E+02  0.00000000000E+00 0.  1.
        -13    1    5    5    0    0 -0.16372143401E+03  0.98170734747E+02  0.28780126145E+03  0.34535744846E+03  0.00000000000E+00 0. -1.
          1    1    6    6  503    0 -0.14486195129E+03  0.12473008246E+03 -0.38624897773E+03  0.43096502317E+03  0.00000000000E+00 0. -1.
         -1    1    6    6    0  503 -0.48733808379E+02  0.99060291537E+02 -0.12541475334E+03  0.16708317029E+03  0.00000000000E+00 0.  1.
<mgrwt>
<rscale>  0 0.15476668E+04</rscale>
<asrwt>0</asrwt>
<pdfrwt beam="1">  1        1 0.14674778E+00 0.15476668E+04</pdfrwt>
<pdfrwt beam="2">  1       -2 0.96582117E-01 0.15476668E+04</pdfrwt>
<totfact> 0.12463951E+01</totfact>
</mgrwt>
</event>
<event>
12    5  0.5428626E-008  0.1286307E+04  0.7818608E-02  0.9040495E-01
         -4   -1    0    0    0  501 -0.00000000000E+00  0.00000000000E+00  0.19332809346E+04  0.19332809346E+04  0.00000000000E+00 0.  1.
          3   -1    0    0  501    0  0.00000000000E+00 -0.00000000000E+00 -0.21396079515E+03  0.21396079515E+03  0.00000000000E+00 0. -1.
        -24    2    1    2    0    0  0.13779245511E+03  0.25269193150E+03  0.66087165994E+03  0.72519412754E+03  0.79468224960E+02 0.  0.
        254    2    1    2    0    0 -0.13779245511E+03 -0.25269193150E+03  0.10584484795E+04  0.14220476022E+04  0.90502277663E+03 0.  0.
         23    2    4    4    0    0  0.33597769651E+03 -0.23974068384E+03  0.71085403244E+03  0.82717741686E+03  0.92479270565E+02 0.  0.
         23    2    4    4    0    0 -0.47377015162E+03 -0.12951247654E+02  0.34759444701E+03  0.59487018530E+03  0.91775521729E+02 0.  0.
          3    1    3    3  502    0  0.24852891355E+02  0.12575325470E+03  0.30500315161E+03  0.33084508424E+03  0.00000000000E+00 0. -1.
         -4    1    3    3    0  502  0.11293956375E+03  0.12693867680E+03  0.35586850834E+03  0.39434904330E+03  0.00000000000E+00 0.  1.
         13    1    5    5    0    0  0.33638924394E+01 -0.21154982773E+02  0.17299407155E+02  0.27533952792E+02  0.00000000000E+00 0. -1.
        -13    1    5    5    0    0  0.33261380407E+03 -0.21858570107E+03  0.69355462529E+03  0.79964346407E+03  0.00000000000E+00 0.  1.
          3    1    6    6  503    0 -0.66862343061E+01  0.10113871198E+02 -0.10226039570E+00  0.12124626880E+02  0.00000000000E+00 0. -1.
         -3    1    6    6    0  503 -0.46708391731E+03 -0.23065118851E+02  0.34769670741E+03  0.58274555842E+03  0.00000000000E+00 0.  1.
<mgrwt>
<rscale>  0 0.12863068E+04</rscale>
<asrwt>0</asrwt>
<pdfrwt beam="1">  1        3 0.32917047E-01 0.12863068E+04</pdfrwt>
<pdfrwt beam="2">  1       -4 0.29742782E+00 0.12863068E+04</pdfrwt>
<totfact> 0.65949842E-01</totfact>
</mgrwt>
</event>
<event>
12    5  0.5428626E-008  0.1377037E+04  0.7818608E-02  0.8970610E-01
         -2   -1    0    0    0  501 -0.00000000000E+00  0.00000000000E+00  0.38692750376E+03  0.38692750376E+03  0.00000000000E+00 0.  1.
          1   -1    0    0  501    0  0.00000000000E+00 -0.00000000000E+00 -0.12251842744E+04  0.12251842744E+04  0.00000000000E+00 0. -1.
        -24    2    1    2    0    0 -0.23810741697E+03 -0.31462995619E+03 -0.26187190705E+03  0.48026696756E+03  0.79951942292E+02 0.  0.
        254    2    1    2    0    0  0.23810741697E+03  0.31462995619E+03 -0.57638486356E+03  0.11318448106E+04  0.89059868230E+03 0.  0.
         23    2    4    4    0    0 -0.19570714199E+03 -0.99327957315E+02  0.68172191504E+02  0.24717649057E+03  0.91002424514E+02 0.  0.
         23    2    4    4    0    0  0.43381455896E+03  0.41395791351E+03 -0.64455705506E+03  0.88466832000E+03  0.87338499247E+02 0.  0.
          3    1    3    3  502    0 -0.24191043524E+02 -0.59056747872E+02 -0.73850460690E+02  0.97605310307E+02  0.00000000000E+00 0. -1.
         -4    1    3    3    0  502 -0.21391637345E+03 -0.25557320832E+03 -0.18802144636E+03  0.38266165726E+03  0.00000000000E+00 0.  1.
         13    1    5    5    0    0 -0.16616213405E+03 -0.51630831982E+02  0.77186501353E+02  0.19035060702E+03  0.00000000000E+00 0.  1.
        -13    1    5    5    0    0 -0.29545007942E+02 -0.47697125333E+02 -0.90143098493E+01  0.56825883551E+02  0.00000000000E+00 0. -1.
          3    1    6    6  503    0  0.10018836324E+03  0.13447345941E+03 -0.22043223775E+03  0.27696785166E+03  0.00000000000E+00 0. -1.
         -3    1    6    6    0  503  0.33362619572E+03  0.27948445410E+03 -0.42412481732E+03  0.60770046834E+03  0.00000000000E+00 0.  1.
<mgrwt>
<rscale>  0 0.13770367E+04</rscale>
<asrwt>0</asrwt>
<pdfrwt beam="1">  1        1 0.18848989E+00 0.13770367E+04</pdfrwt>
<pdfrwt beam="2">  1       -2 0.59527309E-01 0.13770367E+04</pdfrwt>
<totfact> 0.23110574E+01</totfact>
</mgrwt>
</event>
<event>
12    5  0.5428626E-008  0.1726388E+04  0.7818608E-02  0.8746456E-01
         -2   -1    0    0    0  501 -0.00000000000E+00  0.00000000000E+00  0.45840858023E+03  0.45840858023E+03  0.00000000000E+00 0.  1.
          1   -1    0    0  501    0  0.00000000000E+00 -0.00000000000E+00 -0.16254140633E+04  0.16254140633E+04  0.00000000000E+00 0. -1.
        -24    2    1    2    0    0 -0.58674934436E+03 -0.19735760090E+03 -0.57937505250E+03  0.85196544329E+03  0.83335762844E+02 0.  0.
        254    2    1    2    0    0  0.58674934436E+03  0.19735760090E+03 -0.58763043058E+03  0.12318572002E+04  0.88822171956E+03 0.  0.
         23    2    4    4    0    0  0.35499494354E+03  0.25256775580E+03 -0.78981743185E+03  0.90665316821E+03  0.91632475537E+02 0.  0.
         23    2    4    4    0    0  0.23175440082E+03 -0.55210154897E+02  0.20218700126E+03  0.32520403203E+03  0.90110018679E+02 0.  0.
          3    1    3    3  502    0 -0.42638054820E+03 -0.15185165321E+03 -0.47048889950E+03  0.65285457877E+03  0.00000000000E+00 0. -1.
         -4    1    3    3    0  502 -0.16036879616E+03 -0.45505947688E+02 -0.10888615300E+03  0.19911086452E+03  0.00000000000E+00 0.  1.
         13    1    5    5    0    0  0.27496184207E+03  0.14876301589E+03 -0.52138991558E+03  0.60793247451E+03  0.00000000000E+00 0. -1.
        -13    1    5    5    0    0  0.80033101462E+02  0.10380473991E+03 -0.26842751627E+03  0.29872069370E+03  0.00000000000E+00 0.  1.
          4    1    6    6  503    0  0.11274921913E+02  0.11995580790E+02  0.40317445514E+02  0.43548986617E+02  0.00000000000E+00 0. -1.
         -4    1    6    6    0  503  0.22047947891E+03 -0.67205735688E+02  0.16186955575E+03  0.28165504541E+03  0.00000000000E+00 0.  1.
<mgrwt>
<rscale>  0 0.17263879E+04</rscale>
<asrwt>0</asrwt>
<pdfrwt beam="1">  1        1 0.25006370E+00 0.17263879E+04</pdfrwt>
<pdfrwt beam="2">  1       -2 0.70524398E-01 0.17263879E+04</pdfrwt>
<totfact> 0.81693737E+00</totfact>
</mgrwt>
</event>
<event>
12    5  0.5428626E-008  0.1591886E+04  0.7818608E-02  0.8825548E-01
          1   -1    0    0  501    0  0.00000000000E+00  0.00000000000E+00  0.72239068886E+03  0.72239068886E+03  0.00000000000E+00 0. -1.
         -2   -1    0    0    0  501 -0.00000000000E+00 -0.00000000000E+00 -0.87698395201E+03  0.87698395201E+03  0.00000000000E+00 0.  1.
        -24    2    1    2    0    0  0.18462354722E+02 -0.35760887615E+03  0.35081419908E+03  0.50779345540E+03  0.80985333396E+02 0.  0.
        254    2    1    2    0    0 -0.18462354722E+02  0.35760887615E+03 -0.50540746223E+03  0.10915811855E+04  0.89882579778E+03 0.  0.
         23    2    4    4    0    0  0.21273969350E+03  0.56616763025E+03 -0.19219198438E+03  0.64098431929E+03  0.90106470233E+02 0.  0.
         23    2    4    4    0    0 -0.23120204823E+03 -0.20855875410E+03 -0.31321547785E+03  0.45059686619E+03  0.89344609430E+02 0.  0.
          1    1    3    3  502    0  0.39668294226E+02 -0.27897901030E+03  0.30105743763E+03  0.41235717831E+03  0.00000000000E+00 0. -1.
         -2    1    3    3    0  502 -0.21205939505E+02 -0.78629865849E+02  0.49756761457E+02  0.95436277087E+02  0.00000000000E+00 0.  1.
         13    1    5    5    0    0  0.19744481510E+03  0.48455310749E+03 -0.13567568757E+03  0.54054052686E+03  0.00000000000E+00 0. -1.
        -13    1    5    5    0    0  0.15294878402E+02  0.81614522766E+02 -0.56516296811E+02  0.10044379243E+03  0.00000000000E+00 0.  1.
          1    1    6    6  503    0 -0.20656842148E+03 -0.18560592914E+03 -0.22915674363E+03  0.36004567326E+03  0.00000000000E+00 0. -1.
         -1    1    6    6    0  503 -0.24633626743E+02 -0.22952824961E+02 -0.84058734223E+02  0.90551192921E+02  0.00000000000E+00 0.  1.
<mgrwt>
<rscale>  0 0.15918857E+04</rscale>
<asrwt>0</asrwt>
<pdfrwt beam="1">  1        1 0.11113703E+00 0.15918857E+04</pdfrwt>
<pdfrwt beam="2">  1       -2 0.13492061E+00 0.15918857E+04</pdfrwt>
<totfact> 0.86213681E+00</totfact>
</mgrwt>
</event>
<event>
12    5  0.5428626E-008  0.1505634E+04  0.7818608E-02  0.8880715E-01
          1   -1    0    0  501    0  0.00000000000E+00  0.00000000000E+00  0.95594199311E+03  0.95594199311E+03  0.00000000000E+00 0. -1.
         -2   -1    0    0    0  501 -0.00000000000E+00 -0.00000000000E+00 -0.59285351476E+03  0.59285351476E+03  0.00000000000E+00 0.  1.
        -24    2    1    2    0    0 -0.16151760709E+01 -0.34866133593E+03 -0.21999689170E+03  0.41944329980E+03  0.77244504182E+02 0.  0.
        254    2    1    2    0    0  0.16151760709E+01  0.34866133593E+03  0.58308537005E+03  0.11293522081E+04  0.90215327142E+03 0.  0.
         23    2    4    4    0    0  0.83361855735E+02  0.71898493836E+02 -0.22372333047E+03  0.26769648578E+03  0.97420159591E+02 0.  0.
         23    2    4    4    0    0 -0.81746679664E+02  0.27676284210E+03  0.80680870052E+03  0.86165572229E+03  0.90719976390E+02 0.  0.
          3    1    3    3  502    0 -0.24351473740E+02 -0.42076255864E+02 -0.41736296197E+02  0.64072802351E+02  0.00000000000E+00 0. -1.
         -4    1    3    3    0  502  0.22736297669E+02 -0.30658508007E+03 -0.17826059550E+03  0.35537049745E+03  0.00000000000E+00 0.  1.
         13    1    5    5    0    0  0.98877224340E+02  0.34643130776E+02 -0.17940020923E+03  0.20775294721E+03  0.00000000000E+00 0.  1.
        -13    1    5    5    0    0 -0.15515368605E+02  0.37255363060E+02 -0.44323121242E+02  0.59943538570E+02  0.00000000000E+00 0. -1.
          1    1    6    6  503    0  0.17228389526E+02  0.22328047364E+02  0.54934750332E+02  0.61750999172E+02  0.00000000000E+00 0. -1.
         -1    1    6    6    0  503 -0.98975069191E+02  0.25443479473E+03  0.75187395019E+03  0.79990472312E+03  0.00000000000E+00 0.  1.
<mgrwt>
<rscale>  0 0.15056342E+04</rscale>
<asrwt>0</asrwt>
<pdfrwt beam="1">  1        1 0.14706800E+00 0.15056342E+04</pdfrwt>
<pdfrwt beam="2">  1       -2 0.91208233E-01 0.15056342E+04</pdfrwt>
<totfact> 0.14238894E+01</totfact>
</mgrwt>
</event>
<event>
12    5  0.5428626E-008  0.1689663E+04  0.7818608E-02  0.8767282E-01
          1   -1    0    0  501    0  0.00000000000E+00  0.00000000000E+00  0.15917468839E+04  0.15917468839E+04  0.00000000000E+00 0. -1.
         -2   -1    0    0    0  501 -0.00000000000E+00 -0.00000000000E+00 -0.44840081154E+03  0.44840081154E+03  0.00000000000E+00 0.  1.
        -24    2    1    2    0    0 -0.52598731528E+03  0.27666287637E+03  0.30452813151E+03  0.67271870386E+03  0.81290027993E+02 0.  0.
        254    2    1    2    0    0  0.52598731528E+03 -0.27666287637E+03  0.83881794087E+03  0.13674289916E+04  0.90168814240E+03 0.  0.
         23    2    4    4    0    0  0.66092573173E+03 -0.61803571795E+02  0.86775735608E+03  0.10963513581E+04  0.91328894770E+02 0.  0.
         23    2    4    4    0    0 -0.13493841645E+03 -0.21485930458E+03 -0.28939415208E+02  0.27107763350E+03  0.90954365671E+02 0.  0.
          3    1    3    3  502    0 -0.44025684402E+01  0.11818126461E+02  0.16251391199E+02  0.20570815196E+02  0.00000000000E+00 0. -1.
         -4    1    3    3    0  502 -0.52158474684E+03  0.26484474991E+03  0.28827674031E+03  0.65214788866E+03  0.00000000000E+00 0.  1.
         13    1    5    5    0    0  0.24916201154E+03 -0.57067616449E+02  0.38058219828E+03  0.45845526553E+03  0.00000000000E+00 0. -1.
        -13    1    5    5    0    0  0.41176372019E+03 -0.47359553453E+01  0.48717515780E+03  0.63789609257E+03  0.00000000000E+00 0.  1.
          1    1    6    6  503    0 -0.10954262768E+03 -0.10674108819E+03 -0.43629315467E+02  0.15904956571E+03  0.00000000000E+00 0. -1.
         -1    1    6    6    0  503 -0.25395788776E+02 -0.10811821639E+03  0.14689900259E+02  0.11202806779E+03  0.00000000000E+00 0.  1.
<mgrwt>
<rscale>  0 0.16896634E+04</rscale>
<asrwt>0</asrwt>
<pdfrwt beam="1">  1        1 0.24488413E+00 0.16896634E+04</pdfrwt>
<pdfrwt beam="2">  1       -2 0.68984741E-01 0.16896634E+04</pdfrwt>
<totfact> 0.90692174E+00</totfact>
</mgrwt>
</event>
<event>
12    5  0.5428626E-008  0.1526724E+04  0.7818608E-02  0.8866874E-01
         -2   -1    0    0    0  501 -0.00000000000E+00  0.00000000000E+00  0.72672275412E+03  0.72672275412E+03  0.00000000000E+00 0.  1.
          1   -1    0    0  501    0  0.00000000000E+00 -0.00000000000E+00 -0.80184869450E+03  0.80184869450E+03  0.00000000000E+00 0. -1.
        -24    2    1    2    0    0 -0.23155691860E+02  0.56710876906E+02  0.45146577461E+03  0.46258183821E+03  0.80051869280E+02 0.  0.
        254    2    1    2    0    0  0.23155691860E+02 -0.56710876906E+02 -0.52659171499E+03  0.10659896104E+04  0.92481495748E+03 0.  0.
         23    2    4    4    0    0  0.14297451518E+03  0.40185501583E+03 -0.17835494037E+03  0.47054841142E+03  0.87613680391E+02 0.  0.
         23    2    4    4    0    0 -0.11981882332E+03 -0.45856589274E+03 -0.34823677462E+03  0.59544119898E+03  0.92963120891E+02 0.  0.
          3    1    3    3  502    0 -0.16370054008E+02 -0.18213894563E+02  0.14248177617E+03  0.14457102463E+03  0.00000000000E+00 0. -1.
         -4    1    3    3    0  502 -0.67856378521E+01  0.74924771469E+02  0.30898399845E+03  0.31801081358E+03  0.00000000000E+00 0.  1.
         13    1    5    5    0    0  0.71136161134E+02  0.94522501043E+02 -0.66417975503E+02  0.13566946633E+03  0.00000000000E+00 0. -1.
        -13    1    5    5    0    0  0.71838354049E+02  0.30733251479E+03 -0.11193696487E+03  0.33487894509E+03  0.00000000000E+00 0.  1.
          1    1    6    6  503    0 -0.94043938339E+02 -0.26467991624E+03 -0.15650553517E+03  0.32154891220E+03  0.00000000000E+00 0. -1.
         -1    1    6    6    0  503 -0.25774884984E+02 -0.19388597650E+03 -0.19173123945E+03  0.27389228678E+03  0.00000000000E+00 0.  1.
<mgrwt>
<rscale>  0 0.15267242E+04</rscale>
<asrwt>0</asrwt>
<pdfrwt beam="1">  1        1 0.12336134E+00 0.15267242E+04</pdfrwt>
<pdfrwt beam="2">  1       -2 0.11180350E+00 0.15267242E+04</pdfrwt>
<totfact> 0.11763270E+01</totfact>
</mgrwt>
</event>
<event>
12    5  0.5428626E-008  0.1189594E+04  0.7818608E-02  0.9122014E-01
          1   -1    0    0  501    0  0.00000000000E+00  0.00000000000E+00  0.23473695345E+04  0.23473695345E+04  0.00000000000E+00 0. -1.
         -4   -1    0    0    0  501 -0.00000000000E+00 -0.00000000000E+00 -0.15071473425E+03  0.15071473425E+03  0.00000000000E+00 0.  1.
        -24    2    1    2    0    0  0.18719485343E+00  0.69971638864E+02 -0.15441940307E+02  0.10674247228E+03  0.79116601169E+02 0.  0.
        254    2    1    2    0    0 -0.18719485343E+00 -0.69971638864E+02  0.22120967405E+04  0.23913417965E+04  0.90567518057E+03 0.  0.
         23    2    4    4    0    0 -0.16430353768E+02 -0.28709473025E+03  0.21160795689E+04  0.21374424381E+04  0.90410693250E+02 0.  0.
         23    2    4    4    0    0  0.16243158914E+02  0.21712309139E+03  0.96017171650E+02  0.25389935841E+03  0.88539877583E+02 0.  0.
          1    1    3    3  502    0  0.26725336716E+01 -0.58778795889E+01  0.21421021519E+02  0.22373020976E+02  0.00000000000E+00 0. -1.
         -2    1    3    3    0  502 -0.24853388181E+01  0.75849518453E+02 -0.36862961826E+02  0.84369451303E+02  0.00000000000E+00 0.  1.
         13    1    5    5    0    0 -0.30920719989E+01 -0.31526452587E+02  0.52113487718E+03  0.52209677105E+03  0.00000000000E+00 0. -1.
        -13    1    5    5    0    0 -0.13338281769E+02 -0.25556827766E+03  0.15949446917E+04  0.16153456670E+04  0.00000000000E+00 0.  1.
          1    1    6    6  503    0  0.94064499662E+00  0.91383979521E+01 -0.15041064760E+02  0.17624663380E+02  0.00000000000E+00 0. -1.
         -1    1    6    6    0  503  0.15302513918E+02  0.20798469344E+03  0.11105823641E+03  0.23627469503E+03  0.00000000000E+00 0.  1.
<mgrwt>
<rscale>  0 0.11895935E+04</rscale>
<asrwt>0</asrwt>
<pdfrwt beam="1">  1        1 0.36113375E+00 0.11895935E+04</pdfrwt>
<pdfrwt beam="2">  1       -4 0.23186884E-01 0.11895935E+04</pdfrwt>
<totfact> 0.15062667E+01</totfact>
</mgrwt>
</event>
<event>
12    5  0.5428626E-008  0.2661101E+04  0.7818608E-02  0.8347738E-01
         -2   -1    0    0    0  501 -0.00000000000E+00  0.00000000000E+00  0.13588621305E+04  0.13588621305E+04  0.00000000000E+00 0.  1.
          1   -1    0    0  501    0  0.00000000000E+00 -0.00000000000E+00 -0.13028284175E+04  0.13028284175E+04  0.00000000000E+00 0. -1.
        -24    2    1    2    0    0  0.78947006857E+03  0.51288730800E+03 -0.67559981368E+03  0.11616169359E+04  0.81255261797E+02 0.  0.
        254    2    1    2    0    0 -0.78947006857E+03 -0.51288730800E+03  0.73163352669E+03  0.15000736122E+04  0.91028393635E+03 0.  0.
         23    2    4    4    0    0 -0.29583200598E+03 -0.37717129421E+03  0.83852692704E+03  0.96939613185E+03  0.82623798742E+02 0.  0.
         23    2    4    4    0    0 -0.49363806259E+03 -0.13571601379E+03 -0.10689340035E+03  0.53067748036E+03  0.89972306236E+02 0.  0.
          1    1    3    3  502    0  0.72441906470E+03  0.47968642362E+03 -0.59613480926E+03  0.10536881688E+04  0.00000000000E+00 0. -1.
         -2    1    3    3    0  502  0.65051003869E+02  0.33200884384E+02 -0.79465004415E+02  0.10792876704E+03  0.00000000000E+00 0.  1.
         13    1    5    5    0    0 -0.21346136118E+03 -0.24293208276E+03  0.62913739922E+03  0.70738646909E+03  0.00000000000E+00 0. -1.
        -13    1    5    5    0    0 -0.82370644800E+02 -0.13423921145E+03  0.20938952783E+03  0.26200966276E+03  0.00000000000E+00 0.  1.
          1    1    6    6  503    0 -0.34884872645E+03 -0.11350182915E+03 -0.11361545856E+03  0.38403980469E+03  0.00000000000E+00 0. -1.
         -1    1    6    6    0  503 -0.14478933614E+03 -0.22214184642E+02  0.67220582083E+01  0.14663767567E+03  0.00000000000E+00 0.  1.
<mgrwt>
<rscale>  0 0.26611007E+04</rscale>
<asrwt>0</asrwt>
<pdfrwt beam="1">  1        1 0.20043514E+00 0.26611007E+04</pdfrwt>
<pdfrwt beam="2">  1       -2 0.20905571E+00 0.26611007E+04</pdfrwt>
<totfact> 0.80401497E-01</totfact>
</mgrwt>
</event>
<event>
12    5  0.5428626E-008  0.1361061E+04  0.7818608E-02  0.8982497E-01
         -2   -1    0    0    0  501 -0.00000000000E+00  0.00000000000E+00  0.55482201029E+03  0.55482201029E+03  0.00000000000E+00 0.  1.
          1   -1    0    0  501    0  0.00000000000E+00 -0.00000000000E+00 -0.83472107802E+03  0.83472107802E+03  0.00000000000E+00 0. -1.
        -24    2    1    2    0    0  0.37666599507E+03  0.81983310159E+02 -0.65621028175E+02  0.39921405165E+03  0.80418932547E+02 0.  0.
        254    2    1    2    0    0 -0.37666599507E+03 -0.81983310159E+02 -0.21427803955E+03  0.99032903666E+03  0.88670061894E+03 0.  0.
         23    2    4    4    0    0  0.11979054511E+03  0.23017759634E+03 -0.28032203272E+03  0.39300996720E+03  0.92438583576E+02 0.  0.
         23    2    4    4    0    0 -0.49645654018E+03 -0.31216090650E+03  0.66043993169E+02  0.59731906946E+03  0.92275315621E+02 0.  0.
          1    1    3    3  502    0  0.17702589749E+03  0.58457331034E+02 -0.67247706285E+02  0.19818597815E+03  0.00000000000E+00 0. -1.
         -2    1    3    3    0  502  0.19964009758E+03  0.23525979125E+02  0.16266781101E+01  0.20102807351E+03  0.00000000000E+00 0.  1.
         13    1    5    5    0    0  0.11976444503E+03  0.23816985361E+03 -0.27672287367E+03  0.38424464899E+03  0.00000000000E+00 0. -1.
        -13    1    5    5    0    0  0.26100072661E-01 -0.79922572680E+01 -0.35991590472E+01  0.87653182086E+01  0.00000000000E+00 0.  1.
          1    1    6    6  503    0 -0.34684619197E+02 -0.22014494820E+02 -0.19182725684E+02  0.45339141541E+02  0.00000000000E+00 0.  1.
         -1    1    6    6    0  503 -0.46177192098E+03 -0.29014641168E+03  0.85226718854E+02  0.55197992792E+03  0.00000000000E+00 0. -1.
<mgrwt>
<rscale>  0 0.13610608E+04</rscale>
<asrwt>0</asrwt>
<pdfrwt beam="1">  1        1 0.12841863E+00 0.13610608E+04</pdfrwt>
<pdfrwt beam="2">  1       -2 0.85357233E-01 0.13610608E+04</pdfrwt>
<totfact> 0.21105850E+01</totfact>
</mgrwt>
</event>
<event>
12    5  0.5428626E-008  0.1288906E+04  0.7818608E-02  0.9038409E-01
         -2   -1    0    0    0  501 -0.00000000000E+00  0.00000000000E+00  0.13319657531E+04  0.13319657531E+04  0.00000000000E+00 0.  1.
          1   -1    0    0  501    0  0.00000000000E+00 -0.00000000000E+00 -0.31180958349E+03  0.31180958349E+03  0.00000000000E+00 0. -1.
        -24    2    1    2    0    0 -0.21202567897E+03 -0.46563397397E+02  0.57973775546E+03  0.62408801804E+03  0.79164074135E+02 0.  0.
        254    2    1    2    0    0  0.21202567897E+03  0.46563397397E+02  0.44041841412E+03  0.10196873185E+04  0.89368384205E+03 0.  0.
         23    2    4    4    0    0  0.19373025347E+03 -0.37969051933E+03  0.58847209949E+02  0.44000610935E+03  0.91902560173E+02 0.  0.
         23    2    4    4    0    0  0.18295425496E+02  0.42625391672E+03  0.38157120417E+03  0.57968120918E+03  0.91687492617E+02 0.  0.
          1    1    3    3  502    0 -0.33406406990E+02  0.21694772404E+02  0.97491937034E+02  0.10531537857E+03  0.00000000000E+00 0. -1.
         -2    1    3    3    0  502 -0.17861927198E+03 -0.68258169801E+02  0.48224581843E+03  0.51877263947E+03  0.00000000000E+00 0.  1.
         13    1    5    5    0    0  0.78443730423E+02 -0.22635187504E+03  0.64463689143E+02  0.24808094928E+03  0.00000000000E+00 0. -1.
        -13    1    5    5    0    0  0.11528652305E+03 -0.15333864428E+03 -0.56164791945E+01  0.19192516007E+03  0.00000000000E+00 0.  1.
          4    1    6    6  503    0  0.41362997878E+02  0.18766313627E+03  0.12887442240E+03  0.23138056759E+03  0.00000000000E+00 0. -1.
         -4    1    6    6    0  503 -0.23067572382E+02  0.23859078045E+03  0.25269678177E+03  0.34830064159E+03  0.00000000000E+00 0.  1.
<mgrwt>
<rscale>  0 0.12889060E+04</rscale>
<asrwt>0</asrwt>
<pdfrwt beam="1">  1        1 0.47970706E-01 0.12889060E+04</pdfrwt>
<pdfrwt beam="2">  1       -2 0.20491781E+00 0.12889060E+04</pdfrwt>
<totfact> 0.88326197E+00</totfact>
</mgrwt>
</event>
<event>
12    5  0.5428626E-008  0.1785593E+04  0.7818608E-02  0.8713999E-01
          3   -1    0    0  501    0  0.00000000000E+00  0.00000000000E+00  0.78944237351E+03  0.78944237351E+03  0.00000000000E+00 0. -1.
         -4   -1    0    0    0  501 -0.00000000000E+00 -0.00000000000E+00 -0.10096815721E+04  0.10096815721E+04  0.00000000000E+00 0.  1.
        -24    2    1    2    0    0 -0.42185249272E+03 -0.18945039122E+03 -0.56135316377E+03  0.73135849509E+03  0.76921372247E+02 0.  0.
        254    2    1    2    0    0  0.42185249272E+03  0.18945039122E+03  0.34111396513E+03  0.10677654506E+04  0.89995185641E+03 0.  0.
         23    2    4    4    0    0  0.66673119062E+03  0.73411303806E+02  0.38699500981E+03  0.77916327802E+03  0.86084703175E+02 0.  0.
         23    2    4    4    0    0 -0.24487869790E+03  0.11603908741E+03 -0.45881044672E+02  0.28860217255E+03  0.88065301036E+02 0.  0.
          3    1    3    3  502    0 -0.57774628412E+01 -0.10280250785E+01  0.19161970947E+01  0.61731453692E+01  0.00000000000E+00 0. -1.
         -4    1    3    3    0  502 -0.41607502988E+03 -0.18842236614E+03 -0.56326936087E+03  0.72518534972E+03  0.00000000000E+00 0.  1.
         13    1    5    5    0    0  0.45636081806E+03  0.14383943729E+02  0.23997352862E+03  0.51580944983E+03  0.00000000000E+00 0. -1.
        -13    1    5    5    0    0  0.21037037256E+03  0.59027360077E+02  0.14702148119E+03  0.26335382818E+03  0.00000000000E+00 0.  1.
          3    1    6    6  503    0 -0.17436688648E+03  0.95728977884E+02  0.55503585516E+01  0.19899410742E+03  0.00000000000E+00 0. -1.
         -3    1    6    6    0  503 -0.70511811424E+02  0.20310109531E+02 -0.51431403224E+02  0.89608065134E+02  0.00000000000E+00 0.  1.
<mgrwt>
<rscale>  0 0.17855928E+04</rscale>
<asrwt>0</asrwt>
<pdfrwt beam="1">  1        3 0.12145267E+00 0.17855928E+04</pdfrwt>
<pdfrwt beam="2">  1       -4 0.15533563E+00 0.17855928E+04</pdfrwt>
<totfact> 0.32262607E-01</totfact>
</mgrwt>
</event>
<event>
12    5  0.5428626E-008  0.1543982E+04  0.7818608E-02  0.8855721E-01
         -2   -1    0    0    0  501 -0.00000000000E+00  0.00000000000E+00  0.11254159841E+04  0.11254159841E+04  0.00000000000E+00 0.  1.
          1   -1    0    0  501    0  0.00000000000E+00 -0.00000000000E+00 -0.52955507725E+03  0.52955507725E+03  0.00000000000E+00 0. -1.
        -24    2    1    2    0    0 -0.34098329489E+03 -0.28460344128E+03 -0.10468890253E+03  0.46282807943E+03  0.77339114353E+02 0.  0.
        254    2    1    2    0    0  0.34098329489E+03  0.28460344128E+03  0.70054980940E+03  0.11921429819E+04  0.85625120599E+03 0.  0.
         23    2    4    4    0    0  0.29018792937E+03  0.54283874513E+03  0.26727526263E+03  0.67593407834E+03  0.81042425177E+02 0.  0.
         23    2    4    4    0    0  0.50795365522E+02 -0.25823530385E+03  0.43327454677E+03  0.51620890360E+03  0.97360967354E+02 0.  0.
          3    1    3    3  502    0 -0.30308088454E+03 -0.21610835077E+03 -0.92981374229E+02  0.38367483342E+03  0.00000000000E+00 0. -1.
         -4    1    3    3    0  502 -0.37902410351E+02 -0.68495090511E+02 -0.11707528301E+02  0.79153246007E+02  0.00000000000E+00 0.  1.
         13    1    5    5    0    0 -0.16769622959E+01  0.22502467970E+02  0.94769097819E+00  0.22584760027E+02  0.00000000000E+00 0. -1.
        -13    1    5    5    0    0  0.29186489167E+03  0.52033627716E+03  0.26632757165E+03  0.65334931831E+03  0.00000000000E+00 0.  1.
          4    1    6    6  503    0  0.25797612701E+02 -0.62621469069E+01  0.30295278561E+02  0.40280705158E+02  0.00000000000E+00 0. -1.
         -4    1    6    6    0  503  0.24997752822E+02 -0.25197315694E+03  0.40297926821E+03  0.47592819844E+03  0.00000000000E+00 0.  1.
<mgrwt>
<rscale>  0 0.15439815E+04</rscale>
<asrwt>0</asrwt>
<pdfrwt beam="1">  1        1 0.81470012E-01 0.15439815E+04</pdfrwt>
<pdfrwt beam="2">  1       -2 0.17314092E+00 0.15439815E+04</pdfrwt>
<totfact> 0.69797403E+00</totfact>
</mgrwt>
</event>
<event>
12    5  0.5428626E-008  0.1224679E+04  0.7818608E-02  0.9091525E-01
         -2   -1    0    0    0  501 -0.00000000000E+00  0.00000000000E+00  0.57525980169E+03  0.57525980169E+03  0.00000000000E+00 0.  1.
          1   -1    0    0  501    0  0.00000000000E+00 -0.00000000000E+00 -0.65180907945E+03  0.65180907945E+03  0.00000000000E+00 0. -1.
        -24    2    1    2    0    0  0.10004868421E+03 -0.61578568642E+02  0.23247911638E+03  0.27394957406E+03  0.84853816942E+02 0.  0.
        254    2    1    2    0    0 -0.10004868421E+03  0.61578568642E+02 -0.30902839415E+03  0.95311930708E+03  0.89394418495E+03 0.  0.
         23    2    4    4    0    0  0.47729848354E+02 -0.30894964219E+03  0.13196288670E+03  0.35164775727E+03  0.92270915744E+02 0.  0.
         23    2    4    4    0    0 -0.14777853256E+03  0.37052821083E+03 -0.44099128085E+03  0.60147154981E+03  0.90360753282E+02 0.  0.
          3    1    3    3  502    0  0.33224425300E+02 -0.69971536375E+02  0.12971158886E+03  0.15107936532E+03  0.00000000000E+00 0. -1.
         -4    1    3    3    0  502  0.66824258906E+02  0.83929677323E+01  0.10276752752E+03  0.12287020875E+03  0.00000000000E+00 0.  1.
         13    1    5    5    0    0  0.13083511177E+02 -0.20549511399E+01  0.18219064316E+02  0.22524106940E+02  0.00000000000E+00 0. -1.
        -13    1    5    5    0    0  0.34646337177E+02 -0.30689469105E+03  0.11374382239E+03  0.32912365033E+03  0.00000000000E+00 0.  1.
          1    1    6    6  503    0 -0.19306158582E+02  0.34439182685E+01 -0.27967349192E+02  0.34157882737E+02  0.00000000000E+00 0. -1.
         -1    1    6    6    0  503 -0.12847237398E+03  0.36708429257E+03 -0.41302393166E+03  0.56731366707E+03  0.00000000000E+00 0.  1.
<mgrwt>
<rscale>  0 0.12246788E+04</rscale>
<asrwt>0</asrwt>
<pdfrwt beam="1">  1        1 0.10027832E+00 0.12246788E+04</pdfrwt>
<pdfrwt beam="2">  1       -2 0.88501508E-01 0.12246788E+04</pdfrwt>
<totfact> 0.28825435E+01</totfact>
</mgrwt>
</event>
<event>
12    5  0.5428626E-008  0.2821380E+04  0.7818608E-02  0.8296661E-01
         -2   -1    0    0    0  501 -0.00000000000E+00  0.00000000000E+00  0.19266489882E+04  0.19266489882E+04  0.00000000000E+00 0.  1.
          1   -1    0    0  501    0  0.00000000000E+00 -0.00000000000E+00 -0.10329052858E+04  0.10329052858E+04  0.00000000000E+00 0. -1.
        -24    2    1    2    0    0 -0.79348766823E+03  0.35397151516E+03 -0.56731319167E+03  0.10407152952E+04  0.79533358191E+02 0.  0.
        254    2    1    2    0    0  0.79348766823E+03 -0.35397151516E+03  0.14610568941E+04  0.19188389788E+04  0.89013328533E+03 0.  0.
         23    2    4    4    0    0  0.27319099468E+03  0.14115066808E+03  0.10251340736E+04  0.10740317043E+04  0.89929986607E+02 0.  0.
         23    2    4    4    0    0  0.52029667356E+03 -0.49512218324E+03  0.43592282053E+03  0.84480727447E+03  0.88408261407E+02 0.  0.
          1    1    3    3  502    0 -0.63784838800E+03  0.31811979894E+03 -0.46283553502E+03  0.84986322725E+03  0.00000000000E+00 0. -1.
         -2    1    3    3    0  502 -0.15563928023E+03  0.35851716218E+02 -0.10447765665E+03  0.19085206796E+03  0.00000000000E+00 0.  1.
         13    1    5    5    0    0  0.24096471188E+03  0.15163734485E+03  0.94682716068E+03  0.98870599722E+03  0.00000000000E+00 0. -1.
        -13    1    5    5    0    0  0.32226282792E+02 -0.10486676771E+02  0.78306912874E+02  0.85325707124E+02  0.00000000000E+00 0.  1.
          3    1    6    6  503    0  0.10734804447E+03 -0.15376624063E+03  0.12463116684E+03  0.22516790881E+03  0.00000000000E+00 0.  1.
         -3    1    6    6    0  503  0.41294862908E+03 -0.34135594261E+03  0.31129165370E+03  0.61963936566E+03  0.00000000000E+00 0. -1.
<mgrwt>
<rscale>  0 0.28213798E+04</rscale>
<asrwt>0</asrwt>
<pdfrwt beam="1">  1        1 0.15890851E+00 0.28213798E+04</pdfrwt>
<pdfrwt beam="2">  1       -2 0.29640754E+00 0.28213798E+04</pdfrwt>
<totfact> 0.36160928E-01</totfact>
</mgrwt>
</event>
<event>
12    5  0.5428626E-008  0.3545452E+04  0.7818608E-02  0.8103102E-01
         -2   -1    0    0    0  501 -0.00000000000E+00  0.00000000000E+00  0.15102066694E+04  0.15102066694E+04  0.00000000000E+00 0.  1.
          1   -1    0    0  501    0  0.00000000000E+00 -0.00000000000E+00 -0.20808786284E+04  0.20808786284E+04  0.00000000000E+00 0. -1.
        -24    2    1    2    0    0 -0.17165687909E+03 -0.14677239258E+04  0.49045627825E+03  0.15590920744E+04  0.80877246758E+02 0.  0.
        254    2    1    2    0    0  0.17165687909E+03  0.14677239258E+04 -0.10611282373E+04  0.20319932234E+04  0.90516502222E+03 0.  0.
         23    2    4    4    0    0 -0.57841672679E+02  0.63658204294E+03  0.19841759810E+02  0.64620224325E+03  0.92743125145E+02 0.  0.
         23    2    4    4    0    0  0.22949855176E+03  0.83114188290E+03 -0.10809699971E+04  0.13857909802E+04  0.91946132767E+02 0.  0.
          3    1    3    3  502    0 -0.97967254651E+01 -0.35721095083E+03  0.13297190952E+03  0.38128357943E+03  0.00000000000E+00 0. -1.
         -4    1    3    3    0  502 -0.16186015362E+03 -0.11105129750E+04  0.35748436873E+03  0.11778084950E+04  0.00000000000E+00 0.  1.
         13    1    5    5    0    0 -0.74291918186E+02  0.61050425966E+03  0.20721390801E+02  0.61535690149E+03  0.00000000000E+00 0.  1.
        -13    1    5    5    0    0  0.16450245507E+02  0.26077783281E+02 -0.87963099141E+00  0.30845341768E+02  0.00000000000E+00 0. -1.
          4    1    6    6  503    0 -0.39209896948E+01  0.26055042723E+02 -0.54539537268E+02  0.60570624372E+02  0.00000000000E+00 0. -1.
         -4    1    6    6    0  503  0.23341954146E+03  0.80508684018E+03 -0.10264304598E+04  0.13252203558E+04  0.00000000000E+00 0.  1.
<mgrwt>
<rscale>  0 0.35454516E+04</rscale>
<asrwt>0</asrwt>
<pdfrwt beam="1">  1        1 0.32013517E+00 0.35454516E+04</pdfrwt>
<pdfrwt beam="2">  1       -2 0.23233949E+00 0.35454516E+04</pdfrwt>
<totfact> 0.15514293E-01</totfact>
</mgrwt>
</event>
<event>
12    5  0.5428626E-008  0.2444774E+04  0.7818608E-02  0.8422929E-01
         -2   -1    0    0    0  501 -0.00000000000E+00  0.00000000000E+00  0.10370713218E+04  0.10370713218E+04  0.00000000000E+00 0.  1.
          1   -1    0    0  501    0  0.00000000000E+00 -0.00000000000E+00 -0.14408166516E+04  0.14408166516E+04  0.00000000000E+00 0. -1.
        -24    2    1    2    0    0 -0.62102878836E+03  0.33399073358E+03  0.61725107750E+03  0.94074192241E+03  0.82279437426E+02 0.  0.
        254    2    1    2    0    0  0.62102878836E+03 -0.33399073358E+03 -0.10209964073E+04  0.15371460510E+04  0.90728041549E+03 0.  0.
         23    2    4    4    0    0  0.77453921705E+03 -0.35240418397E+03 -0.10535759961E+04  0.13572395831E+04  0.89315165470E+02 0.  0.
         23    2    4    4    0    0 -0.15351042870E+03  0.18413450395E+02  0.32579588843E+02  0.17990646787E+03  0.86025581642E+02 0.  0.
          1    1    3    3  502    0 -0.42570315940E+03  0.18939267862E+03  0.38204990006E+03  0.60254036610E+03  0.00000000000E+00 0. -1.
         -2    1    3    3    0  502 -0.19532562895E+03  0.14459805496E+03  0.23520117744E+03  0.33820155631E+03  0.00000000000E+00 0.  1.
         13    1    5    5    0    0  0.60498320156E+03 -0.31226779135E+03 -0.81881450563E+03  0.10648817034E+04  0.00000000000E+00 0. -1.
        -13    1    5    5    0    0  0.16955601550E+03 -0.40136392625E+02 -0.23476149048E+03  0.29235787969E+03  0.00000000000E+00 0.  1.
          1    1    6    6  503    0 -0.12477787946E+03  0.45029244169E+02  0.42873467022E+02  0.13941049533E+03  0.00000000000E+00 0. -1.
         -1    1    6    6    0  503 -0.28732549234E+02 -0.26615793774E+02 -0.10293878178E+02  0.40495972536E+02  0.00000000000E+00 0.  1.
<mgrwt>
<rscale>  0 0.24447737E+04</rscale>
<asrwt>0</asrwt>
<pdfrwt beam="1">  1        1 0.22166410E+00 0.24447737E+04</pdfrwt>
<pdfrwt beam="2">  1       -2 0.15954943E+00 0.24447737E+04</pdfrwt>
<totfact> 0.14309344E+00</totfact>
</mgrwt>
</event>
<event>
12    5  0.5428626E-008  0.1760506E+04  0.7818608E-02  0.8727589E-01
         -2   -1    0    0    0  501 -0.00000000000E+00  0.00000000000E+00  0.76472437969E+03  0.76472437969E+03  0.00000000000E+00 0.  1.
          1   -1    0    0  501    0  0.00000000000E+00 -0.00000000000E+00 -0.10132342894E+04  0.10132342894E+04  0.00000000000E+00 0. -1.
        -24    2    1    2    0    0  0.45877438319E+03  0.41964265121E+03  0.97627300590E+02  0.63417332793E+03  0.77915535378E+02 0.  0.
        254    2    1    2    0    0 -0.45877438319E+03 -0.41964265121E+03 -0.34613721030E+03  0.11437853412E+04  0.89546638626E+03 0.  0.
         23    2    4    4    0    0  0.18498179687E+03 -0.38678616329E+03 -0.11526136148E+03  0.45295375236E+03  0.89778165710E+02 0.  0.
         23    2    4    4    0    0 -0.64375618007E+03 -0.32856487915E+02 -0.23087584881E+03  0.69083158880E+03  0.91886116194E+02 0.  0.
          1    1    3    3  502    0  0.42792448354E+03  0.40094253468E+03  0.10878328518E+03  0.59641267832E+03  0.00000000000E+00 0. -1.
         -2    1    3    3    0  502  0.30849899653E+02  0.18700116528E+02 -0.11155984592E+02  0.37760649610E+02  0.00000000000E+00 0.  1.
         13    1    5    5    0    0  0.18614416187E+03 -0.31798046469E+03 -0.10677358666E+03  0.38361676674E+03  0.00000000000E+00 0. -1.
        -13    1    5    5    0    0 -0.11623649919E+01 -0.68805698606E+02 -0.84877748218E+01  0.69336985617E+02  0.00000000000E+00 0.  1.
          1    1    6    6  503    0 -0.64558898057E+03 -0.34721728983E+02 -0.22526672842E+03  0.68464284794E+03  0.00000000000E+00 0. -1.
         -1    1    6    6    0  503  0.18328005050E+01  0.18652410682E+01 -0.56091203884E+01  0.61887408627E+01  0.00000000000E+00 0.  1.
<mgrwt>
<rscale>  0 0.17605056E+04</rscale>
<asrwt>0</asrwt>
<pdfrwt beam="1">  1        1 0.15588220E+00 0.17605056E+04</pdfrwt>
<pdfrwt beam="2">  1       -2 0.11764990E+00 0.17605056E+04</pdfrwt>
<totfact> 0.68386034E+00</totfact>
</mgrwt>
</event>
<event>
12    5  0.5428626E-008  0.1913106E+04  0.7818608E-02  0.8648360E-01
         -2   -1    0    0    0  501 -0.00000000000E+00  0.00000000000E+00  0.96549377733E+03  0.96549377733E+03  0.00000000000E+00 0.  1.
          1   -1    0    0  501    0  0.00000000000E+00 -0.00000000000E+00 -0.94769499316E+03  0.94769499316E+03  0.00000000000E+00 0. -1.
        -24    2    1    2    0    0  0.56464687845E+03 -0.27256609345E+03 -0.38617623852E+03  0.74025474436E+03  0.75674478489E+02 0.  0.
        254    2    1    2    0    0 -0.56464687845E+03  0.27256609345E+03  0.40397502270E+03  0.11729340261E+04  0.90524032061E+03 0.  0.
         23    2    4    4    0    0 -0.25177582762E+03  0.46279125499E+03 -0.99398020407E+02  0.54408015755E+03  0.92609061698E+02 0.  0.
         23    2    4    4    0    0 -0.31287105084E+03 -0.19022516154E+03  0.50337304310E+03  0.62885386859E+03  0.89436351615E+02 0.  0.
          1    1    3    3  502    0  0.34562988457E+03 -0.15950526824E+03 -0.27646678419E+03  0.47046342096E+03  0.00000000000E+00 0. -1.
         -2    1    3    3    0  502  0.21901699389E+03 -0.11306082522E+03 -0.10970945433E+03  0.26979132339E+03  0.00000000000E+00 0.  1.
         13    1    5    5    0    0 -0.43793948584E+02  0.11701012452E+03  0.11896406613E+02  0.12550220581E+03  0.00000000000E+00 0. -1.
        -13    1    5    5    0    0 -0.20798187903E+03  0.34578113047E+03 -0.11129442702E+03  0.41857795173E+03  0.00000000000E+00 0.  1.
          4    1    6    6  503    0 -0.41643284136E+02  0.48855493911E+01  0.43461256103E+02  0.60389672035E+02  0.00000000000E+00 0. -1.
         -4    1    6    6    0  503 -0.27122776670E+03 -0.19511071093E+03  0.45991178700E+03  0.56846419656E+03  0.00000000000E+00 0.  1.
<mgrwt>
<rscale>  0 0.19131060E+04</rscale>
<asrwt>0</asrwt>
<pdfrwt beam="1">  1        1 0.14579923E+00 0.19131060E+04</pdfrwt>
<pdfrwt beam="2">  1       -2 0.14853751E+00 0.19131060E+04</pdfrwt>
<totfact> 0.41921100E+00</totfact>
</mgrwt>
</event>
<event>
12    5  0.5428626E-008  0.2641075E+04  0.7818608E-02  0.8354381E-01
         -2   -1    0    0    0  501 -0.00000000000E+00  0.00000000000E+00  0.15851587271E+04  0.15851587271E+04  0.00000000000E+00 0.  1.
          1   -1    0    0  501    0  0.00000000000E+00 -0.00000000000E+00 -0.11000910864E+04  0.11000910864E+04  0.00000000000E+00 0. -1.
        -24    2    1    2    0    0  0.99499789743E+03 -0.36959243025E+03  0.69459601452E+03  0.12709591286E+04  0.79082886378E+02 0.  0.
        254    2    1    2    0    0 -0.99499789743E+03  0.36959243025E+03 -0.20952837384E+03  0.14142906849E+04  0.91087684214E+03 0.  0.
         23    2    4    4    0    0 -0.43049811099E+03  0.45519327905E+02  0.34004239583E+03  0.55746493619E+03  0.87964148014E+02 0.  0.
         23    2    4    4    0    0 -0.56449978643E+03  0.32407310235E+03 -0.54957076967E+03  0.85682574870E+03  0.91863748099E+02 0.  0.
          3    1    3    3  502    0  0.44602021965E+02 -0.23773289738E+02  0.53115400584E+02  0.73319543422E+02  0.00000000000E+00 0. -1.
         -4    1    3    3    0  502  0.95039587546E+03 -0.34581914052E+03  0.64148061393E+03  0.11976395852E+04  0.00000000000E+00 0.  1.
         13    1    5    5    0    0 -0.39415680890E+03  0.15475251740E+02  0.29944676206E+03  0.49524482504E+03  0.00000000000E+00 0.  1.
        -13    1    5    5    0    0 -0.36341302094E+02  0.30044076165E+02  0.40595633766E+02  0.62220111149E+02  0.00000000000E+00 0. -1.
          3    1    6    6  503    0 -0.51549481946E+01  0.87317920355E+01 -0.27338373258E+02  0.29158263588E+02  0.00000000000E+00 0. -1.
         -3    1    6    6    0  503 -0.55934483824E+03  0.31534131031E+03 -0.52223239642E+03  0.82766748512E+03  0.00000000000E+00 0.  1.
<mgrwt>
<rscale>  0 0.26410748E+04</rscale>
<asrwt>0</asrwt>
<pdfrwt beam="1">  1        1 0.16924478E+00 0.26410748E+04</pdfrwt>
<pdfrwt beam="2">  1       -2 0.24387057E+00 0.26410748E+04</pdfrwt>
<totfact> 0.68423403E-01</totfact>
</mgrwt>
</event>
<event>
12    5  0.5428626E-008  0.1730514E+04  0.7818608E-02  0.8744150E-01
         -2   -1    0    0    0  501 -0.00000000000E+00  0.00000000000E+00  0.15221585735E+04  0.15221585735E+04  0.00000000000E+00 0.  1.
          1   -1    0    0  501    0  0.00000000000E+00 -0.00000000000E+00 -0.49184743195E+03  0.49184743195E+03  0.00000000000E+00 0. -1.
        -24    2    1    2    0    0  0.90785746038E+01 -0.57713451470E+03  0.66380065085E+03  0.88333760990E+03  0.80544151974E+02 0.  0.
        254    2    1    2    0    0 -0.90785746038E+01  0.57713451470E+03  0.36651049073E+03  0.11306683956E+04  0.90050786359E+03 0.  0.
         23    2    4    4    0    0  0.25454686150E+03  0.68389775457E+03  0.38859004165E+03  0.83159729166E+03  0.89674921926E+02 0.  0.
         23    2    4    4    0    0 -0.26362543611E+03 -0.10676323987E+03 -0.22079550924E+02  0.29907110393E+03  0.89773374032E+02 0.  0.
          1    1    3    3  502    0 -0.24227100839E+02 -0.15715428678E+03  0.21957885664E+03  0.27110753688E+03  0.00000000000E+00 0. -1.
         -2    1    3    3    0  502  0.33305675443E+02 -0.41998022792E+03  0.44422179422E+03  0.61223007303E+03  0.00000000000E+00 0.  1.
         13    1    5    5    0    0  0.20578737853E+03  0.43472813887E+03  0.24204632558E+03  0.53844537663E+03  0.00000000000E+00 0. -1.
        -13    1    5    5    0    0  0.48759482980E+02  0.24916961569E+03  0.14654371607E+03  0.29315191503E+03  0.00000000000E+00 0.  1.
          1    1    6    6  503    0 -0.14819224080E+03 -0.94622340809E+02 -0.43298554155E+02  0.18107758670E+03  0.00000000000E+00 0. -1.
         -1    1    6    6    0  503 -0.11543319531E+03 -0.12140899056E+02  0.21219003232E+02  0.11799351723E+03  0.00000000000E+00 0.  1.
<mgrwt>
<rscale>  0 0.17305141E+04</rscale>
<asrwt>0</asrwt>
<pdfrwt beam="1">  1        1 0.75668836E-01 0.17305141E+04</pdfrwt>
<pdfrwt beam="2">  1       -2 0.23417824E+00 0.17305141E+04</pdfrwt>
<totfact> 0.30302380E+00</totfact>
</mgrwt>
</event>
<event>
12    5  0.5428626E-008  0.2283889E+04  0.7818608E-02  0.8484301E-01
         -2   -1    0    0    0  501 -0.00000000000E+00  0.00000000000E+00  0.78191488394E+03  0.78191488394E+03  0.00000000000E+00 0.  1.
          1   -1    0    0  501    0  0.00000000000E+00 -0.00000000000E+00 -0.16677481020E+04  0.16677481020E+04  0.00000000000E+00 0. -1.
        -24    2    1    2    0    0  0.43936897559E+03 -0.52535825777E+03  0.34253888482E+03  0.76991492966E+03  0.79935696583E+02 0.  0.
        254    2    1    2    0    0 -0.43936897559E+03  0.52535825777E+03 -0.12283721029E+04  0.16797480563E+04  0.91848196157E+03 0.  0.
         23    2    4    4    0    0  0.14345620808E+03  0.10968557888E+03  0.54448941402E+02  0.20778403962E+03  0.87171727348E+02 0.  0.
         23    2    4    4    0    0 -0.58282518367E+03  0.41567267888E+03 -0.12828210443E+04  0.14719640167E+04  0.92624316440E+02 0.  0.
          1    1    3    3  502    0  0.20210005243E+03 -0.29905986180E+03  0.19667688046E+03  0.41105112509E+03  0.00000000000E+00 0. -1.
         -2    1    3    3    0  502  0.23726892316E+03 -0.22629839597E+03  0.14586200436E+03  0.35886380457E+03  0.00000000000E+00 0.  1.
         13    1    5    5    0    0  0.12446049042E+03  0.11982605331E+03  0.63982839060E+02  0.18423490555E+03  0.00000000000E+00 0.  1.
        -13    1    5    5    0    0  0.18995717661E+02 -0.10140474427E+02 -0.95338976572E+01  0.23549134074E+02  0.00000000000E+00 0. -1.
          4    1    6    6  503    0 -0.56340641421E+03  0.40839579969E+03 -0.12056068680E+04  0.13920135908E+04  0.00000000000E+00 0.  1.
         -4    1    6    6    0  503 -0.19418769461E+02  0.72768791940E+01 -0.77214176251E+02  0.79950425842E+02  0.00000000000E+00 0. -1.
<mgrwt>
<rscale>  0 0.22838888E+04</rscale>
<asrwt>0</asrwt>
<pdfrwt beam="1">  1        1 0.25657662E+00 0.22838888E+04</pdfrwt>
<pdfrwt beam="2">  1       -2 0.12029460E+00 0.22838888E+04</pdfrwt>
<totfact> 0.21035510E+00</totfact>
</mgrwt>
</event>
<event>
12    5  0.5428626E-008  0.1631717E+04  0.7818608E-02  0.8801296E-01
         -2   -1    0    0    0  501 -0.00000000000E+00  0.00000000000E+00  0.65403169142E+03  0.65403169142E+03  0.00000000000E+00 0.  1.
          1   -1    0    0  501    0  0.00000000000E+00 -0.00000000000E+00 -0.10177266239E+04  0.10177266239E+04  0.00000000000E+00 0. -1.
        -24    2    1    2    0    0  0.19696946331E+03 -0.17060746224E+02  0.41361259735E+03  0.46557975987E+03  0.81247114279E+02 0.  0.
        254    2    1    2    0    0 -0.19696946331E+03  0.17060746224E+02 -0.77730752978E+03  0.12061785554E+04  0.90087272860E+03 0.  0.
         23    2    4    4    0    0  0.97315946658E+01  0.43044330791E+03 -0.46790885191E+03  0.64251598749E+03  0.92260258104E+02 0.  0.
         23    2    4    4    0    0 -0.20670105798E+03 -0.41338256169E+03 -0.30939867786E+03  0.56366256791E+03  0.91528568881E+02 0.  0.
          1    1    3    3  502    0  0.39871641335E+01  0.15375763960E+02  0.52531845946E+02  0.54880838492E+02  0.00000000000E+00 0. -1.
         -2    1    3    3    0  502  0.19298229918E+03 -0.32436510184E+02  0.36108075140E+03  0.41069892138E+03  0.00000000000E+00 0.  1.
         13    1    5    5    0    0 -0.18284631885E+02  0.14993560692E+03 -0.22150805116E+03  0.26810600648E+03  0.00000000000E+00 0. -1.
        -13    1    5    5    0    0  0.28016226551E+02  0.28050770099E+03 -0.24640080076E+03  0.37440998101E+03  0.00000000000E+00 0.  1.
          3    1    6    6  503    0 -0.10737257791E+03 -0.14508861202E+03 -0.82214129759E+02  0.19833995805E+03  0.00000000000E+00 0. -1.
         -3    1    6    6    0  503 -0.99328480069E+02 -0.26829394967E+03 -0.22718454811E+03  0.36532260986E+03  0.00000000000E+00 0.  1.
<mgrwt>
<rscale>  0 0.16317175E+04</rscale>
<asrwt>0</asrwt>
<pdfrwt beam="1">  1        1 0.15657332E+00 0.16317175E+04</pdfrwt>
<pdfrwt beam="2">  1       -2 0.10062026E+00 0.16317175E+04</pdfrwt>
<totfact> 0.10009642E+01</totfact>
</mgrwt>
</event>
<event>
12    5  0.5428626E-008  0.2572764E+04  0.7818608E-02  0.8377512E-01
         -2   -1    0    0    0  501 -0.00000000000E+00  0.00000000000E+00  0.11308048672E+04  0.11308048672E+04  0.00000000000E+00 0.  1.
          1   -1    0    0  501    0  0.00000000000E+00 -0.00000000000E+00 -0.14633634609E+04  0.14633634609E+04  0.00000000000E+00 0. -1.
        -24    2    1    2    0    0 -0.69220801867E+03 -0.49436375317E+03  0.60203747556E+03  0.10446740816E+04  0.73125598370E+02 0.  0.
        254    2    1    2    0    0  0.69220801867E+03  0.49436375317E+03 -0.93459606929E+03  0.15494942466E+04  0.89661315288E+03 0.  0.
         23    2    4    4    0    0  0.68988833872E+03  0.38822268294E+03 -0.10833642268E+04  0.13448215862E+04  0.90577477165E+02 0.  0.
         23    2    4    4    0    0  0.23196799488E+01  0.10614107023E+03  0.14876815753E+03  0.20467266036E+03  0.92128309987E+02 0.  0.
          3    1    3    3  502    0 -0.97946125955E+02 -0.52400648500E+02  0.10420561432E+03  0.15230916456E+03  0.00000000000E+00 0. -1.
         -4    1    3    3    0  502 -0.59426189271E+03 -0.44196310467E+03  0.49783186124E+03  0.89236491700E+03  0.00000000000E+00 0.  1.
         13    1    5    5    0    0  0.33208324177E+03  0.22559369937E+03 -0.49642165272E+03  0.63844048583E+03  0.00000000000E+00 0. -1.
        -13    1    5    5    0    0  0.35780509694E+03  0.16262898357E+03 -0.58694257410E+03  0.70638110039E+03  0.00000000000E+00 0.  1.
          4    1    6    6  503    0 -0.30509744211E+01 -0.16904286793E+02  0.22205066685E+02  0.28073623624E+02  0.00000000000E+00 0. -1.
         -4    1    6    6    0  503  0.53706543699E+01  0.12304535702E+03  0.12656309084E+03  0.17659903674E+03  0.00000000000E+00 0.  1.
<mgrwt>
<rscale>  0 0.25727639E+04</rscale>
<asrwt>0</asrwt>
<pdfrwt beam="1">  1        1 0.22513284E+00 0.25727639E+04</pdfrwt>
<pdfrwt beam="2">  1       -2 0.17396998E+00 0.25727639E+04</pdfrwt>
<totfact> 0.10743343E+00</totfact>
</mgrwt>
</event>
<event>
12    5  0.5428626E-008  0.1207806E+04  0.7818608E-02  0.9106051E-01
         -2   -1    0    0    0  501 -0.00000000000E+00  0.00000000000E+00  0.26772324847E+03  0.26772324847E+03  0.00000000000E+00 0.  1.
          1   -1    0    0  501    0  0.00000000000E+00 -0.00000000000E+00 -0.13622235080E+04  0.13622235080E+04  0.00000000000E+00 0. -1.
        -24    2    1    2    0    0 -0.10140649725E+01 -0.20600014299E+03 -0.29862864794E+02  0.22294599561E+03  0.79850103458E+02 0.  0.
        254    2    1    2    0    0  0.10140649725E+01  0.20600014299E+03 -0.10646373948E+04  0.14070007609E+04  0.89652734011E+03 0.  0.
         23    2    4    4    0    0 -0.16397100449E+02  0.43358521445E+03 -0.16395528246E+03  0.47299140979E+03  0.92598790468E+02 0.  0.
         23    2    4    4    0    0  0.17411165421E+02 -0.22758507146E+03 -0.90068211231E+03  0.93400935110E+03  0.95116176728E+02 0.  0.
          3    1    3    3  502    0  0.10352745130E+01  0.74271938804E+01 -0.90832279065E+00  0.75538104653E+01  0.00000000000E+00 0. -1.
         -4    1    3    3    0  502 -0.20493394855E+01 -0.21342733687E+03 -0.28954542004E+02  0.21539218514E+03  0.00000000000E+00 0.  1.
         13    1    5    5    0    0 -0.52399263419E+02  0.17820552941E+03 -0.70331053811E+02  0.19861860600E+03  0.00000000000E+00 0.  1.
        -13    1    5    5    0    0  0.36002162970E+02  0.25537968504E+03 -0.93624228651E+02  0.27437280379E+03  0.00000000000E+00 0. -1.
          4    1    6    6  503    0 -0.38333211366E+02 -0.70943073767E+02 -0.31868640289E+03  0.32872994722E+03  0.00000000000E+00 0.  1.
         -4    1    6    6    0  503  0.55744376787E+02 -0.15664199769E+03 -0.58199570942E+03  0.60527940389E+03  0.00000000000E+00 0. -1.
<mgrwt>
<rscale>  0 0.12078061E+04</rscale>
<asrwt>0</asrwt>
<pdfrwt beam="1">  1        1 0.20957285E+00 0.12078061E+04</pdfrwt>
<pdfrwt beam="2">  1       -2 0.41188192E-01 0.12078061E+04</pdfrwt>
<totfact> 0.39572510E+01</totfact>
</mgrwt>
</event>
<event>
12    5  0.5428626E-008  0.1699805E+04  0.7818608E-02  0.8761476E-01
          1   -1    0    0  501    0  0.00000000000E+00  0.00000000000E+00  0.21507276865E+04  0.21507276865E+04  0.00000000000E+00 0. -1.
         -2   -1    0    0    0  501 -0.00000000000E+00 -0.00000000000E+00 -0.33585570266E+03  0.33585570266E+03  0.00000000000E+00 0.  1.
        -24    2    1    2    0    0 -0.13742637286E+03 -0.33975883525E+03  0.13647927787E+04  0.14151912870E+04  0.76059028277E+02 0.  0.
        254    2    1    2    0    0  0.13742637286E+03  0.33975883525E+03  0.45007920513E+03  0.10713921022E+04  0.90054853933E+03 0.  0.
         23    2    4    4    0    0  0.33445049790E+03 -0.52259375975E+02 -0.97075490006E+02  0.36392390940E+03  0.91808404551E+02 0.  0.
         23    2    4    4    0    0 -0.19702412504E+03  0.39201821122E+03  0.54715469513E+03  0.70746819280E+03  0.92931155394E+02 0.  0.
          1    1    3    3  502    0 -0.67439135949E+02 -0.25707353149E+03  0.99067144404E+03  0.10257020755E+04  0.00000000000E+00 0. -1.
         -2    1    3    3    0  502 -0.69987236910E+02 -0.82685303753E+02  0.37412133470E+03  0.38948921149E+03  0.00000000000E+00 0.  1.
         13    1    5    5    0    0  0.66260303349E+01  0.84835895896E+01 -0.18470750548E+02  0.21378592005E+02  0.00000000000E+00 0.  1.
        -13    1    5    5    0    0  0.32782446757E+03 -0.60742965564E+02 -0.78604739458E+02  0.34254531739E+03  0.00000000000E+00 0. -1.
          4    1    6    6  503    0 -0.15874871596E+03  0.33239349414E+03  0.50484521060E+03  0.62494421866E+03  0.00000000000E+00 0. -1.
         -4    1    6    6    0  503 -0.38275409088E+02  0.59624717077E+02  0.42309484533E+02  0.82523974145E+02  0.00000000000E+00 0.  1.
<mgrwt>
<rscale>  0 0.16998049E+04</rscale>
<asrwt>0</asrwt>
<pdfrwt beam="1">  1        1 0.33088117E+00 0.16998049E+04</pdfrwt>
<pdfrwt beam="2">  1       -2 0.51670110E-01 0.16998049E+04</pdfrwt>
<totfact> 0.69617064E+00</totfact>
</mgrwt>
</event>
<event>
12    5  0.5428626E-008  0.1944876E+04  0.7818608E-02  0.8632835E-01
          1   -1    0    0  501    0  0.00000000000E+00  0.00000000000E+00  0.11846346607E+04  0.11846346607E+04  0.00000000000E+00 0. -1.
         -2   -1    0    0    0  501 -0.00000000000E+00 -0.00000000000E+00 -0.79825116603E+03  0.79825116603E+03  0.00000000000E+00 0.  1.
        -24    2    1    2    0    0  0.45848312829E+02  0.39117000105E+03 -0.51849087212E+03  0.65619034721E+03  0.81467476910E+02 0.  0.
        254    2    1    2    0    0 -0.45848312829E+02 -0.39117000105E+03  0.90487436682E+03  0.13266954796E+04  0.88668327955E+03 0.  0.
         23    2    4    4    0    0 -0.40640634990E+03 -0.15230062424E+02  0.54800899644E+03  0.68865759959E+03  0.92397798928E+02 0.  0.
         23    2    4    4    0    0  0.36055803707E+03 -0.37593993862E+03  0.35686537037E+03  0.63803787996E+03  0.91687011872E+02 0.  0.
          1    1    3    3  502    0  0.16739267847E+02  0.29488980432E+02 -0.80977642047E+02  0.87790555110E+02  0.00000000000E+00 0. -1.
         -2    1    3    3    0  502  0.29109044982E+02  0.36168102062E+03 -0.43751323007E+03  0.56839979210E+03  0.00000000000E+00 0.  1.
         13    1    5    5    0    0 -0.12906660371E+03 -0.60099226388E+01  0.10772587439E+03  0.16822357557E+03  0.00000000000E+00 0. -1.
        -13    1    5    5    0    0 -0.27733974620E+03 -0.92201397856E+01  0.44028312205E+03  0.52043402402E+03  0.00000000000E+00 0.  1.
          4    1    6    6  503    0  0.26812371121E+03 -0.33001752453E+03  0.29777300961E+03  0.51910563113E+03  0.00000000000E+00 0. -1.
         -4    1    6    6    0  503  0.92434325860E+02 -0.45922414090E+02  0.59092360766E+02  0.11893224884E+03  0.00000000000E+00 0.  1.
<mgrwt>
<rscale>  0 0.19448763E+04</rscale>
<asrwt>0</asrwt>
<pdfrwt beam="1">  1        1 0.18225149E+00 0.19448763E+04</pdfrwt>
<pdfrwt beam="2">  1       -2 0.12280787E+00 0.19448763E+04</pdfrwt>
<totfact> 0.44938690E+00</totfact>
</mgrwt>
</event>
<event>
12    5  0.5428626E-008  0.2362261E+04  0.7818608E-02  0.8453769E-01
          1   -1    0    0  501    0  0.00000000000E+00  0.00000000000E+00  0.15944362144E+04  0.15944362144E+04  0.00000000000E+00 0. -1.
         -2   -1    0    0    0  501 -0.00000000000E+00 -0.00000000000E+00 -0.87496086602E+03  0.87496086602E+03  0.00000000000E+00 0.  1.
        -24    2    1    2    0    0  0.75503731527E+03 -0.47122488728E+03 -0.19147021764E+03  0.91388092500E+03  0.79895300215E+02 0.  0.
        254    2    1    2    0    0 -0.75503731527E+03  0.47122488728E+03  0.91094556599E+03  0.15555161554E+04  0.89312621930E+03 0.  0.
         23    2    4    4    0    0 -0.78978530194E+03  0.30447296656E+03  0.10240747271E+04  0.13317421680E+04  0.91343005513E+02 0.  0.
         23    2    4    4    0    0  0.34747986667E+02  0.16675192072E+03 -0.11312916113E+03  0.22377398742E+03  0.90900850971E+02 0.  0.
          1    1    3    3  502    0  0.17223322732E+03 -0.98454601100E+02 -0.99286759159E+01  0.19863577642E+03  0.00000000000E+00 0. -1.
         -4    1    3    3    0  502  0.58280408796E+03 -0.37277028618E+03 -0.18154154172E+03  0.71524514858E+03  0.00000000000E+00 0.  1.
         13    1    5    5    0    0 -0.40838001600E+03  0.11607962600E+03  0.47331829274E+03  0.63582931930E+03  0.00000000000E+00 0.  1.
        -13    1    5    5    0    0 -0.38140528594E+03  0.18839334056E+03  0.55075643438E+03  0.69591284866E+03  0.00000000000E+00 0. -1.
          2    1    6    6  503    0  0.19795582924E+02  0.95292949148E+02 -0.10592401188E+02  0.97902044022E+02  0.00000000000E+00 0.  1.
         -2    1    6    6    0  503  0.14952403743E+02  0.71458971573E+02 -0.10253675994E+03  0.12587194340E+03  0.00000000000E+00 0. -1.
<mgrwt>
<rscale>  0 0.23622610E+04</rscale>
<asrwt>0</asrwt>
<pdfrwt beam="1">  1        1 0.24529788E+00 0.23622610E+04</pdfrwt>
<pdfrwt beam="2">  1       -2 0.13460936E+00 0.23622610E+04</pdfrwt>
<totfact> 0.17664988E+00</totfact>
</mgrwt>
</event>
<event>
12    5  0.5428626E-008  0.1995212E+04  0.7818608E-02  0.8608862E-01
          1   -1    0    0  501    0  0.00000000000E+00  0.00000000000E+00  0.91809815726E+03  0.91809815726E+03  0.00000000000E+00 0. -1.
         -2   -1    0    0    0  501 -0.00000000000E+00 -0.00000000000E+00 -0.10839998116E+04  0.10839998116E+04  0.00000000000E+00 0.  1.
        -24    2    1    2    0    0 -0.47814251898E+03  0.57635777633E+03 -0.31972187354E+03  0.81823453810E+03  0.80480607124E+02 0.  0.
        254    2    1    2    0    0  0.47814251898E+03 -0.57635777633E+03  0.15382021917E+03  0.11838634308E+04  0.90391559791E+03 0.  0.
         23    2    4    4    0    0  0.52363357260E+03 -0.94635770500E+02 -0.20079601985E+03  0.57668147499E+03  0.95364745037E+02 0.  0.
         23    2    4    4    0    0 -0.45491053622E+02 -0.48172200583E+03  0.35461623902E+03  0.60718195580E+03  0.93764191515E+02 0.  0.
          1    1    3    3  502    0 -0.26681232898E+03  0.33145338454E+03 -0.13862154353E+03  0.44751100249E+03  0.00000000000E+00 0. -1.
         -4    1    3    3    0  502 -0.21133019000E+03  0.24490439180E+03 -0.18110033001E+03  0.37072353561E+03  0.00000000000E+00 0.  1.
         13    1    5    5    0    0  0.47752028628E+03 -0.86923203324E+02 -0.15085345772E+03  0.50826964575E+03  0.00000000000E+00 0.  1.
        -13    1    5    5    0    0  0.46113286317E+02 -0.77125671764E+01 -0.49942562128E+02  0.68411829236E+02  0.00000000000E+00 0. -1.
          2    1    6    6  503    0  0.23266915386E+02 -0.14553596889E+03  0.13431705980E+03  0.19940697115E+03  0.00000000000E+00 0. -1.
         -2    1    6    6    0  503 -0.68757969008E+02 -0.33618603694E+03  0.22029917922E+03  0.40777498465E+03  0.00000000000E+00 0.  1.
<mgrwt>
<rscale>  0 0.19952125E+04</rscale>
<asrwt>0</asrwt>
<pdfrwt beam="1">  1        1 0.14124587E+00 0.19952125E+04</pdfrwt>
<pdfrwt beam="2">  1       -2 0.16676920E+00 0.19952125E+04</pdfrwt>
<totfact> 0.32149338E+00</totfact>
</mgrwt>
</event>
<event>
12    5  0.5428626E-008  0.1555751E+04  0.7818608E-02  0.8848203E-01
         -2   -1    0    0    0  501 -0.00000000000E+00  0.00000000000E+00  0.10284213675E+04  0.10284213675E+04  0.00000000000E+00 0.  1.
          1   -1    0    0  501    0  0.00000000000E+00 -0.00000000000E+00 -0.58836821131E+03  0.58836821131E+03  0.00000000000E+00 0. -1.
        -24    2    1    2    0    0 -0.43310762539E+02 -0.45785498675E+03 -0.89090138806E+02  0.47492718529E+03  0.78177793844E+02 0.  0.
        254    2    1    2    0    0  0.43310762539E+02  0.45785498675E+03  0.52914329503E+03  0.11418623936E+04  0.90130465887E+03 0.  0.
         23    2    4    4    0    0  0.30613853307E+03  0.31486486331E+03  0.66360649073E+03  0.80097052887E+03  0.91211457603E+02 0.  0.
         23    2    4    4    0    0 -0.26282777053E+03  0.14299012345E+03 -0.13446319570E+03  0.34089186469E+03  0.92748585150E+02 0.  0.
          1    1    3    3  502    0 -0.21854470252E+02 -0.87472583525E+02 -0.46619035395E+02  0.10150076453E+03  0.00000000000E+00 0. -1.
         -2    1    3    3    0  502 -0.21456292287E+02 -0.37038240323E+03 -0.42471103411E+02  0.37342642076E+03  0.00000000000E+00 0.  1.
         13    1    5    5    0    0  0.16573297483E+03  0.14436686683E+03  0.25633708716E+03  0.33766538679E+03  0.00000000000E+00 0. -1.
        -13    1    5    5    0    0  0.14040555824E+03  0.17049799648E+03  0.40726940357E+03  0.46330514207E+03  0.00000000000E+00 0.  1.
          3    1    6    6  503    0 -0.14257563868E+03  0.36053498892E+02 -0.95399099912E+02  0.17529590923E+03  0.00000000000E+00 0. -1.
         -3    1    6    6    0  503 -0.12025213185E+03  0.10693662455E+03 -0.39064095788E+02  0.16559595546E+03  0.00000000000E+00 0.  1.
<mgrwt>
<rscale>  0 0.15557512E+04</rscale>
<asrwt>0</asrwt>
<pdfrwt beam="1">  1        1 0.90518187E-01 0.15557512E+04</pdfrwt>
<pdfrwt beam="2">  1       -2 0.15821867E+00 0.15557512E+04</pdfrwt>
<totfact> 0.77037713E+00</totfact>
</mgrwt>
</event>
<event>
12    5  0.5428626E-008  0.1852963E+04  0.7818608E-02  0.8678631E-01
         -2   -1    0    0    0  501 -0.00000000000E+00  0.00000000000E+00  0.42091209425E+03  0.42091209425E+03  0.00000000000E+00 0.  1.
          1   -1    0    0  501    0  0.00000000000E+00 -0.00000000000E+00 -0.20393045637E+04  0.20393045637E+04  0.00000000000E+00 0. -1.
        -24    2    1    2    0    0 -0.31282022874E+03  0.39258868620E+03 -0.12257619894E+04  0.13268958589E+04  0.78598942006E+02 0.  0.
        254    2    1    2    0    0  0.31282022874E+03 -0.39258868620E+03 -0.39263048003E+03  0.11333207990E+04  0.93716325558E+03 0.  0.
         23    2    4    4    0    0  0.55683712497E+03 -0.33659108961E+03  0.18964280649E+01  0.65661462155E+03  0.88193080506E+02 0.  0.
         23    2    4    4    0    0 -0.24401689622E+03 -0.55997596591E+02 -0.39452690809E+03  0.47670617747E+03  0.94431572923E+02 0.  0.
          1    1    3    3  502    0 -0.23447873502E+03  0.29409897880E+03 -0.82183187016E+03  0.90381530708E+03  0.00000000000E+00 0. -1.
         -2    1    3    3    0  502 -0.78341493729E+02  0.98489707405E+02 -0.40393011926E+03  0.42308055184E+03  0.00000000000E+00 0.  1.
         13    1    5    5    0    0  0.51830344297E+03 -0.28901419573E+03 -0.13095320196E+02  0.59358163023E+03  0.00000000000E+00 0.  1.
        -13    1    5    5    0    0  0.38533681992E+02 -0.47576893882E+02  0.14991748261E+02  0.63032991324E+02  0.00000000000E+00 0. -1.
          2    1    6    6  503    0 -0.11109329655E+03  0.20433961470E+02 -0.19073808004E+03  0.22167607561E+03  0.00000000000E+00 0. -1.
         -2    1    6    6    0  503 -0.13292359967E+03 -0.76431558061E+02 -0.20378882805E+03  0.25503010186E+03  0.00000000000E+00 0.  1.
<mgrwt>
<rscale>  0 0.18529630E+04</rscale>
<asrwt>0</asrwt>
<pdfrwt beam="1">  1        1 0.31373917E+00 0.18529630E+04</pdfrwt>
<pdfrwt beam="2">  1       -2 0.64755706E-01 0.18529630E+04</pdfrwt>
<totfact> 0.50881614E+00</totfact>
</mgrwt>
</event>
<event>
12    5  0.5428626E-008  0.1956352E+04  0.7818608E-02  0.8627304E-01
         -2   -1    0    0    0  501 -0.00000000000E+00  0.00000000000E+00  0.25810441725E+03  0.25810441725E+03  0.00000000000E+00 0.  1.
          1   -1    0    0  501    0  0.00000000000E+00 -0.00000000000E+00 -0.37071367313E+04  0.37071367313E+04  0.00000000000E+00 0. -1.
        -24    2    1    2    0    0  0.11561281543E+03 -0.82410298581E+02  0.16482450019E+03  0.23187847134E+03  0.80266613241E+02 0.  0.
        254    2    1    2    0    0 -0.11561281543E+03  0.82410298581E+02 -0.36138568143E+04  0.37333626773E+04  0.92621705088E+03 0.  0.
         23    2    4    4    0    0 -0.45589019762E+03 -0.31016247060E+02 -0.28109722273E+04  0.28492814119E+04  0.89676205620E+02 0.  0.
         23    2    4    4    0    0  0.34027738219E+03  0.11342654564E+03 -0.80288458702E+03  0.88408126536E+03  0.91223602170E+02 0.  0.
          3    1    3    3  502    0  0.44640002390E+02 -0.38761601513E+02  0.15884981769E+02  0.61217025500E+02  0.00000000000E+00 0. -1.
         -4    1    3    3    0  502  0.70972813044E+02 -0.43648697068E+02  0.14893951843E+03  0.17066144584E+03  0.00000000000E+00 0.  1.
         13    1    5    5    0    0 -0.41740100090E+03 -0.29501376881E+01 -0.25645391851E+04  0.25982866529E+04  0.00000000000E+00 0. -1.
        -13    1    5    5    0    0 -0.38489196725E+02 -0.28066109372E+02 -0.24643304218E+03  0.25099475899E+03  0.00000000000E+00 0.  1.
          3    1    6    6  503    0  0.22757704022E+03  0.30444360585E+02 -0.52177045094E+03  0.57005488490E+03  0.00000000000E+00 0. -1.
         -3    1    6    6    0  503  0.11270034197E+03  0.82982185056E+02 -0.28111413608E+03  0.31402638045E+03  0.00000000000E+00 0.  1.
<mgrwt>
<rscale>  0 0.19563521E+04</rscale>
<asrwt>0</asrwt>
<pdfrwt beam="1">  1        1 0.57032874E+00 0.19563521E+04</pdfrwt>
<pdfrwt beam="2">  1       -2 0.39708371E-01 0.19563521E+04</pdfrwt>
<totfact> 0.84074451E-01</totfact>
</mgrwt>
</event>
<event>
12    5  0.5428626E-008  0.1928838E+04  0.7818608E-02  0.8640633E-01
          1   -1    0    0  501    0  0.00000000000E+00  0.00000000000E+00  0.21353101418E+04  0.21353101418E+04  0.00000000000E+00 0. -1.
         -2   -1    0    0    0  501 -0.00000000000E+00 -0.00000000000E+00 -0.43558269696E+03  0.43558269696E+03  0.00000000000E+00 0.  1.
        -24    2    1    2    0    0  0.19856384135E+03  0.67927184694E+03  0.92386257267E+03  0.11665111822E+04  0.79927741140E+02 0.  0.
        254    2    1    2    0    0 -0.19856384135E+03 -0.67927184694E+03  0.77586487220E+03  0.14043816566E+04  0.93246109646E+03 0.  0.
         23    2    4    4    0    0 -0.20036271385E+03 -0.46967629832E+03  0.97271002901E+03  0.11023982423E+04  0.91520717648E+02 0.  0.
         23    2    4    4    0    0  0.17988724970E+01 -0.20959554862E+03 -0.19684515681E+03  0.30198341433E+03  0.92262868090E+02 0.  0.
          3    1    3    3  502    0  0.20056456440E+03  0.67360710533E+03  0.90006751398E+03  0.11419694420E+04  0.00000000000E+00 0. -1.
         -4    1    3    3    0  502 -0.20007230455E+01  0.56647416095E+01  0.23795058684E+02  0.24541740117E+02  0.00000000000E+00 0.  1.
         13    1    5    5    0    0 -0.54793423786E+02 -0.24384707524E+03  0.45522967659E+03  0.51932434358E+03  0.00000000000E+00 0. -1.
        -13    1    5    5    0    0 -0.14556929006E+03 -0.22582922308E+03  0.51748035243E+03  0.58307389870E+03  0.00000000000E+00 0.  1.
          1    1    6    6  503    0  0.21454148418E+02 -0.33439156266E+01 -0.21514939477E+02  0.30567218989E+02  0.00000000000E+00 0. -1.
         -1    1    6    6    0  503 -0.19655275921E+02 -0.20625163300E+03 -0.17533021733E+03  0.27141619534E+03  0.00000000000E+00 0.  1.
<mgrwt>
<rscale>  0 0.19288381E+04</rscale>
<asrwt>0</asrwt>
<pdfrwt beam="1">  1        1 0.32850925E+00 0.19288381E+04</pdfrwt>
<pdfrwt beam="2">  1       -2 0.67012724E-01 0.19288381E+04</pdfrwt>
<totfact> 0.40404863E+00</totfact>
</mgrwt>
</event>
<event>
12    5  0.5428626E-008  0.2788882E+04  0.7818608E-02  0.8306728E-01
         -2   -1    0    0    0  501 -0.00000000000E+00  0.00000000000E+00  0.21336616242E+04  0.21336616242E+04  0.00000000000E+00 0.  1.
          1   -1    0    0  501    0  0.00000000000E+00 -0.00000000000E+00 -0.91132807576E+03  0.91132807576E+03  0.00000000000E+00 0. -1.
        -24    2    1    2    0    0 -0.79485054489E+03  0.63990410463E+03 -0.23769442326E+03  0.10506691205E+04  0.78372891035E+02 0.  0.
        254    2    1    2    0    0  0.79485054489E+03 -0.63990410463E+03  0.14600279717E+04  0.19943205795E+04  0.89686578915E+03 0.  0.
         23    2    4    4    0    0  0.27325036743E+03 -0.21097052376E+03 -0.27732201480E+02  0.35807634058E+03  0.90968486251E+02 0.  0.
         23    2    4    4    0    0  0.52160017746E+03 -0.42893358087E+03  0.14877601732E+04  0.16362442389E+04  0.88397480124E+02 0.  0.
          3    1    3    3  502    0 -0.66114306216E+03  0.54360814416E+03 -0.17065459303E+03  0.87277886842E+03  0.00000000000E+00 0. -1.
         -2    1    3    3    0  502 -0.13370748273E+03  0.96295960472E+02 -0.67039830230E+02  0.17789025206E+03  0.00000000000E+00 0.  1.
         13    1    5    5    0    0  0.27572462956E+03 -0.20591770229E+03 -0.38147186141E+02  0.34623890490E+03  0.00000000000E+00 0.  1.
        -13    1    5    5    0    0 -0.24742621290E+01 -0.50528214701E+01  0.10414984661E+02  0.11837435675E+02  0.00000000000E+00 0. -1.
          1    1    6    6  503    0  0.28368750528E+02 -0.38231995262E+02  0.16003000959E+03  0.16696129922E+03  0.00000000000E+00 0. -1.
         -1    1    6    6    0  503  0.49323142694E+03 -0.39070158561E+03  0.13277301636E+04  0.14692829397E+04  0.00000000000E+00 0.  1.
<mgrwt>
<rscale>  0 0.27888820E+04</rscale>
<asrwt>0</asrwt>
<pdfrwt beam="1">  1        1 0.14020432E+00 0.27888820E+04</pdfrwt>
<pdfrwt beam="2">  1       -2 0.32825563E+00 0.27888820E+04</pdfrwt>
<totfact> 0.28816755E-01</totfact>
</mgrwt>
</event>
<event>
12    5  0.5428626E-008  0.2017953E+04  0.7818608E-02  0.8598273E-01
          1   -1    0    0  501    0  0.00000000000E+00  0.00000000000E+00  0.27635356540E+04  0.27635356540E+04  0.00000000000E+00 0. -1.
         -2   -1    0    0    0  501 -0.00000000000E+00 -0.00000000000E+00 -0.36838080356E+03  0.36838080356E+03  0.00000000000E+00 0.  1.
        -24    2    1    2    0    0 -0.13329351251E+03 -0.19454240172E+03  0.21890274427E+04  0.22031176762E+04  0.79198760954E+02 0.  0.
        254    2    1    2    0    0  0.13329351251E+03  0.19454240172E+03  0.20612740775E+03  0.92879878137E+03  0.87439393954E+03 0.  0.
         23    2    4    4    0    0 -0.28017997121E+03  0.22187622467E+03 -0.12603323073E+03  0.38961013457E+03  0.90453338066E+02 0.  0.
         23    2    4    4    0    0  0.41347348372E+03 -0.27333822950E+02  0.33216063849E+03  0.53918864680E+03  0.93200040023E+02 0.  0.
          3    1    3    3  502    0 -0.13257776754E+03 -0.14250996843E+03  0.18333989466E+04  0.18437021595E+04  0.00000000000E+00 0. -1.
         -2    1    3    3    0  502 -0.71574496379E+00 -0.52032433289E+02  0.35562849607E+03  0.35941551666E+03  0.00000000000E+00 0.  1.
         13    1    5    5    0    0 -0.92332383544E+02  0.10196692943E+03 -0.88623460604E+02  0.16363569757E+03  0.00000000000E+00 0.  1.
        -13    1    5    5    0    0 -0.18784758767E+03  0.11990929524E+03 -0.37409770129E+02  0.22597443700E+03  0.00000000000E+00 0. -1.
          3    1    6    6  503    0  0.13430630026E+03 -0.59305369182E+01  0.55097481854E+02  0.14528966262E+03  0.00000000000E+00 0. -1.
         -3    1    6    6    0  503  0.27916718346E+03 -0.21403286032E+02  0.27706315663E+03  0.39389898418E+03  0.00000000000E+00 0.  1.
<mgrwt>
<rscale>  0 0.20179529E+04</rscale>
<asrwt>0</asrwt>
<pdfrwt beam="1">  1        1 0.42515932E+00 0.20179529E+04</pdfrwt>
<pdfrwt beam="2">  1       -2 0.56673971E-01 0.20179529E+04</pdfrwt>
<totfact> 0.21046757E+00</totfact>
</mgrwt>
</event>
<event>
12    5  0.5428626E-008  0.2235291E+04  0.7818608E-02  0.8503881E-01
         -2   -1    0    0    0  501 -0.00000000000E+00  0.00000000000E+00  0.72958503252E+03  0.72958503252E+03  0.00000000000E+00 0.  1.
          1   -1    0    0  501    0  0.00000000000E+00 -0.00000000000E+00 -0.17121125048E+04  0.17121125048E+04  0.00000000000E+00 0. -1.
        -24    2    1    2    0    0  0.29829108351E+03 -0.85734527781E+03 -0.26185045489E+03  0.94809863866E+03  0.79415817171E+02 0.  0.
        254    2    1    2    0    0 -0.29829108351E+03  0.85734527781E+03 -0.72067701735E+03  0.14935988986E+04  0.94204236144E+03 0.  0.
         23    2    4    4    0    0 -0.36279752239E+02  0.97120096504E+02 -0.66864353980E+03  0.68260864262E+03  0.90121263309E+02 0.  0.
         23    2    4    4    0    0 -0.26201133127E+03  0.76022518131E+03 -0.52033477556E+02  0.81099025600E+03  0.91681233302E+02 0.  0.
          3    1    3    3  502    0  0.50465708173E+02 -0.77185033878E+02 -0.35367959372E+02  0.98768465141E+02  0.00000000000E+00 0. -1.
         -4    1    3    3    0  502  0.24782537534E+03 -0.78016024393E+03 -0.22648249552E+03  0.84933017352E+03  0.00000000000E+00 0.  1.
         13    1    5    5    0    0 -0.46353887699E+02  0.88738250936E+02 -0.65841842531E+03  0.66598647349E+03  0.00000000000E+00 0.  1.
        -13    1    5    5    0    0  0.10074135460E+02  0.83818455674E+01 -0.10225114491E+02  0.16622169134E+02  0.00000000000E+00 0. -1.
          1    1    6    6  503    0 -0.12931813634E+03  0.35990074423E+03 -0.70368652815E+02  0.38884890817E+03  0.00000000000E+00 0. -1.
         -1    1    6    6    0  503 -0.13269319492E+03  0.40032443708E+03  0.18335175259E+02  0.42214134783E+03  0.00000000000E+00 0.  1.
<mgrwt>
<rscale>  0 0.22352912E+04</rscale>
<asrwt>0</asrwt>
<pdfrwt beam="1">  1        1 0.26340192E+00 0.22352912E+04</pdfrwt>
<pdfrwt beam="2">  1       -2 0.11224385E+00 0.22352912E+04</pdfrwt>
<totfact> 0.23350317E+00</totfact>
</mgrwt>
</event>
<event>
12    5  0.5428626E-008  0.1311343E+04  0.7818608E-02  0.9020619E-01
          1   -1    0    0  501    0  0.00000000000E+00  0.00000000000E+00  0.10839752425E+04  0.10839752425E+04  0.00000000000E+00 0. -1.
         -2   -1    0    0    0  501 -0.00000000000E+00 -0.00000000000E+00 -0.39660019221E+03  0.39660019221E+03  0.00000000000E+00 0.  1.
        -24    2    1    2    0    0 -0.11257656865E+03  0.15662459849E+03  0.49833603691E+03  0.54016313221E+03  0.78947166207E+02 0.  0.
        254    2    1    2    0    0  0.11257656865E+03 -0.15662459849E+03  0.18903901340E+03  0.94041230251E+03  0.90079675925E+03 0.  0.
         23    2    4    4    0    0  0.19136764143E+03 -0.29349040037E+03  0.47726549625E+03  0.59925911337E+03  0.92579380775E+02 0.  0.
         23    2    4    4    0    0 -0.78791072776E+02  0.13686580188E+03 -0.28822648286E+03  0.34115318914E+03  0.91491596174E+02 0.  0.
          1    1    3    3  502    0 -0.20673401107E+02  0.63896313549E+02  0.25865682647E+03  0.26723301121E+03  0.00000000000E+00 0. -1.
         -2    1    3    3    0  502 -0.91903167547E+02  0.92728284945E+02  0.23967921044E+03  0.27293012100E+03  0.00000000000E+00 0.  1.
         13    1    5    5    0    0  0.18040051479E+03 -0.27770098850E+03  0.39827329958E+03  0.51796120116E+03  0.00000000000E+00 0. -1.
        -13    1    5    5    0    0  0.10967126643E+02 -0.15789411869E+02  0.78992196670E+02  0.81297912204E+02  0.00000000000E+00 0.  1.
          2    1    6    6  503    0 -0.16913591952E+02  0.82057882634E+02 -0.21490708055E+03  0.23066126455E+03  0.00000000000E+00 0. -1.
         -2    1    6    6    0  503 -0.61877480825E+02  0.54807919244E+02 -0.73319402306E+02  0.11049192459E+03  0.00000000000E+00 0.  1.
<mgrwt>
<rscale>  0 0.13113425E+04</rscale>
<asrwt>0</asrwt>
<pdfrwt beam="1">  1        1 0.16676542E+00 0.13113425E+04</pdfrwt>
<pdfrwt beam="2">  1       -2 0.61015415E-01 0.13113425E+04</pdfrwt>
<totfact> 0.28049911E+01</totfact>
</mgrwt>
</event>
<event>
12    5  0.5428626E-008  0.1927571E+04  0.7818608E-02  0.8641253E-01
         -2   -1    0    0    0  501 -0.00000000000E+00  0.00000000000E+00  0.69780264507E+03  0.69780264507E+03  0.00000000000E+00 0.  1.
          1   -1    0    0  501    0  0.00000000000E+00 -0.00000000000E+00 -0.13311541136E+04  0.13311541136E+04  0.00000000000E+00 0. -1.
        -24    2    1    2    0    0  0.31624991208E+03  0.56074527369E+03  0.16806913074E+03  0.67046495037E+03  0.82624137601E+02 0.  0.
        254    2    1    2    0    0 -0.31624991208E+03 -0.56074527369E+03 -0.80142059929E+03  0.13584918083E+04  0.88813047884E+03 0.  0.
         23    2    4    4    0    0  0.23793514043E+02 -0.70738096733E+03 -0.55184342126E+03  0.90231774523E+03  0.93231901835E+02 0.  0.
         23    2    4    4    0    0 -0.34004342612E+03  0.14663569364E+03 -0.24957717804E+03  0.45617406309E+03  0.93136726097E+02 0.  0.
          3    1    3    3  502    0  0.20936085471E+03  0.30763727032E+03  0.69418198512E+02  0.37853869533E+03  0.00000000000E+00 0. -1.
         -2    1    3    3    0  502  0.10688905736E+03  0.25310800337E+03  0.98650932227E+02  0.29192625505E+03  0.00000000000E+00 0.  1.
         13    1    5    5    0    0  0.52567206445E+02 -0.31412258803E+03 -0.22182793545E+03  0.38812877303E+03  0.00000000000E+00 0.  1.
        -13    1    5    5    0    0 -0.28773692403E+02 -0.39325837930E+03 -0.33001548580E+03  0.51418897220E+03  0.00000000000E+00 0. -1.
          1    1    6    6  503    0 -0.22459205373E+03  0.14316576690E+03 -0.17422423325E+03  0.31826421549E+03  0.00000000000E+00 0. -1.
         -1    1    6    6    0  503 -0.11545137239E+03  0.34699267397E+01 -0.75352944790E+02  0.13790984761E+03  0.00000000000E+00 0.  1.
<mgrwt>
<rscale>  0 0.19275714E+04</rscale>
<asrwt>0</asrwt>
<pdfrwt beam="1">  1        1 0.20479294E+00 0.19275714E+04</pdfrwt>
<pdfrwt beam="2">  1       -2 0.10735425E+00 0.19275714E+04</pdfrwt>
<totfact> 0.49051916E+00</totfact>
</mgrwt>
</event>
<event>
12    5  0.5428626E-008  0.1662171E+04  0.7818608E-02  0.8783238E-01
          1   -1    0    0  501    0  0.00000000000E+00  0.00000000000E+00  0.26269424747E+04  0.26269424747E+04  0.00000000000E+00 0. -1.
         -2   -1    0    0    0  501 -0.00000000000E+00 -0.00000000000E+00 -0.26293053780E+03  0.26293053780E+03  0.00000000000E+00 0.  1.
        -24    2    1    2    0    0 -0.13513284414E+03 -0.56334607072E+03  0.96993262431E+03  0.11326539544E+04  0.80721767696E+02 0.  0.
        254    2    1    2    0    0  0.13513284414E+03  0.56334607072E+03  0.13940793126E+04  0.17572190581E+04  0.89930084363E+03 0.  0.
         23    2    4    4    0    0 -0.40872060972E+02  0.15197739438E+03 -0.90499785677E+02  0.20357995528E+03  0.92124552701E+02 0.  0.
         23    2    4    4    0    0  0.17600490511E+03  0.41136867634E+03  0.14845790983E+04  0.15536391028E+04  0.98068589557E+02 0.  0.
          1    1    3    3  502    0 -0.13727862446E+03 -0.48537338243E+03  0.87285350433E+03  0.10081200232E+04  0.00000000000E+00 0. -1.
         -2    1    3    3    0  502  0.21457803251E+01 -0.77972688298E+02  0.97079119975E+02  0.12453393123E+03  0.00000000000E+00 0.  1.
         13    1    5    5    0    0 -0.23435468234E+02  0.75209732528E+02  0.60448255845E+01  0.79008005637E+02  0.00000000000E+00 0.  1.
        -13    1    5    5    0    0 -0.17436592738E+02  0.76767661856E+02 -0.96544611261E+02  0.12457194964E+03  0.00000000000E+00 0. -1.
          1    1    6    6  503    0  0.14800267296E+03  0.25093135806E+03  0.85197511239E+03  0.90040709116E+03  0.00000000000E+00 0. -1.
         -1    1    6    6    0  503  0.28002232145E+02  0.16043731828E+03  0.63260398592E+03  0.65323201169E+03  0.00000000000E+00 0.  1.
<mgrwt>
<rscale>  0 0.16621713E+04</rscale>
<asrwt>0</asrwt>
<pdfrwt beam="1">  1        1 0.40414498E+00 0.16621713E+04</pdfrwt>
<pdfrwt beam="2">  1       -2 0.40450854E-01 0.16621713E+04</pdfrwt>
<totfact> 0.53704738E+00</totfact>
</mgrwt>
</event>
<event>
12    5  0.5428626E-008  0.2013049E+04  0.7818608E-02  0.8600544E-01
         -2   -1    0    0    0  501 -0.00000000000E+00  0.00000000000E+00  0.62386117965E+03  0.62386117965E+03  0.00000000000E+00 0.  1.
          1   -1    0    0  501    0  0.00000000000E+00 -0.00000000000E+00 -0.16239047805E+04  0.16239047805E+04  0.00000000000E+00 0. -1.
        -24    2    1    2    0    0  0.38981166278E+03 -0.69548584945E+03 -0.33751823287E+03  0.86946685755E+03  0.80002247641E+02 0.  0.
        254    2    1    2    0    0 -0.38981166278E+03  0.69548584945E+03 -0.66252536798E+03  0.13782991026E+04  0.90835832896E+03 0.  0.
         23    2    4    4    0    0 -0.59243175755E+03  0.17801481652E+03 -0.22381531554E+03  0.66414051600E+03  0.91239614549E+02 0.  0.
         23    2    4    4    0    0  0.20262009477E+03  0.51747103293E+03 -0.43871005244E+03  0.71415858660E+03  0.93406659190E+02 0.  0.
          1    1    3    3  502    0  0.78825409946E+02 -0.12208669658E+03 -0.94599760537E+02  0.17340046548E+03  0.00000000000E+00 0. -1.
         -2    1    3    3    0  502  0.31098625284E+03 -0.57339915287E+03 -0.24291847233E+03  0.69606639207E+03  0.00000000000E+00 0.  1.
         13    1    5    5    0    0 -0.13695192141E+03  0.48175549346E+02 -0.94338374451E+02  0.17313705908E+03  0.00000000000E+00 0.  1.
        -13    1    5    5    0    0 -0.45547983614E+03  0.12983926717E+03 -0.12947694109E+03  0.49100345692E+03  0.00000000000E+00 0. -1.
          4    1    6    6  503    0  0.16081937559E+03  0.44707570522E+03 -0.40947893709E+03  0.62722608179E+03  0.00000000000E+00 0. -1.
         -4    1    6    6    0  503  0.41800719185E+02  0.70395327717E+02 -0.29231115349E+02  0.86932504814E+02  0.00000000000E+00 0.  1.
<mgrwt>
<rscale>  0 0.20130486E+04</rscale>
<asrwt>0</asrwt>
<pdfrwt beam="1">  1        1 0.24983151E+00 0.20130486E+04</pdfrwt>
<pdfrwt beam="2">  1       -2 0.95978642E-01 0.20130486E+04</pdfrwt>
<totfact> 0.39770007E+00</totfact>
</mgrwt>
</event>
<event>
12    5  0.5428626E-008  0.1540588E+04  0.7818608E-02  0.8857902E-01
          1   -1    0    0  501    0  0.00000000000E+00  0.00000000000E+00  0.61912993938E+03  0.61912993938E+03  0.00000000000E+00 0. -1.
         -2   -1    0    0    0  501 -0.00000000000E+00 -0.00000000000E+00 -0.95836555458E+03  0.95836555458E+03  0.00000000000E+00 0.  1.
        -24    2    1    2    0    0  0.22659542302E+03  0.20453145353E+03  0.30087611466E+03  0.43611611325E+03  0.80574354762E+02 0.  0.
        254    2    1    2    0    0 -0.22659542302E+03 -0.20453145353E+03 -0.64011172987E+03  0.11413793807E+04  0.89432950458E+03 0.  0.
         23    2    4    4    0    0 -0.11233392456E+03  0.13773876627E+03 -0.73188665339E+03  0.75870346751E+03  0.91553262435E+02 0.  0.
         23    2    4    4    0    0 -0.11426149846E+03 -0.34227021980E+03  0.91774923522E+02  0.38267591319E+03  0.88394708890E+02 0.  0.
          1    1    3    3  502    0  0.14291211376E+03  0.75156580647E+02  0.14708158893E+03  0.21841560768E+03  0.00000000000E+00 0. -1.
         -2    1    3    3    0  502  0.83683309261E+02  0.12937487288E+03  0.15379452573E+03  0.21770050557E+03  0.00000000000E+00 0.  1.
         13    1    5    5    0    0  0.71434000079E+01  0.51322138611E+02 -0.21854828251E+03  0.22460708329E+03  0.00000000000E+00 0. -1.
        -13    1    5    5    0    0 -0.11947732457E+03  0.86416627657E+02 -0.51333837088E+03  0.53409638422E+03  0.00000000000E+00 0.  1.
          4    1    6    6  503    0 -0.11472662279E+03 -0.23364637142E+03  0.43903813819E+02  0.26397039554E+03  0.00000000000E+00 0. -1.
         -4    1    6    6    0  503  0.46512432571E+00 -0.10862384838E+03  0.47871109703E+02  0.11870551765E+03  0.00000000000E+00 0.  1.
<mgrwt>
<rscale>  0 0.15405879E+04</rscale>
<asrwt>0</asrwt>
<pdfrwt beam="1">  1        1 0.95250761E-01 0.15405879E+04</pdfrwt>
<pdfrwt beam="2">  1       -2 0.14744085E+00 0.15405879E+04</pdfrwt>
<totfact> 0.86529558E+00</totfact>
</mgrwt>
</event>
<event>
12    5  0.5428626E-008  0.2237327E+04  0.7818608E-02  0.8503050E-01
         -2   -1    0    0    0  501 -0.00000000000E+00  0.00000000000E+00  0.19761756001E+04  0.19761756001E+04  0.00000000000E+00 0.  1.
          1   -1    0    0  501    0  0.00000000000E+00 -0.00000000000E+00 -0.63324763233E+03  0.63324763233E+03  0.00000000000E+00 0. -1.
        -24    2    1    2    0    0 -0.67480262146E+03  0.28820212723E+03 -0.11341929733E+03  0.74653189396E+03  0.77633031772E+02 0.  0.
        254    2    1    2    0    0  0.67480262146E+03 -0.28820212723E+03  0.14563472651E+04  0.18628913385E+04  0.90055412847E+03 0.  0.
         23    2    4    4    0    0  0.62054234916E+03 -0.52830167478E+03  0.13502118767E+04  0.15797471399E+04  0.91397195642E+02 0.  0.
         23    2    4    4    0    0  0.54260272292E+02  0.24009954755E+03  0.10613538843E+03  0.28314419859E+03  0.91180845772E+02 0.  0.
          1    1    3    3  502    0 -0.43656688648E+03  0.14606204857E+03 -0.76605024133E+02  0.46668308104E+03  0.00000000000E+00 0. -1.
         -2    1    3    3    0  502 -0.23823573498E+03  0.14214007866E+03 -0.36814273201E+02  0.27984881292E+03  0.00000000000E+00 0.  1.
         13    1    5    5    0    0  0.26152933848E+03 -0.17857252354E+03  0.46727718442E+03  0.56447649033E+03  0.00000000000E+00 0.  1.
        -13    1    5    5    0    0  0.35901301068E+03 -0.34972915125E+03  0.88293469224E+03  0.10152706495E+04  0.00000000000E+00 0. -1.
          2    1    6    6  503    0  0.71790699530E+02  0.19386520248E+03  0.59372680826E+02  0.21508774140E+03  0.00000000000E+00 0. -1.
         -2    1    6    6    0  503 -0.17530427238E+02  0.46234345071E+02  0.46762707602E+02  0.68056457192E+02  0.00000000000E+00 0.  1.
<mgrwt>
<rscale>  0 0.22373274E+04</rscale>
<asrwt>0</asrwt>
<pdfrwt beam="1">  1        1 0.97422713E-01 0.22373274E+04</pdfrwt>
<pdfrwt beam="2">  1       -2 0.30402701E+00 0.22373274E+04</pdfrwt>
<totfact> 0.75723314E-01</totfact>
</mgrwt>
</event>
<event>
12    5  0.5428626E-008  0.1804055E+04  0.7818608E-02  0.8704146E-01
         -2   -1    0    0    0  501 -0.00000000000E+00  0.00000000000E+00  0.50638579522E+03  0.50638579522E+03  0.00000000000E+00 0.  1.
          1   -1    0    0  501    0  0.00000000000E+00 -0.00000000000E+00 -0.16067856519E+04  0.16067856519E+04  0.00000000000E+00 0. -1.
        -24    2    1    2    0    0 -0.44077431406E+03  0.49657312608E+03 -0.54958735251E+03  0.86563085132E+03  0.80022792028E+02 0.  0.
        254    2    1    2    0    0  0.44077431406E+03 -0.49657312608E+03 -0.55081250421E+03  0.12475405958E+04  0.90116383525E+03 0.  0.
         23    2    4    4    0    0 -0.15901775140E+03  0.79697981665E+02  0.64179344984E+02  0.20923599377E+03  0.89567288789E+02 0.  0.
         23    2    4    4    0    0  0.59979206547E+03 -0.57627110775E+03 -0.61499184919E+03  0.10383046021E+04  0.89568748278E+02 0.  0.
          3    1    3    3  502    0 -0.33290021748E+03  0.35308024116E+03 -0.35767356119E+03  0.60284209198E+03  0.00000000000E+00 0. -1.
         -4    1    3    3    0  502 -0.10787409658E+03  0.14349288493E+03 -0.19191379132E+03  0.26278875934E+03  0.00000000000E+00 0.  1.
         13    1    5    5    0    0 -0.42344721781E+02  0.77905109057E+01 -0.20965663422E+02  0.47888689328E+02  0.00000000000E+00 0.  1.
        -13    1    5    5    0    0 -0.11667302962E+03  0.71907470759E+02  0.85145008406E+02  0.16134730444E+03  0.00000000000E+00 0. -1.
          1    1    6    6  503    0  0.48243132704E+03 -0.41037136405E+03 -0.46671149290E+03  0.78674281652E+03  0.00000000000E+00 0. -1.
         -1    1    6    6    0  503  0.11736073843E+03 -0.16589974370E+03 -0.14828035630E+03  0.25156178555E+03  0.00000000000E+00 0.  1.
<mgrwt>
<rscale>  0 0.18040548E+04</rscale>
<asrwt>0</asrwt>
<pdfrwt beam="1">  1        1 0.24719779E+00 0.18040548E+04</pdfrwt>
<pdfrwt beam="2">  1       -2 0.77905507E-01 0.18040548E+04</pdfrwt>
<totfact> 0.67054031E+00</totfact>
</mgrwt>
</event>
<event>
12    5  0.5428626E-008  0.1242427E+04  0.7818608E-02  0.9076510E-01
         -2   -1    0    0    0  501 -0.00000000000E+00  0.00000000000E+00  0.91014577486E+03  0.91014577486E+03  0.00000000000E+00 0.  1.
          1   -1    0    0  501    0  0.00000000000E+00 -0.00000000000E+00 -0.42400453609E+03  0.42400453609E+03  0.00000000000E+00 0. -1.
        -24    2    1    2    0    0 -0.26120661823E+03  0.13990115962E+02  0.20382145625E+03  0.34128200686E+03  0.80657308552E+02 0.  0.
        254    2    1    2    0    0  0.26120661823E+03 -0.13990115962E+02  0.28231978251E+03  0.99286830409E+03  0.91523679391E+03 0.  0.
         23    2    4    4    0    0 -0.92701901832E+02 -0.16009414224E+03 -0.25452926725E+03  0.32712127560E+03  0.89439387763E+02 0.  0.
         23    2    4    4    0    0  0.35390852007E+03  0.14610402628E+03  0.53684904976E+03  0.66574702849E+03  0.91731001564E+02 0.  0.
          1    1    3    3  502    0 -0.98114496214E+01  0.19316346475E+02  0.10331958462E+02  0.24002815470E+02  0.00000000000E+00 0. -1.
         -2    1    3    3    0  502 -0.25139516861E+03 -0.53262305136E+01  0.19348949779E+03  0.31727919139E+03  0.00000000000E+00 0.  1.
         13    1    5    5    0    0 -0.79982806322E+02 -0.51288227543E+02 -0.10286946416E+03  0.14003520361E+03  0.00000000000E+00 0. -1.
        -13    1    5    5    0    0 -0.12719095510E+02 -0.10880591470E+03 -0.15165980308E+03  0.18708607200E+03  0.00000000000E+00 0.  1.
          2    1    6    6  503    0  0.20333574500E+03  0.34788539237E+02  0.29127311763E+03  0.35692533773E+03  0.00000000000E+00 0. -1.
         -2    1    6    6    0  503  0.15057277507E+03  0.11131548704E+03  0.24557593212E+03  0.30882169076E+03  0.00000000000E+00 0.  1.
<mgrwt>
<rscale>  0 0.12424266E+04</rscale>
<asrwt>0</asrwt>
<pdfrwt beam="1">  1        1 0.65231467E-01 0.12424266E+04</pdfrwt>
<pdfrwt beam="2">  1       -2 0.14002243E+00 0.12424266E+04</pdfrwt>
<totfact> 0.17163984E+01</totfact>
</mgrwt>
</event>
<event>
12    5  0.5428626E-008  0.2408401E+04  0.7818608E-02  0.8436365E-01
          1   -1    0    0  501    0  0.00000000000E+00  0.00000000000E+00  0.83575771823E+03  0.83575771823E+03  0.00000000000E+00 0. -1.
         -2   -1    0    0    0  501 -0.00000000000E+00 -0.00000000000E+00 -0.17350712792E+04  0.17350712792E+04  0.00000000000E+00 0.  1.
        -24    2    1    2    0    0  0.34411318502E+03  0.47193032716E+03  0.52553718209E+03  0.78973065434E+03  0.79706077851E+02 0.  0.
        254    2    1    2    0    0 -0.34411318502E+03 -0.47193032716E+03 -0.14248507431E+04  0.17810983431E+04  0.89497460857E+03 0.  0.
         23    2    4    4    0    0  0.14386314864E+03 -0.92879982509E+02  0.31320754826E+02  0.19652488948E+03  0.91201676598E+02 0.  0.
         23    2    4    4    0    0 -0.48797633367E+03 -0.37905034465E+03 -0.14561714979E+04  0.15845734536E+04  0.92938327097E+02 0.  0.
          3    1    3    3  502    0  0.25019339061E+03  0.38990392019E+03  0.43642211174E+03  0.63646371405E+03  0.00000000000E+00 0. -1.
         -4    1    3    3    0  502  0.93919794416E+02  0.82026406977E+02  0.89115070344E+02  0.15326694029E+03  0.00000000000E+00 0.  1.
         13    1    5    5    0    0  0.17015431691E+02  0.26726251598E+01 -0.22952928308E+02  0.28696772620E+02  0.00000000000E+00 0. -1.
        -13    1    5    5    0    0  0.12684771695E+03 -0.95552607669E+02  0.54273683134E+02  0.16782811686E+03  0.00000000000E+00 0.  1.
          1    1    6    6  503    0 -0.34040606302E+02 -0.34008363424E+02 -0.63284200330E+02  0.79499821833E+02  0.00000000000E+00 0. -1.
         -1    1    6    6    0  503 -0.45393572737E+03 -0.34504198123E+03 -0.13928872976E+04  0.15050736318E+04  0.00000000000E+00 0.  1.
<mgrwt>
<rscale>  0 0.24084013E+04</rscale>
<asrwt>0</asrwt>
<pdfrwt beam="1">  1        1 0.12857811E+00 0.24084013E+04</pdfrwt>
<pdfrwt beam="2">  1       -2 0.26693404E+00 0.24084013E+04</pdfrwt>
<totfact> 0.81809431E-01</totfact>
</mgrwt>
</event>
<event>
12    5  0.5428626E-008  0.2418087E+04  0.7818608E-02  0.8432763E-01
         -2   -1    0    0    0  501 -0.00000000000E+00  0.00000000000E+00  0.52116365221E+03  0.52116365221E+03  0.00000000000E+00 0.  1.
          1   -1    0    0  501    0  0.00000000000E+00 -0.00000000000E+00 -0.28048499402E+04  0.28048499402E+04  0.00000000000E+00 0. -1.
        -24    2    1    2    0    0 -0.34428713303E+03  0.41939829467E+03 -0.22068274164E+04  0.22739863606E+04  0.80611183949E+02 0.  0.
        254    2    1    2    0    0  0.34428713303E+03 -0.41939829467E+03 -0.76858871575E+02  0.10520272318E+04  0.89801194353E+03 0.  0.
         23    2    4    4    0    0  0.88147065735E+02 -0.43557092528E+03 -0.41672801531E+03  0.61593738389E+03  0.90690054470E+02 0.  0.
         23    2    4    4    0    0  0.25614006730E+03  0.16172630615E+02  0.33986914373E+03  0.43608984789E+03  0.93776503000E+02 0.  0.
          1    1    3    3  502    0 -0.32097924740E+03  0.38223986523E+03 -0.19197053641E+04  0.19835331298E+04  0.00000000000E+00 0. -1.
         -2    1    3    3    0  502 -0.23307885629E+02  0.37158429436E+02 -0.28712205231E+03  0.29045323088E+03  0.00000000000E+00 0.  1.
         13    1    5    5    0    0  0.82038419481E+02 -0.30706326826E+03 -0.24467708534E+03  0.40110476073E+03  0.00000000000E+00 0. -1.
        -13    1    5    5    0    0  0.61086462535E+01 -0.12850765702E+03 -0.17205092997E+03  0.21483262316E+03  0.00000000000E+00 0.  1.
          2    1    6    6  503    0  0.35045527412E+02  0.33396690554E+02  0.38135291650E+02  0.61626523517E+02  0.00000000000E+00 0. -1.
         -2    1    6    6    0  503  0.22109453988E+03 -0.17224059939E+02  0.30173385208E+03  0.37446332437E+03  0.00000000000E+00 0.  1.
<mgrwt>
<rscale>  0 0.24180867E+04</rscale>
<asrwt>0</asrwt>
<pdfrwt beam="1">  1        1 0.43151538E+00 0.24180867E+04</pdfrwt>
<pdfrwt beam="2">  1       -2 0.80179022E-01 0.24180867E+04</pdfrwt>
<totfact> 0.89442150E-01</totfact>
</mgrwt>
</event>
<event>
12    5  0.5428626E-008  0.2066566E+04  0.7818608E-02  0.8576116E-01
         -2   -1    0    0    0  501 -0.00000000000E+00  0.00000000000E+00  0.11731708976E+04  0.11731708976E+04  0.00000000000E+00 0.  1.
          1   -1    0    0  501    0  0.00000000000E+00 -0.00000000000E+00 -0.91007548936E+03  0.91007548936E+03  0.00000000000E+00 0. -1.
        -24    2    1    2    0    0 -0.70049192994E+03 -0.12447872007E+03 -0.30205570920E+03  0.77726372316E+03  0.81959430295E+02 0.  0.
        254    2    1    2    0    0  0.70049192994E+03  0.12447872007E+03  0.56515111740E+03  0.13059826638E+04  0.93808903463E+03 0.  0.
         23    2    4    4    0    0  0.64304108124E+03 -0.27306642036E+03  0.55128946829E+03  0.89400371998E+03  0.85179054903E+02 0.  0.
         23    2    4    4    0    0  0.57450848697E+02  0.39754514043E+03  0.13861649105E+02  0.41197894378E+03  0.90508375905E+02 0.  0.
          1    1    3    3  502    0 -0.59667495865E+03 -0.12267387455E+03 -0.28305533518E+03  0.67170693650E+03  0.00000000000E+00 0. -1.
         -2    1    3    3    0  502 -0.10381697129E+03 -0.18048455193E+01 -0.19000374024E+02  0.10555678666E+03  0.00000000000E+00 0.  1.
         13    1    5    5    0    0  0.59016132830E+03 -0.26197195851E+03  0.53202093128E+03  0.83663969054E+03  0.00000000000E+00 0. -1.
        -13    1    5    5    0    0  0.52879752945E+02 -0.11094461854E+02  0.19268537012E+02  0.57364029443E+02  0.00000000000E+00 0.  1.
          4    1    6    6  503    0  0.41014222423E+02  0.39237298385E+03  0.13633499932E+02  0.39474624408E+03  0.00000000000E+00 0. -1.
         -4    1    6    6    0  503  0.16436626273E+02  0.51721565800E+01  0.22814917378E+00  0.17232699701E+02  0.00000000000E+00 0.  1.
<mgrwt>
<rscale>  0 0.20665663E+04</rscale>
<asrwt>0</asrwt>
<pdfrwt beam="1">  1        1 0.14001161E+00 0.20665663E+04</pdfrwt>
<pdfrwt beam="2">  1       -2 0.18048783E+00 0.20665663E+04</pdfrwt>
<totfact> 0.25962377E+00</totfact>
</mgrwt>
</event>
<event>
12    5  0.5428626E-008  0.1202884E+04  0.7818608E-02  0.9110336E-01
         -4   -1    0    0    0  501 -0.00000000000E+00  0.00000000000E+00  0.24784579830E+04  0.24784579830E+04  0.00000000000E+00 0.  1.
          3   -1    0    0  501    0  0.00000000000E+00 -0.00000000000E+00 -0.14595064489E+03  0.14595064489E+03  0.00000000000E+00 0. -1.
        -24    2    1    2    0    0  0.59829862406E+02  0.24404706010E+03  0.37002255534E+03  0.45385512287E+03  0.77001305923E+02 0.  0.
        254    2    1    2    0    0 -0.59829862406E+02 -0.24404706010E+03  0.19624847828E+04  0.21705535050E+04  0.89264629926E+03 0.  0.
         23    2    4    4    0    0 -0.89903515730E+02  0.56541401692E+02  0.18177183988E+04  0.18229964200E+04  0.89085341246E+02 0.  0.
         23    2    4    4    0    0  0.30073653324E+02 -0.30058846180E+03  0.14476638399E+03  0.34755708497E+03  0.92632464028E+02 0.  0.
          3    1    3    3  502    0  0.15642858241E+02  0.70385798084E+02  0.52266049192E+02  0.89053913356E+02  0.00000000000E+00 0. -1.
         -4    1    3    3    0  502  0.44187004165E+02  0.17366126202E+03  0.31775650615E+03  0.36480120952E+03  0.00000000000E+00 0.  1.
         13    1    5    5    0    0  0.83566343738E+01  0.33903187058E+02  0.64791531684E+03  0.64885554419E+03  0.00000000000E+00 0. -1.
        -13    1    5    5    0    0 -0.98260150104E+02  0.22638214634E+02  0.11698030819E+04  0.11741408758E+04  0.00000000000E+00 0.  1.
          2    1    6    6  503    0  0.29919515811E+01 -0.82202907084E+02  0.87658608142E+02  0.12020940599E+03  0.00000000000E+00 0. -1.
         -2    1    6    6    0  503  0.27081701743E+02 -0.21838555471E+03  0.57107775851E+02  0.22734767898E+03  0.00000000000E+00 0.  1.
<mgrwt>
<rscale>  0 0.12028841E+04</rscale>
<asrwt>0</asrwt>
<pdfrwt beam="1">  1        3 0.22453947E-01 0.12028841E+04</pdfrwt>
<pdfrwt beam="2">  1       -4 0.38130120E+00 0.12028841E+04</pdfrwt>
<totfact> 0.39428849E-01</totfact>
</mgrwt>
</event>
<event>
12    5  0.5428626E-008  0.1723646E+04  0.7818608E-02  0.8747992E-01
         -2   -1    0    0    0  501 -0.00000000000E+00  0.00000000000E+00  0.48057584403E+03  0.48057584403E+03  0.00000000000E+00 0.  1.
          1   -1    0    0  501    0  0.00000000000E+00 -0.00000000000E+00 -0.15455190945E+04  0.15455190945E+04  0.00000000000E+00 0. -1.
        -24    2    1    2    0    0  0.27874270409E+03 -0.16155556185E+02 -0.10402434315E+04  0.10800900920E+04  0.80806639729E+02 0.  0.
        254    2    1    2    0    0 -0.27874270409E+03  0.16155556185E+02 -0.24699818927E+02  0.94600484646E+03  0.90352453835E+03 0.  0.
         23    2    4    4    0    0 -0.55856975496E+03  0.16869823560E+03 -0.11813825802E+03  0.60187490730E+03  0.88529600593E+02 0.  0.
         23    2    4    4    0    0  0.27982705087E+03 -0.15254267942E+03  0.93438439090E+02  0.34412993916E+03  0.90123391427E+02 0.  0.
          3    1    3    3  502    0  0.14790677096E+03 -0.31715877228E+02 -0.67685614226E+03  0.69355356468E+03  0.00000000000E+00 0. -1.
         -4    1    3    3    0  502  0.13083593313E+03  0.15560321043E+02 -0.36338728926E+03  0.38653652736E+03  0.00000000000E+00 0.  1.
         13    1    5    5    0    0 -0.59771028348E+01  0.78147238228E+01  0.79970055588E+01  0.12678634178E+02  0.00000000000E+00 0. -1.
        -13    1    5    5    0    0 -0.55259265213E+03  0.16088351178E+03 -0.12613526358E+03  0.58919627313E+03  0.00000000000E+00 0.  1.
          3    1    6    6  503    0 -0.26355376327E+01 -0.12319718193E+02  0.14181957337E+02  0.18969697648E+02  0.00000000000E+00 0. -1.
         -3    1    6    6    0  503  0.28246258850E+03 -0.14022296122E+03  0.79256481754E+02  0.32516024151E+03  0.00000000000E+00 0.  1.
<mgrwt>
<rscale>  0 0.17236463E+04</rscale>
<asrwt>0</asrwt>
<pdfrwt beam="1">  1        1 0.23777217E+00 0.17236463E+04</pdfrwt>
<pdfrwt beam="2">  1       -2 0.73934745E-01 0.17236463E+04</pdfrwt>
<totfact> 0.83575693E+00</totfact>
</mgrwt>
</event>
<event>
12    5  0.5428626E-008  0.1526357E+04  0.7818608E-02  0.8867113E-01
          1   -1    0    0  501    0  0.00000000000E+00  0.00000000000E+00  0.83425600805E+03  0.83425600805E+03  0.00000000000E+00 0. -1.
         -2   -1    0    0    0  501 -0.00000000000E+00 -0.00000000000E+00 -0.69815665757E+03  0.69815665757E+03  0.00000000000E+00 0.  1.
        -24    2    1    2    0    0 -0.26749165633E+03  0.35817763042E+03  0.27345382209E+03  0.53011432059E+03  0.80007493029E+02 0.  0.
        254    2    1    2    0    0  0.26749165633E+03 -0.35817763042E+03 -0.13735447160E+03  0.10022983450E+04  0.88650590547E+03 0.  0.
         23    2    4    4    0    0  0.40561570264E+03 -0.52786449307E+03  0.85593472487E+02  0.67737708454E+03  0.91369857449E+02 0.  0.
         23    2    4    4    0    0 -0.13812404631E+03  0.16968686265E+03 -0.22294794409E+03  0.32492126049E+03  0.89421229146E+02 0.  0.
          1    1    3    3  502    0 -0.26810455543E+03  0.35812032854E+03  0.27722540416E+03  0.52629283395E+03  0.00000000000E+00 0. -1.
         -2    1    3    3    0  502  0.61289909332E+00  0.57301879778E-01 -0.37715820748E+01  0.38214866415E+01  0.00000000000E+00 0.  1.
         13    1    5    5    0    0  0.54119464860E+02 -0.12632569840E+03  0.37062182634E+01  0.13748030625E+03  0.00000000000E+00 0. -1.
        -13    1    5    5    0    0  0.35149623778E+03 -0.40153879467E+03  0.81887254224E+02  0.53989677829E+03  0.00000000000E+00 0.  1.
          2    1    6    6  503    0 -0.30706009869E+01 -0.67135417303E+00  0.74883559643E+01  0.81212549458E+01  0.00000000000E+00 0. -1.
         -2    1    6    6    0  503 -0.13505344532E+03  0.17035821683E+03 -0.23043630005E+03  0.31680000555E+03  0.00000000000E+00 0.  1.
<mgrwt>
<rscale>  0 0.15263570E+04</rscale>
<asrwt>0</asrwt>
<pdfrwt beam="1">  1        1 0.12834708E+00 0.15263570E+04</pdfrwt>
<pdfrwt beam="2">  1       -2 0.10740872E+00 0.15263570E+04</pdfrwt>
<totfact> 0.12157531E+01</totfact>
</mgrwt>
</event>
<event>
12    5  0.5428626E-008  0.2425393E+04  0.7818608E-02  0.8430058E-01
         -2   -1    0    0    0  501 -0.00000000000E+00  0.00000000000E+00  0.20579338466E+04  0.20579338466E+04  0.00000000000E+00 0.  1.
          1   -1    0    0  501    0  0.00000000000E+00 -0.00000000000E+00 -0.71461624026E+03  0.71461624026E+03  0.00000000000E+00 0. -1.
        -24    2    1    2    0    0 -0.56660643272E+03  0.15889463427E+03  0.14760352209E+04  0.15910184653E+04  0.79808703535E+02 0.  0.
        254    2    1    2    0    0  0.56660643272E+03 -0.15889463427E+03 -0.13271761452E+03  0.11815316216E+04  0.10159294529E+04 0.  0.
         23    2    4    4    0    0 -0.67741749769E+02  0.20465847751E+03  0.25728169829E+03  0.34781066346E+03  0.91128196867E+02 0.  0.
         23    2    4    4    0    0  0.63434818249E+03 -0.36355311178E+03 -0.38999931281E+03  0.83372095814E+03  0.91775216296E+02 0.  0.
          3    1    3    3  502    0 -0.13079016401E+03  0.71414881241E+02  0.34816383649E+03  0.37871388845E+03  0.00000000000E+00 0. -1.
         -4    1    3    3    0  502 -0.43581626871E+03  0.87479753031E+02  0.11278713844E+04  0.12123045768E+04  0.00000000000E+00 0.  1.
         13    1    5    5    0    0  0.48329784568E+01 -0.66391393464E+01  0.21392652882E+02  0.22914655776E+02  0.00000000000E+00 0.  1.
        -13    1    5    5    0    0 -0.72574728225E+02  0.21129761686E+03  0.23588904540E+03  0.32489600768E+03  0.00000000000E+00 0. -1.
          4    1    6    6  503    0  0.40907788898E+03 -0.26277212606E+03 -0.21756904790E+03  0.53266330837E+03  0.00000000000E+00 0.  1.
         -4    1    6    6    0  503  0.22527029352E+03 -0.10078098573E+03 -0.17243026491E+03  0.30105764977E+03  0.00000000000E+00 0. -1.
<mgrwt>
<rscale>  0 0.24253931E+04</rscale>
<asrwt>0</asrwt>
<pdfrwt beam="1">  1        1 0.10994096E+00 0.24253931E+04</pdfrwt>
<pdfrwt beam="2">  1       -2 0.31660521E+00 0.24253931E+04</pdfrwt>
<totfact> 0.52007303E-01</totfact>
</mgrwt>
</event>
<event>
12    5  0.5428626E-008  0.2202748E+04  0.7818608E-02  0.8517285E-01
         -2   -1    0    0    0  501 -0.00000000000E+00  0.00000000000E+00  0.68526488834E+03  0.68526488834E+03  0.00000000000E+00 0.  1.
          1   -1    0    0  501    0  0.00000000000E+00 -0.00000000000E+00 -0.17701552437E+04  0.17701552437E+04  0.00000000000E+00 0. -1.
        -24    2    1    2    0    0  0.26099064478E+03 -0.75922761395E+03 -0.92587850711E+03  0.12285509363E+04  0.86854514813E+02 0.  0.
        254    2    1    2    0    0 -0.26099064478E+03  0.75922761395E+03 -0.15901184827E+03  0.12268691958E+04  0.91399155859E+03 0.  0.
         23    2    4    4    0    0 -0.61319525918E+01  0.29226271369E+03 -0.50094244857E+03  0.58795774309E+03  0.96415124464E+02 0.  0.
         23    2    4    4    0    0 -0.25485869219E+03  0.46696490025E+03  0.34193060029E+03  0.63891145267E+03  0.91006251898E+02 0.  0.
          1    1    3    3  502    0  0.18524340352E+02 -0.69290600075E+02 -0.12424551516E+03  0.14346179450E+03  0.00000000000E+00 0. -1.
         -2    1    3    3    0  502  0.24246630443E+03 -0.68993701387E+03 -0.80163299195E+03  0.10850891418E+04  0.00000000000E+00 0.  1.
         13    1    5    5    0    0 -0.29749695769E+02  0.82961431419E+02 -0.88801811981E+02  0.12511356966E+03  0.00000000000E+00 0. -1.
        -13    1    5    5    0    0  0.23617743178E+02  0.20930128227E+03 -0.41214063659E+03  0.46284417343E+03  0.00000000000E+00 0.  1.
          3    1    6    6  503    0 -0.38002687770E+02  0.34051772114E+02  0.10345824604E+02  0.52064993504E+02  0.00000000000E+00 0. -1.
         -3    1    6    6    0  503 -0.21685600442E+03  0.43291312814E+03  0.33158477569E+03  0.58684645917E+03  0.00000000000E+00 0.  1.
<mgrwt>
<rscale>  0 0.22027485E+04</rscale>
<asrwt>0</asrwt>
<pdfrwt beam="1">  1        1 0.27233158E+00 0.22027485E+04</pdfrwt>
<pdfrwt beam="2">  1       -2 0.10542537E+00 0.22027485E+04</pdfrwt>
<totfact> 0.24877401E+00</totfact>
</mgrwt>
</event>
<event>
12    5  0.5428626E-008  0.2392114E+04  0.7818608E-02  0.8442462E-01
          1   -1    0    0  501    0  0.00000000000E+00  0.00000000000E+00  0.36120200766E+04  0.36120200766E+04  0.00000000000E+00 0. -1.
         -2   -1    0    0    0  501 -0.00000000000E+00 -0.00000000000E+00 -0.39605329539E+03  0.39605329539E+03  0.00000000000E+00 0.  1.
        -24    2    1    2    0    0  0.54929410468E+03  0.35601910880E+03  0.26895694085E+04  0.27692270355E+04  0.79756829151E+02 0.  0.
        254    2    1    2    0    0 -0.54929410468E+03 -0.35601910880E+03  0.52639737269E+03  0.12388463365E+04  0.91058905776E+03 0.  0.
         23    2    4    4    0    0 -0.76053589066E+03 -0.11459784050E+03  0.45520229146E+03  0.89808417284E+03  0.88309395406E+02 0.  0.
         23    2    4    4    0    0  0.21124178598E+03 -0.24142126829E+03  0.71195081231E+02  0.34076216362E+03  0.90237418153E+02 0.  0.
          1    1    3    3  502    0  0.51339309916E+03  0.32551695644E+03  0.23965712473E+04  0.24724658757E+04  0.00000000000E+00 0. -1.
         -2    1    3    3    0  502  0.35901005516E+02  0.30502152355E+02  0.29299816118E+03  0.29676115977E+03  0.00000000000E+00 0.  1.
         13    1    5    5    0    0 -0.50642061551E+03 -0.91281060284E+02  0.25833230069E+03  0.57578611425E+03  0.00000000000E+00 0. -1.
        -13    1    5    5    0    0 -0.25411527515E+03 -0.23316780218E+02  0.19686999077E+03  0.32229805859E+03  0.00000000000E+00 0.  1.
          4    1    6    6  503    0  0.86310959784E+02 -0.11974075328E+03  0.76569145209E+02  0.16628368463E+03  0.00000000000E+00 0. -1.
         -4    1    6    6    0  503  0.12493082620E+03 -0.12168051501E+03 -0.53740639784E+01  0.17447847899E+03  0.00000000000E+00 0.  1.
<mgrwt>
<rscale>  0 0.23921141E+04</rscale>
<asrwt>0</asrwt>
<pdfrwt beam="1">  1        1 0.55569537E+00 0.23921141E+04</pdfrwt>
<pdfrwt beam="2">  1       -2 0.60931279E-01 0.23921141E+04</pdfrwt>
<totfact> 0.40278932E-01</totfact>
</mgrwt>
</event>
<event>
12    5  0.5428626E-008  0.1946004E+04  0.7818608E-02  0.8632290E-01
         -2   -1    0    0    0  501 -0.00000000000E+00  0.00000000000E+00  0.12646569929E+04  0.12646569929E+04  0.00000000000E+00 0.  1.
          1   -1    0    0  501    0  0.00000000000E+00 -0.00000000000E+00 -0.74860848960E+03  0.74860848960E+03  0.00000000000E+00 0. -1.
        -24    2    1    2    0    0 -0.74072049485E+00 -0.11123174727E+03  0.98695007556E+03  0.99642768795E+03  0.80153823423E+02 0.  0.
        254    2    1    2    0    0  0.74072049485E+00  0.11123174727E+03 -0.47090157222E+03  0.10168377946E+04  0.89433649121E+03 0.  0.
         23    2    4    4    0    0 -0.16000793302E+03 -0.33951290716E+03 -0.85712958489E+02  0.39576442391E+03  0.91712677523E+02 0.  0.
         23    2    4    4    0    0  0.16074865352E+03  0.45074465443E+03 -0.38518861373E+03  0.62107337068E+03  0.91383754095E+02 0.  0.
          1    1    3    3  502    0 -0.33895375244E+02 -0.30195244137E+02  0.23051214857E+03  0.23493935360E+03  0.00000000000E+00 0. -1.
         -2    1    3    3    0  502  0.33154654750E+02 -0.81036503137E+02  0.75643792699E+03  0.76148833435E+03  0.00000000000E+00 0.  1.
         13    1    5    5    0    0 -0.61281827711E+01 -0.91974149144E+02 -0.81255504848E+00  0.92181662930E+02  0.00000000000E+00 0. -1.
        -13    1    5    5    0    0 -0.15387975025E+03 -0.24753875802E+03 -0.84900403441E+02  0.30358276098E+03  0.00000000000E+00 0.  1.
          1    1    6    6  503    0  0.23792345515E+02  0.54180191049E+02 -0.91424684000E+02  0.10890381835E+03  0.00000000000E+00 0. -1.
         -1    1    6    6    0  503  0.13695630800E+03  0.39656446339E+03 -0.29376392973E+03  0.51216955233E+03  0.00000000000E+00 0.  1.
<mgrwt>
<rscale>  0 0.19460041E+04</rscale>
<asrwt>0</asrwt>
<pdfrwt beam="1">  1        1 0.11517054E+00 0.19460041E+04</pdfrwt>
<pdfrwt beam="2">  1       -2 0.19456261E+00 0.19460041E+04</pdfrwt>
<totfact> 0.28957838E+00</totfact>
</mgrwt>
</event>
<event>
12    5  0.5428626E-008  0.1310427E+04  0.7818608E-02  0.9021337E-01
          3   -1    0    0  501    0  0.00000000000E+00  0.00000000000E+00  0.20536120094E+03  0.20536120094E+03  0.00000000000E+00 0. -1.
         -4   -1    0    0    0  501 -0.00000000000E+00 -0.00000000000E+00 -0.20904873990E+04  0.20904873990E+04  0.00000000000E+00 0.  1.
        -24    2    1    2    0    0 -0.85606505461E+02 -0.10762760347E+03 -0.10331638813E+04  0.10453110015E+04  0.79594656503E+02 0.  0.
        254    2    1    2    0    0  0.85606505461E+02  0.10762760347E+03 -0.85196231677E+03  0.12505375985E+04  0.90503719330E+03 0.  0.
         23    2    4    4    0    0  0.10816737143E+03 -0.14425274221E+03  0.12321379324E+03  0.23897659490E+03  0.97052254945E+02 0.  0.
         23    2    4    4    0    0 -0.22560865967E+02  0.25188034568E+03 -0.97517611002E+03  0.10115610036E+04  0.91293577195E+02 0.  0.
          3    1    3    3  502    0 -0.89494510641E+01 -0.74820176277E+02 -0.51382313051E+03  0.51931913204E+03  0.00000000000E+00 0. -1.
         -4    1    3    3    0  502 -0.76657054397E+02 -0.32807427195E+02 -0.51934075081E+03  0.52599186944E+03  0.00000000000E+00 0.  1.
         13    1    5    5    0    0  0.44658307775E+02  0.14029111665E+01  0.16790894721E+02  0.47731192721E+02  0.00000000000E+00 0.  1.
        -13    1    5    5    0    0  0.63509063653E+02 -0.14565565337E+03  0.10642289852E+03  0.19124540218E+03  0.00000000000E+00 0. -1.
          4    1    6    6  503    0  0.16946283316E+02  0.20707639211E+03 -0.71228492546E+03  0.74196874848E+03  0.00000000000E+00 0. -1.
         -4    1    6    6    0  503 -0.39507149283E+02  0.44803953573E+02 -0.26289118456E+03  0.26959225512E+03  0.00000000000E+00 0.  1.
<mgrwt>
<rscale>  0 0.13104274E+04</rscale>
<asrwt>0</asrwt>
<pdfrwt beam="1">  1        3 0.31594030E-01 0.13104274E+04</pdfrwt>
<pdfrwt beam="2">  1       -4 0.32161346E+00 0.13104274E+04</pdfrwt>
<totfact> 0.50305720E-01</totfact>
</mgrwt>
</event>
<event>
12    5  0.5428626E-008  0.1772598E+04  0.7818608E-02  0.8721009E-01
          1   -1    0    0  501    0  0.00000000000E+00  0.00000000000E+00  0.18967467067E+04  0.18967467067E+04  0.00000000000E+00 0. -1.
         -2   -1    0    0    0  501 -0.00000000000E+00 -0.00000000000E+00 -0.41414366372E+03  0.41414366372E+03  0.00000000000E+00 0.  1.
        -24    2    1    2    0    0 -0.40204875851E+03  0.39221375492E+03  0.89741025630E+03  0.10616200272E+04  0.78848463603E+02 0.  0.
        254    2    1    2    0    0  0.40204875851E+03 -0.39221375492E+03  0.58519278667E+03  0.12492703432E+04  0.95013207458E+03 0.  0.
         23    2    4    4    0    0 -0.22646654621E+02 -0.60974593583E+03  0.28058174790E+03  0.67709276528E+03  0.86171447247E+02 0.  0.
         23    2    4    4    0    0  0.42469541313E+03  0.21753218091E+03  0.30461103877E+03  0.57217757795E+03  0.83143563228E+02 0.  0.
          3    1    3    3  502    0 -0.39093757288E+03  0.39369490351E+03  0.86827185676E+03  0.10303998642E+04  0.00000000000E+00 0. -1.
         -4    1    3    3    0  502 -0.11111185625E+02 -0.14811485858E+01  0.29138399537E+02  0.31220162951E+02  0.00000000000E+00 0.  1.
         13    1    5    5    0    0 -0.52430451046E+02 -0.30389661910E+03  0.12638514161E+03  0.33327962932E+03  0.00000000000E+00 0. -1.
        -13    1    5    5    0    0  0.29783796425E+02 -0.30584931673E+03  0.15419660629E+03  0.34381313597E+03  0.00000000000E+00 0.  1.
          1    1    6    6  503    0  0.41559940970E+03  0.21383576746E+03  0.27800000825E+03  0.54381302796E+03  0.00000000000E+00 0. -1.
         -1    1    6    6    0  503  0.90960034221E+01  0.36964134436E+01  0.26611030523E+02  0.28364549990E+02  0.00000000000E+00 0.  1.
<mgrwt>
<rscale>  0 0.17725977E+04</rscale>
<asrwt>0</asrwt>
<pdfrwt beam="1">  1        1 0.29180718E+00 0.17725977E+04</pdfrwt>
<pdfrwt beam="2">  1       -2 0.63714411E-01 0.17725977E+04</pdfrwt>
<totfact> 0.66271761E+00</totfact>
</mgrwt>
</event>
<event>
12    5  0.5428626E-008  0.1322978E+04  0.7818608E-02  0.9011540E-01
          1   -1    0    0  501    0  0.00000000000E+00  0.00000000000E+00  0.13764753375E+04  0.13764753375E+04  0.00000000000E+00 0. -1.
         -2   -1    0    0    0  501 -0.00000000000E+00 -0.00000000000E+00 -0.31788976230E+03  0.31788976230E+03  0.00000000000E+00 0.  1.
        -24    2    1    2    0    0 -0.23534619830E+03 -0.18866546444E+03  0.50534831139E+03  0.59404531525E+03  0.80811077341E+02 0.  0.
        254    2    1    2    0    0  0.23534619830E+03  0.18866546444E+03  0.55323726382E+03  0.11003197846E+04  0.90202531433E+03 0.  0.
         23    2    4    4    0    0 -0.50460812965E+02  0.32721621154E+03 -0.10855338210E+03  0.36052259761E+03  0.92606500224E+02 0.  0.
         23    2    4    4    0    0  0.28580701126E+03 -0.13855074710E+03  0.66179064592E+03  0.73979718695E+03  0.91929655603E+02 0.  0.
          1    1    3    3  502    0 -0.12610919800E+03 -0.83477662481E+02  0.32463003167E+03  0.35812945622E+03  0.00000000000E+00 0. -1.
         -2    1    3    3    0  502 -0.10923700030E+03 -0.10518780196E+03  0.18071827972E+03  0.23591585903E+03  0.00000000000E+00 0.  1.
         13    1    5    5    0    0 -0.41020214937E+02  0.33089947073E+03 -0.10306361877E+03  0.34899746027E+03  0.00000000000E+00 0. -1.
        -13    1    5    5    0    0 -0.94405980274E+01 -0.36832591859E+01 -0.54897633320E+01  0.11525137343E+02  0.00000000000E+00 0.  1.
          4    1    6    6  503    0  0.28561718797E+03 -0.14255575857E+03  0.61569017448E+03  0.69352268406E+03  0.00000000000E+00 0. -1.
         -4    1    6    6    0  503  0.18982329149E+00  0.40050114674E+01  0.46100471446E+02  0.46274502885E+02  0.00000000000E+00 0.  1.
<mgrwt>
<rscale>  0 0.13229776E+04</rscale>
<asrwt>0</asrwt>
<pdfrwt beam="1">  1        1 0.21176543E+00 0.13229776E+04</pdfrwt>
<pdfrwt beam="2">  1       -2 0.48906118E-01 0.13229776E+04</pdfrwt>
<totfact> 0.27187294E+01</totfact>
</mgrwt>
</event>
<event>
12    5  0.5428626E-008  0.1948086E+04  0.7818608E-02  0.8631284E-01
         -2   -1    0    0    0  501 -0.00000000000E+00  0.00000000000E+00  0.56943526521E+03  0.56943526521E+03  0.00000000000E+00 0.  1.
          1   -1    0    0  501    0  0.00000000000E+00 -0.00000000000E+00 -0.16661408745E+04  0.16661408745E+04  0.00000000000E+00 0. -1.
        -24    2    1    2    0    0 -0.21816175908E+02  0.99662665043E+02  0.43096511714E+03  0.45048485997E+03  0.82444433050E+02 0.  0.
        254    2    1    2    0    0  0.21816175908E+02 -0.99662665043E+02 -0.15276707264E+04  0.17850912797E+04  0.91780413828E+03 0.  0.
         23    2    4    4    0    0  0.43134731249E+03  0.82455933188E+02 -0.58867759287E+03  0.74038684499E+03  0.93658352431E+02 0.  0.
         23    2    4    4    0    0 -0.40953113659E+03 -0.18211859823E+03 -0.93899313352E+03  0.10447044347E+04  0.93895236446E+02 0.  0.
          1    1    3    3  502    0 -0.30255115585E+02  0.27567868028E+01  0.15310853675E+03  0.15609354861E+03  0.00000000000E+00 0. -1.
         -2    1    3    3    0  502  0.84389396768E+01  0.96905878240E+02  0.27785658039E+03  0.29439131136E+03  0.00000000000E+00 0.  1.
         13    1    5    5    0    0  0.25860989757E+03  0.86934687237E+02 -0.31503889549E+03  0.41675679315E+03  0.00000000000E+00 0.  1.
        -13    1    5    5    0    0  0.17273741493E+03 -0.44787540489E+01 -0.27363869738E+03  0.32363005184E+03  0.00000000000E+00 0. -1.
          3    1    6    6  503    0 -0.39799445153E+03 -0.15322634392E+03 -0.88480213706E+03  0.98221826376E+03  0.00000000000E+00 0. -1.
         -3    1    6    6    0  503 -0.11536685057E+02 -0.28892254310E+02 -0.54190996464E+02  0.62486170942E+02  0.00000000000E+00 0.  1.
<mgrwt>
<rscale>  0 0.19480856E+04</rscale>
<asrwt>0</asrwt>
<pdfrwt beam="1">  1        1 0.25632936E+00 0.19480856E+04</pdfrwt>
<pdfrwt beam="2">  1       -2 0.87605428E-01 0.19480856E+04</pdfrwt>
<totfact> 0.46237764E+00</totfact>
</mgrwt>
</event>
<event>
12    5  0.5428626E-008  0.1576843E+04  0.7818608E-02  0.8834902E-01
          1   -1    0    0  501    0  0.00000000000E+00  0.00000000000E+00  0.21721908825E+04  0.21721908825E+04  0.00000000000E+00 0. -1.
         -2   -1    0    0    0  501 -0.00000000000E+00 -0.00000000000E+00 -0.28616652868E+03  0.28616652868E+03  0.00000000000E+00 0.  1.
        -24    2    1    2    0    0  0.37526344533E+02 -0.39356549980E+03  0.93693402761E+02  0.41423755851E+03  0.80698649266E+02 0.  0.
        254    2    1    2    0    0 -0.37526344533E+02  0.39356549980E+03  0.17923309510E+04  0.20441198527E+04  0.89981870663E+03 0.  0.
         23    2    4    4    0    0  0.57219398331E+02  0.22912144757E+02  0.16052793369E+04  0.16090510067E+04  0.91237969297E+02 0.  0.
         23    2    4    4    0    0 -0.94745742864E+02  0.37065335504E+03  0.18705161418E+03  0.43506884591E+03  0.89083830847E+02 0.  0.
          1    1    3    3  502    0 -0.29631488931E+00  0.26943216111E+01  0.60686343556E+01  0.66464648047E+01  0.00000000000E+00 0. -1.
         -2    1    3    3    0  502  0.37822659422E+02 -0.39625982141E+03  0.87624768406E+02  0.40759109370E+03  0.00000000000E+00 0.  1.
         13    1    5    5    0    0  0.41034729533E+02  0.57944049974E+02  0.11120113798E+04  0.11142758503E+04  0.00000000000E+00 0. -1.
        -13    1    5    5    0    0  0.16184668798E+02 -0.35031905217E+02  0.49326795710E+03  0.49477515640E+03  0.00000000000E+00 0.  1.
          1    1    6    6  503    0 -0.54152134039E+02  0.76808275877E+02  0.65201068667E+02  0.11438157290E+03  0.00000000000E+00 0. -1.
         -1    1    6    6    0  503 -0.40593608825E+02  0.29384507916E+03  0.12185054551E+03  0.32068727300E+03  0.00000000000E+00 0.  1.
<mgrwt>
<rscale>  0 0.15768428E+04</rscale>
<asrwt>0</asrwt>
<pdfrwt beam="1">  1        1 0.33418320E+00 0.15768428E+04</pdfrwt>
<pdfrwt beam="2">  1       -2 0.44025621E-01 0.15768428E+04</pdfrwt>
<totfact> 0.94068905E+00</totfact>
</mgrwt>
</event>
<event>
12    5  0.5428626E-008  0.1640756E+04  0.7818608E-02  0.8795894E-01
          1   -1    0    0  501    0  0.00000000000E+00  0.00000000000E+00  0.56807334396E+03  0.56807334396E+03  0.00000000000E+00 0. -1.
         -2   -1    0    0    0  501 -0.00000000000E+00 -0.00000000000E+00 -0.11847409526E+04  0.11847409526E+04  0.00000000000E+00 0.  1.
        -24    2    1    2    0    0  0.22176363550E+01  0.47228659584E+03 -0.55607837968E+03  0.73387333660E+03  0.79292895689E+02 0.  0.
        254    2    1    2    0    0 -0.22176363550E+01 -0.47228659584E+03 -0.60589229001E+02  0.10189409600E+04  0.90083854201E+03 0.  0.
         23    2    4    4    0    0 -0.22414368397E+03 -0.65501214871E+03  0.35574496025E+02  0.69900081665E+03  0.89751272362E+02 0.  0.
         23    2    4    4    0    0  0.22192604762E+03  0.18272555287E+03 -0.96163725027E+02  0.31994014335E+03  0.10234468735E+03 0.  0.
          1    1    3    3  502    0  0.44670909363E+01 -0.64948585141E+00 -0.97529925958E+00  0.46182184823E+01  0.00000000000E+00 0. -1.
         -2    1    3    3    0  502 -0.22494545813E+01  0.47293608169E+03 -0.55510308042E+03  0.72925511812E+03  0.00000000000E+00 0.  1.
         13    1    5    5    0    0 -0.32890432953E+02 -0.41160551568E+02 -0.12826357047E+02  0.54226257664E+02  0.00000000000E+00 0. -1.
        -13    1    5    5    0    0 -0.19125325102E+03 -0.61385159715E+03  0.48400853072E+02  0.64477455899E+03  0.00000000000E+00 0.  1.
          4    1    6    6  503    0  0.33774314876E+02  0.78235466133E+02 -0.25760531200E+01  0.85253319913E+02  0.00000000000E+00 0. -1.
         -4    1    6    6    0  503  0.18815173274E+03  0.10449008674E+03 -0.93587671907E+02  0.23468682343E+03  0.00000000000E+00 0.  1.
<mgrwt>
<rscale>  0 0.16407556E+04</rscale>
<asrwt>0</asrwt>
<pdfrwt beam="1">  1        1 0.87395901E-01 0.16407556E+04</pdfrwt>
<pdfrwt beam="2">  1       -2 0.18226784E+00 0.16407556E+04</pdfrwt>
<totfact> 0.54183797E+00</totfact>
</mgrwt>
</event>
<event>
12    5  0.5428626E-008  0.2060865E+04  0.7818608E-02  0.8578681E-01
          1   -1    0    0  501    0  0.00000000000E+00  0.00000000000E+00  0.79155688975E+03  0.79155688975E+03  0.00000000000E+00 0. -1.
         -2   -1    0    0    0  501 -0.00000000000E+00 -0.00000000000E+00 -0.13413962223E+04  0.13413962223E+04  0.00000000000E+00 0.  1.
        -24    2    1    2    0    0 -0.57116410758E+03 -0.35702740729E+03  0.28548494308E+03  0.73591682660E+03  0.79843068623E+02 0.  0.
        254    2    1    2    0    0  0.57116410758E+03  0.35702740729E+03 -0.83532427561E+03  0.13970362854E+04  0.89456510667E+03 0.  0.
         23    2    4    4    0    0  0.61296557764E+03  0.51510064596E+03 -0.89087793279E+03  0.12011212618E+04  0.89293446402E+02 0.  0.
         23    2    4    4    0    0 -0.41801470066E+02 -0.15807323866E+03  0.55553657178E+02  0.19591502365E+03  0.92530946080E+02 0.  0.
          1    1    3    3  502    0 -0.46324523545E+03 -0.26938256516E+03  0.19606864259E+03  0.57061898600E+03  0.00000000000E+00 0. -1.
         -2    1    3    3    0  502 -0.10791887213E+03 -0.87644842131E+02  0.89416300486E+02  0.16529784060E+03  0.00000000000E+00 0.  1.
         13    1    5    5    0    0  0.48839485430E+03  0.36632956297E+03 -0.70191548322E+03  0.93027535064E+03  0.00000000000E+00 0.  1.
        -13    1    5    5    0    0  0.12457072334E+03  0.14877108298E+03 -0.18896244957E+03  0.27084591116E+03  0.00000000000E+00 0. -1.
          2    1    6    6  503    0 -0.57462812685E+02 -0.11978710199E+03  0.72338446094E+02  0.15127384251E+03  0.00000000000E+00 0.  1.
         -2    1    6    6    0  503  0.15661342619E+02 -0.38286136673E+02 -0.16784788916E+02  0.44641181133E+02  0.00000000000E+00 0. -1.
<mgrwt>
<rscale>  0 0.20608653E+04</rscale>
<asrwt>0</asrwt>
<pdfrwt beam="1">  1        1 0.12177798E+00 0.20608653E+04</pdfrwt>
<pdfrwt beam="2">  1       -2 0.20636865E+00 0.20608653E+04</pdfrwt>
<totfact> 0.21968056E+00</totfact>
</mgrwt>
</event>
<event>
12    5  0.5428626E-008  0.1499564E+04  0.7818608E-02  0.8884743E-01
         -2   -1    0    0    0  501 -0.00000000000E+00  0.00000000000E+00  0.20014123125E+03  0.20014123125E+03  0.00000000000E+00 0.  1.
          1   -1    0    0  501    0  0.00000000000E+00 -0.00000000000E+00 -0.28088814915E+04  0.28088814915E+04  0.00000000000E+00 0. -1.
        -24    2    1    2    0    0 -0.25502961791E+03 -0.35421385014E+03 -0.11297222296E+04  0.12140113606E+04  0.83926812988E+02 0.  0.
        254    2    1    2    0    0  0.25502961791E+03  0.35421385014E+03 -0.14790180306E+04  0.17950113621E+04  0.91872950190E+03 0.  0.
         23    2    4    4    0    0  0.45682756658E+03 -0.12562079685E+03 -0.61606682954E+03  0.78310378229E+03  0.96131083385E+02 0.  0.
         23    2    4    4    0    0 -0.20179794867E+03  0.47983464698E+03 -0.86295120105E+03  0.10119075798E+04  0.91150831987E+02 0.  0.
          1    1    3    3  502    0 -0.22460049831E+03 -0.34252835988E+03 -0.10090600700E+04  0.10890240062E+04  0.00000000000E+00 0. -1.
         -2    1    3    3    0  502 -0.30429119600E+02 -0.11685490261E+02 -0.12066215966E+03  0.12498735447E+03  0.00000000000E+00 0.  1.
         13    1    5    5    0    0  0.42692882206E+03 -0.13670636590E+03 -0.59464977941E+03  0.74469135200E+03  0.00000000000E+00 0. -1.
        -13    1    5    5    0    0  0.29898744514E+02  0.11085569054E+02 -0.21417050128E+02  0.38412430293E+02  0.00000000000E+00 0.  1.
          4    1    6    6  503    0 -0.19691550740E+03  0.37549077799E+03 -0.69510499710E+03  0.81421127381E+03  0.00000000000E+00 0. -1.
         -4    1    6    6    0  503 -0.48824412759E+01  0.10434386899E+03 -0.16784620394E+03  0.19769630600E+03  0.00000000000E+00 0.  1.
<mgrwt>
<rscale>  0 0.14995639E+04</rscale>
<asrwt>0</asrwt>
<pdfrwt beam="1">  1        1 0.43213560E+00 0.14995639E+04</pdfrwt>
<pdfrwt beam="2">  1       -2 0.30790960E-01 0.14995639E+04</pdfrwt>
<totfact> 0.68461870E+00</totfact>
</mgrwt>
</event>
<event>
12    5  0.5428626E-008  0.1341860E+04  0.7818608E-02  0.8997013E-01
          1   -1    0    0  501    0  0.00000000000E+00  0.00000000000E+00  0.53032757408E+03  0.53032757408E+03  0.00000000000E+00 0. -1.
         -2   -1    0    0    0  501 -0.00000000000E+00 -0.00000000000E+00 -0.84880916186E+03  0.84880916186E+03  0.00000000000E+00 0.  1.
        -24    2    1    2    0    0  0.96536883213E+01  0.47210697584E+01 -0.46434672835E+03  0.47133383874E+03  0.80138762250E+02 0.  0.
        254    2    1    2    0    0 -0.96536883213E+01 -0.47210697584E+01  0.14586514058E+03  0.90780289720E+03  0.89594306668E+03 0.  0.
         23    2    4    4    0    0 -0.41240717136E+03 -0.65355611686E+02 -0.75133395209E+02  0.43407318732E+03  0.91779485221E+02 0.  0.
         23    2    4    4    0    0  0.40275348304E+03  0.60634541928E+02  0.22099853579E+03  0.47372970988E+03  0.98450847764E+02 0.  0.
          3    1    3    3  502    0  0.22553220899E+02 -0.23671828819E+02 -0.91154003049E+02  0.96840361030E+02  0.00000000000E+00 0. -1.
         -4    1    3    3    0  502 -0.12899532578E+02  0.28392898578E+02 -0.37319272530E+03  0.37449347771E+03  0.00000000000E+00 0.  1.
         13    1    5    5    0    0 -0.41307932877E+03 -0.72945558943E+02 -0.71105928163E+02  0.42545462678E+03  0.00000000000E+00 0.  1.
        -13    1    5    5    0    0  0.67215741459E+00  0.75899472571E+01 -0.40274670464E+01  0.86185605391E+01  0.00000000000E+00 0. -1.
          2    1    6    6  503    0  0.67226146017E+02  0.44007494869E+02  0.22132824778E+02  0.83341923697E+02  0.00000000000E+00 0. -1.
         -2    1    6    6    0  503  0.33552733702E+03  0.16627047059E+02  0.19886571101E+03  0.39038778618E+03  0.00000000000E+00 0.  1.
<mgrwt>
<rscale>  0 0.13418598E+04</rscale>
<asrwt>0</asrwt>
<pdfrwt beam="1">  1        1 0.81588858E-01 0.13418598E+04</pdfrwt>
<pdfrwt beam="2">  1       -2 0.13058602E+00 0.13418598E+04</pdfrwt>
<totfact> 0.15012502E+01</totfact>
</mgrwt>
</event>
<event>
12    5  0.5428626E-008  0.1338460E+04  0.7818608E-02  0.8999610E-01
          1   -1    0    0  501    0  0.00000000000E+00  0.00000000000E+00  0.24529403572E+03  0.24529403572E+03  0.00000000000E+00 0. -1.
         -2   -1    0    0    0  501 -0.00000000000E+00 -0.00000000000E+00 -0.18258441537E+04  0.18258441537E+04  0.00000000000E+00 0.  1.
        -24    2    1    2    0    0  0.31796566068E+03 -0.16321237370E+03 -0.35170523675E+03  0.50784407417E+03  0.80427543851E+02 0.  0.
        254    2    1    2    0    0 -0.31796566068E+03  0.16321237370E+03 -0.12288448812E+04  0.15632941152E+04  0.89782420792E+03 0.  0.
         23    2    4    4    0    0 -0.27423995426E+03 -0.14412817033E+03 -0.11945175301E+04  0.12374733707E+04  0.92128883979E+02 0.  0.
         23    2    4    4    0    0 -0.43725706416E+02  0.30734054403E+03 -0.34327351039E+02  0.32582074455E+03  0.92793551186E+02 0.  0.
          1    1    3    3  502    0  0.14984813167E+03 -0.85520450523E+02 -0.11522218561E+03  0.20747135243E+03  0.00000000000E+00 0. -1.
         -2    1    3    3    0  502  0.16811752901E+03 -0.77691923173E+02 -0.23648305114E+03  0.30037272173E+03  0.00000000000E+00 0.  1.
         13    1    5    5    0    0 -0.22288783400E+03 -0.81372171194E+02 -0.97503080962E+03  0.10034866698E+04  0.00000000000E+00 0. -1.
        -13    1    5    5    0    0 -0.51352120266E+02 -0.62755999140E+02 -0.21948672052E+03  0.23398670084E+03  0.00000000000E+00 0.  1.
          4    1    6    6  503    0 -0.55888707007E+02  0.28970720883E+03 -0.50030077244E+02  0.29926046021E+03  0.00000000000E+00 0. -1.
         -4    1    6    6    0  503  0.12163000591E+02  0.17633335206E+02  0.15702726205E+02  0.26560284338E+02  0.00000000000E+00 0.  1.
<mgrwt>
<rscale>  0 0.13384598E+04</rscale>
<asrwt>0</asrwt>
<pdfrwt beam="1">  1        1 0.37737545E-01 0.13384598E+04</pdfrwt>
<pdfrwt beam="2">  1       -2 0.28089909E+00 0.13384598E+04</pdfrwt>
<totfact> 0.40678363E+00</totfact>
</mgrwt>
</event>
<event>
12    5  0.5428626E-008  0.1825915E+04  0.7818608E-02  0.8692639E-01
         -2   -1    0    0    0  501 -0.00000000000E+00  0.00000000000E+00  0.65285719877E+03  0.65285719877E+03  0.00000000000E+00 0.  1.
          1   -1    0    0  501    0  0.00000000000E+00 -0.00000000000E+00 -0.12766819851E+04  0.12766819851E+04  0.00000000000E+00 0. -1.
        -24    2    1    2    0    0 -0.18109590394E+03 -0.49582669131E+03 -0.70144020785E+03  0.88171310537E+03  0.82218007506E+02 0.  0.
        254    2    1    2    0    0  0.18109590394E+03  0.49582669131E+03  0.77615421509E+02  0.10478260785E+04  0.90181788788E+03 0.  0.
         23    2    4    4    0    0 -0.17926515872E+03  0.36252572835E+02 -0.28784742688E+03  0.35294836367E+03  0.90918425455E+02 0.  0.
         23    2    4    4    0    0  0.36036106266E+03  0.45957411847E+03  0.36546284839E+03  0.69487771483E+03  0.90683400691E+02 0.  0.
          1    1    3    3  502    0 -0.17987242384E+03 -0.49652574960E+03 -0.68365768397E+03  0.86387483916E+03  0.00000000000E+00 0. -1.
         -2    1    3    3    0  502 -0.12234800990E+01  0.69905829231E+00 -0.17782523882E+02  0.17838266218E+02  0.00000000000E+00 0.  1.
         13    1    5    5    0    0 -0.11932336935E+03  0.46263682709E+02 -0.25135970000E+03  0.28206398848E+03  0.00000000000E+00 0. -1.
        -13    1    5    5    0    0 -0.59941789370E+02 -0.10011109874E+02 -0.36487726884E+02  0.70884375196E+02  0.00000000000E+00 0.  1.
          1    1    6    6  503    0  0.22866090335E+03  0.33850627023E+03  0.28865439645E+03  0.50019362681E+03  0.00000000000E+00 0. -1.
         -1    1    6    6    0  503  0.13170015931E+03  0.12106784825E+03  0.76808451939E+02  0.19468408802E+03  0.00000000000E+00 0.  1.
<mgrwt>
<rscale>  0 0.18259146E+04</rscale>
<asrwt>0</asrwt>
<pdfrwt beam="1">  1        1 0.19641261E+00 0.18259146E+04</pdfrwt>
<pdfrwt beam="2">  1       -2 0.10043957E+00 0.18259146E+04</pdfrwt>
<totfact> 0.63475750E+00</totfact>
</mgrwt>
</event>
<event>
12    5  0.5428626E-008  0.1590351E+04  0.7818608E-02  0.8826498E-01
          1   -1    0    0  501    0  0.00000000000E+00  0.00000000000E+00  0.25592321140E+04  0.25592321140E+04  0.00000000000E+00 0. -1.
         -2   -1    0    0    0  501 -0.00000000000E+00 -0.00000000000E+00 -0.24706784969E+03  0.24706784969E+03  0.00000000000E+00 0.  1.
        -24    2    1    2    0    0 -0.20455897976E+03  0.40089104636E+03  0.28153957106E+03  0.53822842215E+03  0.88697785125E+02 0.  0.
        254    2    1    2    0    0  0.20455897976E+03 -0.40089104636E+03  0.20306246933E+04  0.22680715416E+04  0.90451858219E+03 0.  0.
         23    2    4    4    0    0 -0.24458548973E+03  0.65580644658E+02  0.23609049716E+03  0.35807129771E+03  0.91397202692E+02 0.  0.
         23    2    4    4    0    0  0.44914446949E+03 -0.46647169102E+03  0.17945341961E+04  0.19100002439E+04  0.91767954798E+02 0.  0.
          1    1    3    3  502    0 -0.29150944964E+02  0.13907606771E+03  0.10784350561E+03  0.17838764504E+03  0.00000000000E+00 0. -1.
         -2    1    3    3    0  502 -0.17540803480E+03  0.26181497865E+03  0.17369606546E+03  0.35984077711E+03  0.00000000000E+00 0.  1.
         13    1    5    5    0    0 -0.14607368926E+03  0.49332538240E+02  0.19859884164E+03  0.25142140307E+03  0.00000000000E+00 0. -1.
        -13    1    5    5    0    0 -0.98511800465E+02  0.16248106418E+02  0.37491655519E+02  0.10664989464E+03  0.00000000000E+00 0.  1.
          3    1    6    6  503    0  0.39109431425E+03 -0.42132906815E+03  0.14989147091E+04  0.16053716863E+04  0.00000000000E+00 0. -1.
         -3    1    6    6    0  503  0.58050155239E+02 -0.45142622872E+02  0.29561948707E+03  0.30462855752E+03  0.00000000000E+00 0.  1.
<mgrwt>
<rscale>  0 0.15903509E+04</rscale>
<asrwt>0</asrwt>
<pdfrwt beam="1">  1        1 0.39372800E+00 0.15903509E+04</pdfrwt>
<pdfrwt beam="2">  1       -2 0.38010440E-01 0.15903509E+04</pdfrwt>
<totfact> 0.68039860E+00</totfact>
</mgrwt>
</event>
<event>
12    5  0.5428626E-008  0.1668402E+04  0.7818608E-02  0.8779594E-01
          1   -1    0    0  501    0  0.00000000000E+00  0.00000000000E+00  0.87831601198E+03  0.87831601198E+03  0.00000000000E+00 0. -1.
         -2   -1    0    0    0  501 -0.00000000000E+00 -0.00000000000E+00 -0.79230158602E+03  0.79230158602E+03  0.00000000000E+00 0.  1.
        -24    2    1    2    0    0  0.41287592732E+03 -0.10596978481E+03  0.44606430057E+03  0.62205502840E+03  0.79265197013E+02 0.  0.
        254    2    1    2    0    0 -0.41287592732E+03  0.10596978481E+03 -0.36004987461E+03  0.10485625696E+04  0.88777892716E+03 0.  0.
         23    2    4    4    0    0 -0.22575239637E+03 -0.21474994554E+03 -0.53726909434E+03  0.62740652443E+03  0.88877351381E+02 0.  0.
         23    2    4    4    0    0 -0.18712353095E+03  0.32071973034E+03  0.17721921973E+03  0.42115604517E+03  0.89941098916E+02 0.  0.
          1    1    3    3  502    0  0.29734212403E+03 -0.58631662705E+02  0.35910747540E+03  0.46990231908E+03  0.00000000000E+00 0. -1.
         -2    1    3    3    0  502  0.11553380329E+03 -0.47338122101E+02  0.86956825173E+02  0.15215270932E+03  0.00000000000E+00 0.  1.
         13    1    5    5    0    0 -0.17840436734E+03 -0.13801075557E+03 -0.44203929403E+03  0.49625983558E+03  0.00000000000E+00 0.  1.
        -13    1    5    5    0    0 -0.47348029027E+02 -0.76739189969E+02 -0.95229800304E+02  0.13114668885E+03  0.00000000000E+00 0. -1.
          1    1    6    6  503    0 -0.12572532895E+02  0.46544500174E+02 -0.51131086926E+01  0.48483017236E+02  0.00000000000E+00 0. -1.
         -1    1    6    6    0  503 -0.17455099806E+03  0.27417523017E+03  0.18233232843E+03  0.37267302794E+03  0.00000000000E+00 0.  1.
<mgrwt>
<rscale>  0 0.16684018E+04</rscale>
<asrwt>0</asrwt>
<pdfrwt beam="1">  1        1 0.13512554E+00 0.16684018E+04</pdfrwt>
<pdfrwt beam="2">  1       -2 0.12189255E+00 0.16684018E+04</pdfrwt>
<totfact> 0.80956391E+00</totfact>
</mgrwt>
</event>
<event>
12    5  0.5428626E-008  0.1295988E+04  0.7818608E-02  0.9032753E-01
          1   -1    0    0  501    0  0.00000000000E+00  0.00000000000E+00  0.13062754206E+04  0.13062754206E+04  0.00000000000E+00 0. -1.
         -2   -1    0    0    0  501 -0.00000000000E+00 -0.00000000000E+00 -0.32144531336E+03  0.32144531336E+03  0.00000000000E+00 0.  1.
        -24    2    1    2    0    0  0.14323031491E+03 -0.51478585002E+02 -0.10764460183E+03  0.19998361560E+03  0.72395568800E+02 0.  0.
        254    2    1    2    0    0 -0.14323031491E+03  0.51478585002E+02  0.10924747091E+04  0.14277371184E+04  0.90651382855E+03 0.  0.
         23    2    4    4    0    0 -0.45303166122E+03 -0.74985409173E+02  0.28259039949E+03  0.54687037963E+03  0.91374945034E+02 0.  0.
         23    2    4    4    0    0  0.30980134632E+03  0.12646399418E+03  0.80988430959E+03  0.88086673873E+03  0.89686121981E+02 0.  0.
          1    1    3    3  502    0  0.18545699341E+02 -0.73814190245E+01  0.10580448163E+02  0.22591462861E+02  0.00000000000E+00 0. -1.
         -2    1    3    3    0  502  0.12468461556E+03 -0.44097165977E+02 -0.11822505000E+03  0.17739215274E+03  0.00000000000E+00 0.  1.
         13    1    5    5    0    0 -0.42692039467E+03 -0.87366928411E+02  0.24656883054E+03  0.50068971605E+03  0.00000000000E+00 0. -1.
        -13    1    5    5    0    0 -0.26111266555E+02  0.12381519238E+02  0.36021568949E+02  0.46180663586E+02  0.00000000000E+00 0.  1.
          2    1    6    6  503    0  0.24266142284E+03  0.56620028462E+02  0.56451382401E+03  0.61706259914E+03  0.00000000000E+00 0. -1.
         -2    1    6    6    0  503  0.67139923478E+02  0.69843965714E+02  0.24537048558E+03  0.26380413959E+03  0.00000000000E+00 0.  1.
<mgrwt>
<rscale>  0 0.12959878E+04</rscale>
<asrwt>0</asrwt>
<pdfrwt beam="1">  1        1 0.20096545E+00 0.12959878E+04</pdfrwt>
<pdfrwt beam="2">  1       -2 0.49453126E-01 0.12959878E+04</pdfrwt>
<totfact> 0.29867797E+01</totfact>
</mgrwt>
</event>
<event>
12    5  0.5428626E-008  0.1471163E+04  0.7818608E-02  0.8903859E-01
          1   -1    0    0  501    0  0.00000000000E+00  0.00000000000E+00  0.17470997779E+04  0.17470997779E+04  0.00000000000E+00 0. -1.
         -2   -1    0    0    0  501 -0.00000000000E+00 -0.00000000000E+00 -0.30970200920E+03  0.30970200920E+03  0.00000000000E+00 0.  1.
        -24    2    1    2    0    0  0.32962338181E+03 -0.28693155485E+03  0.28607005764E+03  0.52843360183E+03  0.80154242927E+02 0.  0.
        254    2    1    2    0    0 -0.32962338181E+03  0.28693155485E+03  0.11513277110E+04  0.15283681852E+04  0.90519197990E+03 0.  0.
         23    2    4    4    0    0  0.13565505363E+03 -0.24059984974E+03  0.39710282293E+03  0.49224219086E+03  0.91220289480E+02 0.  0.
         23    2    4    4    0    0 -0.46527843543E+03  0.52753140459E+03  0.75422488810E+03  0.10361259944E+04  0.99641803974E+02 0.  0.
          1    1    3    3  502    0  0.45726982015E+02 -0.23116008531E+02  0.63229734185E+02  0.81383696277E+02  0.00000000000E+00 0. -1.
         -2    1    3    3    0  502  0.28389639979E+03 -0.26381554632E+03  0.22284032345E+03  0.44704990555E+03  0.00000000000E+00 0.  1.
         13    1    5    5    0    0  0.31876452954E+02 -0.10102693408E+02  0.80046704047E+02  0.86750489888E+02  0.00000000000E+00 0. -1.
        -13    1    5    5    0    0  0.10377860067E+03 -0.23049715633E+03  0.31705611888E+03  0.40549170097E+03  0.00000000000E+00 0.  1.
          2    1    6    6  503    0 -0.19268304059E+03  0.14869456152E+03  0.24386335321E+03  0.34453760578E+03  0.00000000000E+00 0. -1.
         -2    1    6    6    0  503 -0.27259539484E+03  0.37883684308E+03  0.51036153489E+03  0.69158838861E+03  0.00000000000E+00 0.  1.
<mgrwt>
<rscale>  0 0.14711632E+04</rscale>
<asrwt>0</asrwt>
<pdfrwt beam="1">  1        1 0.26878457E+00 0.14711632E+04</pdfrwt>
<pdfrwt beam="2">  1       -2 0.47646464E-01 0.14711632E+04</pdfrwt>
<totfact> 0.15725882E+01</totfact>
</mgrwt>
</event>
<event>
12    5  0.5428626E-008  0.2366495E+04  0.7818608E-02  0.8452155E-01
          1   -1    0    0  501    0  0.00000000000E+00  0.00000000000E+00  0.14521305765E+04  0.14521305765E+04  0.00000000000E+00 0. -1.
         -2   -1    0    0    0  501 -0.00000000000E+00 -0.00000000000E+00 -0.96415180286E+03  0.96415180286E+03  0.00000000000E+00 0.  1.
        -24    2    1    2    0    0 -0.13829856402E+03 -0.81763026841E+03 -0.38064129757E+03  0.91594085675E+03  0.80088120373E+02 0.  0.
        254    2    1    2    0    0  0.13829856402E+03  0.81763026841E+03  0.86862007123E+03  0.15003415226E+04  0.89937651057E+03 0.  0.
         23    2    4    4    0    0 -0.30580875650E+03  0.46579370910E+02  0.16373001607E+03  0.36169436867E+03  0.91250560659E+02 0.  0.
         23    2    4    4    0    0  0.44410732052E+03  0.77105089750E+03  0.70489005516E+03  0.11386471540E+04  0.88862549370E+02 0.  0.
          1    1    3    3  502    0 -0.28791081540E+01 -0.17043528913E+03 -0.10009231431E+03  0.19767384356E+03  0.00000000000E+00 0. -1.
         -2    1    3    3    0  502 -0.13541945586E+03 -0.64719497927E+03 -0.28054898327E+03  0.71826701319E+03  0.00000000000E+00 0.  1.
         13    1    5    5    0    0 -0.20392541998E+03  0.38049994192E+02  0.15524518161E+03  0.25910315587E+03  0.00000000000E+00 0. -1.
        -13    1    5    5    0    0 -0.10188333653E+03  0.85293767178E+01  0.84848344685E+01  0.10259121281E+03  0.00000000000E+00 0.  1.
          3    1    6    6  503    0  0.33809445241E+03  0.65200503866E+03  0.56642356124E+03  0.92749883014E+03  0.00000000000E+00 0. -1.
         -3    1    6    6    0  503  0.10601286811E+03  0.11904585884E+03  0.13846649393E+03  0.21114832381E+03  0.00000000000E+00 0.  1.
<mgrwt>
<rscale>  0 0.23664947E+04</rscale>
<asrwt>0</asrwt>
<pdfrwt beam="1">  1        1 0.22340470E+00 0.23664947E+04</pdfrwt>
<pdfrwt beam="2">  1       -2 0.14833105E+00 0.23664947E+04</pdfrwt>
<totfact> 0.17200250E+00</totfact>
</mgrwt>
</event>
<event>
12    5  0.5428626E-008  0.1993987E+04  0.7818608E-02  0.8609437E-01
         -2   -1    0    0    0  501 -0.00000000000E+00  0.00000000000E+00  0.82177360895E+03  0.82177360895E+03  0.00000000000E+00 0.  1.
          1   -1    0    0  501    0  0.00000000000E+00 -0.00000000000E+00 -0.12095735756E+04  0.12095735756E+04  0.00000000000E+00 0. -1.
        -24    2    1    2    0    0 -0.14798240542E+03 -0.42614895957E+03 -0.82439406606E+03  0.94324696533E+03  0.81163621029E+02 0.  0.
        254    2    1    2    0    0  0.14798240542E+03  0.42614895957E+03  0.43659409943E+03  0.10881002192E+04  0.88873277836E+03 0.  0.
         23    2    4    4    0    0 -0.30913853974E+03  0.48363195299E+02 -0.27843317257E+02  0.32940927445E+03  0.99144260362E+02 0.  0.
         23    2    4    4    0    0  0.45712094516E+03  0.37778576427E+03  0.46443741669E+03  0.75869094477E+03  0.90709390122E+02 0.  0.
          3    1    3    3  502    0  0.18277806763E+01 -0.67231646282E+02 -0.91629337956E+02  0.11366340932E+03  0.00000000000E+00 0. -1.
         -4    1    3    3    0  502 -0.14981018610E+03 -0.35891731329E+03 -0.73276472811E+03  0.82958355601E+03  0.00000000000E+00 0.  1.
         13    1    5    5    0    0 -0.11441554238E+03  0.38493285262E+02  0.33030094513E+02  0.12515445055E+03  0.00000000000E+00 0. -1.
        -13    1    5    5    0    0 -0.19472299736E+03  0.98699100370E+01 -0.60873411770E+02  0.20425482390E+03  0.00000000000E+00 0.  1.
          3    1    6    6  503    0  0.15447655416E+03  0.15899181474E+03  0.22025907849E+03  0.31249874336E+03  0.00000000000E+00 0. -1.
         -3    1    6    6    0  503  0.30264439100E+03  0.21879394953E+03  0.24417833820E+03  0.44619220141E+03  0.00000000000E+00 0.  1.
<mgrwt>
<rscale>  0 0.19939866E+04</rscale>
<asrwt>0</asrwt>
<pdfrwt beam="1">  1        1 0.18608824E+00 0.19939866E+04</pdfrwt>
<pdfrwt beam="2">  1       -2 0.12642671E+00 0.19939866E+04</pdfrwt>
<totfact> 0.39892612E+00</totfact>
</mgrwt>
</event>
<event>
12    5  0.5428626E-008  0.1588233E+04  0.7818608E-02  0.8827809E-01
         -2   -1    0    0    0  501 -0.00000000000E+00  0.00000000000E+00  0.43913531425E+03  0.43913531425E+03  0.00000000000E+00 0.  1.
          1   -1    0    0  501    0  0.00000000000E+00 -0.00000000000E+00 -0.14360524042E+04  0.14360524042E+04  0.00000000000E+00 0. -1.
        -24    2    1    2    0    0 -0.21620195744E+03  0.44071139523E+03 -0.23805948143E+03  0.55127338619E+03  0.79121484670E+02 0.  0.
        254    2    1    2    0    0  0.21620195744E+03 -0.44071139523E+03 -0.75885760851E+03  0.13239143322E+04  0.96742672531E+03 0.  0.
         23    2    4    4    0    0 -0.21147882164E+02 -0.27389054799E+03  0.17689623737E+03  0.33922423432E+03  0.91200532674E+02 0.  0.
         23    2    4    4    0    0  0.23734983961E+03 -0.16682084724E+03 -0.93575384588E+03  0.98469009793E+03  0.99071627808E+02 0.  0.
          1    1    3    3  502    0 -0.26372604411E+02  0.13335852245E+03 -0.62312174226E+02  0.14954202363E+03  0.00000000000E+00 0. -1.
         -2    1    3    3    0  502 -0.18982935303E+03  0.30735287278E+03 -0.17574730720E+03  0.40173136256E+03  0.00000000000E+00 0.  1.
         13    1    5    5    0    0 -0.13235503852E+02 -0.18437820370E+03  0.16646561644E+03  0.24875952649E+03  0.00000000000E+00 0.  1.
        -13    1    5    5    0    0 -0.79123783122E+01 -0.89512344281E+02  0.10430620923E+02  0.90464707826E+02  0.00000000000E+00 0. -1.
          3    1    6    6  503    0  0.16069247963E+02  0.11858481742E+02 -0.37526809802E+02  0.42510066728E+02  0.00000000000E+00 0. -1.
         -3    1    6    6    0  503  0.22128059164E+03 -0.17867932898E+03 -0.89822703608E+03  0.94218003120E+03  0.00000000000E+00 0.  1.
<mgrwt>
<rscale>  0 0.15882334E+04</rscale>
<asrwt>0</asrwt>
<pdfrwt beam="1">  1        1 0.22093114E+00 0.15882334E+04</pdfrwt>
<pdfrwt beam="2">  1       -2 0.67559280E-01 0.15882334E+04</pdfrwt>
<totfact> 0.12267134E+01</totfact>
</mgrwt>
</event>
<event>
12    5  0.5428626E-008  0.1395864E+04  0.7818608E-02  0.8956818E-01
         -2   -1    0    0    0  501 -0.00000000000E+00  0.00000000000E+00  0.25460909906E+04  0.25460909906E+04  0.00000000000E+00 0.  1.
          1   -1    0    0  501    0  0.00000000000E+00 -0.00000000000E+00 -0.19131657091E+03  0.19131657091E+03  0.00000000000E+00 0. -1.
        -24    2    1    2    0    0  0.23749290936E+03  0.23023100996E+03  0.11136204409E+04  0.11644210384E+04  0.79477470215E+02 0.  0.
        254    2    1    2    0    0 -0.23749290936E+03 -0.23023100996E+03  0.12411539787E+04  0.15729865231E+04  0.90797257827E+03 0.  0.
         23    2    4    4    0    0  0.69437833623E+02 -0.41828238455E+03  0.10880715945E+04  0.11714663041E+04  0.93014735631E+02 0.  0.
         23    2    4    4    0    0 -0.30693074299E+03  0.18805137459E+03  0.15308238426E+03  0.40152021894E+03  0.90633709913E+02 0.  0.
          3    1    3    3  502    0  0.10110487137E+02 -0.64372913206E+01  0.39397076475E+02  0.41179974556E+02  0.00000000000E+00 0. -1.
         -4    1    3    3    0  502  0.22738242223E+03  0.23666830128E+03  0.10742233645E+04  0.11232410639E+04  0.00000000000E+00 0.  1.
         13    1    5    5    0    0  0.34868945325E+02 -0.15618364551E+03  0.53566177814E+03  0.55905519856E+03  0.00000000000E+00 0. -1.
        -13    1    5    5    0    0  0.34568888298E+02 -0.26209873905E+03  0.55240981633E+03  0.61241110557E+03  0.00000000000E+00 0.  1.
          1    1    6    6  503    0 -0.13199768332E+03  0.37262943817E+02  0.32370901500E+02  0.14092476946E+03  0.00000000000E+00 0. -1.
         -1    1    6    6    0  503 -0.17493305966E+03  0.15078843078E+03  0.12071148276E+03  0.26059544948E+03  0.00000000000E+00 0.  1.
<mgrwt>
<rscale>  0 0.13958645E+04</rscale>
<asrwt>0</asrwt>
<pdfrwt beam="1">  1        1 0.29433320E-01 0.13958645E+04</pdfrwt>
<pdfrwt beam="2">  1       -2 0.39170628E+00 0.13958645E+04</pdfrwt>
<totfact> 0.11407232E+00</totfact>
</mgrwt>
</event>
<event>
12    5  0.5428626E-008  0.2257569E+04  0.7818608E-02  0.8494841E-01
          1   -1    0    0  501    0  0.00000000000E+00  0.00000000000E+00  0.17827902071E+04  0.17827902071E+04  0.00000000000E+00 0. -1.
         -2   -1    0    0    0  501 -0.00000000000E+00 -0.00000000000E+00 -0.71469694980E+03  0.71469694980E+03  0.00000000000E+00 0.  1.
        -24    2    1    2    0    0  0.24803499209E+03 -0.28473456760E+03 -0.51150843638E+03  0.64074484237E+03  0.79485478231E+02 0.  0.
        254    2    1    2    0    0 -0.24803499209E+03  0.28473456760E+03  0.15796016937E+04  0.18567423146E+04  0.89986409006E+03 0.  0.
         23    2    4    4    0    0  0.41979714520E+02 -0.29863250809E+03  0.57756246217E+03  0.65809466264E+03  0.92555475073E+02 0.  0.
         23    2    4    4    0    0 -0.29001470661E+03  0.58336707569E+03  0.10020392315E+04  0.11986476519E+04  0.90817932351E+02 0.  0.
          3    1    3    3  502    0  0.46184761795E+02 -0.71477521036E+02 -0.17178122723E+03  0.19170513364E+03  0.00000000000E+00 0. -1.
         -4    1    3    3    0  502  0.20185023030E+03 -0.21325704656E+03 -0.33972720915E+03  0.44903970873E+03  0.00000000000E+00 0.  1.
         13    1    5    5    0    0  0.46901175127E+02 -0.13223220267E+03  0.34185867886E+03  0.36953001497E+03  0.00000000000E+00 0. -1.
        -13    1    5    5    0    0 -0.49214606078E+01 -0.16640030542E+03  0.23570378331E+03  0.28856464767E+03  0.00000000000E+00 0.  1.
          2    1    6    6  503    0 -0.31134826642E+02  0.19522895819E+02  0.68592328761E+02  0.77816633544E+02  0.00000000000E+00 0. -1.
         -2    1    6    6    0  503 -0.25887987997E+03  0.56384417987E+03  0.93344690279E+03  0.11208310184E+04  0.00000000000E+00 0.  1.
<mgrwt>
<rscale>  0 0.22575692E+04</rscale>
<asrwt>0</asrwt>
<pdfrwt beam="1">  1        1 0.27427541E+00 0.22575692E+04</pdfrwt>
<pdfrwt beam="2">  1       -2 0.10995338E+00 0.22575692E+04</pdfrwt>
<totfact> 0.21932622E+00</totfact>
</mgrwt>
</event>
<event>
12    5  0.5428626E-008  0.2542658E+04  0.7818608E-02  0.8387944E-01
         -2   -1    0    0    0  501 -0.00000000000E+00  0.00000000000E+00  0.13909350682E+04  0.13909350682E+04  0.00000000000E+00 0.  1.
          1   -1    0    0  501    0  0.00000000000E+00 -0.00000000000E+00 -0.11620077431E+04  0.11620077431E+04  0.00000000000E+00 0. -1.
        -24    2    1    2    0    0 -0.12360193418E+03  0.95014668575E+03 -0.45256367697E+03  0.10626131306E+04  0.79225128226E+02 0.  0.
        254    2    1    2    0    0  0.12360193418E+03 -0.95014668575E+03  0.68149100203E+03  0.14903296807E+04  0.91574909711E+03 0.  0.
         23    2    4    4    0    0 -0.38840987936E+03 -0.35132743747E+03  0.29718249700E+03  0.60894951267E+03  0.90602813149E+02 0.  0.
         23    2    4    4    0    0  0.51201181354E+03 -0.59881924828E+03  0.38430850504E+03  0.88138016807E+03  0.91637243009E+02 0.  0.
          1    1    3    3  502    0 -0.85506446228E+02  0.81309339726E+03 -0.40674417052E+03  0.91316649372E+03  0.00000000000E+00 0. -1.
         -2    1    3    3    0  502 -0.38095487951E+02  0.13705328849E+03 -0.45819506454E+02  0.14944663683E+03  0.00000000000E+00 0.  1.
         13    1    5    5    0    0 -0.28560171310E+03 -0.29157284812E+03  0.19578380890E+03  0.45267467801E+03  0.00000000000E+00 0.  1.
        -13    1    5    5    0    0 -0.10280816626E+03 -0.59754589350E+02  0.10139868809E+03  0.15627483465E+03  0.00000000000E+00 0. -1.
          4    1    6    6  503    0  0.46558960859E+03 -0.55373669107E+03  0.32319142967E+03  0.79237030918E+03  0.00000000000E+00 0. -1.
         -4    1    6    6    0  503  0.46422204945E+02 -0.45082557208E+02  0.61117075371E+02  0.89009858883E+02  0.00000000000E+00 0.  1.
<mgrwt>
<rscale>  0 0.25426579E+04</rscale>
<asrwt>0</asrwt>
<pdfrwt beam="1">  1        1 0.17877042E+00 0.25426579E+04</pdfrwt>
<pdfrwt beam="2">  1       -2 0.21399001E+00 0.25426579E+04</pdfrwt>
<totfact> 0.95532901E-01</totfact>
</mgrwt>
</event>
<event>
12    5  0.5428626E-008  0.4124341E+04  0.7818608E-02  0.7979922E-01
         -2   -1    0    0    0  501 -0.00000000000E+00  0.00000000000E+00  0.16026338529E+04  0.16026338529E+04  0.00000000000E+00 0.  1.
          1   -1    0    0  501    0  0.00000000000E+00 -0.00000000000E+00 -0.26534736525E+04  0.26534736525E+04  0.00000000000E+00 0. -1.
        -24    2    1    2    0    0 -0.10817883543E+04 -0.10017654065E+04 -0.17597264686E+04  0.22970168091E+04  0.76478780555E+02 0.  0.
        254    2    1    2    0    0  0.10817883543E+04  0.10017654065E+04  0.70888666900E+03  0.19590906963E+04  0.10778293342E+04 0.  0.
         23    2    4    4    0    0  0.86646487164E+02  0.63660921377E+03  0.61100578441E+03  0.89126036288E+03  0.90763765141E+02 0.  0.
         23    2    4    4    0    0  0.99514186713E+03  0.36515619275E+03  0.97880884598E+02  0.10678303334E+04  0.83872359226E+02 0.  0.
          1    1    3    3  502    0 -0.10622031506E+04 -0.96939405357E+03 -0.17233052074E+04  0.22445002120E+04  0.00000000000E+00 0. -1.
         -2    1    3    3    0  502 -0.19585203727E+02 -0.32371352954E+02 -0.36421261222E+02  0.52516597054E+02  0.00000000000E+00 0.  1.
         13    1    5    5    0    0  0.12041107853E+02  0.22225273603E+03  0.15891306672E+03  0.27348606861E+03  0.00000000000E+00 0. -1.
        -13    1    5    5    0    0  0.74605379311E+02  0.41435647774E+03  0.45209271769E+03  0.61777429426E+03  0.00000000000E+00 0.  1.
          2    1    6    6  503    0  0.82141084879E+03  0.27270345146E+03  0.98040512289E+02  0.87103093917E+03  0.00000000000E+00 0. -1.
         -2    1    6    6    0  503  0.17373101834E+03  0.92452741291E+02 -0.15962769149E+00  0.19679939428E+03  0.00000000000E+00 0.  1.
<mgrwt>
<rscale>  0 0.41243408E+04</rscale>
<asrwt>0</asrwt>
<pdfrwt beam="1">  1        1 0.40822671E+00 0.41243408E+04</pdfrwt>
<pdfrwt beam="2">  1       -2 0.24655906E+00 0.41243408E+04</pdfrwt>
<totfact> 0.48685006E-02</totfact>
</mgrwt>
</event>
<event>
12    5  0.5428626E-008  0.1954671E+04  0.7818608E-02  0.8628112E-01
          1   -1    0    0  501    0  0.00000000000E+00  0.00000000000E+00  0.89700823931E+03  0.89700823931E+03  0.00000000000E+00 0. -1.
         -2   -1    0    0    0  501 -0.00000000000E+00 -0.00000000000E+00 -0.10648562976E+04  0.10648562976E+04  0.00000000000E+00 0.  1.
        -24    2    1    2    0    0  0.76655396827E+02  0.16920018178E+03  0.68200778373E+03  0.71146655313E+03  0.80902952853E+02 0.  0.
        254    2    1    2    0    0 -0.76655396827E+02 -0.16920018178E+03 -0.84985584207E+03  0.12503979838E+04  0.89818451016E+03 0.  0.
         23    2    4    4    0    0  0.14079258451E+03 -0.16972000306E+03  0.10767441674E+03  0.26455116862E+03  0.98823628290E+02 0.  0.
         23    2    4    4    0    0 -0.21744798133E+03  0.51982128555E+00 -0.95753025881E+03  0.98584681520E+03  0.88010520472E+02 0.  0.
          1    1    3    3  502    0  0.53949894082E+02  0.92403941953E+02  0.51819386476E+03  0.52912565713E+03  0.00000000000E+00 0. -1.
         -2    1    3    3    0  502  0.22705502745E+02  0.76796239823E+02  0.16381391898E+03  0.18234089601E+03  0.00000000000E+00 0.  1.
         13    1    5    5    0    0  0.13455343203E+03 -0.10471085188E+03  0.10273576323E+03  0.19905684017E+03  0.00000000000E+00 0. -1.
        -13    1    5    5    0    0  0.62391524763E+01 -0.65009151182E+02  0.49386535112E+01  0.65494328453E+02  0.00000000000E+00 0.  1.
          2    1    6    6  503    0 -0.12813264469E+03 -0.37959034661E+02 -0.46575838588E+03  0.48455106744E+03  0.00000000000E+00 0. -1.
         -2    1    6    6    0  503 -0.89315336647E+02  0.38478855947E+02 -0.49177187293E+03  0.50129574776E+03  0.00000000000E+00 0.  1.
<mgrwt>
<rscale>  0 0.19546712E+04</rscale>
<asrwt>0</asrwt>
<pdfrwt beam="1">  1        1 0.13800127E+00 0.19546712E+04</pdfrwt>
<pdfrwt beam="2">  1       -2 0.16382404E+00 0.19546712E+04</pdfrwt>
<totfact> 0.35255784E+00</totfact>
</mgrwt>
</event>
<event>
12    5  0.5428626E-008  0.1085360E+04  0.7818608E-02  0.9219580E-01
         -2   -1    0    0    0  501 -0.00000000000E+00  0.00000000000E+00  0.53146779468E+03  0.53146779468E+03  0.00000000000E+00 0.  1.
          1   -1    0    0  501    0  0.00000000000E+00 -0.00000000000E+00 -0.55412827247E+03  0.55412827247E+03  0.00000000000E+00 0. -1.
        -24    2    1    2    0    0  0.72059147063E+02 -0.69928857567E+02  0.10514443775E+03  0.16498734234E+03  0.77992977558E+02 0.  0.
        254    2    1    2    0    0 -0.72059147063E+02  0.69928857567E+02 -0.12780491554E+03  0.92060872480E+03  0.90614775944E+03 0.  0.
         23    2    4    4    0    0  0.19788095327E+03 -0.32059922415E+03  0.78550816296E+02  0.39565931339E+03  0.91844038103E+02 0.  0.
         23    2    4    4    0    0 -0.26994010033E+03  0.39052808172E+03 -0.20635573184E+03  0.52494941141E+03  0.87231623268E+02 0.  0.
          1    1    3    3  502    0  0.30750715308E+02  0.11289551737E+02  0.12555075259E+02  0.35081197031E+02  0.00000000000E+00 0. -1.
         -2    1    3    3    0  502  0.41308431755E+02 -0.81218409304E+02  0.92589362489E+02  0.12990614531E+03  0.00000000000E+00 0.  1.
         13    1    5    5    0    0  0.19745646916E+03 -0.32664849372E+03  0.76726095359E+02  0.38932658447E+03  0.00000000000E+00 0.  1.
        -13    1    5    5    0    0  0.42448410576E+00  0.60492695681E+01  0.18247209366E+01  0.63327289189E+01  0.00000000000E+00 0. -1.
          1    1    6    6  503    0 -0.26671189862E+02  0.73260415046E+02 -0.72074929843E+01  0.78296799019E+02  0.00000000000E+00 0. -1.
         -1    1    6    6    0  503 -0.24326891047E+03  0.31726766668E+03 -0.19914823885E+03  0.44665261239E+03  0.00000000000E+00 0.  1.
<mgrwt>
<rscale>  0 0.10853595E+04</rscale>
<asrwt>0</asrwt>
<pdfrwt beam="1">  1        1 0.85250504E-01 0.10853595E+04</pdfrwt>
<pdfrwt beam="2">  1       -2 0.81764276E-01 0.10853595E+04</pdfrwt>
<totfact> 0.44096447E+01</totfact>
</mgrwt>
</event>
<event>
12    5  0.5428626E-008  0.1184357E+04  0.7818608E-02  0.9126660E-01
         -2   -1    0    0    0  501 -0.00000000000E+00  0.00000000000E+00  0.88688114879E+03  0.88688114879E+03  0.00000000000E+00 0.  1.
          1   -1    0    0  501    0  0.00000000000E+00 -0.00000000000E+00 -0.39540269236E+03  0.39540269236E+03  0.00000000000E+00 0. -1.
        -24    2    1    2    0    0  0.99266971962E+02  0.64622521477E+02 -0.12486002819E+03  0.18821225290E+03  0.76182829419E+02 0.  0.
        254    2    1    2    0    0 -0.99266971962E+02 -0.64622521477E+02  0.61633848462E+03  0.10940715882E+04  0.89615261568E+03 0.  0.
         23    2    4    4    0    0 -0.17083599651E+03  0.15571943239E+03  0.76401596954E+03  0.80297619029E+03  0.87274745077E+02 0.  0.
         23    2    4    4    0    0  0.71569024547E+02 -0.22034195387E+03 -0.14767748492E+03  0.29109539796E+03  0.96203894165E+02 0.  0.
          1    1    3    3  502    0  0.32587120200E+02  0.57390106743E+02 -0.92795735136E+02  0.11387094983E+03  0.00000000000E+00 0. -1.
         -2    1    3    3    0  502  0.66679851762E+02  0.72324147343E+01 -0.32064293051E+02  0.74341303074E+02  0.00000000000E+00 0.  1.
         13    1    5    5    0    0 -0.72667979296E+02  0.60386564417E+02  0.45970084916E+03  0.46931017792E+03  0.00000000000E+00 0.  1.
        -13    1    5    5    0    0 -0.98168017213E+02  0.95332867974E+02  0.30431512038E+03  0.33366601237E+03  0.00000000000E+00 0. -1.
          1    1    6    6  503    0  0.74677283608E+02 -0.11205939884E+03 -0.45388274083E+02  0.14210594984E+03  0.00000000000E+00 0. -1.
         -1    1    6    6    0  503 -0.31082590613E+01 -0.10828255503E+03 -0.10228921084E+03  0.14898944812E+03  0.00000000000E+00 0.  1.
<mgrwt>
<rscale>  0 0.11843567E+04</rscale>
<asrwt>0</asrwt>
<pdfrwt beam="1">  1        1 0.60831184E-01 0.11843567E+04</pdfrwt>
<pdfrwt beam="2">  1       -2 0.13644325E+00 0.11843567E+04</pdfrwt>
<totfact> 0.20231641E+01</totfact>
</mgrwt>
</event>
<event>
12    5  0.5428626E-008  0.1729733E+04  0.7818608E-02  0.8744586E-01
          3   -1    0    0  501    0  0.00000000000E+00  0.00000000000E+00  0.90536599949E+03  0.90536599949E+03  0.00000000000E+00 0. -1.
         -4   -1    0    0    0  501 -0.00000000000E+00 -0.00000000000E+00 -0.82617889284E+03  0.82617889284E+03  0.00000000000E+00 0.  1.
        -24    2    1    2    0    0 -0.31716955900E+03 -0.30878879166E+03  0.47672779683E+03  0.65552901918E+03  0.80634085319E+02 0.  0.
        254    2    1    2    0    0  0.31716955900E+03  0.30878879166E+03 -0.39754069018E+03  0.10760158732E+04  0.89656260903E+03 0.  0.
         23    2    4    4    0    0  0.30571894820E+03  0.57193016268E+03 -0.44711675923E+03  0.79293951008E+03  0.90947699230E+02 0.  0.
         23    2    4    4    0    0  0.11450610797E+02 -0.26314137103E+03  0.49576069046E+02  0.28307636307E+03  0.91104023358E+02 0.  0.
          1    1    3    3  502    0 -0.22409785247E+03 -0.25325813002E+03  0.39372506089E+03  0.51901729401E+03  0.00000000000E+00 0. -1.
         -2    1    3    3    0  502 -0.93071706529E+02 -0.55530661633E+02  0.83002735933E+02  0.13651172517E+03  0.00000000000E+00 0.  1.
         13    1    5    5    0    0  0.26786142424E+03  0.52827867603E+03 -0.43230279253E+03  0.73328971531E+03  0.00000000000E+00 0. -1.
        -13    1    5    5    0    0  0.37857523966E+02  0.43651486649E+02 -0.14813966692E+02  0.59649794774E+02  0.00000000000E+00 0.  1.
          2    1    6    6  503    0 -0.13549159344E+02 -0.19845160363E+03  0.19097944739E+01  0.19892276395E+03  0.00000000000E+00 0. -1.
         -2    1    6    6    0  503  0.24999770141E+02 -0.64689767396E+02  0.47666274572E+02  0.84153599118E+02  0.00000000000E+00 0.  1.
<mgrwt>
<rscale>  0 0.17297333E+04</rscale>
<asrwt>0</asrwt>
<pdfrwt beam="1">  1        3 0.13928708E+00 0.17297333E+04</pdfrwt>
<pdfrwt beam="2">  1       -4 0.12710444E+00 0.17297333E+04</pdfrwt>
<totfact> 0.38950336E-01</totfact>
</mgrwt>
</event>
<event>
12    5  0.5428626E-008  0.2581124E+04  0.7818608E-02  0.8374641E-01
          1   -1    0    0  501    0  0.00000000000E+00  0.00000000000E+00  0.18404993019E+04  0.18404993019E+04  0.00000000000E+00 0. -1.
         -2   -1    0    0    0  501 -0.00000000000E+00 -0.00000000000E+00 -0.90494476910E+03  0.90494476910E+03  0.00000000000E+00 0.  1.
        -24    2    1    2    0    0 -0.52965907586E+03  0.99555029931E+03  0.34734165142E+03  0.11830131102E+04  0.84939160993E+02 0.  0.
        254    2    1    2    0    0  0.52965907586E+03 -0.99555029931E+03  0.58821288143E+03  0.15624309608E+04  0.90748938194E+03 0.  0.
         23    2    4    4    0    0  0.64799841387E+02  0.16249199010E+03  0.63358789816E+02  0.20597633389E+03  0.88369947311E+02 0.  0.
         23    2    4    4    0    0  0.46485923447E+03 -0.11580422894E+04  0.52485409161E+03  0.13564546269E+04  0.85681301825E+02 0.  0.
          1    1    3    3  502    0 -0.38953335611E+03  0.79579421800E+03  0.29110505234E+03  0.93261290171E+03  0.00000000000E+00 0. -1.
         -2    1    3    3    0  502 -0.14012571974E+03  0.19975608131E+03  0.56236599087E+02  0.25040020853E+03  0.00000000000E+00 0.  1.
         13    1    5    5    0    0  0.52669774231E+02  0.85438337154E+02  0.77366911018E+02  0.12672589906E+03  0.00000000000E+00 0.  1.
        -13    1    5    5    0    0  0.12130067156E+02  0.77053652942E+02 -0.14008121201E+02  0.79250434828E+02  0.00000000000E+00 0. -1.
          3    1    6    6  503    0  0.66059605987E+02 -0.15912068116E+03  0.10541201491E+03  0.20197761164E+03  0.00000000000E+00 0. -1.
         -3    1    6    6    0  503  0.39879962848E+03 -0.99892160825E+03  0.41944207670E+03  0.11544770153E+04  0.00000000000E+00 0.  1.
<mgrwt>
<rscale>  0 0.25811240E+04</rscale>
<asrwt>0</asrwt>
<pdfrwt beam="1">  1        1 0.28315374E+00 0.25811240E+04</pdfrwt>
<pdfrwt beam="2">  1       -2 0.13922227E+00 0.25811240E+04</pdfrwt>
<totfact> 0.10800808E+00</totfact>
</mgrwt>
</event>
<event>
12    5  0.5428626E-008  0.2162134E+04  0.7818608E-02  0.8534356E-01
          1   -1    0    0  501    0  0.00000000000E+00  0.00000000000E+00  0.11090753496E+04  0.11090753496E+04  0.00000000000E+00 0. -1.
         -2   -1    0    0    0  501 -0.00000000000E+00 -0.00000000000E+00 -0.10537655946E+04  0.10537655946E+04  0.00000000000E+00 0.  1.
        -24    2    1    2    0    0 -0.39896216138E+03  0.60617781961E+03  0.54577481645E+03  0.91152536096E+03  0.79912315678E+02 0.  0.
        254    2    1    2    0    0  0.39896216138E+03 -0.60617781961E+03 -0.49046506147E+03  0.12513155832E+04  0.89365113834E+03 0.  0.
         23    2    4    4    0    0  0.30890776033E+03 -0.77403309625E+03 -0.58260077183E+03  0.10212750039E+04  0.95014397500E+02 0.  0.
         23    2    4    4    0    0  0.90054401052E+02  0.16785527664E+03  0.92135710360E+02  0.23004057933E+03  0.90246828024E+02 0.  0.
          1    1    3    3  502    0 -0.12368138768E+03  0.16960444196E+03  0.11556626156E+03  0.23962118688E+03  0.00000000000E+00 0. -1.
         -2    1    3    3    0  502 -0.27528077371E+03  0.43657337765E+03  0.43020855489E+03  0.67190417407E+03  0.00000000000E+00 0.  1.
         13    1    5    5    0    0  0.39596202163E+02 -0.18709151405E+03 -0.16174429082E+03  0.25046418800E+03  0.00000000000E+00 0.  1.
        -13    1    5    5    0    0  0.26931155817E+03 -0.58694158220E+03 -0.42085648101E+03  0.77081081589E+03  0.00000000000E+00 0. -1.
          1    1    6    6  503    0  0.10526155860E+03  0.13528746811E+03  0.91018258881E+02  0.19407992734E+03  0.00000000000E+00 0. -1.
         -1    1    6    6    0  503 -0.15207157552E+02  0.32567808532E+02  0.11174514797E+01  0.35960651985E+02  0.00000000000E+00 0.  1.
<mgrwt>
<rscale>  0 0.21621336E+04</rscale>
<asrwt>0</asrwt>
<pdfrwt beam="1">  1        1 0.17062698E+00 0.21621336E+04</pdfrwt>
<pdfrwt beam="2">  1       -2 0.16211779E+00 0.21621336E+04</pdfrwt>
<totfact> 0.24330133E+00</totfact>
</mgrwt>
</event>
<event>
12    5  0.5428626E-008  0.1840458E+04  0.7818608E-02  0.8685075E-01
          1   -1    0    0  501    0  0.00000000000E+00  0.00000000000E+00  0.11365847626E+04  0.11365847626E+04  0.00000000000E+00 0. -1.
         -2   -1    0    0    0  501 -0.00000000000E+00 -0.00000000000E+00 -0.74505800092E+03  0.74505800092E+03  0.00000000000E+00 0.  1.
        -24    2    1    2    0    0 -0.11402057219E+03  0.20500228494E+03 -0.51837609459E+03  0.57470075406E+03  0.80873688924E+02 0.  0.
        254    2    1    2    0    0  0.11402057219E+03 -0.20500228494E+03  0.90990285628E+03  0.13069420095E+04  0.90837634301E+03 0.  0.
         23    2    4    4    0    0  0.84853183676E+02  0.34109288542E+03  0.49345063303E+03  0.61352172339E+03  0.96803711560E+02 0.  0.
         23    2    4    4    0    0  0.29167388513E+02 -0.54609517036E+03  0.41645222325E+03  0.69342028608E+03  0.91260984301E+02 0.  0.
          1    1    3    3  502    0 -0.20592057098E+01  0.28226002301E+02 -0.21436694737E+02  0.35503231055E+02  0.00000000000E+00 0. -1.
         -2    1    3    3    0  502 -0.11196136648E+03  0.17677628264E+03 -0.49693939985E+03  0.53919752301E+03  0.00000000000E+00 0.  1.
         13    1    5    5    0    0  0.50213954830E+02  0.51935096276E+02  0.79856439339E+02  0.10768354744E+03  0.00000000000E+00 0. -1.
        -13    1    5    5    0    0  0.34639228846E+02  0.28915778914E+03  0.41359419369E+03  0.50583817595E+03  0.00000000000E+00 0.  1.
          3    1    6    6  503    0 -0.57506335434E+01 -0.42420814447E+03  0.28690782456E+03  0.51215399970E+03  0.00000000000E+00 0. -1.
         -3    1    6    6    0  503  0.34918022057E+02 -0.12188702590E+03  0.12954439869E+03  0.18126628638E+03  0.00000000000E+00 0.  1.
<mgrwt>
<rscale>  0 0.18404582E+04</rscale>
<asrwt>0</asrwt>
<pdfrwt beam="1">  1        1 0.17485920E+00 0.18404582E+04</pdfrwt>
<pdfrwt beam="2">  1       -2 0.11462431E+00 0.18404582E+04</pdfrwt>
<totfact> 0.58346091E+00</totfact>
</mgrwt>
</event>
<event>
12    5  0.5428626E-008  0.1071514E+04  0.7818608E-02  0.9233410E-01
          1   -1    0    0  501    0  0.00000000000E+00  0.00000000000E+00  0.80928097070E+03  0.80928097070E+03  0.00000000000E+00 0. -1.
         -2   -1    0    0    0  501 -0.00000000000E+00 -0.00000000000E+00 -0.35467987334E+03  0.35467987334E+03  0.00000000000E+00 0.  1.
        -24    2    1    2    0    0 -0.13791736251E+03 -0.17849350268E+02  0.10432873106E+02  0.16050361095E+03  0.79452917511E+02 0.  0.
        254    2    1    2    0    0  0.13791736251E+03  0.17849350268E+02  0.44416822425E+03  0.10034572331E+04  0.88898886889E+03 0.  0.
         23    2    4    4    0    0  0.54419326158E+02 -0.31933951077E+03 -0.10007192215E+03  0.35130900108E+03  0.92002382784E+02 0.  0.
         23    2    4    4    0    0  0.83498036351E+02  0.33718886103E+03  0.54424014640E+03  0.65214823201E+03  0.91824449244E+02 0.  0.
          1    1    3    3  502    0 -0.13244563645E+03 -0.12214889485E+02  0.32635273374E+02  0.13695295253E+03  0.00000000000E+00 0. -1.
         -2    1    3    3    0  502 -0.54717260637E+01 -0.56344607832E+01 -0.22202400269E+02  0.23550658422E+02  0.00000000000E+00 0.  1.
         13    1    5    5    0    0  0.74386580679E+02 -0.24268616966E+03 -0.97936578362E+02  0.27206895029E+03  0.00000000000E+00 0.  1.
        -13    1    5    5    0    0 -0.19967254521E+02 -0.76653341104E+02 -0.21353437895E+01  0.79240050786E+02  0.00000000000E+00 0. -1.
          1    1    6    6  503    0  0.64640326399E+02  0.11298103722E+03  0.15351989258E+03  0.20127454878E+03  0.00000000000E+00 0. -1.
         -1    1    6    6    0  503  0.18857709952E+02  0.22420782381E+03  0.39072025383E+03  0.45087368324E+03  0.00000000000E+00 0.  1.
<mgrwt>
<rscale>  0 0.10715142E+04</rscale>
<asrwt>0</asrwt>
<pdfrwt beam="1">  1        1 0.12450476E+00 0.10715142E+04</pdfrwt>
<pdfrwt beam="2">  1       -2 0.54566134E-01 0.10715142E+04</pdfrwt>
<totfact> 0.60003884E+01</totfact>
</mgrwt>
</event>
<event>
12    5  0.5428626E-008  0.1901132E+04  0.7818608E-02  0.8654293E-01
         -2   -1    0    0    0  501 -0.00000000000E+00  0.00000000000E+00  0.92905293829E+03  0.92905293829E+03  0.00000000000E+00 0.  1.
          1   -1    0    0  501    0  0.00000000000E+00 -0.00000000000E+00 -0.97257693873E+03  0.97257693873E+03  0.00000000000E+00 0. -1.
        -24    2    1    2    0    0  0.70333043346E+02 -0.25824318944E+03  0.66668928298E+03  0.72308596684E+03  0.82112322595E+02 0.  0.
        254    2    1    2    0    0 -0.70333043346E+02  0.25824318944E+03 -0.71021328342E+03  0.11785439102E+04  0.90162439984E+03 0.  0.
         23    2    4    4    0    0  0.26583075540E+03 -0.16341805579E+03 -0.62642748503E+02  0.33105015448E+03  0.91096868040E+02 0.  0.
         23    2    4    4    0    0 -0.33616379874E+03  0.42166124523E+03 -0.64757053492E+03  0.84749375569E+03  0.89965342962E+02 0.  0.
          3    1    3    3  502    0 -0.77964178712E+01 -0.12273979789E+03  0.27091700057E+03  0.29752623971E+03  0.00000000000E+00 0. -1.
         -4    1    3    3    0  502  0.78129461217E+02 -0.13550339155E+03  0.39577228241E+03  0.42555972713E+03  0.00000000000E+00 0.  1.
         13    1    5    5    0    0  0.15771206440E+03 -0.11889985617E+03  0.18482883870E+01  0.19751882752E+03  0.00000000000E+00 0. -1.
        -13    1    5    5    0    0  0.10811869099E+03 -0.44518199623E+02 -0.64491036890E+02  0.13353132696E+03  0.00000000000E+00 0.  1.
          2    1    6    6  503    0 -0.36960272533E+02  0.98833415444E+02 -0.14661100833E+03  0.18063469633E+03  0.00000000000E+00 0. -1.
         -2    1    6    6    0  503 -0.29920352621E+03  0.32282782979E+03 -0.50095952659E+03  0.66685905937E+03  0.00000000000E+00 0.  1.
<mgrwt>
<rscale>  0 0.19011317E+04</rscale>
<asrwt>0</asrwt>
<pdfrwt beam="1">  1        1 0.14962722E+00 0.19011317E+04</pdfrwt>
<pdfrwt beam="2">  1       -2 0.14293122E+00 0.19011317E+04</pdfrwt>
<totfact> 0.44367461E+00</totfact>
</mgrwt>
</event>
<event>
12    5  0.5428626E-008  0.2085931E+04  0.7818608E-02  0.8567466E-01
          1   -1    0    0  501    0  0.00000000000E+00  0.00000000000E+00  0.73635843909E+03  0.73635843909E+03  0.00000000000E+00 0. -1.
         -2   -1    0    0    0  501 -0.00000000000E+00 -0.00000000000E+00 -0.14772388671E+04  0.14772388671E+04  0.00000000000E+00 0.  1.
        -24    2    1    2    0    0 -0.37554708558E+03 -0.57698267343E+03 -0.82242339327E+03  0.10757778180E+04  0.83504831895E+02 0.  0.
        254    2    1    2    0    0  0.37554708558E+03  0.57698267343E+03  0.81542965273E+02  0.11378194882E+04  0.90224127238E+03 0.  0.
         23    2    4    4    0    0  0.64811689320E+03  0.51274199254E+03 -0.36747515174E+01  0.83165789341E+03  0.93174512081E+02 0.  0.
         23    2    4    4    0    0 -0.27256980763E+03  0.64240680886E+02  0.85217716790E+02  0.30616159477E+03  0.89731252896E+02 0.  0.
          1    1    3    3  502    0 -0.83275919455E+02 -0.11137875238E+03 -0.21960057945E+03  0.25993175977E+03  0.00000000000E+00 0. -1.
         -2    1    3    3    0  502 -0.29227116612E+03 -0.46560392105E+03 -0.60282281382E+03  0.81584605822E+03  0.00000000000E+00 0.  1.
         13    1    5    5    0    0  0.15179873485E+03  0.13388717591E+03  0.37742428553E+02  0.20589590256E+03  0.00000000000E+00 0. -1.
        -13    1    5    5    0    0  0.49631815835E+03  0.37885481663E+03 -0.41417180071E+02  0.62576199086E+03  0.00000000000E+00 0.  1.
          1    1    6    6  503    0 -0.32613481355E+02  0.40105070504E+02  0.46855340342E+01  0.51903854148E+02  0.00000000000E+00 0. -1.
         -1    1    6    6    0  503 -0.23995632627E+03  0.24135610382E+02  0.80532182756E+02  0.25425774062E+03  0.00000000000E+00 0.  1.
<mgrwt>
<rscale>  0 0.20859313E+04</rscale>
<asrwt>0</asrwt>
<pdfrwt beam="1">  1        1 0.11328592E+00 0.20859313E+04</pdfrwt>
<pdfrwt beam="2">  1       -2 0.22726751E+00 0.20859313E+04</pdfrwt>
<totfact> 0.18076235E+00</totfact>
</mgrwt>
</event>
<event>
12    5  0.5428626E-008  0.1673350E+04  0.7818608E-02  0.8776711E-01
          1   -1    0    0  501    0  0.00000000000E+00  0.00000000000E+00  0.21925595534E+04  0.21925595534E+04  0.00000000000E+00 0. -1.
         -2   -1    0    0    0  501 -0.00000000000E+00 -0.00000000000E+00 -0.31927305441E+03  0.31927305441E+03  0.00000000000E+00 0.  1.
        -24    2    1    2    0    0  0.33921415348E+03  0.48344446494E+03  0.58020841311E+03  0.83201203731E+03  0.82567759975E+02 0.  0.
        254    2    1    2    0    0 -0.33921415348E+03 -0.48344446494E+03  0.12930780859E+04  0.16798205705E+04  0.89496447992E+03 0.  0.
         23    2    4    4    0    0 -0.22395819373E+02 -0.68527482567E+02 -0.11848076930E+03  0.17168442543E+03  0.10119417299E+03 0.  0.
         23    2    4    4    0    0 -0.31681833410E+03 -0.41491698238E+03  0.14115588552E+04  0.15081361451E+04  0.97191930526E+02 0.  0.
          3    1    3    3  502    0  0.34317207065E+03  0.47364523775E+03  0.56311015218E+03  0.81191127890E+03  0.00000000000E+00 0. -1.
         -4    1    3    3    0  502 -0.39579171745E+01  0.97992271975E+01  0.17098260929E+02  0.20100758414E+02  0.00000000000E+00 0.  1.
         13    1    5    5    0    0 -0.27416027200E+02 -0.90276317625E+02 -0.11554515130E+03  0.14917149212E+03  0.00000000000E+00 0.  1.
        -13    1    5    5    0    0  0.50202078269E+01  0.21748835058E+02 -0.29356179992E+01  0.22512933306E+02  0.00000000000E+00 0. -1.
          4    1    6    6  503    0 -0.10522542530E+03 -0.16053837499E+03  0.39667275026E+03  0.44067474488E+03  0.00000000000E+00 0. -1.
         -4    1    6    6    0  503 -0.21159290880E+03 -0.25437860738E+03  0.10148861049E+04  0.10674614002E+04  0.00000000000E+00 0.  1.
<mgrwt>
<rscale>  0 0.16733502E+04</rscale>
<asrwt>0</asrwt>
<pdfrwt beam="1">  1        1 0.33731684E+00 0.16733502E+04</pdfrwt>
<pdfrwt beam="2">  1       -2 0.49118933E-01 0.16733502E+04</pdfrwt>
<totfact> 0.72481766E+00</totfact>
</mgrwt>
</event>
<event>
12    5  0.5428626E-008  0.2102413E+04  0.7818608E-02  0.8560181E-01
          1   -1    0    0  501    0  0.00000000000E+00  0.00000000000E+00  0.10312295042E+04  0.10312295042E+04  0.00000000000E+00 0. -1.
         -2   -1    0    0    0  501 -0.00000000000E+00 -0.00000000000E+00 -0.10715708674E+04  0.10715708674E+04  0.00000000000E+00 0.  1.
        -24    2    1    2    0    0  0.46791821711E+03  0.51053680158E+03  0.48515369978E+03  0.84959498623E+03  0.82717861169E+02 0.  0.
        254    2    1    2    0    0 -0.46791821711E+03 -0.51053680158E+03 -0.52549506299E+03  0.12532053854E+04  0.90265352887E+03 0.  0.
         23    2    4    4    0    0 -0.19735605351E+03 -0.32786221557E+03  0.20790857825E+03  0.44502789271E+03  0.91546731909E+02 0.  0.
         23    2    4    4    0    0 -0.27056216360E+03 -0.18267458601E+03 -0.73340364124E+03  0.80817749272E+03  0.93252721229E+02 0.  0.
          1    1    3    3  502    0  0.33402915437E+03  0.34661242035E+03  0.37986316105E+03  0.61319790201E+03  0.00000000000E+00 0. -1.
         -2    1    3    3    0  502  0.13388906274E+03  0.16392438123E+03  0.10529053873E+03  0.23639708422E+03  0.00000000000E+00 0.  1.
         13    1    5    5    0    0 -0.46992279184E+02 -0.72684068032E+02  0.63864352744E+01  0.86787295177E+02  0.00000000000E+00 0. -1.
        -13    1    5    5    0    0 -0.15036377433E+03 -0.25517814753E+03  0.20152214297E+03  0.35824059753E+03  0.00000000000E+00 0.  1.
          2    1    6    6  503    0 -0.10153267978E+03 -0.61167356854E+02 -0.37958931131E+03  0.39766616133E+03  0.00000000000E+00 0. -1.
         -2    1    6    6    0  503 -0.16902948382E+03 -0.12150722915E+03 -0.35381432993E+03  0.41051133139E+03  0.00000000000E+00 0.  1.
<mgrwt>
<rscale>  0 0.21024134E+04</rscale>
<asrwt>0</asrwt>
<pdfrwt beam="1">  1        1 0.15865069E+00 0.21024134E+04</pdfrwt>
<pdfrwt beam="2">  1       -2 0.16485706E+00 0.21024134E+04</pdfrwt>
<totfact> 0.26766608E+00</totfact>
</mgrwt>
</event>
<event>
12    5  0.5428626E-008  0.2548470E+04  0.7818608E-02  0.8385918E-01
          1   -1    0    0  501    0  0.00000000000E+00  0.00000000000E+00  0.10693464273E+04  0.10693464273E+04  0.00000000000E+00 0. -1.
         -2   -1    0    0    0  501 -0.00000000000E+00 -0.00000000000E+00 -0.15183806664E+04  0.15183806664E+04  0.00000000000E+00 0.  1.
        -24    2    1    2    0    0  0.10128404476E+03 -0.51932420448E+03  0.80288154277E+03  0.96478614254E+03  0.78977478143E+02 0.  0.
        254    2    1    2    0    0 -0.10128404476E+03  0.51932420448E+03 -0.12519157819E+04  0.16229409512E+04  0.88695440637E+03 0.  0.
         23    2    4    4    0    0 -0.19216475567E+03  0.36228740934E+03 -0.72041473478E+02  0.42567373699E+03  0.88479919622E+02 0.  0.
         23    2    4    4    0    0  0.90880710911E+02  0.15703679513E+03 -0.11798743084E+04  0.11972672142E+04  0.91790739580E+02 0.  0.
          1    1    3    3  502    0  0.98240317532E+02 -0.50553853041E+03  0.79819008682E+03  0.94990935379E+03  0.00000000000E+00 0. -1.
         -2    1    3    3    0  502  0.30437272239E+01 -0.13785674062E+02  0.46914559494E+01  0.14876788756E+02  0.00000000000E+00 0.  1.
         13    1    5    5    0    0 -0.14976686271E+03  0.27669545030E+03 -0.92595087608E+02  0.32797002246E+03  0.00000000000E+00 0. -1.
        -13    1    5    5    0    0 -0.42397892954E+02  0.85591959042E+02  0.20553614130E+02  0.97703714532E+02  0.00000000000E+00 0.  1.
          2    1    6    6  503    0  0.55350118838E+02  0.19352109169E+02 -0.26509509928E+03  0.27150239676E+03  0.00000000000E+00 0. -1.
         -2    1    6    6    0  503  0.35530592073E+02  0.13768468597E+03 -0.91477920912E+03  0.92576481741E+03  0.00000000000E+00 0.  1.
<mgrwt>
<rscale>  0 0.25484701E+04</rscale>
<asrwt>0</asrwt>
<pdfrwt beam="1">  1        1 0.16451484E+00 0.25484701E+04</pdfrwt>
<pdfrwt beam="2">  1       -2 0.23359703E+00 0.25484701E+04</pdfrwt>
<totfact> 0.84267720E-01</totfact>
</mgrwt>
</event>
<event>
12    5  0.5428626E-008  0.2158201E+04  0.7818608E-02  0.8536030E-01
          1   -1    0    0  501    0  0.00000000000E+00  0.00000000000E+00  0.17513332515E+04  0.17513332515E+04  0.00000000000E+00 0. -1.
         -2   -1    0    0    0  501 -0.00000000000E+00 -0.00000000000E+00 -0.66489823177E+03  0.66489823177E+03  0.00000000000E+00 0.  1.
        -24    2    1    2    0    0  0.12987274654E+03  0.27680832774E+03  0.13949571133E+04  0.14302772832E+04  0.79359801390E+02 0.  0.
        254    2    1    2    0    0 -0.12987274654E+03 -0.27680832774E+03 -0.30852209362E+03  0.98595420009E+03  0.88511582396E+03 0.  0.
         23    2    4    4    0    0 -0.13985214153E+03 -0.49407291918E+03  0.84573144328E+02  0.52821465746E+03  0.90506555878E+02 0.  0.
         23    2    4    4    0    0  0.99793949902E+01  0.21726459144E+03 -0.39309523795E+03  0.45773954263E+03  0.87738998004E+02 0.  0.
          1    1    3    3  502    0  0.10200946627E+03  0.18667359955E+03  0.79597531394E+03  0.82391119933E+03  0.00000000000E+00 0. -1.
         -2    1    3    3    0  502  0.27863280273E+02  0.90134728188E+02  0.59898179939E+03  0.60636608383E+03  0.00000000000E+00 0.  1.
         13    1    5    5    0    0 -0.80978920634E+02 -0.36115516396E+03  0.24543078397E+02  0.37093530533E+03  0.00000000000E+00 0.  1.
        -13    1    5    5    0    0 -0.58873220895E+02 -0.13291775522E+03  0.60030065931E+02  0.15727935213E+03  0.00000000000E+00 0. -1.
          1    1    6    6  503    0 -0.33063434188E+01  0.12695290109E+03 -0.14168285283E+03  0.19026823641E+03  0.00000000000E+00 0. -1.
         -1    1    6    6    0  503  0.13285738409E+02  0.90311690358E+02 -0.25141238512E+03  0.26747130622E+03  0.00000000000E+00 0.  1.
<mgrwt>
<rscale>  0 0.21582015E+04</rscale>
<asrwt>0</asrwt>
<pdfrwt beam="1">  1        1 0.26943588E+00 0.21582015E+04</pdfrwt>
<pdfrwt beam="2">  1       -2 0.10229204E+00 0.21582015E+04</pdfrwt>
<totfact> 0.27649427E+00</totfact>
</mgrwt>
</event>
<event>
12    5  0.5428626E-008  0.1570089E+04  0.7818608E-02  0.8839137E-01
          1   -1    0    0  501    0  0.00000000000E+00  0.00000000000E+00  0.21989064207E+04  0.21989064207E+04  0.00000000000E+00 0. -1.
         -2   -1    0    0    0  501 -0.00000000000E+00 -0.00000000000E+00 -0.28027328768E+03  0.28027328768E+03  0.00000000000E+00 0.  1.
        -24    2    1    2    0    0  0.11091360613E+03 -0.50663798159E+03  0.52003052467E+03  0.73923269292E+03  0.83960438712E+02 0.  0.
        254    2    1    2    0    0 -0.11091360613E+03  0.50663798159E+03  0.13986026083E+04  0.17399470154E+04  0.89573572448E+03 0.  0.
         23    2    4    4    0    0 -0.17733627788E+03 -0.15531893093E+03  0.88396101479E+02  0.26795577339E+03  0.91729493519E+02 0.  0.
         23    2    4    4    0    0  0.66422671745E+02  0.66195691252E+03  0.13102065068E+04  0.14719912420E+04  0.86707558680E+02 0.  0.
          1    1    3    3  502    0  0.40362615801E+02 -0.56557339891E+02  0.60184913783E+02  0.91924410778E+02  0.00000000000E+00 0. -1.
         -2    1    3    3    0  502  0.70550990334E+02 -0.45008064170E+03  0.45984561089E+03  0.64730828214E+03  0.00000000000E+00 0.  1.
         13    1    5    5    0    0 -0.10286083895E+03 -0.10920242039E+03  0.98968148870E+02  0.17972260654E+03  0.00000000000E+00 0. -1.
        -13    1    5    5    0    0 -0.74475438931E+02 -0.46116510531E+02 -0.10572047390E+02  0.88233166856E+02  0.00000000000E+00 0.  1.
          4    1    6    6  503    0  0.12942618259E+02  0.30983202514E+02  0.36736914493E+02  0.49770182759E+02  0.00000000000E+00 0. -1.
         -4    1    6    6    0  503  0.53480053486E+02  0.63097371001E+03  0.12734695923E+04  0.14222210593E+04  0.00000000000E+00 0.  1.
<mgrwt>
<rscale>  0 0.15700888E+04</rscale>
<asrwt>0</asrwt>
<pdfrwt beam="1">  1        1 0.33829328E+00 0.15700888E+04</pdfrwt>
<pdfrwt beam="2">  1       -2 0.43118969E-01 0.15700888E+04</pdfrwt>
<totfact> 0.94082156E+00</totfact>
</mgrwt>
</event>
<event>
12    5  0.5428626E-008  0.1403663E+04  0.7818608E-02  0.8951171E-01
         -2   -1    0    0    0  501 -0.00000000000E+00  0.00000000000E+00  0.12854524562E+04  0.12854524562E+04  0.00000000000E+00 0.  1.
          1   -1    0    0  501    0  0.00000000000E+00 -0.00000000000E+00 -0.38318613022E+03  0.38318613022E+03  0.00000000000E+00 0. -1.
        -24    2    1    2    0    0 -0.24776082580E+03 -0.32746185169E+03  0.19541006694E+03  0.45904453467E+03  0.62610697414E+02 0.  0.
        254    2    1    2    0    0  0.24776082580E+03  0.32746185169E+03  0.70685625906E+03  0.12095940518E+04  0.89154658209E+03 0.  0.
         23    2    4    4    0    0  0.63438288622E+02 -0.13565775007E+03 -0.13864759346E+03  0.22354057089E+03  0.91212883106E+02 0.  0.
         23    2    4    4    0    0  0.18432253718E+03  0.46311960175E+03  0.84550385252E+03  0.98605348090E+03  0.94710819490E+02 0.  0.
          1    1    3    3  502    0 -0.19249980911E+03 -0.20686852287E+03  0.12730742227E+03  0.30993215714E+03  0.00000000000E+00 0. -1.
         -2    1    3    3    0  502 -0.55261016692E+02 -0.12059332881E+03  0.68102644675E+02  0.14911237753E+03  0.00000000000E+00 0.  1.
         13    1    5    5    0    0  0.69727203921E+01  0.69072906237E+00 -0.51867786719E+02  0.52338926579E+02  0.00000000000E+00 0. -1.
        -13    1    5    5    0    0  0.56465568230E+02 -0.13634847913E+03 -0.86779806739E+02  0.17120164431E+03  0.00000000000E+00 0.  1.
          4    1    6    6  503    0  0.94242639115E+02  0.23019685261E+03  0.33002772373E+03  0.41326815073E+03  0.00000000000E+00 0. -1.
         -4    1    6    6    0  503  0.90079898067E+02  0.23292274915E+03  0.51547612880E+03  0.57278533018E+03  0.00000000000E+00 0.  1.
<mgrwt>
<rscale>  0 0.14036631E+04</rscale>
<asrwt>0</asrwt>
<pdfrwt beam="1">  1        1 0.58951713E-01 0.14036631E+04</pdfrwt>
<pdfrwt beam="2">  1       -2 0.19776191E+00 0.14036631E+04</pdfrwt>
<totfact> 0.74379341E+00</totfact>
</mgrwt>
</event>
<event>
12    5  0.5428626E-008  0.1682003E+04  0.7818608E-02  0.8771696E-01
          1   -1    0    0  501    0  0.00000000000E+00  0.00000000000E+00  0.13874379402E+04  0.13874379402E+04  0.00000000000E+00 0. -1.
         -2   -1    0    0    0  501 -0.00000000000E+00 -0.00000000000E+00 -0.50977656084E+03  0.50977656084E+03  0.00000000000E+00 0.  1.
        -24    2    1    2    0    0  0.11049048201E+03 -0.14826633963E+03  0.95632138493E+03  0.97553709103E+03  0.54138439442E+02 0.  0.
        254    2    1    2    0    0 -0.11049048201E+03  0.14826633963E+03 -0.78660005592E+02  0.92167740999E+03  0.89950586297E+03 0.  0.
         23    2    4    4    0    0  0.18996230176E+03  0.43548049975E+03  0.22385101719E+02  0.48446159867E+03  0.92048932942E+02 0.  0.
         23    2    4    4    0    0 -0.30045278377E+03 -0.28721416012E+03 -0.10104510731E+03  0.43721581132E+03  0.90463820978E+02 0.  0.
          1    1    3    3  502    0  0.21202143485E+02 -0.71274677889E+02  0.40134715116E+03  0.40817783666E+03  0.00000000000E+00 0. -1.
         -2    1    3    3    0  502  0.89288338521E+02 -0.76991661742E+02  0.55497423377E+03  0.56735925437E+03  0.00000000000E+00 0.  1.
         13    1    5    5    0    0  0.22443812634E+01  0.52072612057E+02 -0.19201583189E+02  0.55545431592E+02  0.00000000000E+00 0. -1.
        -13    1    5    5    0    0  0.18771792050E+03  0.38340788769E+03  0.41586684908E+02  0.42891616708E+03  0.00000000000E+00 0.  1.
          4    1    6    6  503    0 -0.57962280996E+02 -0.13437281543E+02 -0.10083146361E+02  0.60347795271E+02  0.00000000000E+00 0. -1.
         -4    1    6    6    0  503 -0.24249050277E+03 -0.27377687858E+03 -0.90961960949E+02  0.37686801604E+03  0.00000000000E+00 0.  1.
<mgrwt>
<rscale>  0 0.16820028E+04</rscale>
<asrwt>0</asrwt>
<pdfrwt beam="1">  1        1 0.21345199E+00 0.16820028E+04</pdfrwt>
<pdfrwt beam="2">  1       -2 0.78427164E-01 0.16820028E+04</pdfrwt>
<totfact> 0.94761857E+00</totfact>
</mgrwt>
</event>
<event>
12    5  0.5428626E-008  0.1768723E+04  0.7818608E-02  0.8723111E-01
          1   -1    0    0  501    0  0.00000000000E+00  0.00000000000E+00  0.11738868157E+04  0.11738868157E+04  0.00000000000E+00 0. -1.
         -2   -1    0    0    0  501 -0.00000000000E+00 -0.00000000000E+00 -0.66624424973E+03  0.66624424973E+03  0.00000000000E+00 0.  1.
        -24    2    1    2    0    0  0.24930937806E+03 -0.57881548354E+03  0.26558064900E+02  0.63974360485E+03  0.10669591915E+03 0.  0.
        254    2    1    2    0    0 -0.24930937806E+03  0.57881548354E+03  0.48108450104E+03  0.12003874605E+04  0.90127977250E+03 0.  0.
         23    2    4    4    0    0 -0.14200317746E+03  0.59034239952E+03 -0.83289330353E+02  0.61866680838E+03  0.84513053199E+02 0.  0.
         23    2    4    4    0    0 -0.10730620061E+03 -0.11526915981E+02  0.56437383139E+03  0.58172065217E+03  0.90739214873E+02 0.  0.
          3    1    3    3  502    0  0.31019813326E+02 -0.14753311300E+02  0.24148590373E+01  0.34434293332E+02  0.00000000000E+00 0. -1.
         -2    1    3    3    0  502  0.21828956474E+03 -0.56406217224E+03  0.24143205862E+02  0.60530931152E+03  0.00000000000E+00 0.  1.
         13    1    5    5    0    0 -0.16210123729E+02  0.97087128834E+01 -0.14178877488E+01  0.18948288124E+02  0.00000000000E+00 0.  1.
        -13    1    5    5    0    0 -0.12579305373E+03  0.58063368664E+03 -0.81871442604E+02  0.59971852026E+03  0.00000000000E+00 0. -1.
          1    1    6    6  503    0 -0.68906742793E+02 -0.17792840065E+02  0.50953929246E+03  0.51448519407E+03  0.00000000000E+00 0. -1.
         -1    1    6    6    0  503 -0.38399457814E+02  0.62659240840E+01  0.54834538930E+02  0.67235458091E+02  0.00000000000E+00 0.  1.
<mgrwt>
<rscale>  0 0.17687231E+04</rscale>
<asrwt>0</asrwt>
<pdfrwt beam="1">  1        1 0.18059797E+00 0.17687231E+04</pdfrwt>
<pdfrwt beam="2">  1       -2 0.10249912E+00 0.17687231E+04</pdfrwt>
<totfact> 0.72178637E+00</totfact>
</mgrwt>
</event>
<event>
12    5  0.5428626E-008  0.1775746E+04  0.7818608E-02  0.8719305E-01
          1   -1    0    0  501    0  0.00000000000E+00  0.00000000000E+00  0.14180152216E+04  0.14180152216E+04  0.00000000000E+00 0. -1.
         -2   -1    0    0    0  501 -0.00000000000E+00 -0.00000000000E+00 -0.55593060977E+03  0.55593060977E+03  0.00000000000E+00 0.  1.
        -24    2    1    2    0    0  0.66283235827E+02  0.22523921711E+03 -0.36094974883E+03  0.43791533587E+03  0.79743011827E+02 0.  0.
        254    2    1    2    0    0 -0.66283235827E+02 -0.22523921711E+03  0.12230343606E+04  0.15360304955E+04  0.89913873425E+03 0.  0.
         23    2    4    4    0    0 -0.41069958783E+02 -0.46231507699E+03  0.11881846724E+04  0.12788484045E+04  0.90821000386E+02 0.  0.
         23    2    4    4    0    0 -0.25213277044E+02  0.23707585988E+03  0.34849688223E+02  0.25718209093E+03  0.89930275471E+02 0.  0.
          1    1    3    3  502    0  0.15220319651E+02 -0.16068930860E+01 -0.25944661314E+02  0.30122511290E+02  0.00000000000E+00 0. -1.
         -2    1    3    3    0  502  0.51062916175E+02  0.22684611019E+03 -0.33500508752E+03  0.40779282458E+03  0.00000000000E+00 0.  1.
         13    1    5    5    0    0 -0.42497459696E+02 -0.44484546130E+03  0.11744096722E+04  0.12565554491E+04  0.00000000000E+00 0.  1.
        -13    1    5    5    0    0  0.14275009128E+01 -0.17469615683E+02  0.13775000208E+02  0.22292955428E+02  0.00000000000E+00 0. -1.
          4    1    6    6  503    0  0.19503953537E+02  0.25238091454E+02 -0.14634187151E+02  0.35093089027E+02  0.00000000000E+00 0. -1.
         -4    1    6    6    0  503 -0.44717230581E+02  0.21183776843E+03  0.49483875375E+02  0.22208900190E+03  0.00000000000E+00 0.  1.
<mgrwt>
<rscale>  0 0.17757456E+04</rscale>
<asrwt>0</asrwt>
<pdfrwt beam="1">  1        1 0.21815619E+00 0.17757456E+04</pdfrwt>
<pdfrwt beam="2">  1       -2 0.85527787E-01 0.17757456E+04</pdfrwt>
<totfact> 0.73554526E+00</totfact>
</mgrwt>
</event>
<event>
12    5  0.5428626E-008  0.1961920E+04  0.7818608E-02  0.8624634E-01
         -2   -1    0    0    0  501 -0.00000000000E+00  0.00000000000E+00  0.66656103715E+03  0.66656103715E+03  0.00000000000E+00 0.  1.
          1   -1    0    0  501    0  0.00000000000E+00 -0.00000000000E+00 -0.14436525721E+04  0.14436525721E+04  0.00000000000E+00 0. -1.
        -24    2    1    2    0    0 -0.72636717594E+03  0.38985910823E+02 -0.19858725261E+02  0.73203614273E+03  0.79708028329E+02 0.  0.
        254    2    1    2    0    0  0.72636717594E+03 -0.38985910823E+02 -0.75723280966E+03  0.13781774665E+04  0.89266030804E+03 0.  0.
         23    2    4    4    0    0  0.56588987084E+03 -0.42949563450E+03 -0.41377714997E+03  0.82689060119E+03  0.88536379665E+02 0.  0.
         23    2    4    4    0    0  0.16047730509E+03  0.39050972368E+03 -0.34345565969E+03  0.55128686528E+03  0.87775896027E+02 0.  0.
          3    1    3    3  502    0 -0.20717197570E+03  0.33096465324E+01  0.29471438612E+02  0.20928389085E+03  0.00000000000E+00 0. -1.
         -4    1    3    3    0  502 -0.51919520023E+03  0.35676264290E+02 -0.49330163873E+02  0.52275225188E+03  0.00000000000E+00 0.  1.
         13    1    5    5    0    0  0.27188077715E+03 -0.22748476709E+03 -0.25353868846E+03  0.43583292990E+03  0.00000000000E+00 0. -1.
        -13    1    5    5    0    0  0.29400909369E+03 -0.20201086742E+03 -0.16023846150E+03  0.39105767129E+03  0.00000000000E+00 0.  1.
          1    1    6    6  503    0 -0.69430744323E+01  0.58528309916E+01 -0.18608089745E+02  0.20705625254E+02  0.00000000000E+00 0. -1.
         -1    1    6    6    0  503  0.16742037952E+03  0.38465689269E+03 -0.32484756995E+03  0.53058124003E+03  0.00000000000E+00 0.  1.
<mgrwt>
<rscale>  0 0.19619200E+04</rscale>
<asrwt>0</asrwt>
<pdfrwt beam="1">  1        1 0.22210039E+00 0.19619200E+04</pdfrwt>
<pdfrwt beam="2">  1       -2 0.10254785E+00 0.19619200E+04</pdfrwt>
<totfact> 0.45496205E+00</totfact>
</mgrwt>
</event>
<event>
12    5  0.5428626E-008  0.1331856E+04  0.7818608E-02  0.9004677E-01
         -4   -1    0    0    0  501 -0.00000000000E+00  0.00000000000E+00  0.16238049399E+04  0.16238049399E+04  0.00000000000E+00 0.  1.
          3   -1    0    0  501    0  0.00000000000E+00 -0.00000000000E+00 -0.27309952498E+03  0.27309952498E+03  0.00000000000E+00 0. -1.
        -24    2    1    2    0    0 -0.13200220232E+03 -0.52026427651E+02  0.82943041011E+03  0.84552752945E+03  0.82647850776E+02 0.  0.
        254    2    1    2    0    0  0.13200220232E+03  0.52026427651E+02  0.52127500476E+03  0.10513769354E+04  0.90196147317E+03 0.  0.
         23    2    4    4    0    0  0.38828319336E+03 -0.42773116203E+02  0.62727311568E+03  0.74432807409E+03  0.89215147299E+02 0.  0.
         23    2    4    4    0    0 -0.25628099104E+03  0.94799543854E+02 -0.10599811092E+03  0.30704886130E+03  0.91523241985E+02 0.  0.
          3    1    3    3  502    0 -0.72893017946E+01  0.15064134265E+02  0.18318936537E+03  0.18395218305E+03  0.00000000000E+00 0. -1.
         -4    1    3    3    0  502 -0.12471290053E+03 -0.67090561916E+02  0.64624104474E+03  0.66157534640E+03  0.00000000000E+00 0.  1.
         13    1    5    5    0    0  0.25771047054E+03 -0.38986036884E+02  0.33712895500E+03  0.42613440368E+03  0.00000000000E+00 0.  1.
        -13    1    5    5    0    0  0.13057272282E+03 -0.37870793189E+01  0.29014416068E+03  0.31819367041E+03  0.00000000000E+00 0. -1.
          3    1    6    6  503    0 -0.66607996083E+01 -0.10745325506E+02 -0.18210811030E+02  0.22168940209E+02  0.00000000000E+00 0. -1.
         -3    1    6    6    0  503 -0.24962019143E+03  0.10554486936E+03 -0.87787299891E+02  0.28487992109E+03  0.00000000000E+00 0.  1.
<mgrwt>
<rscale>  0 0.13318564E+04</rscale>
<asrwt>0</asrwt>
<pdfrwt beam="1">  1        3 0.42015313E-01 0.13318564E+04</pdfrwt>
<pdfrwt beam="2">  1       -4 0.24981614E+00 0.13318564E+04</pdfrwt>
<totfact> 0.80123325E-01</totfact>
</mgrwt>
</event>
<event>
12    5  0.5428626E-008  0.1852903E+04  0.7818608E-02  0.8678661E-01
         -2   -1    0    0    0  501 -0.00000000000E+00  0.00000000000E+00  0.44310353333E+03  0.44310353333E+03  0.00000000000E+00 0.  1.
          1   -1    0    0  501    0  0.00000000000E+00 -0.00000000000E+00 -0.19370468684E+04  0.19370468684E+04  0.00000000000E+00 0. -1.
        -24    2    1    2    0    0 -0.62902447806E+03  0.94437754343E+02 -0.96761606228E+03  0.11606132197E+04  0.78434165741E+02 0.  0.
        254    2    1    2    0    0  0.62902447806E+03 -0.94437754343E+02 -0.52632727282E+03  0.12195371820E+04  0.89758579356E+03 0.  0.
         23    2    4    4    0    0  0.59270423438E+03 -0.35722300224E+03 -0.95325140848E+02  0.70437238880E+03  0.90260715958E+02 0.  0.
         23    2    4    4    0    0  0.36320243686E+02  0.26278524790E+03 -0.43100213197E+03  0.51516479323E+03  0.96211640691E+02 0.  0.
          3    1    3    3  502    0 -0.24675801614E+03  0.42874299126E+02 -0.45107058604E+03  0.51593836613E+03  0.00000000000E+00 0. -1.
         -4    1    3    3    0  502 -0.38226646192E+03  0.51563455216E+02 -0.51654547624E+03  0.64467485358E+03  0.00000000000E+00 0.  1.
         13    1    5    5    0    0  0.43092886962E+03 -0.28196184777E+03 -0.35560882846E+02  0.51620417536E+03  0.00000000000E+00 0. -1.
        -13    1    5    5    0    0  0.16177536476E+03 -0.75261154478E+02 -0.59764258002E+02  0.18816821344E+03  0.00000000000E+00 0.  1.
          2    1    6    6  503    0 -0.31694689855E+02  0.62094198832E+02 -0.12130537906E+03  0.13991153592E+03  0.00000000000E+00 0.  1.
         -2    1    6    6    0  503  0.68014933541E+02  0.20069104907E+03 -0.30969675291E+03  0.37525325731E+03  0.00000000000E+00 0. -1.
<mgrwt>
<rscale>  0 0.18529029E+04</rscale>
<asrwt>0</asrwt>
<pdfrwt beam="1">  1        1 0.29800722E+00 0.18529029E+04</pdfrwt>
<pdfrwt beam="2">  1       -2 0.68169773E-01 0.18529029E+04</pdfrwt>
<totfact> 0.53414670E+00</totfact>
</mgrwt>
</event>
<event>
12    5  0.5428626E-008  0.1641550E+04  0.7818608E-02  0.8795421E-01
         -2   -1    0    0    0  501 -0.00000000000E+00  0.00000000000E+00  0.49123864076E+03  0.49123864076E+03  0.00000000000E+00 0.  1.
          1   -1    0    0  501    0  0.00000000000E+00 -0.00000000000E+00 -0.13713742133E+04  0.13713742133E+04  0.00000000000E+00 0. -1.
        -24    2    1    2    0    0  0.34005889624E+03 -0.43631815864E+03 -0.14378246072E+03  0.57749621558E+03  0.82552374452E+02 0.  0.
        254    2    1    2    0    0 -0.34005889624E+03  0.43631815864E+03 -0.73635311180E+03  0.12851166385E+04  0.89626741585E+03 0.  0.
         23    2    4    4    0    0 -0.34093744264E+03 -0.15494944643E+03 -0.52301010314E+03  0.64968629945E+03  0.91132041368E+02 0.  0.
         23    2    4    4    0    0  0.87854639443E+00  0.59126760507E+03 -0.21334300866E+03  0.63543033901E+03  0.93050114136E+02 0.  0.
          3    1    3    3  502    0  0.72961143830E+02 -0.62324326703E+02 -0.50917678588E+02  0.10862900258E+03  0.00000000000E+00 0. -1.
         -4    1    3    3    0  502  0.26709775242E+03 -0.37399383194E+03 -0.92864782128E+02  0.46886721301E+03  0.00000000000E+00 0.  1.
         13    1    5    5    0    0 -0.18992538175E+03 -0.42744857721E+02 -0.30368409998E+03  0.36072538874E+03  0.00000000000E+00 0.  1.
        -13    1    5    5    0    0 -0.15101206089E+03 -0.11220458871E+03 -0.21932600316E+03  0.28896091072E+03  0.00000000000E+00 0. -1.
          4    1    6    6  503    0  0.21291704569E+02  0.31001954034E+03 -0.15584823486E+03  0.34764079793E+03  0.00000000000E+00 0. -1.
         -4    1    6    6    0  503 -0.20413158174E+02  0.28124806473E+03 -0.57494773801E+02  0.28778954108E+03  0.00000000000E+00 0.  1.
<mgrwt>
<rscale>  0 0.16415505E+04</rscale>
<asrwt>0</asrwt>
<pdfrwt beam="1">  1        1 0.21098065E+00 0.16415505E+04</pdfrwt>
<pdfrwt beam="2">  1       -2 0.75575176E-01 0.16415505E+04</pdfrwt>
<totfact> 0.10600294E+01</totfact>
</mgrwt>
</event>
<event>
12    5  0.5428626E-008  0.1457519E+04  0.7818608E-02  0.8913204E-01
          1   -1    0    0  501    0  0.00000000000E+00  0.00000000000E+00  0.37050129823E+03  0.37050129823E+03  0.00000000000E+00 0. -1.
         -2   -1    0    0    0  501 -0.00000000000E+00 -0.00000000000E+00 -0.14334373631E+04  0.14334373631E+04  0.00000000000E+00 0.  1.
        -24    2    1    2    0    0 -0.33054312224E+03  0.25354824956E+03 -0.51353595194E+03  0.66641413685E+03  0.82723378446E+02 0.  0.
        254    2    1    2    0    0  0.33054312224E+03 -0.25354824956E+03 -0.54940011295E+03  0.11375245245E+04  0.90475194901E+03 0.  0.
         23    2    4    4    0    0  0.16238619821E+03 -0.58504775322E+03 -0.34390556192E+03  0.70324716003E+03  0.87380670960E+02 0.  0.
         23    2    4    4    0    0  0.16815692403E+03  0.33149950366E+03 -0.20549455103E+03  0.43427736448E+03  0.90554661762E+02 0.  0.
          3    1    3    3  502    0 -0.56494685133E+02  0.14463707940E+02 -0.47155408788E+02  0.74996539077E+02  0.00000000000E+00 0. -1.
         -4    1    3    3    0  502 -0.27404843711E+03  0.23908454162E+03 -0.46638054315E+03  0.59141759777E+03  0.00000000000E+00 0.  1.
         13    1    5    5    0    0  0.15798699752E+03 -0.46679998838E+03 -0.30053158630E+03  0.57721863700E+03  0.00000000000E+00 0.  1.
        -13    1    5    5    0    0  0.43992006877E+01 -0.11824776484E+03 -0.43373975619E+02  0.12602852303E+03  0.00000000000E+00 0. -1.
          4    1    6    6  503    0  0.10259095903E+03  0.10506508873E+03 -0.78567213357E+02  0.16654244131E+03  0.00000000000E+00 0. -1.
         -4    1    6    6    0  503  0.65565965000E+02  0.22643441493E+03 -0.12692733768E+03  0.26773492316E+03  0.00000000000E+00 0.  1.
<mgrwt>
<rscale>  0 0.14575190E+04</rscale>
<asrwt>0</asrwt>
<pdfrwt beam="1">  1        1 0.57000200E-01 0.14575190E+04</pdfrwt>
<pdfrwt beam="2">  1       -2 0.22052882E+00 0.14575190E+04</pdfrwt>
<totfact> 0.55230812E+00</totfact>
</mgrwt>
</event>
<event>
12    5  0.5428626E-008  0.2691699E+04  0.7818608E-02  0.8337704E-01
         -2   -1    0    0    0  501 -0.00000000000E+00  0.00000000000E+00  0.42025710654E+03  0.42025710654E+03  0.00000000000E+00 0.  1.
          1   -1    0    0  501    0  0.00000000000E+00 -0.00000000000E+00 -0.43100049991E+04  0.43100049991E+04  0.00000000000E+00 0. -1.
        -24    2    1    2    0    0 -0.63190609080E+03 -0.10034311429E+04 -0.17052260133E+04  0.20785538988E+04  0.80069891565E+02 0.  0.
        254    2    1    2    0    0  0.63190609080E+03  0.10034311429E+04 -0.21845218792E+04  0.26517082068E+04  0.92371056454E+03 0.  0.
         23    2    4    4    0    0  0.78762232832E+03  0.50901687323E+03 -0.16604663620E+04  0.19091635392E+04  0.91157944384E+02 0.  0.
         23    2    4    4    0    0 -0.15571623752E+03  0.49441426972E+03 -0.52405551719E+03  0.74254466757E+03  0.89696050702E+02 0.  0.
          1    1    3    3  502    0 -0.44659443008E+03 -0.73824868567E+03 -0.12949720810E+04  0.15560881715E+04  0.00000000000E+00 0. -1.
         -2    1    3    3    0  502 -0.18531166072E+03 -0.26518245728E+03 -0.41025393235E+03  0.52246572735E+03  0.00000000000E+00 0.  1.
         13    1    5    5    0    0  0.57243640568E+03  0.41372821863E+03 -0.12737774950E+04  0.14564901593E+04  0.00000000000E+00 0.  1.
        -13    1    5    5    0    0  0.21518592264E+03  0.95288654599E+02 -0.38668886700E+03  0.45267337989E+03  0.00000000000E+00 0. -1.
          2    1    6    6  503    0 -0.34382484845E+02  0.25600403180E+03 -0.26882415235E+03  0.37280912603E+03  0.00000000000E+00 0. -1.
         -2    1    6    6    0  503 -0.12133375268E+03  0.23841023792E+03 -0.25523136484E+03  0.36973554155E+03  0.00000000000E+00 0.  1.
<mgrwt>
<rscale>  0 0.26916985E+04</rscale>
<asrwt>0</asrwt>
<pdfrwt beam="1">  1        1 0.66307767E+00 0.26916985E+04</pdfrwt>
<pdfrwt beam="2">  1       -2 0.64654942E-01 0.26916985E+04</pdfrwt>
<totfact> 0.84623539E-02</totfact>
</mgrwt>
</event>
<event>
12    5  0.5428626E-008  0.1283832E+04  0.7818608E-02  0.9042485E-01
          1   -1    0    0  501    0  0.00000000000E+00  0.00000000000E+00  0.14433065461E+04  0.14433065461E+04  0.00000000000E+00 0. -1.
         -2   -1    0    0    0  501 -0.00000000000E+00 -0.00000000000E+00 -0.28549476919E+03  0.28549476919E+03  0.00000000000E+00 0.  1.
        -24    2    1    2    0    0  0.16741276088E+03  0.24201447688E+03  0.48530873186E+03  0.57333508392E+03  0.81181978995E+02 0.  0.
        254    2    1    2    0    0 -0.16741276088E+03 -0.24201447688E+03  0.67250304503E+03  0.11554662314E+04  0.89232495578E+03 0.  0.
         23    2    4    4    0    0 -0.42214197498E+03  0.25436540323E+02  0.62020014520E+02  0.43610162285E+03  0.86529062332E+02 0.  0.
         23    2    4    4    0    0  0.25472921409E+03 -0.26745101720E+03  0.61048303051E+03  0.71936460851E+03  0.91536278705E+02 0.  0.
          1    1    3    3  502    0 -0.68721920443E+01  0.10543203042E+01  0.56059128547E+01  0.89311182800E+01  0.00000000000E+00 0. -1.
         -2    1    3    3    0  502  0.17428495293E+03  0.24096015657E+03  0.47970281900E+03  0.56440396564E+03  0.00000000000E+00 0.  1.
         13    1    5    5    0    0 -0.27130570542E+03  0.13152179103E+02 -0.23762721361E+01  0.27163470374E+03  0.00000000000E+00 0.  1.
        -13    1    5    5    0    0 -0.15083626956E+03  0.12284361219E+02  0.64396286656E+02  0.16446691910E+03  0.00000000000E+00 0. -1.
          3    1    6    6  503    0  0.84198441248E+02 -0.10047515327E+03  0.13990861932E+03  0.19172651276E+03  0.00000000000E+00 0. -1.
         -3    1    6    6    0  503  0.17053077285E+03 -0.16697586393E+03  0.47057441118E+03  0.52763809575E+03  0.00000000000E+00 0.  1.
<mgrwt>
<rscale>  0 0.12838325E+04</rscale>
<asrwt>0</asrwt>
<pdfrwt beam="1">  1        1 0.22204716E+00 0.12838325E+04</pdfrwt>
<pdfrwt beam="2">  1       -2 0.43922273E-01 0.12838325E+04</pdfrwt>
<totfact> 0.30391571E+01</totfact>
</mgrwt>
</event>
<event>
12    5  0.5428626E-008  0.2381219E+04  0.7818608E-02  0.8446568E-01
         -2   -1    0    0    0  501 -0.00000000000E+00  0.00000000000E+00  0.89274421690E+03  0.89274421690E+03  0.00000000000E+00 0.  1.
          1   -1    0    0  501    0  0.00000000000E+00 -0.00000000000E+00 -0.15878584656E+04  0.15878584656E+04  0.00000000000E+00 0. -1.
        -24    2    1    2    0    0 -0.52111245357E+03 -0.58761906295E+03 -0.97425415345E+03  0.12539281509E+04  0.79437395113E+02 0.  0.
        254    2    1    2    0    0  0.52111245357E+03  0.58761906295E+03  0.27913990471E+03  0.12266745316E+04  0.89997609287E+03 0.  0.
         23    2    4    4    0    0  0.59373067996E+03  0.55551594510E+03  0.51098848144E+03  0.96469397865E+03  0.91712369352E+02 0.  0.
         23    2    4    4    0    0 -0.72618226392E+02  0.32103117850E+02 -0.23184857673E+03  0.26198055298E+03  0.92606860591E+02 0.  0.
          3    1    3    3  502    0 -0.28891801889E+03 -0.31899858191E+03 -0.59576793433E+03  0.73496472601E+03  0.00000000000E+00 0. -1.
         -4    1    3    3    0  502 -0.23219443467E+03 -0.26862048104E+03 -0.37848621912E+03  0.51896342490E+03  0.00000000000E+00 0.  1.
         13    1    5    5    0    0  0.39099419542E+03  0.39393382010E+03  0.39161165048E+03  0.67927902975E+03  0.00000000000E+00 0. -1.
        -13    1    5    5    0    0  0.20273648454E+03  0.16158212500E+03  0.11937683096E+03  0.28541494890E+03  0.00000000000E+00 0.  1.
          1    1    6    6  503    0 -0.93291501300E+02  0.15827119927E+02 -0.19447993112E+03  0.21627816706E+03  0.00000000000E+00 0.  1.
         -1    1    6    6    0  503  0.20673274907E+02  0.16275997923E+02 -0.37368645605E+02  0.45702385913E+02  0.00000000000E+00 0. -1.
<mgrwt>
<rscale>  0 0.23812194E+04</rscale>
<asrwt>0</asrwt>
<pdfrwt beam="1">  1        1 0.24428592E+00 0.23812194E+04</pdfrwt>
<pdfrwt beam="2">  1       -2 0.13734526E+00 0.23812194E+04</pdfrwt>
<totfact> 0.16924034E+00</totfact>
</mgrwt>
</event>
<event>
12    5  0.5428626E-008  0.1394949E+04  0.7818608E-02  0.8957483E-01
         -2   -1    0    0    0  501 -0.00000000000E+00  0.00000000000E+00  0.16109250967E+03  0.16109250967E+03  0.00000000000E+00 0.  1.
          1   -1    0    0  501    0  0.00000000000E+00 -0.00000000000E+00 -0.30198198775E+04  0.30198198775E+04  0.00000000000E+00 0. -1.
        -24    2    1    2    0    0  0.17913944561E+03  0.29963488054E+03 -0.12846672795E+04  0.13337146062E+04  0.80948311824E+02 0.  0.
        254    2    1    2    0    0 -0.17913944561E+03 -0.29963488054E+03 -0.15740600884E+04  0.18471977810E+04  0.90144466149E+03 0.  0.
         23    2    4    4    0    0  0.20619413094E+03  0.21570440909E+03 -0.42352282720E+03  0.52577398176E+03  0.89567198225E+02 0.  0.
         23    2    4    4    0    0 -0.38533357655E+03 -0.51533928963E+03 -0.11505372612E+04  0.13214237993E+04  0.91478517787E+02 0.  0.
          3    1    3    3  502    0  0.11811357471E+03  0.19102920840E+03 -0.67290426626E+03  0.70939631134E+03  0.00000000000E+00 0. -1.
         -4    1    3    3    0  502  0.61025870899E+02  0.10860567215E+03 -0.61176301320E+03  0.62431829483E+03  0.00000000000E+00 0.  1.
         13    1    5    5    0    0  0.19016283815E+03  0.16870297588E+03 -0.30359107098E+03  0.39596734393E+03  0.00000000000E+00 0. -1.
        -13    1    5    5    0    0  0.16031292789E+02  0.47001433207E+02 -0.11993175622E+03  0.12980663782E+03  0.00000000000E+00 0.  1.
          3    1    6    6  503    0 -0.10641995134E+03 -0.11071715651E+03 -0.34790648995E+03  0.38029254600E+03  0.00000000000E+00 0. -1.
         -3    1    6    6    0  503 -0.27891362521E+03 -0.40462213312E+03 -0.80263077123E+03  0.94113125326E+03  0.00000000000E+00 0.  1.
<mgrwt>
<rscale>  0 0.13949485E+04</rscale>
<asrwt>0</asrwt>
<pdfrwt beam="1">  1        1 0.46458768E+00 0.13949485E+04</pdfrwt>
<pdfrwt beam="2">  1       -2 0.24783463E-01 0.13949485E+04</pdfrwt>
<totfact> 0.72766763E+00</totfact>
</mgrwt>
</event>
<event>
12    5  0.5428626E-008  0.1990029E+04  0.7818608E-02  0.8611297E-01
          1   -1    0    0  501    0  0.00000000000E+00  0.00000000000E+00  0.84944661292E+03  0.84944661292E+03  0.00000000000E+00 0. -1.
         -2   -1    0    0    0  501 -0.00000000000E+00 -0.00000000000E+00 -0.11655276500E+04  0.11655276500E+04  0.00000000000E+00 0.  1.
        -24    2    1    2    0    0 -0.72366244001E+03  0.31196014716E+03 -0.16454576911E+03  0.80901909908E+03  0.80188104157E+02 0.  0.
        254    2    1    2    0    0  0.72366244001E+03 -0.31196014716E+03 -0.15153526794E+03  0.12059551638E+04  0.90019912198E+03 0.  0.
         23    2    4    4    0    0  0.34376090189E+03  0.28998392201E+02  0.33870676482E+03  0.49207335455E+03  0.91659420188E+02 0.  0.
         23    2    4    4    0    0  0.37990153812E+03 -0.34095853937E+03 -0.49024203276E+03  0.71388180927E+03  0.93338538052E+02 0.  0.
          1    1    3    3  502    0 -0.33825347262E+01  0.10255906374E+02  0.66262557088E+00  0.10819622423E+02  0.00000000000E+00 0. -1.
         -2    1    3    3    0  502 -0.72027990528E+03  0.30170424079E+03 -0.16520839468E+03  0.79819947666E+03  0.00000000000E+00 0.  1.
         13    1    5    5    0    0  0.77706220083E+02  0.43488200614E+02  0.66276685128E+02  0.11100486126E+03  0.00000000000E+00 0.  1.
        -13    1    5    5    0    0  0.26605468181E+03 -0.14489808413E+02  0.27243007969E+03  0.38106849329E+03  0.00000000000E+00 0. -1.
          2    1    6    6  503    0  0.12360477621E+03 -0.89859820415E+02 -0.20400218313E+03  0.25489177850E+03  0.00000000000E+00 0. -1.
         -2    1    6    6    0  503  0.25629676191E+03 -0.25109871895E+03 -0.28623984963E+03  0.45899003076E+03  0.00000000000E+00 0.  1.
<mgrwt>
<rscale>  0 0.19900287E+04</rscale>
<asrwt>0</asrwt>
<pdfrwt beam="1">  1        1 0.13068409E+00 0.19900287E+04</pdfrwt>
<pdfrwt beam="2">  1       -2 0.17931195E+00 0.19900287E+04</pdfrwt>
<totfact> 0.29892567E+00</totfact>
</mgrwt>
</event>
<event>
12    5  0.5428626E-008  0.1581867E+04  0.7818608E-02  0.8831766E-01
          1   -1    0    0  501    0  0.00000000000E+00  0.00000000000E+00  0.91663903703E+03  0.91663903703E+03  0.00000000000E+00 0. -1.
         -2   -1    0    0    0  501 -0.00000000000E+00 -0.00000000000E+00 -0.68246718994E+03  0.68246718994E+03  0.00000000000E+00 0.  1.
        -24    2    1    2    0    0  0.13940459528E+02 -0.16309727453E+03  0.60487344795E+03  0.63146997140E+03  0.78021659653E+02 0.  0.
        254    2    1    2    0    0 -0.13940459528E+02  0.16309727453E+03 -0.37070160087E+03  0.96763625557E+03  0.87869516263E+03 0.  0.
         23    2    4    4    0    0 -0.33682303649E+03  0.36166603084E+03 -0.19228316509E+03  0.53860995753E+03  0.94211437739E+02 0.  0.
         23    2    4    4    0    0  0.32288257696E+03 -0.19856875631E+03 -0.17841843578E+03  0.42902629803E+03  0.92453862493E+02 0.  0.
          3    1    3    3  502    0  0.41388800679E+02 -0.10409326227E+03  0.31334227466E+03  0.33276391205E+03  0.00000000000E+00 0. -1.
         -4    1    3    3    0  502 -0.27448341152E+02 -0.59004012260E+02  0.29153117329E+03  0.29870605935E+03  0.00000000000E+00 0.  1.
         13    1    5    5    0    0 -0.24342900181E+02  0.29384060022E+02  0.10288615821E+02  0.39520316144E+02  0.00000000000E+00 0. -1.
        -13    1    5    5    0    0 -0.31248013631E+03  0.33228197082E+03 -0.20257178091E+03  0.49908964139E+03  0.00000000000E+00 0.  1.
          1    1    6    6  503    0  0.13051810432E+03 -0.11896904266E+03 -0.11747566615E+03  0.21210643744E+03  0.00000000000E+00 0. -1.
         -1    1    6    6    0  503  0.19236447265E+03 -0.79599713649E+02 -0.60942769626E+02  0.21691986059E+03  0.00000000000E+00 0.  1.
<mgrwt>
<rscale>  0 0.15818673E+04</rscale>
<asrwt>0</asrwt>
<pdfrwt beam="1">  1        1 0.14102139E+00 0.15818673E+04</pdfrwt>
<pdfrwt beam="2">  1       -2 0.10499495E+00 0.15818673E+04</pdfrwt>
<totfact> 0.10918881E+01</totfact>
</mgrwt>
</event>
<event>
12    5  0.5428626E-008  0.2340344E+04  0.7818608E-02  0.8462182E-01
         -2   -1    0    0    0  501 -0.00000000000E+00  0.00000000000E+00  0.99616711900E+03  0.99616711900E+03  0.00000000000E+00 0.  1.
          1   -1    0    0  501    0  0.00000000000E+00 -0.00000000000E+00 -0.13745713225E+04  0.13745713225E+04  0.00000000000E+00 0. -1.
        -24    2    1    2    0    0  0.76226586942E+02  0.73667799192E+03  0.50287718090E+03  0.89846163180E+03  0.76438788683E+02 0.  0.
        254    2    1    2    0    0 -0.76226586942E+02 -0.73667799192E+03 -0.88128138439E+03  0.14722768097E+04  0.91784376098E+03 0.  0.
         23    2    4    4    0    0 -0.22781833083E+03  0.11474140121E+03 -0.62760461428E+02  0.27799791332E+03  0.90979026592E+02 0.  0.
         23    2    4    4    0    0  0.15159174389E+03 -0.85141939313E+03 -0.81852092297E+03  0.11942788964E+04  0.91817978632E+02 0.  0.
          3    1    3    3  502    0  0.11287216176E+02  0.28567123797E+03  0.15515706210E+03  0.32528321717E+03  0.00000000000E+00 0. -1.
         -4    1    3    3    0  502  0.64939370766E+02  0.45100675395E+03  0.34772011879E+03  0.57317841463E+03  0.00000000000E+00 0.  1.
         13    1    5    5    0    0 -0.20819895439E+03  0.93729943122E+02 -0.82888599264E+02  0.24290456302E+03  0.00000000000E+00 0. -1.
        -13    1    5    5    0    0 -0.19619376436E+02  0.21011458085E+02  0.20128137836E+02  0.35093350301E+02  0.00000000000E+00 0.  1.
          3    1    6    6  503    0  0.16130570547E+03 -0.75053058074E+03 -0.73737201244E+03  0.10644403074E+04  0.00000000000E+00 0. -1.
         -3    1    6    6    0  503 -0.97139615798E+01 -0.10088881239E+03 -0.81148910523E+02  0.12983858900E+03  0.00000000000E+00 0.  1.
<mgrwt>
<rscale>  0 0.23403442E+04</rscale>
<asrwt>0</asrwt>
<pdfrwt beam="1">  1        1 0.21147251E+00 0.23403442E+04</pdfrwt>
<pdfrwt beam="2">  1       -2 0.15325648E+00 0.23403442E+04</pdfrwt>
<totfact> 0.17912524E+00</totfact>
</mgrwt>
</event>
<event>
12    5  0.5428626E-008  0.1536439E+04  0.7818608E-02  0.8860577E-01
          1   -1    0    0  501    0  0.00000000000E+00  0.00000000000E+00  0.17705644711E+04  0.17705644711E+04  0.00000000000E+00 0. -1.
         -2   -1    0    0    0  501 -0.00000000000E+00 -0.00000000000E+00 -0.33331792430E+03  0.33331792430E+03  0.00000000000E+00 0.  1.
        -24    2    1    2    0    0  0.42204017933E+03 -0.24052685576E+03  0.65854624111E+03  0.82228321136E+03  0.80594334127E+02 0.  0.
        254    2    1    2    0    0 -0.42204017933E+03  0.24052685576E+03  0.77870030568E+03  0.12815991840E+04  0.89451172218E+03 0.  0.
         23    2    4    4    0    0 -0.10862511453E+03  0.38644234170E+03 -0.14670064724E+02  0.41219753211E+03  0.92490516899E+02 0.  0.
         23    2    4    4    0    0 -0.31341506480E+03 -0.14591548594E+03  0.79337037040E+03  0.86940165191E+03  0.83080417861E+02 0.  0.
          3    1    3    3  502    0  0.17139741702E+03 -0.14077933677E+03  0.32122947265E+03  0.39036427901E+03  0.00000000000E+00 0. -1.
         -4    1    3    3    0  502  0.25064276231E+03 -0.99747518985E+02  0.33731676846E+03  0.43191893235E+03  0.00000000000E+00 0.  1.
         13    1    5    5    0    0 -0.11821644318E+03  0.29998088844E+03  0.71412274748E+01  0.32251303539E+03  0.00000000000E+00 0.  1.
        -13    1    5    5    0    0  0.95913286479E+01  0.86461453256E+02 -0.21811292199E+02  0.89684496719E+02  0.00000000000E+00 0. -1.
          1    1    6    6  503    0 -0.10151043829E+03 -0.17325351386E+02  0.30159489036E+03  0.31869109616E+03  0.00000000000E+00 0. -1.
         -1    1    6    6    0  503 -0.21190462650E+03 -0.12859013456E+03  0.49177548004E+03  0.55071055574E+03  0.00000000000E+00 0.  1.
<mgrwt>
<rscale>  0 0.15364386E+04</rscale>
<asrwt>0</asrwt>
<pdfrwt beam="1">  1        1 0.27239453E+00 0.15364386E+04</pdfrwt>
<pdfrwt beam="2">  1       -2 0.51279682E-01 0.15364386E+04</pdfrwt>
<totfact> 0.12980347E+01</totfact>
</mgrwt>
</event>
<event>
12    5  0.5428626E-008  0.1874772E+04  0.7818608E-02  0.8667517E-01
         -4   -1    0    0    0  501 -0.00000000000E+00  0.00000000000E+00  0.12126066370E+04  0.12126066370E+04  0.00000000000E+00 0.  1.
          3   -1    0    0  501    0  0.00000000000E+00 -0.00000000000E+00 -0.72463146970E+03  0.72463146970E+03  0.00000000000E+00 0. -1.
        -24    2    1    2    0    0  0.12295140198E+03  0.37854059194E+03 -0.42940112197E+03  0.59065045942E+03  0.77926982975E+02 0.  0.
        254    2    1    2    0    0 -0.12295140198E+03 -0.37854059194E+03  0.91737628923E+03  0.13465876472E+04  0.90183646449E+03 0.  0.
         23    2    4    4    0    0  0.17344400621E+03  0.15738535805E+03  0.60145371960E+03  0.65154949273E+03  0.88978595441E+02 0.  0.
         23    2    4    4    0    0 -0.29639540819E+03 -0.53592594998E+03  0.31592256963E+03  0.69503815451E+03  0.90576511091E+02 0.  0.
          3    1    3    3  502    0  0.18388419477E+02  0.12937712639E+03 -0.18365463276E+03  0.22540097368E+03  0.00000000000E+00 0. -1.
         -4    1    3    3    0  502  0.10456298250E+03  0.24916346555E+03 -0.24574648921E+03  0.36524948574E+03  0.00000000000E+00 0.  1.
         13    1    5    5    0    0  0.17374324433E+02  0.45498495113E+02  0.20943598889E+03  0.21502421643E+03  0.00000000000E+00 0.  1.
        -13    1    5    5    0    0  0.15606968177E+03  0.11188686294E+03  0.39201773070E+03  0.43652527630E+03  0.00000000000E+00 0. -1.
          2    1    6    6  503    0 -0.17014932272E+01 -0.16084257649E+01  0.14069264587E+02  0.14262759855E+02  0.00000000000E+00 0. -1.
         -2    1    6    6    0  503 -0.29469391496E+03 -0.53431752422E+03  0.30185330505E+03  0.68077539466E+03  0.00000000000E+00 0.  1.
<mgrwt>
<rscale>  0 0.18747724E+04</rscale>
<asrwt>0</asrwt>
<pdfrwt beam="1">  1        3 0.11148176E+00 0.18747724E+04</pdfrwt>
<pdfrwt beam="2">  1       -4 0.18655487E+00 0.18747724E+04</pdfrwt>
<totfact> 0.23511220E-01</totfact>
</mgrwt>
</event>
<event>
12    5  0.5428626E-008  0.1111505E+04  0.7818608E-02  0.9194050E-01
         -2   -1    0    0    0  501 -0.00000000000E+00  0.00000000000E+00  0.45056997712E+03  0.45056997712E+03  0.00000000000E+00 0.  1.
          1   -1    0    0  501    0  0.00000000000E+00 -0.00000000000E+00 -0.68548897310E+03  0.68548897310E+03  0.00000000000E+00 0. -1.
        -24    2    1    2    0    0 -0.46253096565E+02 -0.17006300979E+03 -0.51391872737E+02  0.20052483647E+03  0.80674092606E+02 0.  0.
        254    2    1    2    0    0  0.46253096565E+02  0.17006300979E+03 -0.18352712324E+03  0.93553411375E+03  0.90026723632E+03 0.  0.
         23    2    4    4    0    0  0.15195103081E+03  0.46341273589E+03 -0.31131162223E+03  0.58633180179E+03  0.95024081700E+02 0.  0.
         23    2    4    4    0    0 -0.10569793425E+03 -0.29334972610E+03  0.12778449899E+03  0.34920231196E+03  0.91581992694E+02 0.  0.
          3    1    3    3  502    0 -0.50949695000E+02 -0.55959881344E+02 -0.40425467994E+02  0.85799756428E+02  0.00000000000E+00 0. -1.
         -4    1    3    3    0  502  0.46965984348E+01 -0.11410312844E+03 -0.10966404743E+02  0.11472508004E+03  0.00000000000E+00 0.  1.
         13    1    5    5    0    0  0.12329787690E+03  0.36060689641E+03 -0.19365799186E+03  0.42748464066E+03  0.00000000000E+00 0.  1.
        -13    1    5    5    0    0  0.28653153913E+02  0.10280583948E+03 -0.11765363037E+03  0.15884716114E+03  0.00000000000E+00 0. -1.
          2    1    6    6  503    0 -0.37357667337E+02 -0.15636897225E+03  0.20060309511E+02  0.16201625477E+03  0.00000000000E+00 0. -1.
         -2    1    6    6    0  503 -0.68340266910E+02 -0.13698075386E+03  0.10772418948E+03  0.18718605719E+03  0.00000000000E+00 0.  1.
<mgrwt>
<rscale>  0 0.11115048E+04</rscale>
<asrwt>0</asrwt>
<pdfrwt beam="1">  1        1 0.10545984E+00 0.11115048E+04</pdfrwt>
<pdfrwt beam="2">  1       -2 0.69318458E-01 0.11115048E+04</pdfrwt>
<totfact> 0.46588414E+01</totfact>
</mgrwt>
</event>
<event>
12    5  0.5428626E-008  0.1426756E+04  0.7818608E-02  0.8934675E-01
          1   -1    0    0  501    0  0.00000000000E+00  0.00000000000E+00  0.21767635211E+04  0.21767635211E+04  0.00000000000E+00 0. -1.
         -2   -1    0    0    0  501 -0.00000000000E+00 -0.00000000000E+00 -0.23379132081E+03  0.23379132081E+03  0.00000000000E+00 0.  1.
        -24    2    1    2    0    0  0.38868035536E+03  0.16446845135E+03  0.52306291958E+03  0.67687266034E+03  0.80246435115E+02 0.  0.
        254    2    1    2    0    0 -0.38868035536E+03 -0.16446845135E+03  0.14199092807E+04  0.17336821816E+04  0.90077147554E+03 0.  0.
         23    2    4    4    0    0  0.19647906409E+03  0.19976076089E+03  0.35134296005E+03  0.45883141566E+03  0.92606739495E+02 0.  0.
         23    2    4    4    0    0 -0.58515941945E+03 -0.36422921224E+03  0.10685663207E+04  0.12748507659E+04  0.91301853770E+02 0.  0.
          3    1    3    3  502    0  0.21159435806E+03  0.11402627402E+03  0.34697284321E+03  0.42209515213E+03  0.00000000000E+00 0. -1.
         -4    1    3    3    0  502  0.17708599730E+03  0.50442177327E+02  0.17609007637E+03  0.25477750821E+03  0.00000000000E+00 0.  1.
         13    1    5    5    0    0  0.11016078151E+03  0.79241431804E+02  0.23092004270E+03  0.26784075197E+03  0.00000000000E+00 0. -1.
        -13    1    5    5    0    0  0.86318282580E+02  0.12051932909E+03  0.12042291735E+03  0.19099066368E+03  0.00000000000E+00 0.  1.
          3    1    6    6  503    0 -0.21311930381E+03 -0.13668845073E+03  0.47544061449E+03  0.53865327264E+03  0.00000000000E+00 0. -1.
         -3    1    6    6    0  503 -0.37204011564E+03 -0.22754076151E+03  0.59312570617E+03  0.73619749328E+03  0.00000000000E+00 0.  1.
<mgrwt>
<rscale>  0 0.14267563E+04</rscale>
<asrwt>0</asrwt>
<pdfrwt beam="1">  1        1 0.33488668E+00 0.14267563E+04</pdfrwt>
<pdfrwt beam="2">  1       -2 0.35967897E-01 0.14267563E+04</pdfrwt>
<totfact> 0.14053618E+01</totfact>
</mgrwt>
</event>
<event>
12    5  0.5428626E-008  0.2903181E+04  0.7818608E-02  0.8271932E-01
         -2   -1    0    0    0  501 -0.00000000000E+00  0.00000000000E+00  0.86026570156E+03  0.86026570156E+03  0.00000000000E+00 0.  1.
          1   -1    0    0  501    0  0.00000000000E+00 -0.00000000000E+00 -0.24493768928E+04  0.24493768928E+04  0.00000000000E+00 0. -1.
        -24    2    1    2    0    0  0.38294472776E+03  0.11867977116E+04 -0.77171486794E+03  0.14687533294E+04  0.80975504179E+02 0.  0.
        254    2    1    2    0    0 -0.38294472776E+03 -0.11867977116E+04 -0.81739632334E+03  0.18408892650E+04  0.10796300588E+04 0.  0.
         23    2    4    4    0    0 -0.58205059273E+03 -0.49343181448E+03 -0.30805972250E+02  0.76910470032E+03  0.91187631259E+02 0.  0.
         23    2    4    4    0    0  0.19910586497E+03 -0.69336589716E+03 -0.78659035109E+03  0.10717845647E+04  0.97971219702E+02 0.  0.
          1    1    3    3  502    0  0.70802421909E+02  0.13742676584E+03 -0.10570879141E+03  0.18727906316E+03  0.00000000000E+00 0. -1.
         -2    1    3    3    0  502  0.31214230585E+03  0.10493709458E+04 -0.66600607653E+03  0.12814742662E+04  0.00000000000E+00 0.  1.
         13    1    5    5    0    0 -0.44350628516E+03 -0.40212681321E+03  0.79183451432E+01  0.59872071875E+03  0.00000000000E+00 0.  1.
        -13    1    5    5    0    0 -0.13854430757E+03 -0.91305001272E+02 -0.38724317393E+02  0.17038398157E+03  0.00000000000E+00 0. -1.
          4    1    6    6  503    0  0.88697761754E+02 -0.22863123426E+03 -0.20856294634E+03  0.32192862067E+03  0.00000000000E+00 0. -1.
         -4    1    6    6    0  503  0.11040810321E+03 -0.46473466289E+03 -0.57802740474E+03  0.74985594402E+03  0.00000000000E+00 0.  1.
<mgrwt>
<rscale>  0 0.29031810E+04</rscale>
<asrwt>0</asrwt>
<pdfrwt beam="1">  1        1 0.37682721E+00 0.29031810E+04</pdfrwt>
<pdfrwt beam="2">  1       -2 0.13234857E+00 0.29031810E+04</pdfrwt>
<totfact> 0.45993433E-01</totfact>
</mgrwt>
</event>
<event>
12    5  0.5428626E-008  0.1826683E+04  0.7818608E-02  0.8692237E-01
         -2   -1    0    0    0  501 -0.00000000000E+00  0.00000000000E+00  0.62678592148E+03  0.62678592148E+03  0.00000000000E+00 0.  1.
          1   -1    0    0  501    0  0.00000000000E+00 -0.00000000000E+00 -0.13309045767E+04  0.13309045767E+04  0.00000000000E+00 0. -1.
        -24    2    1    2    0    0  0.34915828422E+01 -0.40583641293E+03  0.32860220267E+03  0.52805499853E+03  0.78404646920E+02 0.  0.
        254    2    1    2    0    0 -0.34915828422E+01  0.40583641293E+03 -0.10327208579E+04  0.14296354997E+04  0.90145987507E+03 0.  0.
         23    2    4    4    0    0  0.62155352308E+02 -0.24567426146E+03 -0.54026098656E+03  0.60539822584E+03  0.10200954699E+03 0.  0.
         23    2    4    4    0    0 -0.65646935150E+02  0.65151067440E+03 -0.49245987137E+03  0.82423727386E+03  0.89859221863E+02 0.  0.
          1    1    3    3  502    0  0.24774846429E+02 -0.45034179075E+02  0.32413045931E+02  0.60765745672E+02  0.00000000000E+00 0. -1.
         -2    1    3    3    0  502 -0.21283263587E+02 -0.36080223386E+03  0.29618915674E+03  0.46728925286E+03  0.00000000000E+00 0.  1.
         13    1    5    5    0    0 -0.36944406660E+01  0.63573023245E+01 -0.23278066639E+01  0.77125137630E+01  0.00000000000E+00 0.  1.
        -13    1    5    5    0    0  0.65849792974E+02 -0.25203156379E+03 -0.53793317990E+03  0.59768571207E+03  0.00000000000E+00 0. -1.
          3    1    6    6  503    0 -0.52739707983E+02  0.51995875711E+03 -0.34512921293E+03  0.62630085383E+03  0.00000000000E+00 0. -1.
         -3    1    6    6    0  503 -0.12907227167E+02  0.13155191729E+03 -0.14733065844E+03  0.19793642003E+03  0.00000000000E+00 0.  1.
<mgrwt>
<rscale>  0 0.18266825E+04</rscale>
<asrwt>0</asrwt>
<pdfrwt beam="1">  1        1 0.20475455E+00 0.18266825E+04</pdfrwt>
<pdfrwt beam="2">  1       -2 0.96428605E-01 0.18266825E+04</pdfrwt>
<totfact> 0.63916193E+00</totfact>
</mgrwt>
</event>
<event>
12    5  0.5428626E-008  0.2230916E+04  0.7818608E-02  0.8505669E-01
          1   -1    0    0  501    0  0.00000000000E+00  0.00000000000E+00  0.13421430042E+04  0.13421430042E+04  0.00000000000E+00 0. -1.
         -2   -1    0    0    0  501 -0.00000000000E+00 -0.00000000000E+00 -0.92705933415E+03  0.92705933415E+03  0.00000000000E+00 0.  1.
        -24    2    1    2    0    0  0.11759560137E+03  0.68164840237E+03  0.80855001393E+03  0.10671725116E+04  0.81429568412E+02 0.  0.
        254    2    1    2    0    0 -0.11759560137E+03 -0.68164840237E+03 -0.39346634385E+03  0.12020298268E+04  0.90088105251E+03 0.  0.
         23    2    4    4    0    0 -0.14421450403E+03  0.80431637781E+02  0.16597427585E+03  0.25195277468E+03  0.93089574589E+02 0.  0.
         23    2    4    4    0    0  0.26618902657E+02 -0.76208004015E+03 -0.55944061969E+03  0.95007705209E+03  0.90543052542E+02 0.  0.
          3    1    3    3  502    0  0.12278234104E+03  0.59953465775E+03  0.73850304424E+03  0.95911628881E+03  0.00000000000E+00 0. -1.
         -4    1    3    3    0  502 -0.51867396724E+01  0.82113744624E+02  0.70046969691E+02  0.10805622281E+03  0.00000000000E+00 0.  1.
         13    1    5    5    0    0 -0.42781668786E+02 -0.12613808044E+02  0.13635041241E+02  0.46640043816E+02  0.00000000000E+00 0.  1.
        -13    1    5    5    0    0 -0.10143283524E+03  0.93045445825E+02  0.15233923461E+03  0.20531273086E+03  0.00000000000E+00 0. -1.
          3    1    6    6  503    0 -0.84455445464E+01 -0.48406049903E+01 -0.53211226919E+01  0.11093828287E+02  0.00000000000E+00 0. -1.
         -3    1    6    6    0  503  0.35064447204E+02 -0.75723943516E+03 -0.55411949700E+03  0.93898322380E+03  0.00000000000E+00 0.  1.
<mgrwt>
<rscale>  0 0.22309157E+04</rscale>
<asrwt>0</asrwt>
<pdfrwt beam="1">  1        1 0.20648354E+00 0.22309157E+04</pdfrwt>
<pdfrwt beam="2">  1       -2 0.14262451E+00 0.22309157E+04</pdfrwt>
<totfact> 0.23049925E+00</totfact>
</mgrwt>
</event>
<event>
12    5  0.5428626E-008  0.2298728E+04  0.7818608E-02  0.8478423E-01
         -2   -1    0    0    0  501 -0.00000000000E+00  0.00000000000E+00  0.83342961803E+03  0.83342961803E+03  0.00000000000E+00 0.  1.
          1   -1    0    0  501    0  0.00000000000E+00 -0.00000000000E+00 -0.15850625230E+04  0.15850625230E+04  0.00000000000E+00 0. -1.
        -24    2    1    2    0    0 -0.36703525545E+03  0.35427142029E+03 -0.11761044064E+04  0.12845231938E+04  0.80963835732E+02 0.  0.
        254    2    1    2    0    0  0.36703525545E+03 -0.35427142029E+03  0.42447150141E+03  0.11339689472E+04  0.91950334410E+03 0.  0.
         23    2    4    4    0    0 -0.29460970318E+03 -0.19851882043E+03  0.12860237272E+03  0.38690934054E+03  0.83400649020E+02 0.  0.
         23    2    4    4    0    0  0.66164495863E+03 -0.15575259986E+03  0.29586912869E+03  0.74705960670E+03  0.92339541935E+02 0.  0.
          3    1    3    3  502    0 -0.30102954976E+03  0.27427743679E+03 -0.10059082822E+04  0.10852181229E+04  0.00000000000E+00 0. -1.
         -4    1    3    3    0  502 -0.66005705691E+02  0.79993983500E+02 -0.17019612418E+03  0.19930507085E+03  0.00000000000E+00 0.  1.
         13    1    5    5    0    0 -0.86029097110E+02 -0.82276837131E+02  0.77705146431E+01  0.11929318663E+03  0.00000000000E+00 0.  1.
        -13    1    5    5    0    0 -0.20858060607E+03 -0.11624198330E+03  0.12083185808E+03  0.26761615392E+03  0.00000000000E+00 0. -1.
          1    1    6    6  503    0  0.66331451982E+03 -0.15418028218E+03  0.29852069006E+03  0.74355384070E+03  0.00000000000E+00 0. -1.
         -1    1    6    6    0  503 -0.16695611959E+01 -0.15723176874E+01 -0.26515613766E+01  0.35057659977E+01  0.00000000000E+00 0.  1.
<mgrwt>
<rscale>  0 0.22987284E+04</rscale>
<asrwt>0</asrwt>
<pdfrwt beam="1">  1        1 0.24385577E+00 0.22987284E+04</pdfrwt>
<pdfrwt beam="2">  1       -2 0.12821994E+00 0.22987284E+04</pdfrwt>
<totfact> 0.20397329E+00</totfact>
</mgrwt>
</event>
<event>
12    5  0.5428626E-008  0.2033633E+04  0.7818608E-02  0.8591056E-01
          1   -1    0    0  501    0  0.00000000000E+00  0.00000000000E+00  0.18420848597E+04  0.18420848597E+04  0.00000000000E+00 0. -1.
         -2   -1    0    0    0  501 -0.00000000000E+00 -0.00000000000E+00 -0.56127465534E+03  0.56127465534E+03  0.00000000000E+00 0.  1.
        -24    2    1    2    0    0 -0.79310977993E+03  0.11814230719E+03  0.69032989981E+03  0.10611028437E+04  0.80019664141E+02 0.  0.
        254    2    1    2    0    0  0.79310977993E+03 -0.11814230719E+03  0.59048030453E+03  0.13422566713E+04  0.90000291878E+03 0.  0.
         23    2    4    4    0    0  0.52408179762E+03 -0.14912372658E+03  0.81037643135E+03  0.98161699557E+03  0.99811567847E+02 0.  0.
         23    2    4    4    0    0  0.26902798231E+03  0.30981419384E+02 -0.21989612683E+03  0.36063967572E+03  0.91491887576E+02 0.  0.
          3    1    3    3  502    0 -0.55638729361E+02  0.63497516928E+01  0.78216188806E+02  0.96196464294E+02  0.00000000000E+00 0. -1.
         -4    1    3    3    0  502 -0.73747105057E+03  0.11179255550E+03  0.61211371100E+03  0.96490637944E+03  0.00000000000E+00 0.  1.
         13    1    5    5    0    0  0.32712320539E+03 -0.66045401896E+02  0.56489728491E+03  0.65611015014E+03  0.00000000000E+00 0. -1.
        -13    1    5    5    0    0  0.19695859223E+03 -0.83078324679E+02  0.24547914644E+03  0.32550684543E+03  0.00000000000E+00 0.  1.
          2    1    6    6  503    0  0.20300613559E+03  0.28774426115E+02 -0.21060901948E+03  0.29393131471E+03  0.00000000000E+00 0. -1.
         -2    1    6    6    0  503  0.66021846728E+02  0.22069932686E+01 -0.92871073484E+01  0.66708361002E+02  0.00000000000E+00 0.  1.
<mgrwt>
<rscale>  0 0.20336328E+04</rscale>
<asrwt>0</asrwt>
<pdfrwt beam="1">  1        1 0.28339767E+00 0.20336328E+04</pdfrwt>
<pdfrwt beam="2">  1       -2 0.86349948E-01 0.20336328E+04</pdfrwt>
<totfact> 0.36009157E+00</totfact>
</mgrwt>
</event>
<event>
12    5  0.5428626E-008  0.1295244E+04  0.7818608E-02  0.9033345E-01
          1   -1    0    0  501    0  0.00000000000E+00  0.00000000000E+00  0.12400508132E+04  0.12400508132E+04  0.00000000000E+00 0. -1.
         -2   -1    0    0    0  501 -0.00000000000E+00 -0.00000000000E+00 -0.33822346380E+03  0.33822346380E+03  0.00000000000E+00 0.  1.
        -24    2    1    2    0    0  0.78634757368E+02 -0.32297797048E+03  0.24234893213E+03  0.41991047765E+03  0.84223570645E+02 0.  0.
        254    2    1    2    0    0 -0.78634757368E+02  0.32297797048E+03  0.65947841724E+03  0.11583637993E+04  0.89241061976E+03 0.  0.
         23    2    4    4    0    0  0.29521434156E+03 -0.11628327844E+03  0.86378356719E+02  0.34051157881E+03  0.88394606658E+02 0.  0.
         23    2    4    4    0    0 -0.37384909893E+03  0.43926124892E+03  0.57310006052E+03  0.81785222050E+03  0.87891874653E+02 0.  0.
          1    1    3    3  502    0  0.13291888454E+02 -0.21218865410E+03  0.17088141964E+03  0.27276575812E+03  0.00000000000E+00 0. -1.
         -2    1    3    3    0  502  0.65342868914E+02 -0.11078931638E+03  0.71467512485E+02  0.14714471952E+03  0.00000000000E+00 0.  1.
         13    1    5    5    0    0  0.21546845414E+03 -0.11968623815E+03  0.44812221764E+02  0.25051863314E+03  0.00000000000E+00 0. -1.
        -13    1    5    5    0    0  0.79745887418E+02  0.34029597050E+01  0.41566134955E+02  0.89992945668E+02  0.00000000000E+00 0.  1.
          4    1    6    6  503    0 -0.24265916697E+03  0.30524225847E+03  0.43972766226E+03  0.58772163873E+03  0.00000000000E+00 0. -1.
         -4    1    6    6    0  503 -0.13118993196E+03  0.13401899045E+03  0.13337239826E+03  0.23013058177E+03  0.00000000000E+00 0.  1.
<mgrwt>
<rscale>  0 0.12952440E+04</rscale>
<asrwt>0</asrwt>
<pdfrwt beam="1">  1        1 0.19077705E+00 0.12952440E+04</pdfrwt>
<pdfrwt beam="2">  1       -2 0.52034380E-01 0.12952440E+04</pdfrwt>
<totfact> 0.30031929E+01</totfact>
</mgrwt>
</event>
<event>
12    5  0.8745007E-008  0.1618118E+04  0.7818608E-02  0.8809494E-01
         -2   -1    0    0    0  501 -0.00000000000E+00  0.00000000000E+00  0.36719628256E+03  0.36719628256E+03  0.00000000000E+00 0.  1.
          1   -1    0    0  501    0  0.00000000000E+00 -0.00000000000E+00 -0.17826345600E+04  0.17826345600E+04  0.00000000000E+00 0. -1.
        -24    2    1    2    0    0 -0.42487116707E+03 -0.28602759314E+03 -0.21517059999E+03  0.56653727240E+03  0.11108015700E+03 0.  0.
        254    2    1    2    0    0  0.42487116707E+03  0.28602759314E+03 -0.12002676775E+04  0.15832935702E+04  0.89657612012E+03 0.  0.
         23    2    4    4    0    0  0.23652728908E+03  0.44648229389E+02  0.76173512394E+02  0.26737646286E+03  0.88029233968E+02 0.  0.
         23    2    4    4    0    0  0.18834387799E+03  0.24137936375E+03 -0.12764411899E+04  0.13159171073E+04  0.92727064818E+02 0.  0.
          3    1    3    3  502    0 -0.91697128261E+02 -0.76586557997E+02 -0.31353415914E+01  0.11951441153E+03  0.00000000000E+00 0. -1.
         -4    1    3    3    0  502 -0.33317403881E+03 -0.20944103514E+03 -0.21203525839E+03  0.44702286087E+03  0.00000000000E+00 0.  1.
         13    1    5    5    0    0  0.14823329963E+03 -0.11493791677E+02  0.24509507081E+02  0.15068488412E+03  0.00000000000E+00 0. -1.
        -13    1    5    5    0    0  0.88293989452E+02  0.56142021067E+02  0.51664005312E+02  0.11669157874E+03  0.00000000000E+00 0.  1.
          3    1    6    6  503    0  0.42046937999E+02  0.11524766981E+03 -0.39748138404E+03  0.41598247686E+03  0.00000000000E+00 0. -1.
         -3    1    6    6    0  503  0.14629693999E+03  0.12613169394E+03 -0.87895980583E+03  0.89993463047E+03  0.00000000000E+00 0.  1.
<mgrwt>
<rscale>  0 0.16181184E+04</rscale>
<asrwt>0</asrwt>
<pdfrwt beam="1">  1        1 0.27425147E+00 0.16181184E+04</pdfrwt>
<pdfrwt beam="2">  1       -2 0.56491735E-01 0.16181184E+04</pdfrwt>
<totfact> 0.10352406E+01</totfact>
</mgrwt>
</event>
<event>
12    5  0.5428626E-008  0.1731809E+04  0.7818608E-02  0.8743428E-01
          1   -1    0    0  501    0  0.00000000000E+00  0.00000000000E+00  0.10474466733E+04  0.10474466733E+04  0.00000000000E+00 0. -1.
         -2   -1    0    0    0  501 -0.00000000000E+00 -0.00000000000E+00 -0.71582666215E+03  0.71582666215E+03  0.00000000000E+00 0.  1.
        -24    2    1    2    0    0  0.36068759284E+03  0.42397551432E+03  0.39403221273E+03  0.68667507147E+03  0.80065552817E+02 0.  0.
        254    2    1    2    0    0 -0.36068759284E+03 -0.42397551432E+03 -0.62412201618E+02  0.10765982639E+04  0.91941163938E+03 0.  0.
         23    2    4    4    0    0  0.14532518890E+03  0.78994264753E+02  0.23230453365E+03  0.29940952987E+03  0.91220424419E+02 0.  0.
         23    2    4    4    0    0 -0.50601278174E+03 -0.50296977907E+03 -0.29471673527E+03  0.77718873406E+03  0.90204436508E+02 0.  0.
          3    1    3    3  502    0  0.29301187251E+03  0.30749890099E+03  0.32799647061E+03  0.53664999421E+03  0.00000000000E+00 0. -1.
         -4    1    3    3    0  502  0.67675720322E+02  0.11647661332E+03  0.66035742118E+02  0.15002507727E+03  0.00000000000E+00 0.  1.
         13    1    5    5    0    0 -0.11993349949E+02  0.13546573447E+02  0.16867716705E+02  0.24736005377E+02  0.00000000000E+00 0. -1.
        -13    1    5    5    0    0  0.15731853885E+03  0.65447691306E+02  0.21543681694E+03  0.27467352450E+03  0.00000000000E+00 0.  1.
          3    1    6    6  503    0 -0.79036323610E+01 -0.76240814296E+01 -0.20165365821E+02  0.22961620171E+02  0.00000000000E+00 0. -1.
         -3    1    6    6    0  503 -0.49810914938E+03 -0.49534569764E+03 -0.27455136945E+03  0.75422711389E+03  0.00000000000E+00 0.  1.
<mgrwt>
<rscale>  0 0.17318086E+04</rscale>
<asrwt>0</asrwt>
<pdfrwt beam="1">  1        1 0.16114564E+00 0.17318086E+04</pdfrwt>
<pdfrwt beam="2">  1       -2 0.11012718E+00 0.17318086E+04</pdfrwt>
<totfact> 0.75791126E+00</totfact>
</mgrwt>
</event>
<event>
12    5  0.5428626E-008  0.1261543E+04  0.7818608E-02  0.9060630E-01
          1   -1    0    0  501    0  0.00000000000E+00  0.00000000000E+00  0.22014724419E+04  0.22014724419E+04  0.00000000000E+00 0. -1.
         -2   -1    0    0    0  501 -0.00000000000E+00 -0.00000000000E+00 -0.18073023193E+03  0.18073023193E+03  0.00000000000E+00 0.  1.
        -24    2    1    2    0    0  0.11563535094E+03 -0.20773860112E+03  0.11599002166E+03  0.27627224215E+03  0.79660566647E+02 0.  0.
        254    2    1    2    0    0 -0.11563535094E+03  0.20773860112E+03  0.19047521883E+04  0.21059304316E+04  0.86621892348E+03 0.  0.
         23    2    4    4    0    0 -0.18248245185E+03 -0.27203077052E+03  0.11883953587E+04  0.12360709240E+04  0.91034143104E+02 0.  0.
         23    2    4    4    0    0  0.66847100912E+02  0.47976937164E+03  0.71635682954E+03  0.86985950762E+03  0.94028032529E+02 0.  0.
          1    1    3    3  502    0  0.11376561964E+03 -0.18088532818E+03  0.12539047547E+03  0.24775974149E+03  0.00000000000E+00 0. -1.
         -2    1    3    3    0  502  0.18697312919E+01 -0.26853272938E+02 -0.94004538028E+01  0.28512500667E+02  0.00000000000E+00 0.  1.
         13    1    5    5    0    0 -0.87161202508E+02 -0.20476394786E+03  0.73923741245E+03  0.77200861494E+03  0.00000000000E+00 0. -1.
        -13    1    5    5    0    0 -0.95321249340E+02 -0.67266822658E+02  0.44915794627E+03  0.46406230907E+03  0.00000000000E+00 0.  1.
          2    1    6    6  503    0  0.77353693216E+02  0.45029512537E+03  0.69587609804E+03  0.83246191361E+03  0.00000000000E+00 0. -1.
         -2    1    6    6    0  503 -0.10506592304E+02  0.29474246266E+02  0.20480731502E+02  0.37397594009E+02  0.00000000000E+00 0.  1.
<mgrwt>
<rscale>  0 0.12615429E+04</rscale>
<asrwt>0</asrwt>
<pdfrwt beam="1">  1        1 0.33868805E+00 0.12615429E+04</pdfrwt>
<pdfrwt beam="2">  1       -2 0.27804653E-01 0.12615429E+04</pdfrwt>
<totfact> 0.22262817E+01</totfact>
</mgrwt>
</event>
<event>
12    5  0.5428626E-008  0.1941966E+04  0.7818608E-02  0.8634244E-01
          1   -1    0    0  501    0  0.00000000000E+00  0.00000000000E+00  0.92524416064E+03  0.92524416064E+03  0.00000000000E+00 0. -1.
         -2   -1    0    0    0  501 -0.00000000000E+00 -0.00000000000E+00 -0.10189834032E+04  0.10189834032E+04  0.00000000000E+00 0.  1.
        -24    2    1    2    0    0 -0.90666305115E+02 -0.17069731740E+03  0.70254508495E+03  0.73307610030E+03  0.80455076825E+02 0.  0.
        254    2    1    2    0    0  0.90666305115E+02  0.17069731740E+03 -0.79628432751E+03  0.12111514635E+04  0.89188630683E+03 0.  0.
         23    2    4    4    0    0 -0.49408384553E+02  0.29485805745E+03 -0.91615725975E+03  0.96783900325E+03  0.89363018704E+02 0.  0.
         23    2    4    4    0    0  0.14007468967E+03 -0.12416074005E+03  0.11987293225E+03  0.24331246027E+03  0.98967799728E+02 0.  0.
          3    1    3    3  502    0 -0.85403727877E+02 -0.10408168391E+03  0.55511833621E+03  0.57121201043E+03  0.00000000000E+00 0. -1.
         -4    1    3    3    0  502 -0.52625772382E+01 -0.66615633495E+02  0.14742674874E+03  0.16186408987E+03  0.00000000000E+00 0.  1.
         13    1    5    5    0    0 -0.54005126705E+02  0.23500668429E+03 -0.81782314907E+03  0.85263086886E+03  0.00000000000E+00 0. -1.
        -13    1    5    5    0    0  0.45967421518E+01  0.59851373158E+02 -0.98334110684E+02  0.11520813440E+03  0.00000000000E+00 0.  1.
          2    1    6    6  503    0  0.66311023921E+02 -0.11822559478E+02  0.76878201866E+02  0.10221146085E+03  0.00000000000E+00 0. -1.
         -2    1    6    6    0  503  0.73763665747E+02 -0.11233818057E+03  0.42994730380E+02  0.14110099943E+03  0.00000000000E+00 0.  1.
<mgrwt>
<rscale>  0 0.19419665E+04</rscale>
<asrwt>0</asrwt>
<pdfrwt beam="1">  1        1 0.14234526E+00 0.19419665E+04</pdfrwt>
<pdfrwt beam="2">  1       -2 0.15676668E+00 0.19419665E+04</pdfrwt>
<totfact> 0.37745109E+00</totfact>
</mgrwt>
</event>
<event>
12    5  0.5428626E-008  0.1601350E+04  0.7818608E-02  0.8819719E-01
         -2   -1    0    0    0  501 -0.00000000000E+00  0.00000000000E+00  0.33825246477E+03  0.33825246477E+03  0.00000000000E+00 0.  1.
          1   -1    0    0  501    0  0.00000000000E+00 -0.00000000000E+00 -0.18952727166E+04  0.18952727166E+04  0.00000000000E+00 0. -1.
        -24    2    1    2    0    0 -0.24654127502E+03 -0.26367160098E+03  0.30207915122E+02  0.37105031113E+03  0.80377246794E+02 0.  0.
        254    2    1    2    0    0  0.24654127502E+03  0.26367160098E+03 -0.15872281669E+04  0.18624748702E+04  0.90510445521E+03 0.  0.
         23    2    4    4    0    0  0.70648259611E+02  0.25548210481E+03 -0.16347073463E+04  0.16586425737E+04  0.92546186467E+02 0.  0.
         23    2    4    4    0    0  0.17589301541E+03  0.81894961675E+01  0.47479179384E+02  0.20383229655E+03  0.91037969688E+02 0.  0.
          1    1    3    3  502    0 -0.21043879018E+02 -0.56124624199E+02 -0.13599795876E+02  0.61463588680E+02  0.00000000000E+00 0. -1.
         -2    1    3    3    0  502 -0.22549739600E+03 -0.20754697678E+03  0.43807710998E+02  0.30958672245E+03  0.00000000000E+00 0.  1.
         13    1    5    5    0    0  0.91278367077E+02  0.19216616961E+03 -0.11693770003E+04  0.11885714728E+04  0.00000000000E+00 0. -1.
        -13    1    5    5    0    0 -0.20630107466E+02  0.63315935201E+02 -0.46533034597E+03  0.47007110086E+03  0.00000000000E+00 0.  1.
          4    1    6    6  503    0  0.13293931213E+03 -0.13474209214E+02  0.69851786902E+02  0.15077694504E+03  0.00000000000E+00 0. -1.
         -4    1    6    6    0  503  0.42953703277E+02  0.21663705382E+02 -0.22372607518E+02  0.53055351504E+02  0.00000000000E+00 0.  1.
<mgrwt>
<rscale>  0 0.16013503E+04</rscale>
<asrwt>0</asrwt>
<pdfrwt beam="1">  1        1 0.29158041E+00 0.16013503E+04</pdfrwt>
<pdfrwt beam="2">  1       -2 0.52038842E-01 0.16013503E+04</pdfrwt>
<totfact> 0.10309238E+01</totfact>
</mgrwt>
</event>
<event>
12    5  0.5428626E-008  0.2234622E+04  0.7818608E-02  0.8504154E-01
         -2   -1    0    0    0  501 -0.00000000000E+00  0.00000000000E+00  0.18251107569E+04  0.18251107569E+04  0.00000000000E+00 0.  1.
          1   -1    0    0  501    0  0.00000000000E+00 -0.00000000000E+00 -0.68400432314E+03  0.68400432314E+03  0.00000000000E+00 0. -1.
        -24    2    1    2    0    0 -0.49421894288E+03 -0.78000231654E+03  0.32300289329E+03  0.98142171096E+03  0.78751053105E+02 0.  0.
        254    2    1    2    0    0  0.49421894288E+03  0.78000231654E+03  0.81810354045E+03  0.15276933691E+04  0.90105363307E+03 0.  0.
         23    2    4    4    0    0  0.14686762269E+03  0.18490970309E+03 -0.18055413843E+03  0.31059226901E+03  0.90033681317E+02 0.  0.
         23    2    4    4    0    0  0.34735132020E+03  0.59509261345E+03  0.99865767888E+03  0.12171011001E+04  0.96071691672E+02 0.  0.
          1    1    3    3  502    0 -0.43657994727E+03 -0.65007764095E+03  0.29341395516E+03  0.83623844608E+03  0.00000000000E+00 0. -1.
         -2    1    3    3    0  502 -0.57638995613E+02 -0.12992467559E+03  0.29588938129E+02  0.14518326488E+03  0.00000000000E+00 0.  1.
         13    1    5    5    0    0  0.94152734954E+02  0.17546361423E+03 -0.14445933488E+03  0.24600958691E+03  0.00000000000E+00 0.  1.
        -13    1    5    5    0    0  0.52714887731E+02  0.94460888605E+01 -0.36094803552E+02  0.64582682096E+02  0.00000000000E+00 0. -1.
          4    1    6    6  503    0  0.98931834640E+02  0.15155692998E+03  0.19407729605E+03  0.26537333659E+03  0.00000000000E+00 0. -1.
         -4    1    6    6    0  503  0.24841948556E+03  0.44353568347E+03  0.80458038283E+03  0.95172776347E+03  0.00000000000E+00 0.  1.
<mgrwt>
<rscale>  0 0.22346218E+04</rscale>
<asrwt>0</asrwt>
<pdfrwt beam="1">  1        1 0.10523143E+00 0.22346218E+04</pdfrwt>
<pdfrwt beam="2">  1       -2 0.28078627E+00 0.22346218E+04</pdfrwt>
<totfact> 0.93621667E-01</totfact>
</mgrwt>
</event>
<event>
12    5  0.5428626E-008  0.2764383E+04  0.7818608E-02  0.8314412E-01
          1   -1    0    0  501    0  0.00000000000E+00  0.00000000000E+00  0.27795569743E+04  0.27795569743E+04  0.00000000000E+00 0. -1.
         -2   -1    0    0    0  501 -0.00000000000E+00 -0.00000000000E+00 -0.68732280094E+03  0.68732280094E+03  0.00000000000E+00 0.  1.
        -24    2    1    2    0    0 -0.11921134057E+04 -0.23433430198E+03  0.10557997808E+04  0.16132449136E+04  0.10862337182E+03 0.  0.
        254    2    1    2    0    0  0.11921134057E+04  0.23433430198E+03  0.10364343925E+04  0.18536348616E+04  0.94112645963E+03 0.  0.
         23    2    4    4    0    0  0.32556775788E+03  0.22405579106E+03  0.87949481441E+03  0.96818059796E+03  0.87562430397E+02 0.  0.
         23    2    4    4    0    0  0.86654564784E+03  0.10278510915E+02  0.15693957811E+03  0.88545426365E+03  0.91609029401E+02 0.  0.
          1    1    3    3  502    0 -0.97403438697E+03 -0.17572247553E+03  0.80526698746E+03  0.12759609306E+04  0.00000000000E+00 0. -1.
         -2    1    3    3    0  502 -0.21807901876E+03 -0.58611826444E+02  0.25053279339E+03  0.33728398300E+03  0.00000000000E+00 0.  1.
         13    1    5    5    0    0  0.26570491525E+03  0.14051108025E+03  0.68957960145E+03  0.75223832155E+03  0.00000000000E+00 0.  1.
        -13    1    5    5    0    0  0.59862842637E+02  0.83544710806E+02  0.18991521296E+03  0.21594227642E+03  0.00000000000E+00 0. -1.
          1    1    6    6  503    0  0.20467001225E+03 -0.16190670378E+02  0.72281838050E+02  0.21766170043E+03  0.00000000000E+00 0. -1.
         -1    1    6    6    0  503  0.66187563559E+03  0.26469181293E+02  0.84657740061E+02  0.66779256323E+03  0.00000000000E+00 0.  1.
<mgrwt>
<rscale>  0 0.27643827E+04</rscale>
<asrwt>0</asrwt>
<pdfrwt beam="1">  1        1 0.42762414E+00 0.27643827E+04</pdfrwt>
<pdfrwt beam="2">  1       -2 0.10574197E+00 0.27643827E+04</pdfrwt>
<totfact> 0.47557589E-01</totfact>
</mgrwt>
</event>
<event>
12    5  0.5428626E-008  0.1484986E+04  0.7818608E-02  0.8894499E-01
         -2   -1    0    0    0  501 -0.00000000000E+00  0.00000000000E+00  0.40668317583E+03  0.40668317583E+03  0.00000000000E+00 0.  1.
          1   -1    0    0  501    0  0.00000000000E+00 -0.00000000000E+00 -0.13555901811E+04  0.13555901811E+04  0.00000000000E+00 0. -1.
        -24    2    1    2    0    0  0.44859963395E+03  0.87927147619E+01 -0.44196513255E+03  0.63514599963E+03  0.82208996140E+02 0.  0.
        254    2    1    2    0    0 -0.44859963395E+03 -0.87927147619E+01 -0.50694187274E+03  0.11271273573E+04  0.90116983629E+03 0.  0.
         23    2    4    4    0    0 -0.50883753937E+03  0.27383681135E+03 -0.61874917260E+02  0.58798567701E+03  0.89422649592E+02 0.  0.
         23    2    4    4    0    0  0.60237905421E+02 -0.28262952611E+03 -0.44506695548E+03  0.53914168029E+03  0.95294817756E+02 0.  0.
          3    1    3    3  502    0  0.45215341812E+03  0.70842688875E+01 -0.43793451848E+03  0.62950738109E+03  0.00000000000E+00 0. -1.
         -4    1    3    3    0  502 -0.35537841660E+01  0.17084458745E+01 -0.40306140730E+01  0.56386185373E+01  0.00000000000E+00 0.  1.
         13    1    5    5    0    0 -0.43653816741E+03  0.20455527187E+03 -0.71613794050E+02  0.48737764244E+03  0.00000000000E+00 0.  1.
        -13    1    5    5    0    0 -0.72299371967E+02  0.69281539478E+02  0.97388767897E+01  0.10060803457E+03  0.00000000000E+00 0. -1.
          4    1    6    6  503    0 -0.15676211938E+02 -0.12104684200E+03 -0.22291971897E+03  0.25414815106E+03  0.00000000000E+00 0. -1.
         -4    1    6    6    0  503  0.75914117360E+02 -0.16158268411E+03 -0.22214723650E+03  0.28499352923E+03  0.00000000000E+00 0.  1.
<mgrwt>
<rscale>  0 0.14849858E+04</rscale>
<asrwt>0</asrwt>
<pdfrwt beam="1">  1        1 0.20855234E+00 0.14849858E+04</pdfrwt>
<pdfrwt beam="2">  1       -2 0.62566642E-01 0.14849858E+04</pdfrwt>
<totfact> 0.16623057E+01</totfact>
</mgrwt>
</event>
<event>
12    5  0.5428626E-008  0.1149586E+04  0.7818608E-02  0.9158166E-01
         -2   -1    0    0    0  501 -0.00000000000E+00  0.00000000000E+00  0.38492452932E+03  0.38492452932E+03  0.00000000000E+00 0.  1.
          1   -1    0    0  501    0  0.00000000000E+00 -0.00000000000E+00 -0.85831634397E+03  0.85831634397E+03  0.00000000000E+00 0. -1.
        -24    2    1    2    0    0  0.86603116758E+02  0.16907099181E+02 -0.28108165893E+03  0.30558468874E+03  0.81173598979E+02 0.  0.
        254    2    1    2    0    0 -0.86603116758E+02 -0.16907099181E+02 -0.19231015572E+03  0.93765618455E+03  0.91347138685E+03 0.  0.
         23    2    4    4    0    0 -0.48508095281E+03 -0.80384362211E+02 -0.60936142944E+02  0.50373635700E+03  0.90950136804E+02 0.  0.
         23    2    4    4    0    0  0.39847783605E+03  0.63477263029E+02 -0.13137401278E+03  0.43391982755E+03  0.90627461385E+02 0.  0.
          3    1    3    3  502    0  0.74907419489E+02  0.46002861410E+02 -0.22029297490E+03  0.23718427339E+03  0.00000000000E+00 0. -1.
         -4    1    3    3    0  502  0.11695697270E+02 -0.29095762229E+02 -0.60788684028E+02  0.68400415351E+02  0.00000000000E+00 0.  1.
         13    1    5    5    0    0 -0.11621371350E+03 -0.56033766924E+02 -0.32056106635E+02  0.13293985186E+03  0.00000000000E+00 0. -1.
        -13    1    5    5    0    0 -0.36886723931E+03 -0.24350595287E+02 -0.28880036309E+02  0.37079650514E+03  0.00000000000E+00 0.  1.
          4    1    6    6  503    0  0.13381808970E+03  0.65258876626E+02 -0.46156428410E+02  0.15587308296E+03  0.00000000000E+00 0. -1.
         -4    1    6    6    0  503  0.26465974636E+03 -0.17816135961E+01 -0.85217584368E+02  0.27804674458E+03  0.00000000000E+00 0.  1.
<mgrwt>
<rscale>  0 0.11495860E+04</rscale>
<asrwt>0</asrwt>
<pdfrwt beam="1">  1        1 0.13204867E+00 0.11495860E+04</pdfrwt>
<pdfrwt beam="2">  1       -2 0.59219159E-01 0.11495860E+04</pdfrwt>
<totfact> 0.45677047E+01</totfact>
</mgrwt>
</event>
<event>
12    5  0.5428626E-008  0.1478087E+04  0.7818608E-02  0.8899157E-01
          3   -1    0    0  501    0  0.00000000000E+00  0.00000000000E+00  0.38665641266E+03  0.38665641266E+03  0.00000000000E+00 0. -1.
         -4   -1    0    0    0  501 -0.00000000000E+00 -0.00000000000E+00 -0.14125862996E+04  0.14125862996E+04  0.00000000000E+00 0.  1.
        -24    2    1    2    0    0 -0.37386201890E+03 -0.12004806424E+03 -0.24769113546E+02  0.40096420522E+03  0.77294488636E+02 0.  0.
        254    2    1    2    0    0  0.37386201890E+03  0.12004806424E+03 -0.10011607734E+04  0.13982785071E+04  0.89368648988E+03 0.  0.
         23    2    4    4    0    0  0.21944474264E+03  0.40101727478E+03 -0.15884778694E+03  0.49235909883E+03  0.90631192383E+02 0.  0.
         23    2    4    4    0    0  0.15441727626E+03 -0.28096921054E+03 -0.84231298647E+03  0.90591940825E+03  0.91708312443E+02 0.  0.
          1    1    3    3  502    0 -0.37421324833E+03 -0.11270482753E+03 -0.29961485527E+02  0.39196380444E+03  0.00000000000E+00 0. -1.
         -2    1    3    3    0  502  0.35122942400E+00 -0.73432367064E+01  0.51923719808E+01  0.90004007812E+01  0.00000000000E+00 0.  1.
         13    1    5    5    0    0  0.38061207027E+02  0.18315444364E+02 -0.95582088725E+01  0.43306700860E+02  0.00000000000E+00 0. -1.
        -13    1    5    5    0    0  0.18138353562E+03  0.38270183042E+03 -0.14928957807E+03  0.44905239796E+03  0.00000000000E+00 0.  1.
          4    1    6    6  503    0 -0.17252596689E+01  0.51629969609E+01 -0.32710774134E+02  0.33160636348E+02  0.00000000000E+00 0. -1.
         -4    1    6    6    0  503  0.15614253593E+03 -0.28613220750E+03 -0.80960221234E+03  0.87275877190E+03  0.00000000000E+00 0.  1.
<mgrwt>
<rscale>  0 0.14780873E+04</rscale>
<asrwt>0</asrwt>
<pdfrwt beam="1">  1        3 0.59485602E-01 0.14780873E+04</pdfrwt>
<pdfrwt beam="2">  1       -4 0.21732097E+00 0.14780873E+04</pdfrwt>
<totfact> 0.62161449E-01</totfact>
</mgrwt>
</event>
<event>
12    5  0.5428626E-008  0.1763802E+04  0.7818608E-02  0.8725790E-01
          1   -1    0    0  501    0  0.00000000000E+00  0.00000000000E+00  0.12169683954E+04  0.12169683954E+04  0.00000000000E+00 0. -1.
         -2   -1    0    0    0  501 -0.00000000000E+00 -0.00000000000E+00 -0.63908755109E+03  0.63908755109E+03  0.00000000000E+00 0.  1.
        -24    2    1    2    0    0 -0.13891022885E+03  0.67417764371E+02 -0.44854292011E+03  0.48125460024E+03  0.81080407280E+02 0.  0.
        254    2    1    2    0    0  0.13891022885E+03 -0.67417764371E+02  0.10264237645E+04  0.13748013463E+04  0.90149419902E+03 0.  0.
         23    2    4    4    0    0  0.34955117455E+03  0.21046495370E+03  0.18079412309E+03  0.45543186492E+03  0.90830326873E+02 0.  0.
         23    2    4    4    0    0 -0.21064094570E+03 -0.27788271807E+03  0.84562964137E+03  0.91936948135E+03  0.92532912398E+02 0.  0.
          1    1    3    3  502    0  0.61022761076E+01 -0.83024215073E+01 -0.18997555781E+02  0.21611920374E+02  0.00000000000E+00 0. -1.
         -2    1    3    3    0  502 -0.14501250495E+03  0.75720185878E+02 -0.42954536433E+03  0.45964267987E+03  0.00000000000E+00 0.  1.
         13    1    5    5    0    0  0.29833282248E+03  0.13698487666E+03  0.14718152624E+03  0.35976343764E+03  0.00000000000E+00 0. -1.
        -13    1    5    5    0    0  0.51218352075E+02  0.73480077042E+02  0.33612596844E+02  0.95668427279E+02  0.00000000000E+00 0.  1.
          3    1    6    6  503    0 -0.36164344937E+02 -0.11426988696E+03  0.24132088686E+03  0.26944616781E+03  0.00000000000E+00 0.  1.
         -3    1    6    6    0  503 -0.17447660077E+03 -0.16361283111E+03  0.60430875450E+03  0.64992331355E+03  0.00000000000E+00 0. -1.
<mgrwt>
<rscale>  0 0.17638020E+04</rscale>
<asrwt>0</asrwt>
<pdfrwt beam="1">  1        1 0.18722591E+00 0.17638020E+04</pdfrwt>
<pdfrwt beam="2">  1       -2 0.98321162E-01 0.17638020E+04</pdfrwt>
<totfact> 0.74127591E+00</totfact>
</mgrwt>
</event>
<event>
12    5  0.5428626E-008  0.1728933E+04  0.7818608E-02  0.8745033E-01
         -2   -1    0    0    0  501 -0.00000000000E+00  0.00000000000E+00  0.83006873853E+03  0.83006873853E+03  0.00000000000E+00 0.  1.
          1   -1    0    0  501    0  0.00000000000E+00 -0.00000000000E+00 -0.90028944094E+03  0.90028944094E+03  0.00000000000E+00 0. -1.
        -24    2    1    2    0    0 -0.53602582774E+03  0.23793052528E+03  0.18900666832E+03  0.62160365794E+03  0.82054640506E+02 0.  0.
        254    2    1    2    0    0  0.53602582774E+03 -0.23793052528E+03 -0.25922737073E+03  0.11087545215E+04  0.90454581774E+03 0.  0.
         23    2    4    4    0    0 -0.66942381498E+02 -0.64570871193E+02 -0.43276465120E+03  0.45151957558E+03  0.89073025941E+02 0.  0.
         23    2    4    4    0    0  0.60296820924E+03 -0.17335965409E+03  0.17353728047E+03  0.65723494594E+03  0.90655145652E+02 0.  0.
          3    1    3    3  502    0 -0.23493483356E+03  0.67414562003E+02  0.54922650926E+02  0.25051067198E+03  0.00000000000E+00 0. -1.
         -4    1    3    3    0  502 -0.30109099418E+03  0.17051596328E+03  0.13408401740E+03  0.37109298597E+03  0.00000000000E+00 0.  1.
         13    1    5    5    0    0 -0.30791946699E+02 -0.17518433115E+02 -0.36604551372E+02  0.50940481559E+02  0.00000000000E+00 0.  1.
        -13    1    5    5    0    0 -0.36150434799E+02 -0.47052438078E+02 -0.39616009983E+03  0.40057909402E+03  0.00000000000E+00 0. -1.
          3    1    6    6  503    0  0.46459869354E+03 -0.17227163593E+03  0.13817779538E+03  0.51441477985E+03  0.00000000000E+00 0. -1.
         -3    1    6    6    0  503  0.13836951570E+03 -0.10880181614E+01  0.35359485089E+02  0.14282016610E+03  0.00000000000E+00 0.  1.
<mgrwt>
<rscale>  0 0.17289328E+04</rscale>
<asrwt>0</asrwt>
<pdfrwt beam="1">  1        1 0.13850607E+00 0.17289328E+04</pdfrwt>
<pdfrwt beam="2">  1       -2 0.12770288E+00 0.17289328E+04</pdfrwt>
<totfact> 0.68730028E+00</totfact>
</mgrwt>
</event>
<event>
12    5  0.5428626E-008  0.3453173E+04  0.7818608E-02  0.8124978E-01
         -2   -1    0    0    0  501 -0.00000000000E+00  0.00000000000E+00  0.13450505578E+04  0.13450505578E+04  0.00000000000E+00 0.  1.
          1   -1    0    0  501    0  0.00000000000E+00 -0.00000000000E+00 -0.22163490527E+04  0.22163490527E+04  0.00000000000E+00 0. -1.
        -24    2    1    2    0    0 -0.11885733629E+04 -0.36274208454E+03 -0.14598473644E+04  0.19187614795E+04  0.78758041699E+02 0.  0.
        254    2    1    2    0    0  0.11885733629E+04  0.36274208454E+03  0.58854886946E+03  0.16426381310E+04  0.89865555064E+03 0.  0.
         23    2    4    4    0    0  0.29726033267E+03  0.48674018780E+02 -0.22895892803E+03  0.38914808540E+03  0.91000967918E+02 0.  0.
         23    2    4    4    0    0  0.89131303021E+03  0.31406806576E+03  0.81750779750E+03  0.12534900456E+04  0.99199937479E+02 0.  0.
          1    1    3    3  502    0 -0.87909192965E+03 -0.27173762343E+03 -0.11325030723E+04  0.14591803060E+04  0.00000000000E+00 0. -1.
         -2    1    3    3    0  502 -0.30948143323E+03 -0.91004461116E+02 -0.32734429211E+03  0.45958117350E+03  0.00000000000E+00 0.  1.
         13    1    5    5    0    0  0.81292739597E+02  0.76871245836E+01 -0.16241579711E+02  0.83254971666E+02  0.00000000000E+00 0.  1.
        -13    1    5    5    0    0  0.21596759308E+03  0.40986894197E+02 -0.21271734832E+03  0.30589311374E+03  0.00000000000E+00 0. -1.
          4    1    6    6  503    0  0.82481233176E+03  0.27353055491E+03  0.71871753119E+03  0.11276919955E+04  0.00000000000E+00 0. -1.
         -4    1    6    6    0  503  0.66500698458E+02  0.40537510853E+02  0.98790266303E+02  0.12579805006E+03  0.00000000000E+00 0.  1.
<mgrwt>
<rscale>  0 0.34531733E+04</rscale>
<asrwt>0</asrwt>
<pdfrwt beam="1">  1        1 0.34097678E+00 0.34531733E+04</pdfrwt>
<pdfrwt beam="2">  1       -2 0.20693086E+00 0.34531733E+04</pdfrwt>
<totfact> 0.18332767E-01</totfact>
</mgrwt>
</event>
<event>
12    5  0.5428626E-008  0.1249778E+04  0.7818608E-02  0.9070368E-01
         -4   -1    0    0    0  501 -0.00000000000E+00  0.00000000000E+00  0.14055852782E+04  0.14055852782E+04  0.00000000000E+00 0.  1.
          3   -1    0    0  501    0  0.00000000000E+00 -0.00000000000E+00 -0.27781022257E+03  0.27781022257E+03  0.00000000000E+00 0. -1.
        -24    2    1    2    0    0 -0.11156824719E+03  0.26451326699E+03  0.38271701455E+03  0.48513779812E+03  0.80446427748E+02 0.  0.
        254    2    1    2    0    0  0.11156824719E+03 -0.26451326699E+03  0.74505804105E+03  0.11982577026E+04  0.89347372382E+03 0.  0.
         23    2    4    4    0    0  0.24704249248E+03  0.14950734857E+03  0.68469464270E+03  0.74914113088E+03  0.94990735723E+02 0.  0.
         23    2    4    4    0    0 -0.13547424529E+03 -0.41402061556E+03  0.60363398351E+02  0.44911657173E+03  0.91080260757E+02 0.  0.
          3    1    3    3  502    0 -0.24846063171E+02  0.35327529862E+02  0.11173226844E+03  0.11978923588E+03  0.00000000000E+00 0. -1.
         -4    1    3    3    0  502 -0.86722184016E+02  0.22918573713E+03  0.27098474611E+03  0.36534856224E+03  0.00000000000E+00 0.  1.
         13    1    5    5    0    0  0.22227820170E+03  0.15992743948E+03  0.64948809484E+03  0.70485400629E+03  0.00000000000E+00 0.  1.
        -13    1    5    5    0    0  0.24764290782E+02 -0.10420090906E+02  0.35206547860E+02  0.44287124592E+02  0.00000000000E+00 0. -1.
          2    1    6    6  503    0 -0.12972360744E+03 -0.29645111487E+03  0.69782284259E+02  0.33103027812E+03  0.00000000000E+00 0.  1.
         -2    1    6    6    0  503 -0.57506378539E+01 -0.11756950069E+03 -0.94188859087E+01  0.11808629361E+03  0.00000000000E+00 0. -1.
<mgrwt>
<rscale>  0 0.12497775E+04</rscale>
<asrwt>0</asrwt>
<pdfrwt beam="1">  1        3 0.42740035E-01 0.12497775E+04</pdfrwt>
<pdfrwt beam="2">  1       -4 0.21624388E+00 0.12497775E+04</pdfrwt>
<totfact> 0.12656242E+00</totfact>
</mgrwt>
</event>
<event>
12    5  0.5428626E-008  0.2692853E+04  0.7818608E-02  0.8337328E-01
          3   -1    0    0  501    0  0.00000000000E+00  0.00000000000E+00  0.10529090476E+04  0.10529090476E+04  0.00000000000E+00 0. -1.
         -4   -1    0    0    0  501 -0.00000000000E+00 -0.00000000000E+00 -0.17217667893E+04  0.17217667893E+04  0.00000000000E+00 0.  1.
        -24    2    1    2    0    0  0.64845017414E+03 -0.54614736510E+03  0.57949360328E+03  0.10300848473E+04  0.80606350052E+02 0.  0.
        254    2    1    2    0    0 -0.64845017414E+03  0.54614736510E+03 -0.12483513450E+04  0.17445909896E+04  0.87547248247E+03 0.  0.
         23    2    4    4    0    0  0.11475738762E+02  0.13845347604E+03  0.93461973318E+02  0.19221554996E+03  0.94396078219E+02 0.  0.
         23    2    4    4    0    0 -0.65992591290E+03  0.40769388907E+03 -0.13418133183E+04  0.15523754396E+04  0.87692682549E+02 0.  0.
          1    1    3    3  502    0  0.52968030124E+03 -0.46354524865E+03  0.51233009085E+03  0.87058459730E+03  0.00000000000E+00 0. -1.
         -2    1    3    3    0  502  0.11876987290E+03 -0.82602116458E+02  0.67163512423E+02  0.15950025001E+03  0.00000000000E+00 0.  1.
         13    1    5    5    0    0  0.45048187131E+02  0.77505921501E+02  0.82392602940E+02  0.12175815394E+03  0.00000000000E+00 0. -1.
        -13    1    5    5    0    0 -0.33572448369E+02  0.60947554537E+02  0.11069370377E+02  0.70457396021E+02  0.00000000000E+00 0.  1.
          4    1    6    6  503    0 -0.31655960179E+03  0.14846570258E+03 -0.63593672989E+03  0.72571865812E+03  0.00000000000E+00 0.  1.
         -4    1    6    6    0  503 -0.34336631111E+03  0.25922818649E+03 -0.70587658843E+03  0.82665678148E+03  0.00000000000E+00 0. -1.
<mgrwt>
<rscale>  0 0.26928526E+04</rscale>
<asrwt>0</asrwt>
<pdfrwt beam="1">  1        3 0.16198601E+00 0.26928526E+04</pdfrwt>
<pdfrwt beam="2">  1       -4 0.26488720E+00 0.26928526E+04</pdfrwt>
<totfact> 0.26930906E-02</totfact>
</mgrwt>
</event>
<event>
12    5  0.5428626E-008  0.1931534E+04  0.7818608E-02  0.8639317E-01
         -2   -1    0    0    0  501 -0.00000000000E+00  0.00000000000E+00  0.59296961755E+03  0.59296961755E+03  0.00000000000E+00 0.  1.
          1   -1    0    0  501    0  0.00000000000E+00 -0.00000000000E+00 -0.15729397054E+04  0.15729397054E+04  0.00000000000E+00 0. -1.
        -24    2    1    2    0    0  0.45160714867E+03  0.21935789500E+02  0.30145454383E+03  0.54923710436E+03  0.79726778612E+02 0.  0.
        254    2    1    2    0    0 -0.45160714867E+03 -0.21935789500E+02 -0.12814246316E+04  0.16166722186E+04  0.87587086952E+03 0.  0.
         23    2    4    4    0    0 -0.16136283496E+03 -0.38657430469E+03 -0.93419621013E+03  0.10278301039E+04  0.90744178961E+02 0.  0.
         23    2    4    4    0    0 -0.29024431371E+03  0.36463851519E+03 -0.34722842151E+03  0.58884211460E+03  0.94680783815E+02 0.  0.
          3    1    3    3  502    0  0.31187707702E+03  0.44793464364E+01  0.16374777744E+03  0.35227930727E+03  0.00000000000E+00 0. -1.
         -4    1    3    3    0  502  0.13973007165E+03  0.17456443064E+02  0.13770676639E+03  0.19695779709E+03  0.00000000000E+00 0.  1.
         13    1    5    5    0    0 -0.14191494896E+03 -0.37184777942E+03 -0.91108354726E+03  0.99422525309E+03  0.00000000000E+00 0. -1.
        -13    1    5    5    0    0 -0.19447885999E+02 -0.14726525267E+02 -0.23112662869E+02  0.33604850858E+02  0.00000000000E+00 0.  1.
          4    1    6    6  503    0 -0.29731831257E+03  0.34953378884E+03 -0.33433333837E+03  0.56775948225E+03  0.00000000000E+00 0. -1.
         -4    1    6    6    0  503  0.70739988622E+01  0.15104726345E+02 -0.12895083138E+02  0.21082632355E+02  0.00000000000E+00 0.  1.
<mgrwt>
<rscale>  0 0.19315335E+04</rscale>
<asrwt>0</asrwt>
<pdfrwt beam="1">  1        1 0.24199072E+00 0.19315335E+04</pdfrwt>
<pdfrwt beam="2">  1       -2 0.91226096E-01 0.19315335E+04</pdfrwt>
<totfact> 0.48861801E+00</totfact>
</mgrwt>
</event>
<event>
12    5  0.5428626E-008  0.1041597E+04  0.7818608E-02  0.9264063E-01
         -2   -1    0    0    0  501 -0.00000000000E+00  0.00000000000E+00  0.19992589040E+03  0.19992589040E+03  0.00000000000E+00 0.  1.
          1   -1    0    0  501    0  0.00000000000E+00 -0.00000000000E+00 -0.13566569761E+04  0.13566569761E+04  0.00000000000E+00 0. -1.
        -24    2    1    2    0    0 -0.77568410226E+02 -0.49664135707E+02 -0.23023006370E+03  0.26075439367E+03  0.80644819720E+02 0.  0.
        254    2    1    2    0    0  0.77568410226E+02  0.49664135707E+02 -0.92650102203E+03  0.12958284729E+04  0.90126794162E+03 0.  0.
         23    2    4    4    0    0 -0.24505187351E+02 -0.11796210169E+03  0.14096722344E+03  0.20667602296E+03  0.91256006598E+02 0.  0.
         23    2    4    4    0    0  0.10207359758E+03  0.16762623740E+03 -0.10674682455E+04  0.10891524499E+04  0.90813155711E+02 0.  0.
          3    1    3    3  502    0 -0.52755848346E+02  0.86311770113E+01 -0.14511365912E+03  0.15464685840E+03  0.00000000000E+00 0. -1.
         -4    1    3    3    0  502 -0.24812561880E+02 -0.58295312718E+02 -0.85116404580E+02  0.10610753527E+03  0.00000000000E+00 0.  1.
         13    1    5    5    0    0  0.22755680733E+02 -0.94982929580E+02  0.80545043502E+02  0.12659811195E+03  0.00000000000E+00 0. -1.
        -13    1    5    5    0    0 -0.47260868084E+02 -0.22979172108E+02  0.60422179935E+02  0.80077911005E+02  0.00000000000E+00 0.  1.
          4    1    6    6  503    0  0.11594747061E+03  0.16137490676E+03 -0.93961499776E+03  0.96039680366E+03  0.00000000000E+00 0. -1.
         -4    1    6    6    0  503 -0.13873873031E+02  0.62513306342E+01 -0.12785324771E+03  0.12875564623E+03  0.00000000000E+00 0.  1.
<mgrwt>
<rscale>  0 0.10415966E+04</rscale>
<asrwt>0</asrwt>
<pdfrwt beam="1">  1        1 0.20871646E+00 0.10415966E+04</pdfrwt>
<pdfrwt beam="2">  1       -2 0.30757828E-01 0.10415966E+04</pdfrwt>
<totfact> 0.70756496E+01</totfact>
</mgrwt>
</event>
<event>
12    5  0.5428626E-008  0.1101720E+04  0.7818608E-02  0.9203517E-01
          1   -1    0    0  501    0  0.00000000000E+00  0.00000000000E+00  0.62758415514E+03  0.62758415514E+03  0.00000000000E+00 0. -1.
         -2   -1    0    0    0  501 -0.00000000000E+00 -0.00000000000E+00 -0.48351577952E+03  0.48351577952E+03  0.00000000000E+00 0.  1.
        -24    2    1    2    0    0 -0.10167003345E+02  0.12632245303E+03 -0.98038641055E+02  0.18000317564E+03  0.82029494723E+02 0.  0.
        254    2    1    2    0    0  0.10167003345E+02 -0.12632245303E+03  0.24210701668E+03  0.93109675902E+03  0.89009248791E+03 0.  0.
         23    2    4    4    0    0 -0.39876756966E+03  0.10196989412E+03  0.13326944951E+03  0.44215774268E+03  0.91264940274E+02 0.  0.
         23    2    4    4    0    0  0.40893457301E+03 -0.22829234715E+03  0.10883756717E+03  0.48893901634E+03  0.88717895031E+02 0.  0.
          1    1    3    3  502    0  0.73365032436E+01  0.71783230400E+01 -0.48858173917E+02  0.49924680870E+02  0.00000000000E+00 0. -1.
         -4    1    3    3    0  502 -0.17503506589E+02  0.11914412999E+03 -0.49180467138E+02  0.13007849477E+03  0.00000000000E+00 0.  1.
         13    1    5    5    0    0 -0.58470119866E+01  0.17557782858E+02  0.13159668369E+02  0.22707711457E+02  0.00000000000E+00 0.  1.
        -13    1    5    5    0    0 -0.39292055767E+03  0.84412111264E+02  0.12010978114E+03  0.41945003123E+03  0.00000000000E+00 0. -1.
          4    1    6    6  503    0  0.32190074195E+03 -0.15455702925E+03  0.11375418719E+03  0.37476389642E+03  0.00000000000E+00 0. -1.
         -4    1    6    6    0  503  0.87033831055E+02 -0.73735317905E+02 -0.49166200171E+01  0.11417511991E+03  0.00000000000E+00 0.  1.
<mgrwt>
<rscale>  0 0.11017202E+04</rscale>
<asrwt>0</asrwt>
<pdfrwt beam="1">  1        1 0.96551408E-01 0.11017202E+04</pdfrwt>
<pdfrwt beam="2">  1       -2 0.74387043E-01 0.11017202E+04</pdfrwt>
<totfact> 0.45513895E+01</totfact>
</mgrwt>
</event>
<event>
12    5  0.5428626E-008  0.1483110E+04  0.7818608E-02  0.8895763E-01
          1   -1    0    0  501    0  0.00000000000E+00  0.00000000000E+00  0.10759229974E+04  0.10759229974E+04  0.00000000000E+00 0. -1.
         -2   -1    0    0    0  501 -0.00000000000E+00 -0.00000000000E+00 -0.51109951119E+03  0.51109951119E+03  0.00000000000E+00 0.  1.
        -24    2    1    2    0    0 -0.74956447438E+02 -0.42740071160E+03  0.36042684491E+03  0.56978222055E+03  0.80339473710E+02 0.  0.
        254    2    1    2    0    0  0.74956447438E+02  0.42740071160E+03  0.20439664132E+03  0.10172402881E+04  0.89705628551E+03 0.  0.
         23    2    4    4    0    0 -0.73015468458E+01  0.56083588497E+03 -0.17678512945E+03  0.59506165751E+03  0.90858085991E+02 0.  0.
         23    2    4    4    0    0  0.82257994284E+02 -0.13343517338E+03  0.38118177077E+03  0.42217863054E+03  0.91454527513E+02 0.  0.
          3    1    3    3  502    0 -0.87260655037E+02 -0.41400480808E+03  0.34626099700E+03  0.54672761141E+03  0.00000000000E+00 0. -1.
         -4    1    3    3    0  502  0.12304207599E+02 -0.13395903511E+02  0.14165847911E+02  0.23054609139E+02  0.00000000000E+00 0.  1.
         13    1    5    5    0    0 -0.30385273100E+01  0.59931349932E+02 -0.50589345630E+02  0.78487459152E+02  0.00000000000E+00 0. -1.
        -13    1    5    5    0    0 -0.42630195358E+01  0.50090453504E+03 -0.12619578382E+03  0.51657419836E+03  0.00000000000E+00 0.  1.
          3    1    6    6  503    0  0.35975420104E+02 -0.16779340538E+02  0.18556911249E+03  0.18976741720E+03  0.00000000000E+00 0. -1.
         -3    1    6    6    0  503  0.46282574180E+02 -0.11665583284E+03  0.19561265827E+03  0.23241121334E+03  0.00000000000E+00 0.  1.
<mgrwt>
<rscale>  0 0.14831099E+04</rscale>
<asrwt>0</asrwt>
<pdfrwt beam="1">  1        1 0.16552661E+00 0.14831099E+04</pdfrwt>
<pdfrwt beam="2">  1       -2 0.78630694E-01 0.14831099E+04</pdfrwt>
<totfact> 0.16138500E+01</totfact>
</mgrwt>
</event>
<event>
12    5  0.5428626E-008  0.1914844E+04  0.7818608E-02  0.8647503E-01
         -2   -1    0    0    0  501 -0.00000000000E+00  0.00000000000E+00  0.35463269526E+03  0.35463269526E+03  0.00000000000E+00 0.  1.
          1   -1    0    0  501    0  0.00000000000E+00 -0.00000000000E+00 -0.25848065639E+04  0.25848065639E+04  0.00000000000E+00 0. -1.
        -24    2    1    2    0    0  0.55877495756E+03  0.21274714039E+03 -0.19661824951E+03  0.63441869472E+03  0.79608700752E+02 0.  0.
        254    2    1    2    0    0 -0.55877495756E+03 -0.21274714039E+03 -0.20335556191E+04  0.23050205644E+04  0.90569340698E+03 0.  0.
         23    2    4    4    0    0  0.22647512062E+03 -0.11780656040E+03 -0.35002485756E+03  0.44275070710E+03  0.91331384468E+02 0.  0.
         23    2    4    4    0    0 -0.78525007818E+03 -0.94940579992E+02 -0.16835307615E+04  0.18622698573E+04  0.90231909039E+02 0.  0.
          1    1    3    3  502    0  0.46020659850E+02  0.38864026860E+02 -0.65481283334E+01  0.60590359806E+02  0.00000000000E+00 0. -1.
         -2    1    3    3    0  502  0.51275429771E+03  0.17388311353E+03 -0.19007012117E+03  0.57382833492E+03  0.00000000000E+00 0.  1.
         13    1    5    5    0    0  0.17472167132E+03 -0.96283015307E+02 -0.32505279064E+03  0.38138877562E+03  0.00000000000E+00 0. -1.
        -13    1    5    5    0    0  0.51753449302E+02 -0.21523545090E+02 -0.24972066918E+02  0.61361931473E+02  0.00000000000E+00 0.  1.
          2    1    6    6  503    0 -0.78607202084E+03 -0.91076474505E+02 -0.16796836535E+04  0.18567555902E+04  0.00000000000E+00 0. -1.
         -2    1    6    6    0  503  0.82194265459E+00 -0.38641054873E+01 -0.38471080844E+01  0.55142670916E+01  0.00000000000E+00 0.  1.
<mgrwt>
<rscale>  0 0.19148440E+04</rscale>
<asrwt>0</asrwt>
<pdfrwt beam="1">  1        1 0.39766255E+00 0.19148440E+04</pdfrwt>
<pdfrwt beam="2">  1       -2 0.54558875E-01 0.19148440E+04</pdfrwt>
<totfact> 0.30712338E+00</totfact>
</mgrwt>
</event>
<event>
12    5  0.5428626E-008  0.2464967E+04  0.7818608E-02  0.8415574E-01
          1   -1    0    0  501    0  0.00000000000E+00  0.00000000000E+00  0.12666256181E+04  0.12666256181E+04  0.00000000000E+00 0. -1.
         -2   -1    0    0    0  501 -0.00000000000E+00 -0.00000000000E+00 -0.11992616779E+04  0.11992616779E+04  0.00000000000E+00 0.  1.
        -24    2    1    2    0    0 -0.24966196324E+03  0.67236952242E+03 -0.75890460400E+03  0.10471779687E+04  0.78953338313E+02 0.  0.
        254    2    1    2    0    0  0.24966196324E+03 -0.67236952242E+03  0.82626854429E+03  0.14187093273E+04  0.90310828667E+03 0.  0.
         23    2    4    4    0    0  0.22620880661E+03 -0.88382131864E+03  0.60629611004E+03  0.10991607421E+04  0.90822995496E+02 0.  0.
         23    2    4    4    0    0  0.23453156629E+02  0.21145179622E+03  0.21997243425E+03  0.31954858515E+03  0.91986486850E+02 0.  0.
          1    1    3    3  502    0 -0.53933935824E+02  0.15277181933E+03 -0.22178116186E+03  0.27465429538E+03  0.00000000000E+00 0. -1.
         -2    1    3    3    0  502 -0.19572802742E+03  0.51959770309E+03 -0.53712344214E+03  0.77252367334E+03  0.00000000000E+00 0.  1.
         13    1    5    5    0    0  0.22416728595E+03 -0.75455230271E+03  0.53171809290E+03  0.94990751125E+03  0.00000000000E+00 0. -1.
        -13    1    5    5    0    0  0.20415206660E+01 -0.12926901594E+03  0.74578017139E+02  0.14925323088E+03  0.00000000000E+00 0.  1.
          2    1    6    6  503    0 -0.24869079463E+02  0.17342919038E+02  0.42022757672E+02  0.51818530628E+02  0.00000000000E+00 0.  1.
         -2    1    6    6    0  503  0.48322236092E+02  0.19410887718E+03  0.17794967658E+03  0.26773005453E+03  0.00000000000E+00 0. -1.
<mgrwt>
<rscale>  0 0.24649670E+04</rscale>
<asrwt>0</asrwt>
<pdfrwt beam="1">  1        1 0.19486548E+00 0.24649670E+04</pdfrwt>
<pdfrwt beam="2">  1       -2 0.18450180E+00 0.24649670E+04</pdfrwt>
<totfact> 0.12623051E+00</totfact>
</mgrwt>
</event>
<event>
12    5  0.5428626E-008  0.2336804E+04  0.7818608E-02  0.8463549E-01
          1   -1    0    0  501    0  0.00000000000E+00  0.00000000000E+00  0.24683260904E+04  0.24683260904E+04  0.00000000000E+00 0. -1.
         -2   -1    0    0    0  501 -0.00000000000E+00 -0.00000000000E+00 -0.55307263217E+03  0.55307263217E+03  0.00000000000E+00 0.  1.
        -24    2    1    2    0    0  0.51631787675E+03 -0.59262536456E+03  0.16099126437E+04  0.17934173157E+04  0.82085172233E+02 0.  0.
        254    2    1    2    0    0 -0.51631787675E+03  0.59262536456E+03  0.30534081456E+03  0.12279814069E+04  0.89270171388E+03 0.  0.
         23    2    4    4    0    0 -0.13621330636E+03  0.60105595039E+03 -0.13646498579E+03  0.63792399927E+03  0.92206378101E+02 0.  0.
         23    2    4    4    0    0 -0.38010457039E+03 -0.84305858301E+01  0.44180580035E+03  0.59005740759E+03  0.91786817243E+02 0.  0.
          1    1    3    3  502    0  0.39271042720E+03 -0.39866887734E+03  0.11068760108E+04  0.12402954715E+04  0.00000000000E+00 0. -1.
         -2    1    3    3    0  502  0.12360744955E+03 -0.19395648723E+03  0.50303663292E+03  0.55312184424E+03  0.00000000000E+00 0.  1.
         13    1    5    5    0    0 -0.12991600951E+03  0.50390838201E+03 -0.83330241300E+02  0.52701589739E+03  0.00000000000E+00 0. -1.
        -13    1    5    5    0    0 -0.62972968529E+01  0.97147568381E+02 -0.53134744486E+02  0.11090810187E+03  0.00000000000E+00 0.  1.
          3    1    6    6  503    0 -0.73326323344E+02 -0.35760213102E+02  0.72163745275E+02  0.10891808238E+03  0.00000000000E+00 0. -1.
         -3    1    6    6    0  503 -0.30677824705E+03  0.27329627272E+02  0.36964205507E+03  0.48113932521E+03  0.00000000000E+00 0.  1.
<mgrwt>
<rscale>  0 0.23368043E+04</rscale>
<asrwt>0</asrwt>
<pdfrwt beam="1">  1        1 0.37974247E+00 0.23368043E+04</pdfrwt>
<pdfrwt beam="2">  1       -2 0.85088098E-01 0.23368043E+04</pdfrwt>
<totfact> 0.13563772E+00</totfact>
</mgrwt>
</event>
<event>
12    5  0.5428626E-008  0.1156118E+04  0.7818608E-02  0.9152158E-01
         -4   -1    0    0    0  501 -0.00000000000E+00  0.00000000000E+00  0.20609112563E+03  0.20609112563E+03  0.00000000000E+00 0.  1.
          1   -1    0    0  501    0  0.00000000000E+00 -0.00000000000E+00 -0.16213816699E+04  0.16213816699E+04  0.00000000000E+00 0. -1.
        -24    2    1    2    0    0 -0.20154681233E+02  0.19859051752E+03 -0.39511013376E+03  0.45024430016E+03  0.82240544794E+02 0.  0.
        254    2    1    2    0    0  0.20154681233E+02 -0.19859051752E+03 -0.10201804105E+04  0.13772284953E+04  0.90340791099E+03 0.  0.
         23    2    4    4    0    0  0.16371167352E+03 -0.39357612741E+03 -0.10296722894E+04  0.11182030834E+04  0.91920792126E+02 0.  0.
         23    2    4    4    0    0 -0.14355699229E+03  0.19498560990E+03  0.94918788993E+01  0.25902541197E+03  0.91520872922E+02 0.  0.
          3    1    3    3  502    0  0.24200831265E+01 -0.14304141396E+01 -0.54710423550E+02  0.54782600632E+02  0.00000000000E+00 0. -1.
         -4    1    3    3    0  502 -0.22574764360E+02  0.20002093166E+03 -0.34039971021E+03  0.39546169953E+03  0.00000000000E+00 0.  1.
         13    1    5    5    0    0  0.66453807824E+02 -0.21089809763E+03 -0.63773806291E+03  0.67498440948E+03  0.00000000000E+00 0. -1.
        -13    1    5    5    0    0  0.97257865697E+02 -0.18267802979E+03 -0.39193422648E+03  0.44321867390E+03  0.00000000000E+00 0.  1.
          3    1    6    6  503    0 -0.86173181172E+02  0.53500825116E+02  0.28011626031E+02  0.10522740439E+03  0.00000000000E+00 0. -1.
         -3    1    6    6    0  503 -0.57383811115E+02  0.14148478478E+03 -0.18519747132E+02  0.15379800758E+03  0.00000000000E+00 0.  1.
<mgrwt>
<rscale>  0 0.11561183E+04</rscale>
<asrwt>0</asrwt>
<pdfrwt beam="1">  1        1 0.24944333E+00 0.11561183E+04</pdfrwt>
<pdfrwt beam="2">  1       -4 0.31706327E-01 0.11561183E+04</pdfrwt>
<totfact> 0.25580965E+01</totfact>
</mgrwt>
</event>
<event>
12    5  0.5428626E-008  0.2071017E+04  0.7818608E-02  0.8574119E-01
          1   -1    0    0  501    0  0.00000000000E+00  0.00000000000E+00  0.14922410046E+04  0.14922410046E+04  0.00000000000E+00 0. -1.
         -2   -1    0    0    0  501 -0.00000000000E+00 -0.00000000000E+00 -0.71856866282E+03  0.71856866282E+03  0.00000000000E+00 0.  1.
        -24    2    1    2    0    0 -0.62881164973E+03  0.33554369787E+03 -0.18812671728E+03  0.74141146544E+03  0.79408030548E+02 0.  0.
        254    2    1    2    0    0  0.62881164973E+03 -0.33554369787E+03  0.96179905902E+03  0.14693982019E+04  0.85210326951E+03 0.  0.
         23    2    4    4    0    0  0.14568522009E+03  0.23034903960E+03  0.53325067218E+03  0.60586884864E+03  0.91847258898E+02 0.  0.
         23    2    4    4    0    0  0.48312642964E+03 -0.56589273747E+03  0.42854838683E+03  0.86352935330E+03  0.91561382728E+02 0.  0.
          1    1    3    3  502    0  0.17081314771E+01  0.49030957587E+01 -0.12816020100E+01  0.53479495954E+01  0.00000000000E+00 0. -1.
         -2    1    3    3    0  502 -0.63051978120E+03  0.33064060211E+03 -0.18684511527E+03  0.73606351584E+03  0.00000000000E+00 0.  1.
         13    1    5    5    0    0  0.12492003833E+03  0.23303561496E+03  0.47033564350E+03  0.53956114701E+03  0.00000000000E+00 0. -1.
        -13    1    5    5    0    0  0.20765181758E+02 -0.26865753613E+01  0.62915028687E+02  0.66307701629E+02  0.00000000000E+00 0.  1.
          1    1    6    6  503    0  0.32616826631E+03 -0.32161770001E+03  0.28657098753E+03  0.54032084339E+03  0.00000000000E+00 0. -1.
         -1    1    6    6    0  503  0.15695816332E+03 -0.24427503746E+03  0.14197739930E+03  0.32320850990E+03  0.00000000000E+00 0.  1.
<mgrwt>
<rscale>  0 0.20710168E+04</rscale>
<asrwt>0</asrwt>
<pdfrwt beam="1">  1        1 0.22957554E+00 0.20710168E+04</pdfrwt>
<pdfrwt beam="2">  1       -2 0.11054903E+00 0.20710168E+04</pdfrwt>
<totfact> 0.34795574E+00</totfact>
</mgrwt>
</event>
<event>
12    5  0.5428626E-008  0.1976427E+04  0.7818608E-02  0.8617722E-01
         -2   -1    0    0    0  501 -0.00000000000E+00  0.00000000000E+00  0.32216667296E+03  0.32216667296E+03  0.00000000000E+00 0.  1.
          1   -1    0    0  501    0  0.00000000000E+00 -0.00000000000E+00 -0.30312440551E+04  0.30312440551E+04  0.00000000000E+00 0. -1.
        -24    2    1    2    0    0  0.13454721732E+03 -0.18944807638E+03  0.18739557556E+03  0.31034877979E+03  0.84886606974E+02 0.  0.
        254    2    1    2    0    0 -0.13454721732E+03  0.18944807638E+03 -0.28964729577E+04  0.30430619483E+04  0.90370177551E+03 0.  0.
         23    2    4    4    0    0 -0.42427697556E+03  0.84676629699E+02 -0.73447794003E+03  0.85730203325E+03  0.91257044734E+02 0.  0.
         23    2    4    4    0    0  0.28972975824E+03  0.10477144668E+03 -0.21619950176E+04  0.21857599150E+04  0.91670938102E+02 0.  0.
          1    1    3    3  502    0 -0.84582678311E+01 -0.28201672216E+02  0.38166181514E+02  0.48203049923E+02  0.00000000000E+00 0. -1.
         -2    1    3    3    0  502  0.14300548515E+03 -0.16124640416E+03  0.14922939405E+03  0.26214572986E+03  0.00000000000E+00 0.  1.
         13    1    5    5    0    0 -0.12172801983E+03 -0.15108213525E+01 -0.27167448362E+03  0.29770290298E+03  0.00000000000E+00 0.  1.
        -13    1    5    5    0    0 -0.30254895573E+03  0.86187451051E+02 -0.46280345642E+03  0.55959913027E+03  0.00000000000E+00 0. -1.
          4    1    6    6  503    0  0.20962202893E+03  0.32957797216E+02 -0.13261459959E+04  0.13430155673E+04  0.00000000000E+00 0. -1.
         -4    1    6    6    0  503  0.80107729311E+02  0.71813649464E+02 -0.83584902172E+03  0.84274434775E+03  0.00000000000E+00 0.  1.
<mgrwt>
<rscale>  0 0.19764269E+04</rscale>
<asrwt>0</asrwt>
<pdfrwt beam="1">  1        1 0.46634525E+00 0.19764269E+04</pdfrwt>
<pdfrwt beam="2">  1       -2 0.49564102E-01 0.19764269E+04</pdfrwt>
<totfact> 0.17879448E+00</totfact>
</mgrwt>
</event>
<event>
12    5  0.5428626E-008  0.2147130E+04  0.7818608E-02  0.8540762E-01
          1   -1    0    0  501    0  0.00000000000E+00  0.00000000000E+00  0.13999045050E+04  0.13999045050E+04  0.00000000000E+00 0. -1.
         -2   -1    0    0    0  501 -0.00000000000E+00 -0.00000000000E+00 -0.82330058149E+03  0.82330058149E+03  0.00000000000E+00 0.  1.
        -24    2    1    2    0    0 -0.84366096864E+03 -0.19174693276E+03  0.38985939362E+02  0.86978659575E+03  0.80486660072E+02 0.  0.
        254    2    1    2    0    0  0.84366096864E+03  0.19174693276E+03  0.53761798415E+03  0.13534184907E+04  0.89116653773E+03 0.  0.
         23    2    4    4    0    0  0.96643954514E+03  0.14650569066E+03  0.23209585127E+03  0.10088560601E+04  0.91938859752E+02 0.  0.
         23    2    4    4    0    0 -0.12277857649E+03  0.45241242105E+02  0.30552213288E+03  0.34456243069E+03  0.90874342530E+02 0.  0.
          1    1    3    3  502    0 -0.58352119518E+03 -0.12439342948E+03  0.63247953008E+02  0.59997584458E+03  0.00000000000E+00 0. -1.
         -2    1    3    3    0  502 -0.26013977347E+03 -0.67353503281E+02 -0.24262013646E+02  0.26981075117E+03  0.00000000000E+00 0.  1.
         13    1    5    5    0    0  0.59629002076E+03  0.86340085005E+02  0.18858708045E+03  0.63133310229E+03  0.00000000000E+00 0.  1.
        -13    1    5    5    0    0  0.37014952438E+03  0.60165605654E+02  0.43508770824E+02  0.37752295776E+03  0.00000000000E+00 0. -1.
          2    1    6    6  503    0  0.12144077571E+01  0.23041017388E+02  0.13995567744E+02  0.26985907155E+02  0.00000000000E+00 0. -1.
         -2    1    6    6    0  503 -0.12399298425E+03  0.22200224717E+02  0.29152656514E+03  0.31757652354E+03  0.00000000000E+00 0.  1.
<mgrwt>
<rscale>  0 0.21471304E+04</rscale>
<asrwt>0</asrwt>
<pdfrwt beam="1">  1        1 0.21536992E+00 0.21471304E+04</pdfrwt>
<pdfrwt beam="2">  1       -2 0.12666163E+00 0.21471304E+04</pdfrwt>
<totfact> 0.28651284E+00</totfact>
</mgrwt>
</event>
<event>
12    5  0.5428626E-008  0.1032061E+04  0.7818608E-02  0.9274063E-01
          1   -1    0    0  501    0  0.00000000000E+00  0.00000000000E+00  0.10066800791E+04  0.10066800791E+04  0.00000000000E+00 0. -1.
         -2   -1    0    0    0  501 -0.00000000000E+00 -0.00000000000E+00 -0.26452053788E+03  0.26452053788E+03  0.00000000000E+00 0.  1.
        -24    2    1    2    0    0  0.73165711419E+00  0.79601446506E+02  0.11465662621E+02  0.11386174871E+03  0.80598454027E+02 0.  0.
        254    2    1    2    0    0 -0.73165711419E+00 -0.79601446506E+02  0.73069387859E+03  0.11573388683E+04  0.89397023787E+03 0.  0.
         23    2    4    4    0    0 -0.33066299063E+03  0.12451840117E+03  0.47670960629E+02  0.36649460486E+03  0.84870073059E+02 0.  0.
         23    2    4    4    0    0  0.32993133351E+03 -0.20411984768E+03  0.68302291796E+03  0.79084426342E+03  0.91622843583E+02 0.  0.
          3    1    3    3  502    0  0.20650130012E+01  0.78626471643E+02  0.37946934458E+02  0.87329010967E+02  0.00000000000E+00 0. -1.
         -4    1    3    3    0  502 -0.13333558870E+01  0.97497486289E+00 -0.26481271837E+02  0.26532737741E+02  0.00000000000E+00 0.  1.
         13    1    5    5    0    0 -0.41600606618E+02 -0.10202923398E+02 -0.54731172908E+01  0.43181768488E+02  0.00000000000E+00 0.  1.
        -13    1    5    5    0    0 -0.28906238401E+03  0.13472132457E+03  0.53144077920E+02  0.32331283637E+03  0.00000000000E+00 0. -1.
          1    1    6    6  503    0  0.31156269071E+03 -0.15881027862E+03  0.60314728538E+03  0.69719341843E+03  0.00000000000E+00 0. -1.
         -1    1    6    6    0  503  0.18368642806E+02 -0.45309569059E+02  0.79875632580E+02  0.93650844988E+02  0.00000000000E+00 0.  1.
<mgrwt>
<rscale>  0 0.10320612E+04</rscale>
<asrwt>0</asrwt>
<pdfrwt beam="1">  1        1 0.15487386E+00 0.10320612E+04</pdfrwt>
<pdfrwt beam="2">  1       -2 0.40695468E-01 0.10320612E+04</pdfrwt>
<totfact> 0.74957742E+01</totfact>
</mgrwt>
</event>
<event>
12    5  0.5428626E-008  0.1695245E+04  0.7818608E-02  0.8764081E-01
         -2   -1    0    0    0  501 -0.00000000000E+00  0.00000000000E+00  0.19171676584E+03  0.19171676584E+03  0.00000000000E+00 0.  1.
          1   -1    0    0  501    0  0.00000000000E+00 -0.00000000000E+00 -0.37475282783E+04  0.37475282783E+04  0.00000000000E+00 0. -1.
        -24    2    1    2    0    0  0.31962172452E+03 -0.40366185887E+03 -0.20158535560E+04  0.20821817567E+04  0.81941230889E+02 0.  0.
        254    2    1    2    0    0 -0.31962172452E+03  0.40366185887E+03 -0.15399579564E+04  0.18570632874E+04  0.90117290405E+03 0.  0.
         23    2    4    4    0    0 -0.41909209149E+03  0.61942438030E+00 -0.24548461237E+03  0.49475314986E+03  0.94230672060E+02 0.  0.
         23    2    4    4    0    0  0.99470366971E+02  0.40304243449E+03 -0.12944733440E+04  0.13623101376E+04  0.88826317191E+02 0.  0.
          1    1    3    3  502    0  0.17256102590E+03 -0.26873292733E+03 -0.13357794568E+04  0.13734269005E+04  0.00000000000E+00 0. -1.
         -2    1    3    3    0  502  0.14706069862E+03 -0.13492893154E+03 -0.68007409925E+03  0.70875485615E+03  0.00000000000E+00 0.  1.
         13    1    5    5    0    0 -0.28272297104E+03  0.16676422250E+01 -0.11254514444E+03  0.30430489467E+03  0.00000000000E+00 0.  1.
        -13    1    5    5    0    0 -0.13636912045E+03 -0.10482178447E+01 -0.13293946793E+03  0.19044825519E+03  0.00000000000E+00 0. -1.
          1    1    6    6  503    0  0.14074297785E+02  0.16460919112E+03 -0.40273760311E+03  0.43530661449E+03  0.00000000000E+00 0. -1.
         -1    1    6    6    0  503  0.85396069186E+02  0.23843324337E+03 -0.89173574092E+03  0.92700352309E+03  0.00000000000E+00 0.  1.
<mgrwt>
<rscale>  0 0.16952451E+04</rscale>
<asrwt>0</asrwt>
<pdfrwt beam="1">  1        1 0.57654275E+00 0.16952451E+04</pdfrwt>
<pdfrwt beam="2">  1       -2 0.29494890E-01 0.16952451E+04</pdfrwt>
<totfact> 0.14101996E+00</totfact>
</mgrwt>
</event>
<event>
12    5  0.5428626E-008  0.1204469E+04  0.7818608E-02  0.9108954E-01
         -2   -1    0    0    0  501 -0.00000000000E+00  0.00000000000E+00  0.15602883438E+03  0.15602883438E+03  0.00000000000E+00 0.  1.
          1   -1    0    0  501    0  0.00000000000E+00 -0.00000000000E+00 -0.23244827810E+04  0.23244827810E+04  0.00000000000E+00 0. -1.
        -24    2    1    2    0    0  0.25740097888E+03 -0.30073592559E+02 -0.42328036786E+03  0.50222167335E+03  0.76815717597E+02 0.  0.
        254    2    1    2    0    0 -0.25740097888E+03  0.30073592559E+02 -0.17451735788E+04  0.19782899420E+04  0.89489697162E+03 0.  0.
         23    2    4    4    0    0 -0.18818051453E+03 -0.17924550695E+03 -0.67610052960E+02  0.28398487896E+03  0.92387414755E+02 0.  0.
         23    2    4    4    0    0 -0.69220464346E+02  0.20931909951E+03 -0.16775635258E+04  0.16943050631E+04  0.88568084160E+02 0.  0.
          3    1    3    3  502    0  0.21046591995E+03 -0.53064559234E+02 -0.35714106632E+03  0.41792522317E+03  0.00000000000E+00 0. -1.
         -4    1    3    3    0  502  0.46935058922E+02  0.22990966675E+02 -0.66139301537E+02  0.84296450177E+02  0.00000000000E+00 0.  1.
         13    1    5    5    0    0 -0.58610492901E+02 -0.75934791145E+01 -0.19969809574E+01  0.59134074239E+02  0.00000000000E+00 0. -1.
        -13    1    5    5    0    0 -0.12957002163E+03 -0.17165202784E+03 -0.65613072003E+02  0.22485080472E+03  0.00000000000E+00 0.  1.
          1    1    6    6  503    0  0.15596113061E+02  0.51973485532E+02 -0.54876355679E+03  0.55143986363E+03  0.00000000000E+00 0. -1.
         -1    1    6    6    0  503 -0.84816577407E+02  0.15734561398E+03 -0.11287999690E+04  0.11428651994E+04  0.00000000000E+00 0.  1.
<mgrwt>
<rscale>  0 0.12044689E+04</rscale>
<asrwt>0</asrwt>
<pdfrwt beam="1">  1        1 0.35761274E+00 0.12044689E+04</pdfrwt>
<pdfrwt beam="2">  1       -2 0.24004436E-01 0.12044689E+04</pdfrwt>
<totfact> 0.24123667E+01</totfact>
</mgrwt>
</event>
<event>
12    5  0.5428626E-008  0.2313566E+04  0.7818608E-02  0.8472591E-01
         -2   -1    0    0    0  501 -0.00000000000E+00  0.00000000000E+00  0.10272604803E+04  0.10272604803E+04  0.00000000000E+00 0.  1.
          1   -1    0    0  501    0  0.00000000000E+00 -0.00000000000E+00 -0.13026360813E+04  0.13026360813E+04  0.00000000000E+00 0. -1.
        -24    2    1    2    0    0 -0.64665856277E+03 -0.60606328783E+03  0.29767466667E+03  0.93828313248E+03  0.79278142391E+02 0.  0.
        254    2    1    2    0    0  0.64665856277E+03  0.60606328783E+03 -0.57305026767E+03  0.13916134290E+04  0.90703986735E+03 0.  0.
         23    2    4    4    0    0  0.93743863615E+02  0.21369760893E+03 -0.65677544965E+03  0.70250117215E+03  0.87745800875E+02 0.  0.
         23    2    4    4    0    0  0.55291469915E+03  0.39236567890E+03  0.83725181982E+02  0.68911225690E+03  0.90555540941E+02 0.  0.
          1    1    3    3  502    0 -0.25432428894E+02 -0.95094459555E+01  0.42873182848E+00  0.27155511647E+02  0.00000000000E+00 0. -1.
         -2    1    3    3    0  502 -0.62122613387E+03 -0.59655384188E+03  0.29724593484E+03  0.91112762083E+03  0.00000000000E+00 0.  1.
         13    1    5    5    0    0  0.62194516546E+02  0.13771081769E+03 -0.29452546764E+03  0.33102519283E+03  0.00000000000E+00 0.  1.
        -13    1    5    5    0    0  0.31549347070E+02  0.75986791243E+02 -0.36224998201E+03  0.37147597932E+03  0.00000000000E+00 0. -1.
          4    1    6    6  503    0  0.33061962276E+03  0.28778990178E+03  0.51591863629E+02  0.44135482654E+03  0.00000000000E+00 0. -1.
         -4    1    6    6    0  503  0.22229507640E+03  0.10457577712E+03  0.32133318353E+02  0.24775743036E+03  0.00000000000E+00 0.  1.
<mgrwt>
<rscale>  0 0.23135657E+04</rscale>
<asrwt>0</asrwt>
<pdfrwt beam="1">  1        1 0.20040555E+00 0.23135657E+04</pdfrwt>
<pdfrwt beam="2">  1       -2 0.15804007E+00 0.23135657E+04</pdfrwt>
<totfact> 0.18587708E+00</totfact>
</mgrwt>
</event>
<event>
12    5  0.5428626E-008  0.2883823E+04  0.7818608E-02  0.8277707E-01
         -2   -1    0    0    0  501 -0.00000000000E+00  0.00000000000E+00  0.17939932964E+04  0.17939932964E+04  0.00000000000E+00 0.  1.
          1   -1    0    0  501    0  0.00000000000E+00 -0.00000000000E+00 -0.11589278881E+04  0.11589278881E+04  0.00000000000E+00 0. -1.
        -24    2    1    2    0    0 -0.69610437640E+03 -0.80687343930E+03  0.10484553894E+04  0.14970886383E+04  0.80060212836E+02 0.  0.
        254    2    1    2    0    0  0.69610437640E+03  0.80687343930E+03 -0.41338998101E+03  0.14558325462E+04  0.90163799622E+03 0.  0.
         23    2    4    4    0    0  0.80309257960E+03  0.90362710128E+03 -0.30070879731E+03  0.12491786724E+04  0.92314382305E+02 0.  0.
         23    2    4    4    0    0 -0.10698820321E+03 -0.96753661976E+02 -0.11268118370E+03  0.20665387380E+03  0.95921987387E+02 0.  0.
          3    1    3    3  502    0 -0.58846740213E+01 -0.23624973699E+02  0.29778471280E+02  0.38464608699E+02  0.00000000000E+00 0. -1.
         -4    1    3    3    0  502 -0.69021970237E+03 -0.78324846560E+03  0.10186769181E+04  0.14586240296E+04  0.00000000000E+00 0.  1.
         13    1    5    5    0    0  0.79397709503E+03  0.89283873437E+03 -0.28553847370E+03  0.12284514044E+04  0.00000000000E+00 0. -1.
        -13    1    5    5    0    0  0.91154845771E+01  0.10788366906E+02 -0.15170323603E+02  0.20727267977E+02  0.00000000000E+00 0.  1.
          1    1    6    6  503    0 -0.71629021289E+02 -0.19175206295E+02 -0.93379216426E+02  0.11923960453E+03  0.00000000000E+00 0. -1.
         -1    1    6    6    0  503 -0.35359181918E+02 -0.77578455681E+02 -0.19301967276E+02  0.87414269273E+02  0.00000000000E+00 0.  1.
<mgrwt>
<rscale>  0 0.28838231E+04</rscale>
<asrwt>0</asrwt>
<pdfrwt beam="1">  1        1 0.17829660E+00 0.28838231E+04</pdfrwt>
<pdfrwt beam="2">  1       -2 0.27599897E+00 0.28838231E+04</pdfrwt>
<totfact> 0.38497651E-01</totfact>
</mgrwt>
</event>
<event>
12    5  0.5428626E-008  0.1539778E+04  0.7818608E-02  0.8858424E-01
          1   -1    0    0  501    0  0.00000000000E+00  0.00000000000E+00  0.65769534831E+03  0.65769534831E+03  0.00000000000E+00 0. -1.
         -2   -1    0    0    0  501 -0.00000000000E+00 -0.00000000000E+00 -0.90122116193E+03  0.90122116193E+03  0.00000000000E+00 0.  1.
        -24    2    1    2    0    0  0.32853238861E+03 -0.21411607843E+03 -0.38198147624E+03  0.55322285687E+03  0.79790073119E+02 0.  0.
        254    2    1    2    0    0 -0.32853238861E+03  0.21411607843E+03  0.13845566263E+03  0.10056936534E+04  0.91568036372E+03 0.  0.
         23    2    4    4    0    0  0.27500368167E+03  0.34691056939E+01  0.20754322020E+03  0.35629981573E+03  0.90754122841E+02 0.  0.
         23    2    4    4    0    0 -0.60353607027E+03  0.21064697274E+03 -0.69087557577E+02  0.64939383764E+03  0.91166498826E+02 0.  0.
          3    1    3    3  502    0  0.56763733453E+02 -0.52272017115E+02 -0.11920585379E+03  0.14200183375E+03  0.00000000000E+00 0. -1.
         -4    1    3    3    0  502  0.27176865515E+03 -0.16184406132E+03 -0.26277562244E+03  0.41122102312E+03  0.00000000000E+00 0.  1.
         13    1    5    5    0    0  0.28283613375E+02 -0.48841451435E+01  0.65444645947E+02  0.71462013283E+02  0.00000000000E+00 0.  1.
        -13    1    5    5    0    0  0.24672006829E+03  0.83532508374E+01  0.14209857426E+03  0.28483780245E+03  0.00000000000E+00 0. -1.
          2    1    6    6  503    0 -0.54587652217E+03  0.15971650317E+03 -0.62241967377E+02  0.57215784653E+03  0.00000000000E+00 0. -1.
         -2    1    6    6    0  503 -0.57659548102E+02  0.50930469565E+02 -0.68455901999E+01  0.77235991109E+02  0.00000000000E+00 0.  1.
<mgrwt>
<rscale>  0 0.15397779E+04</rscale>
<asrwt>0</asrwt>
<pdfrwt beam="1">  1        1 0.10118390E+00 0.15397779E+04</pdfrwt>
<pdfrwt beam="2">  1       -2 0.13864941E+00 0.15397779E+04</pdfrwt>
<totfact> 0.93000350E+00</totfact>
</mgrwt>
</event>
<event>
12    5  0.5428626E-008  0.5275154E+04  0.7818608E-02  0.7787409E-01
          1   -1    0    0  501    0  0.00000000000E+00  0.00000000000E+00  0.34976537475E+04  0.34976537475E+04  0.00000000000E+00 0. -1.
         -2   -1    0    0    0  501 -0.00000000000E+00 -0.00000000000E+00 -0.19889941372E+04  0.19889941372E+04  0.00000000000E+00 0.  1.
        -24    2    1    2    0    0  0.13727065187E+04 -0.14780906528E+03 -0.15088989839E+04  0.20463045078E+04  0.66447638938E+02 0.  0.
        254    2    1    2    0    0 -0.13727065187E+04  0.14780906528E+03  0.30175585941E+04  0.34403433769E+04  0.90781714886E+03 0.  0.
         23    2    4    4    0    0 -0.49496012417E+03  0.37684733259E+03  0.65487754947E+03  0.90781485002E+03  0.90905228232E+02 0.  0.
         23    2    4    4    0    0 -0.87774639456E+03 -0.22903826731E+03  0.23626810446E+04  0.25325285269E+04  0.92421640950E+02 0.  0.
          1    1    3    3  502    0  0.33351751164E+03 -0.61868111152E+02 -0.38874578647E+03  0.51593108091E+03  0.00000000000E+00 0. -1.
         -2    1    3    3    0  502  0.10391890071E+04 -0.85940954132E+02 -0.11201531974E+04  0.15303734269E+04  0.00000000000E+00 0.  1.
         13    1    5    5    0    0 -0.47488575133E+03  0.33964369382E+03  0.62921015619E+03  0.85835874564E+03  0.00000000000E+00 0.  1.
        -13    1    5    5    0    0 -0.20074372836E+02  0.37203638767E+02  0.25667393284E+02  0.49456104378E+02  0.00000000000E+00 0. -1.
          3    1    6    6  503    0 -0.79404934606E+02  0.28894866937E+00  0.25509302345E+03  0.26716601158E+03  0.00000000000E+00 0. -1.
         -3    1    6    6    0  503 -0.79834145995E+03 -0.22932721597E+03  0.21075880212E+04  0.22653625153E+04  0.00000000000E+00 0.  1.
<mgrwt>
<rscale>  0 0.52751541E+04</rscale>
<asrwt>0</asrwt>
<pdfrwt beam="1">  1        1 0.53810058E+00 0.52751541E+04</pdfrwt>
<pdfrwt beam="2">  1       -2 0.30599910E+00 0.52751541E+04</pdfrwt>
<totfact> 0.45523548E-03</totfact>
</mgrwt>
</event>
<event>
12    5  0.5428626E-008  0.1982267E+04  0.7818608E-02  0.8614957E-01
         -2   -1    0    0    0  501 -0.00000000000E+00  0.00000000000E+00  0.63724811249E+03  0.63724811249E+03  0.00000000000E+00 0.  1.
          1   -1    0    0  501    0  0.00000000000E+00 -0.00000000000E+00 -0.15415429113E+04  0.15415429113E+04  0.00000000000E+00 0. -1.
        -24    2    1    2    0    0  0.73315142699E+03 -0.14142423155E+03 -0.10141296509E+03  0.75768354846E+03  0.79296544384E+02 0.  0.
        254    2    1    2    0    0 -0.73315142699E+03  0.14142423155E+03 -0.80288183377E+03  0.14211074754E+04  0.90411027504E+03 0.  0.
         23    2    4    4    0    0 -0.49796006417E+02  0.23084588973E+03 -0.66448623360E+03  0.71232703071E+03  0.10049068101E+03 0.  0.
         23    2    4    4    0    0 -0.68335542057E+03 -0.89421658188E+02 -0.13839560016E+03  0.70878044467E+03  0.90804806164E+02 0.  0.
          3    1    3    3  502    0  0.17166077023E+03 -0.32669498611E+02  0.99154838254E+01  0.17502294991E+03  0.00000000000E+00 0. -1.
         -4    1    3    3    0  502  0.56149065676E+03 -0.10875473293E+03 -0.11132844891E+03  0.58266059855E+03  0.00000000000E+00 0.  1.
         13    1    5    5    0    0  0.25879475618E+02  0.29034461929E+02 -0.13946324581E+03  0.14478516557E+03  0.00000000000E+00 0. -1.
        -13    1    5    5    0    0 -0.75675482035E+02  0.20181142780E+03 -0.52502298779E+03  0.56754186514E+03  0.00000000000E+00 0.  1.
          1    1    6    6  503    0 -0.65175403188E+03 -0.64614084375E+02 -0.13141307661E+03  0.66800276547E+03  0.00000000000E+00 0. -1.
         -1    1    6    6    0  503 -0.31601388696E+02 -0.24807573813E+02 -0.69825235553E+01  0.40777679203E+02  0.00000000000E+00 0.  1.
<mgrwt>
<rscale>  0 0.19822667E+04</rscale>
<asrwt>0</asrwt>
<pdfrwt beam="1">  1        1 0.23716045E+00 0.19822667E+04</pdfrwt>
<pdfrwt beam="2">  1       -2 0.98038172E-01 0.19822667E+04</pdfrwt>
<totfact> 0.43218236E+00</totfact>
</mgrwt>
</event>
<event>
12    5  0.5428626E-008  0.4177272E+04  0.7818608E-02  0.7969710E-01
         -2   -1    0    0    0  501 -0.00000000000E+00  0.00000000000E+00  0.17385958227E+04  0.17385958227E+04  0.00000000000E+00 0.  1.
          1   -1    0    0  501    0  0.00000000000E+00 -0.00000000000E+00 -0.25091517235E+04  0.25091517235E+04  0.00000000000E+00 0. -1.
        -24    2    1    2    0    0 -0.67019152554E+03  0.18673864314E+04 -0.45177166945E+03  0.20363626491E+04  0.79915156412E+02 0.  0.
        254    2    1    2    0    0  0.67019152554E+03 -0.18673864314E+04 -0.31878423131E+03  0.22113848972E+04  0.92320691735E+03 0.  0.
         23    2    4    4    0    0  0.81936063854E+03 -0.96952904949E+03 -0.21305769175E+03  0.12901957431E+04  0.88730161977E+02 0.  0.
         23    2    4    4    0    0 -0.14916911300E+03 -0.89785738188E+03 -0.10572653956E+03  0.92118915407E+03  0.94931838408E+02 0.  0.
          3    1    3    3  502    0 -0.56303422515E+03  0.15950807115E+04 -0.35729142892E+03  0.17288571890E+04  0.00000000000E+00 0. -1.
         -4    1    3    3    0  502 -0.10715730040E+03  0.27230571989E+03 -0.94480240522E+02  0.30750546005E+03  0.00000000000E+00 0.  1.
         13    1    5    5    0    0  0.46125499154E+02 -0.28402617693E+02 -0.14560987679E+02  0.56091824059E+02  0.00000000000E+00 0. -1.
        -13    1    5    5    0    0  0.77323513939E+03 -0.94112643179E+03 -0.19849670407E+03  0.12341039190E+04  0.00000000000E+00 0.  1.
          1    1    6    6  503    0 -0.37988948153E+02 -0.21191840090E+03  0.15292683617E+02  0.21583890982E+03  0.00000000000E+00 0. -1.
         -1    1    6    6    0  503 -0.11118016485E+03 -0.68593898099E+03 -0.12101922317E+03  0.70535024425E+03  0.00000000000E+00 0.  1.
<mgrwt>
<rscale>  0 0.41772722E+04</rscale>
<asrwt>0</asrwt>
<pdfrwt beam="1">  1        1 0.38602334E+00 0.41772722E+04</pdfrwt>
<pdfrwt beam="2">  1       -2 0.26747628E+00 0.41772722E+04</pdfrwt>
<totfact> 0.45499817E-02</totfact>
</mgrwt>
</event>
<event>
12    5  0.5428626E-008  0.1099777E+04  0.7818608E-02  0.9205409E-01
          1   -1    0    0  501    0  0.00000000000E+00  0.00000000000E+00  0.34842509955E+03  0.34842509955E+03  0.00000000000E+00 0. -1.
         -2   -1    0    0    0  501 -0.00000000000E+00 -0.00000000000E+00 -0.86784005024E+03  0.86784005024E+03  0.00000000000E+00 0.  1.
        -24    2    1    2    0    0  0.59401367391E+02  0.85263670519E+02  0.58038579824E+02  0.14356866204E+03  0.80281180946E+02 0.  0.
        254    2    1    2    0    0 -0.59401367391E+02 -0.85263670519E+02 -0.57745353051E+03  0.10726964877E+04  0.89801267194E+03 0.  0.
         23    2    4    4    0    0 -0.40101112301E+03 -0.25933050174E+03 -0.20463307304E+03  0.52968770418E+03  0.10311226632E+03 0.  0.
         23    2    4    4    0    0  0.34160975562E+03  0.17406683122E+03 -0.37282045747E+03  0.54300878357E+03  0.94164529746E+02 0.  0.
          1    1    3    3  502    0  0.31594243086E+02  0.84698064257E+02  0.68949136469E+02  0.11369231155E+03  0.00000000000E+00 0. -1.
         -2    1    3    3    0  502  0.27807124305E+02  0.56560626134E+00 -0.10910556644E+02  0.29876350494E+02  0.00000000000E+00 0.  1.
         13    1    5    5    0    0 -0.75457833221E+02 -0.37280964509E+02 -0.80665034328E+02  0.11657874022E+03  0.00000000000E+00 0.  1.
        -13    1    5    5    0    0 -0.32555328979E+03 -0.22204953723E+03 -0.12396803871E+03  0.41310896395E+03  0.00000000000E+00 0. -1.
          1    1    6    6  503    0  0.31078853776E+03  0.14429906079E+03 -0.36273726093E+03  0.49898903256E+03  0.00000000000E+00 0. -1.
         -1    1    6    6    0  503  0.30821217855E+02  0.29767770425E+02 -0.10083196536E+02  0.44019751005E+02  0.00000000000E+00 0.  1.
<mgrwt>
<rscale>  0 0.10997768E+04</rscale>
<asrwt>0</asrwt>
<pdfrwt beam="1">  1        1 0.53603862E-01 0.10997768E+04</pdfrwt>
<pdfrwt beam="2">  1       -2 0.13351385E+00 0.10997768E+04</pdfrwt>
<totfact> 0.25419931E+01</totfact>
</mgrwt>
</event>
<event>
12    5  0.5428626E-008  0.1293082E+04  0.7818608E-02  0.9035069E-01
          1   -1    0    0  501    0  0.00000000000E+00  0.00000000000E+00  0.23264588900E+03  0.23264588900E+03  0.00000000000E+00 0. -1.
         -2   -1    0    0    0  501 -0.00000000000E+00 -0.00000000000E+00 -0.17967876820E+04  0.17967876820E+04  0.00000000000E+00 0.  1.
        -24    2    1    2    0    0 -0.15866305430E+03 -0.27552179472E+03 -0.46879315852E+03  0.57219169888E+03  0.80932630205E+02 0.  0.
        254    2    1    2    0    0  0.15866305430E+03  0.27552179472E+03 -0.10953486345E+04  0.14572418722E+04  0.90701654817E+03 0.  0.
         23    2    4    4    0    0  0.36576248423E+03  0.50819719696E+03 -0.71292775013E+03  0.95352267601E+03  0.94302337621E+02 0.  0.
         23    2    4    4    0    0 -0.20709942993E+03 -0.23267540224E+03 -0.38242088440E+03  0.50371919616E+03  0.10227061683E+03 0.  0.
          3    1    3    3  502    0 -0.12774066478E+03 -0.14360048878E+03 -0.26115309942E+03  0.32425255458E+03  0.00000000000E+00 0. -1.
         -4    1    3    3    0  502 -0.30922389519E+02 -0.13192130595E+03 -0.20764005909E+03  0.24793914430E+03  0.00000000000E+00 0.  1.
         13    1    5    5    0    0  0.29238362944E+03  0.33325538026E+03 -0.50882475569E+03  0.67487033365E+03  0.00000000000E+00 0.  1.
        -13    1    5    5    0    0  0.73378854786E+02  0.17494181670E+03 -0.20410299444E+03  0.27865234235E+03  0.00000000000E+00 0. -1.
          3    1    6    6  503    0 -0.99431943499E+01 -0.16136834060E+02  0.34915534568E+01  0.19273180145E+02  0.00000000000E+00 0. -1.
         -3    1    6    6    0  503 -0.19715623558E+03 -0.21653856818E+03 -0.38591243786E+03  0.48444601601E+03  0.00000000000E+00 0.  1.
<mgrwt>
<rscale>  0 0.12930820E+04</rscale>
<asrwt>0</asrwt>
<pdfrwt beam="1">  1        1 0.35791675E-01 0.12930820E+04</pdfrwt>
<pdfrwt beam="2">  1       -2 0.27642888E+00 0.12930820E+04</pdfrwt>
<totfact> 0.46561574E+00</totfact>
</mgrwt>
</event>
<event>
12    5  0.5428626E-008  0.2470761E+04  0.7818608E-02  0.8413477E-01
          1   -1    0    0  501    0  0.00000000000E+00  0.00000000000E+00  0.13671423479E+04  0.13671423479E+04  0.00000000000E+00 0. -1.
         -2   -1    0    0    0  501 -0.00000000000E+00 -0.00000000000E+00 -0.11163175913E+04  0.11163175913E+04  0.00000000000E+00 0.  1.
        -24    2    1    2    0    0 -0.35933058267E+03 -0.96788492903E+03 -0.16653607315E+03  0.10488075769E+04  0.79645252296E+02 0.  0.
        254    2    1    2    0    0  0.35933058267E+03  0.96788492903E+03  0.41736082970E+03  0.14346523623E+04  0.90449855447E+03 0.  0.
         23    2    4    4    0    0 -0.96006612367E+02 -0.77691319728E+02 -0.95339216646E+02  0.18053943844E+03  0.90838933403E+02 0.  0.
         23    2    4    4    0    0  0.45533719504E+03  0.10455762488E+04  0.51270004635E+03  0.12541129239E+04  0.96830961728E+02 0.  0.
          3    1    3    3  502    0 -0.14510822393E+03 -0.33381898493E+03 -0.91649240705E+02  0.37535462522E+03  0.00000000000E+00 0. -1.
         -4    1    3    3    0  502 -0.21422235875E+03 -0.63406594410E+03 -0.74886832443E+02  0.67345295168E+03  0.00000000000E+00 0.  1.
         13    1    5    5    0    0  0.13898166815E+02 -0.99518541181E+01  0.41013446595E+01  0.17578949605E+02  0.00000000000E+00 0.  1.
        -13    1    5    5    0    0 -0.10990477918E+03 -0.67739465610E+02 -0.99440561306E+02  0.16296048883E+03  0.00000000000E+00 0. -1.
          1    1    6    6  503    0  0.38040760588E+03  0.80166325538E+03  0.42874943467E+03  0.98549479926E+03  0.00000000000E+00 0. -1.
         -1    1    6    6    0  503  0.74929589159E+02  0.24391299338E+03  0.83950611677E+02  0.26861812461E+03  0.00000000000E+00 0.  1.
<mgrwt>
<rscale>  0 0.24707611E+04</rscale>
<asrwt>0</asrwt>
<pdfrwt beam="1">  1        1 0.21032959E+00 0.24707611E+04</pdfrwt>
<pdfrwt beam="2">  1       -2 0.17174117E+00 0.24707611E+04</pdfrwt>
<totfact> 0.13124845E+00</totfact>
</mgrwt>
</event>
<event>
12    5  0.5428626E-008  0.1545248E+04  0.7818608E-02  0.8854909E-01
         -2   -1    0    0    0  501 -0.00000000000E+00  0.00000000000E+00  0.42354499108E+03  0.42354499108E+03  0.00000000000E+00 0.  1.
          1   -1    0    0  501    0  0.00000000000E+00 -0.00000000000E+00 -0.14094089558E+04  0.14094089558E+04  0.00000000000E+00 0. -1.
        -24    2    1    2    0    0  0.54515638239E+02  0.30306947863E+03  0.12842631950E+03  0.34329824702E+03  0.80853590981E+02 0.  0.
        254    2    1    2    0    0 -0.54515638239E+02 -0.30306947863E+03 -0.11142902842E+04  0.14896556999E+04  0.93947230027E+03 0.  0.
         23    2    4    4    0    0 -0.18131313920E+03 -0.51298801148E+03 -0.10927911343E+04  0.12241902470E+04  0.91750440480E+02 0.  0.
         23    2    4    4    0    0  0.12679750096E+03  0.20991853285E+03 -0.21499149932E+02  0.26546545286E+03  0.99329233022E+02 0.  0.
          3    1    3    3  502    0 -0.33467670470E+01  0.15146431995E+02  0.29632077968E+02  0.33446603663E+02  0.00000000000E+00 0. -1.
         -4    1    3    3    0  502  0.57862405286E+02  0.28792304664E+03  0.98794241527E+02  0.30985164336E+03  0.00000000000E+00 0.  1.
         13    1    5    5    0    0 -0.13293817434E+03 -0.23847817698E+03 -0.54211950954E+03  0.60699090744E+03  0.00000000000E+00 0.  1.
        -13    1    5    5    0    0 -0.48374964861E+02 -0.27450983450E+03 -0.55067162476E+03  0.61719933958E+03  0.00000000000E+00 0. -1.
          3    1    6    6  503    0  0.12327798924E+03  0.21421523904E+03 -0.40869397363E+01  0.24718886372E+03  0.00000000000E+00 0. -1.
         -3    1    6    6    0  503  0.35195117230E+01 -0.42967061956E+01 -0.17412210196E+02  0.18276589146E+02  0.00000000000E+00 0.  1.
<mgrwt>
<rscale>  0 0.15452483E+04</rscale>
<asrwt>0</asrwt>
<pdfrwt beam="1">  1        1 0.21683215E+00 0.15452483E+04</pdfrwt>
<pdfrwt beam="2">  1       -2 0.65160767E-01 0.15452483E+04</pdfrwt>
<totfact> 0.13894689E+01</totfact>
</mgrwt>
</event>
<event>
12    5  0.5428626E-008  0.1987233E+04  0.7818608E-02  0.8612613E-01
         -2   -1    0    0    0  501 -0.00000000000E+00  0.00000000000E+00  0.99917433024E+03  0.99917433024E+03  0.00000000000E+00 0.  1.
          1   -1    0    0  501    0  0.00000000000E+00 -0.00000000000E+00 -0.98809002537E+03  0.98809002537E+03  0.00000000000E+00 0. -1.
        -24    2    1    2    0    0  0.43452706223E+03  0.17893411076E+03 -0.62914320703E+03  0.78908014580E+03  0.77428145712E+02 0.  0.
        254    2    1    2    0    0 -0.43452706223E+03 -0.17893411076E+03  0.64022751190E+03  0.11981842098E+04  0.89717498283E+03 0.  0.
         23    2    4    4    0    0 -0.36155948973E+03 -0.39138605718E+03  0.30002912496E+02  0.54086773079E+03  0.87917103486E+02 0.  0.
         23    2    4    4    0    0 -0.72967572503E+02  0.21245194642E+03  0.61022459940E+03  0.65731647901E+03  0.96077029979E+02 0.  0.
          3    1    3    3  502    0  0.39465024512E+03  0.16715223794E+03 -0.60358431239E+03  0.74027205052E+03  0.00000000000E+00 0. -1.
         -4    1    3    3    0  502  0.39876817108E+02  0.11781872818E+02 -0.25558894641E+02  0.48808095282E+02  0.00000000000E+00 0.  1.
         13    1    5    5    0    0 -0.79900214707E+02 -0.39003086847E+02  0.59755011987E+01  0.89112242192E+02  0.00000000000E+00 0.  1.
        -13    1    5    5    0    0 -0.28165927502E+03 -0.35238297033E+03  0.24027411297E+02  0.45175548860E+03  0.00000000000E+00 0. -1.
          2    1    6    6  503    0 -0.63437375198E+02  0.51765233990E+02  0.17286815352E+03  0.19127817053E+03  0.00000000000E+00 0. -1.
         -2    1    6    6    0  503 -0.95301973057E+01  0.16068671243E+03  0.43735644588E+03  0.46603830848E+03  0.00000000000E+00 0.  1.
<mgrwt>
<rscale>  0 0.19872334E+04</rscale>
<asrwt>0</asrwt>
<pdfrwt beam="1">  1        1 0.15201385E+00 0.19872334E+04</pdfrwt>
<pdfrwt beam="2">  1       -2 0.15371913E+00 0.19872334E+04</pdfrwt>
<totfact> 0.35323778E+00</totfact>
</mgrwt>
</event>
<event>
12    5  0.5428626E-008  0.1937085E+04  0.7818608E-02  0.8636614E-01
          1   -1    0    0  501    0  0.00000000000E+00  0.00000000000E+00  0.24589718926E+04  0.24589718926E+04  0.00000000000E+00 0. -1.
         -2   -1    0    0    0  501 -0.00000000000E+00 -0.00000000000E+00 -0.38149075941E+03  0.38149075941E+03  0.00000000000E+00 0.  1.
        -24    2    1    2    0    0 -0.33631184433E+03  0.66259271752E+03  0.98962992354E+03  0.12400664057E+04  0.79136204934E+02 0.  0.
        254    2    1    2    0    0  0.33631184433E+03 -0.66259271752E+03  0.10878512096E+04  0.16003962463E+04  0.90868758384E+03 0.  0.
         23    2    4    4    0    0  0.51508822028E+03 -0.40129571711E+03  0.25982873141E+03  0.70935497769E+03  0.96536974602E+02 0.  0.
         23    2    4    4    0    0 -0.17877637595E+03 -0.26129700041E+03  0.82802247820E+03  0.89104126863E+03  0.89978902956E+02 0.  0.
          1    1    3    3  502    0 -0.23025893619E+03  0.40804437953E+03  0.67534391297E+03  0.82195425308E+03  0.00000000000E+00 0. -1.
         -2    1    3    3    0  502 -0.10605290814E+03  0.25454833799E+03  0.31428601056E+03  0.41811215258E+03  0.00000000000E+00 0.  1.
         13    1    5    5    0    0  0.14821712692E+03 -0.72713932433E+02  0.39155383949E+02  0.16967255751E+03  0.00000000000E+00 0. -1.
        -13    1    5    5    0    0  0.36687109337E+03 -0.32858178467E+03  0.22067334746E+03  0.53968242017E+03  0.00000000000E+00 0.  1.
          3    1    6    6  503    0 -0.65450667421E+02 -0.63244445435E+02  0.14789510334E+03  0.17365659025E+03  0.00000000000E+00 0. -1.
         -3    1    6    6    0  503 -0.11332570853E+03 -0.19805255498E+03  0.68012737486E+03  0.71738467838E+03  0.00000000000E+00 0.  1.
<mgrwt>
<rscale>  0 0.19370855E+04</rscale>
<asrwt>0</asrwt>
<pdfrwt beam="1">  1        1 0.37830336E+00 0.19370855E+04</pdfrwt>
<pdfrwt beam="2">  1       -2 0.58690888E-01 0.19370855E+04</pdfrwt>
<totfact> 0.32172933E+00</totfact>
</mgrwt>
</event>
<event>
12    5  0.5428626E-008  0.1792412E+04  0.7818608E-02  0.8710345E-01
         -2   -1    0    0    0  501 -0.00000000000E+00  0.00000000000E+00  0.44829638936E+03  0.44829638936E+03  0.00000000000E+00 0.  1.
          1   -1    0    0  501    0  0.00000000000E+00 -0.00000000000E+00 -0.17916387096E+04  0.17916387096E+04  0.00000000000E+00 0. -1.
        -24    2    1    2    0    0 -0.11406967144E+03 -0.57613668271E+03 -0.10288015890E+03  0.60156530367E+03  0.79693916817E+02 0.  0.
        254    2    1    2    0    0  0.11406967144E+03  0.57613668271E+03 -0.12404621614E+04  0.16383697953E+04  0.89474233460E+03 0.  0.
         23    2    4    4    0    0 -0.34278780862E+03  0.38507722074E+03 -0.86162218879E+03  0.10083193776E+04  0.92342965633E+02 0.  0.
         23    2    4    4    0    0  0.45685748006E+03  0.19105946196E+03 -0.37883997256E+03  0.63005041773E+03  0.90671544527E+02 0.  0.
          1    1    3    3  502    0  0.63184789244E+01 -0.14076178102E+03 -0.28836967276E+02  0.14382410387E+03  0.00000000000E+00 0. -1.
         -2    1    3    3    0  502 -0.12038815037E+03 -0.43537490168E+03 -0.74043191625E+02  0.45774119980E+03  0.00000000000E+00 0.  1.
         13    1    5    5    0    0 -0.76102863593E+00 -0.46953543095E+01 -0.45522703518E+01  0.65839716002E+01  0.00000000000E+00 0. -1.
        -13    1    5    5    0    0 -0.34202677998E+03  0.38977257505E+03 -0.85706991844E+03  0.10017354060E+04  0.00000000000E+00 0.  1.
          2    1    6    6  503    0  0.26612318143E+03  0.15148445174E+03 -0.20106793606E+03  0.36632963534E+03  0.00000000000E+00 0. -1.
         -2    1    6    6    0  503  0.19073429863E+03  0.39575010219E+02 -0.17777203650E+03  0.26372078239E+03  0.00000000000E+00 0.  1.
<mgrwt>
<rscale>  0 0.17924120E+04</rscale>
<asrwt>0</asrwt>
<pdfrwt beam="1">  1        1 0.27563673E+00 0.17924120E+04</pdfrwt>
<pdfrwt beam="2">  1       -2 0.68968674E-01 0.17924120E+04</pdfrwt>
<totfact> 0.65698399E+00</totfact>
</mgrwt>
</event>
<event>
12    5  0.5428626E-008  0.1357358E+04  0.7818608E-02  0.8985276E-01
          1   -1    0    0  501    0  0.00000000000E+00  0.00000000000E+00  0.26050658472E+04  0.26050658472E+04  0.00000000000E+00 0. -1.
         -2   -1    0    0    0  501 -0.00000000000E+00 -0.00000000000E+00 -0.17681145833E+03  0.17681145833E+03  0.00000000000E+00 0.  1.
        -24    2    1    2    0    0 -0.20318530894E+03 -0.16440255323E+02  0.43692380785E+02  0.22337646883E+03  0.80208920484E+02 0.  0.
        254    2    1    2    0    0  0.20318530894E+03  0.16440255323E+02  0.23845620081E+04  0.25585008367E+04  0.90456398845E+03 0.  0.
         23    2    4    4    0    0 -0.14959155232E+03 -0.33194622289E+03  0.63795514032E+03  0.74047870954E+03  0.93573665121E+02 0.  0.
         23    2    4    4    0    0  0.35277686127E+03  0.34838647822E+03  0.17466068678E+04  0.18180221271E+04  0.93510706595E+02 0.  0.
          3    1    3    3  502    0 -0.15513663499E+02  0.20602259876E+02  0.15304170024E+02  0.29989072798E+02  0.00000000000E+00 0. -1.
         -4    1    3    3    0  502 -0.18767164544E+03 -0.37042515198E+02  0.28388210761E+02  0.19338739604E+03  0.00000000000E+00 0.  1.
         13    1    5    5    0    0 -0.84948238128E+02 -0.22627534639E+03  0.49815498718E+03  0.55369226723E+03  0.00000000000E+00 0.  1.
        -13    1    5    5    0    0 -0.64643314196E+02 -0.10567087651E+03  0.13980015314E+03  0.18678644231E+03  0.00000000000E+00 0. -1.
          2    1    6    6  503    0  0.31434757756E+03  0.31510869498E+03  0.16484555605E+04  0.17074875180E+04  0.00000000000E+00 0. -1.
         -2    1    6    6    0  503  0.38429283710E+02  0.33277783240E+02  0.98151307251E+02  0.11053460915E+03  0.00000000000E+00 0.  1.
<mgrwt>
<rscale>  0 0.13573585E+04</rscale>
<asrwt>0</asrwt>
<pdfrwt beam="1">  1        1 0.40077933E+00 0.13573585E+04</pdfrwt>
<pdfrwt beam="2">  1       -2 0.27201765E-01 0.13573585E+04</pdfrwt>
<totfact> 0.12145418E+01</totfact>
</mgrwt>
</event>
<event>
12    5  0.5428626E-008  0.2017473E+04  0.7818608E-02  0.8598495E-01
          1   -1    0    0  501    0  0.00000000000E+00  0.00000000000E+00  0.54111187350E+03  0.54111187350E+03  0.00000000000E+00 0. -1.
         -2   -1    0    0    0  501 -0.00000000000E+00 -0.00000000000E+00 -0.18804781470E+04  0.18804781470E+04  0.00000000000E+00 0.  1.
        -24    2    1    2    0    0  0.27862080397E+03  0.49977691770E+03 -0.12334069678E+04  0.13620049639E+04  0.79738658305E+02 0.  0.
        254    2    1    2    0    0 -0.27862080397E+03 -0.49977691770E+03 -0.10595930565E+03  0.10595850565E+04  0.88548664457E+03 0.  0.
         23    2    4    4    0    0 -0.66858192927E+02 -0.16081037743E+03  0.37760301686E+03  0.42565754288E+03  0.90941244854E+02 0.  0.
         23    2    4    4    0    0 -0.21176261104E+03 -0.33896654026E+03 -0.48356232251E+03  0.63392751366E+03  0.91048635164E+02 0.  0.
          1    1    3    3  502    0 -0.29406279538E+01  0.27437629017E+02 -0.51058690629E+02  0.58038441292E+02  0.00000000000E+00 0. -1.
         -2    1    3    3    0  502  0.28156143192E+03  0.47233928868E+03 -0.11823482772E+04  0.13039665227E+04  0.00000000000E+00 0.  1.
         13    1    5    5    0    0  0.14465972101E+02 -0.30083857001E+02  0.12894544096E+03  0.13319620695E+03  0.00000000000E+00 0.  1.
        -13    1    5    5    0    0 -0.81324165028E+02 -0.13072652043E+03  0.24865757590E+03  0.29246133593E+03  0.00000000000E+00 0. -1.
          2    1    6    6  503    0 -0.48004460612E+02 -0.68424708626E+02 -0.50387954592E+02  0.97597720041E+02  0.00000000000E+00 0. -1.
         -2    1    6    6    0  503 -0.16375815043E+03 -0.27054183164E+03 -0.43317436792E+03  0.53632979362E+03  0.00000000000E+00 0.  1.
<mgrwt>
<rscale>  0 0.20174727E+04</rscale>
<asrwt>0</asrwt>
<pdfrwt beam="1">  1        1 0.83247979E-01 0.20174727E+04</pdfrwt>
<pdfrwt beam="2">  1       -2 0.28930433E+00 0.20174727E+04</pdfrwt>
<totfact> 0.11902549E+00</totfact>
</mgrwt>
</event>
<event>
12    5  0.5428626E-008  0.1671820E+04  0.7818608E-02  0.8777602E-01
         -2   -1    0    0    0  501 -0.00000000000E+00  0.00000000000E+00  0.98451492846E+03  0.98451492846E+03  0.00000000000E+00 0.  1.
          1   -1    0    0  501    0  0.00000000000E+00 -0.00000000000E+00 -0.70973568820E+03  0.70973568820E+03  0.00000000000E+00 0. -1.
        -24    2    1    2    0    0  0.25806335627E+03 -0.30531401961E+03 -0.35190989186E+03  0.53776872694E+03  0.74439809664E+02 0.  0.
        254    2    1    2    0    0 -0.25806335627E+03  0.30531401961E+03  0.62668913212E+03  0.11564818897E+04  0.88594455048E+03 0.  0.
         23    2    4    4    0    0  0.28991614410E+03  0.22260064026E+03  0.40084559148E+03  0.55030474925E+03  0.92497098297E+02 0.  0.
         23    2    4    4    0    0 -0.54797950036E+03  0.82713379358E+02  0.22584354064E+03  0.60617714047E+03  0.96552497852E+02 0.  0.
          1    1    3    3  502    0  0.26103764320E+03 -0.28673419289E+03 -0.33755936101E+03  0.51410453290E+03  0.00000000000E+00 0. -1.
         -2    1    3    3    0  502 -0.29742869363E+01 -0.18579826722E+02 -0.14350530849E+02  0.23664194038E+02  0.00000000000E+00 0.  1.
         13    1    5    5    0    0  0.12106202615E+03  0.15119150492E+03  0.20323442566E+03  0.28074742583E+03  0.00000000000E+00 0. -1.
        -13    1    5    5    0    0  0.16885411794E+03  0.71409135335E+02  0.19761116581E+03  0.26955732342E+03  0.00000000000E+00 0.  1.
          2    1    6    6  503    0 -0.31673095167E+03  0.14535958032E+02  0.90646335190E+02  0.32976741486E+03  0.00000000000E+00 0. -1.
         -2    1    6    6    0  503 -0.23124854870E+03  0.68177421326E+02  0.13519720545E+03  0.27640972561E+03  0.00000000000E+00 0.  1.
<mgrwt>
<rscale>  0 0.16718198E+04</rscale>
<asrwt>0</asrwt>
<pdfrwt beam="1">  1        1 0.10919011E+00 0.16718198E+04</pdfrwt>
<pdfrwt beam="2">  1       -2 0.15146384E+00 0.16718198E+04</pdfrwt>
<totfact> 0.65021660E+00</totfact>
</mgrwt>
</event>
<event>
12    5  0.5428626E-008  0.2480249E+04  0.7818608E-02  0.8410056E-01
          1   -1    0    0  501    0  0.00000000000E+00  0.00000000000E+00  0.74167087265E+03  0.74167087265E+03  0.00000000000E+00 0. -1.
         -2   -1    0    0    0  501 -0.00000000000E+00 -0.00000000000E+00 -0.20735727793E+04  0.20735727793E+04  0.00000000000E+00 0.  1.
        -24    2    1    2    0    0 -0.13264279500E+03  0.83929876401E+03 -0.12735467240E+04  0.15331009623E+04  0.80378954062E+02 0.  0.
        254    2    1    2    0    0  0.13264279500E+03 -0.83929876401E+03 -0.58355182697E+02  0.12821426896E+04  0.95836737366E+03 0.  0.
         23    2    4    4    0    0 -0.24088180456E+03  0.24193652586E+02  0.17077093601E+03  0.30975310208E+03  0.90415126319E+02 0.  0.
         23    2    4    4    0    0  0.37352459956E+03 -0.86349241660E+03 -0.22912611870E+03  0.97238958756E+03  0.88898547362E+02 0.  0.
          1    1    3    3  502    0 -0.47215918346E+02  0.16890178391E+03 -0.31011541098E+03  0.35627057650E+03  0.00000000000E+00 0. -1.
         -2    1    3    3    0  502 -0.85426876655E+02  0.67039698010E+03 -0.96343131300E+03  0.11768303858E+04  0.00000000000E+00 0.  1.
         13    1    5    5    0    0 -0.13176318379E+03  0.55538229872E+02  0.11369808904E+03  0.18268357077E+03  0.00000000000E+00 0. -1.
        -13    1    5    5    0    0 -0.10911862078E+03 -0.31344577286E+02  0.57072846970E+02  0.12706953131E+03  0.00000000000E+00 0.  1.
          3    1    6    6  503    0  0.31814261627E+03 -0.77330808347E+03 -0.22732264932E+03  0.86654238393E+03  0.00000000000E+00 0. -1.
         -3    1    6    6    0  503  0.55381983296E+02 -0.90184333124E+02 -0.18034693837E+01  0.10584720363E+03  0.00000000000E+00 0.  1.
<mgrwt>
<rscale>  0 0.24802488E+04</rscale>
<asrwt>0</asrwt>
<pdfrwt beam="1">  1        1 0.11410321E+00 0.24802488E+04</pdfrwt>
<pdfrwt beam="2">  1       -2 0.31901119E+00 0.24802488E+04</pdfrwt>
<totfact> 0.47232105E-01</totfact>
</mgrwt>
</event>
<event>
12    5  0.5428626E-008  0.1705685E+04  0.7818608E-02  0.8758129E-01
         -4   -1    0    0    0  501 -0.00000000000E+00  0.00000000000E+00  0.75511008459E+03  0.75511008459E+03  0.00000000000E+00 0.  1.
          3   -1    0    0  501    0  0.00000000000E+00 -0.00000000000E+00 -0.96322386637E+03  0.96322386637E+03  0.00000000000E+00 0. -1.
        -24    2    1    2    0    0  0.21506801460E+03 -0.54518093682E+03 -0.25262948517E+03  0.64298200441E+03  0.78279604331E+02 0.  0.
        254    2    1    2    0    0 -0.21506801460E+03  0.54518093682E+03  0.44515703393E+02  0.10753519465E+04  0.90051299619E+03 0.  0.
         23    2    4    4    0    0  0.20767146542E+03 -0.38642449939E+02  0.23109473567E+03  0.32539197601E+03  0.88625530799E+02 0.  0.
         23    2    4    4    0    0 -0.42273948002E+03  0.58382338676E+03 -0.18657903228E+03  0.74995997053E+03  0.89832105736E+02 0.  0.
          1    1    3    3  502    0  0.17826842570E+03 -0.45155335783E+03 -0.17550006397E+03  0.51621733701E+03  0.00000000000E+00 0. -1.
         -2    1    3    3    0  502  0.36799588895E+02 -0.93627578983E+02 -0.77129421192E+02  0.12676466741E+03  0.00000000000E+00 0.  1.
         13    1    5    5    0    0  0.19560867554E+03 -0.56938291250E+02  0.18881060453E+03  0.27776638987E+03  0.00000000000E+00 0. -1.
        -13    1    5    5    0    0  0.12062789880E+02  0.18295841311E+02  0.42284131142E+02  0.47625586143E+02  0.00000000000E+00 0.  1.
          1    1    6    6  503    0 -0.41060762299E+03  0.58129122985E+03 -0.17474917894E+03  0.73282698470E+03  0.00000000000E+00 0. -1.
         -1    1    6    6    0  503 -0.12131857026E+02  0.25321569026E+01 -0.11829853335E+02  0.17132985829E+02  0.00000000000E+00 0.  1.
<mgrwt>
<rscale>  0 0.17056847E+04</rscale>
<asrwt>0</asrwt>
<pdfrwt beam="1">  1        3 0.14818829E+00 0.17056847E+04</pdfrwt>
<pdfrwt beam="2">  1       -4 0.11617078E+00 0.17056847E+04</pdfrwt>
<totfact> 0.41721238E-01</totfact>
</mgrwt>
</event>
<event>
12    5  0.5428626E-008  0.1879880E+04  0.7818608E-02  0.8664937E-01
          1   -1    0    0  501    0  0.00000000000E+00  0.00000000000E+00  0.12864990549E+04  0.12864990549E+04  0.00000000000E+00 0. -1.
         -2   -1    0    0    0  501 -0.00000000000E+00 -0.00000000000E+00 -0.68673781391E+03  0.68673781391E+03  0.00000000000E+00 0.  1.
        -24    2    1    2    0    0 -0.29892924262E+03 -0.22863632428E+03 -0.41711282308E+03  0.56782268950E+03  0.82499931292E+02 0.  0.
        254    2    1    2    0    0  0.29892924262E+03  0.22863632428E+03  0.10168740641E+04  0.14054141793E+04  0.89416043994E+03 0.  0.
         23    2    4    4    0    0  0.66475709689E+02  0.18070418924E+03  0.11123896988E+04  0.11325765462E+04  0.90806206042E+02 0.  0.
         23    2    4    4    0    0  0.23245353293E+03  0.47932135033E+02 -0.95515634696E+02  0.27283763313E+03  0.94789255916E+02 0.  0.
          1    1    3    3  502    0 -0.20921548721E+03 -0.11152805451E+03 -0.24067337106E+03  0.33783620080E+03  0.00000000000E+00 0. -1.
         -2    1    3    3    0  502 -0.89713755406E+02 -0.11710826976E+03 -0.17643945202E+03  0.22998648870E+03  0.00000000000E+00 0.  1.
         13    1    5    5    0    0  0.18441988465E+02  0.41229236131E+01  0.35186769920E+02  0.39940132888E+02  0.00000000000E+00 0.  1.
        -13    1    5    5    0    0  0.48033721224E+02  0.17658126563E+03  0.10772029288E+04  0.10926364133E+04  0.00000000000E+00 0. -1.
          4    1    6    6  503    0  0.21834901142E+03  0.39217298604E+02 -0.11281126194E+03  0.24887882216E+03  0.00000000000E+00 0. -1.
         -4    1    6    6    0  503  0.14104521512E+02  0.87148364290E+01  0.17295627248E+02  0.23958810967E+02  0.00000000000E+00 0.  1.
<mgrwt>
<rscale>  0 0.18798804E+04</rscale>
<asrwt>0</asrwt>
<pdfrwt beam="1">  1        1 0.19792293E+00 0.18798804E+04</pdfrwt>
<pdfrwt beam="2">  1       -2 0.10565197E+00 0.18798804E+04</pdfrwt>
<totfact> 0.55080783E+00</totfact>
</mgrwt>
</event>
<event>
12    5  0.5428626E-008  0.4586358E+04  0.7818608E-02  0.7895690E-01
          1   -1    0    0  501    0  0.00000000000E+00  0.00000000000E+00  0.22113889079E+04  0.22113889079E+04  0.00000000000E+00 0. -1.
         -2   -1    0    0    0  501 -0.00000000000E+00 -0.00000000000E+00 -0.23779938130E+04  0.23779938130E+04  0.00000000000E+00 0.  1.
        -24    2    1    2    0    0 -0.11115372815E+04 -0.15034173494E+03 -0.19801746877E+04  0.22771126962E+04  0.77670276560E+02 0.  0.
        254    2    1    2    0    0  0.11115372815E+04  0.15034173494E+03  0.18135697826E+04  0.23122700247E+04  0.89411383263E+03 0.  0.
         23    2    4    4    0    0  0.43108184687E+03  0.48736637525E+03  0.99346381144E+03  0.11909573619E+04  0.89730433657E+02 0.  0.
         23    2    4    4    0    0  0.68045543459E+03 -0.33702464031E+03  0.82010597112E+03  0.11213126629E+04  0.90349750331E+02 0.  0.
          3    1    3    3  502    0 -0.13529291344E+03 -0.35605894306E+02 -0.21001798970E+03  0.25234799015E+03  0.00000000000E+00 0. -1.
         -4    1    3    3    0  502 -0.97624436803E+03 -0.11473584063E+03 -0.17701566980E+04  0.20247647060E+04  0.00000000000E+00 0.  1.
         13    1    5    5    0    0  0.11102417696E+01  0.78338595334E+01  0.12200231821E+01  0.80056510379E+01  0.00000000000E+00 0. -1.
        -13    1    5    5    0    0  0.42997160510E+03  0.47953251571E+03  0.99224378826E+03  0.11829517108E+04  0.00000000000E+00 0.  1.
          2    1    6    6  503    0  0.10867456630E+03 -0.24810999557E+02  0.14809640514E+03  0.18535989932E+03  0.00000000000E+00 0. -1.
         -2    1    6    6    0  503  0.57178086829E+03 -0.31221364075E+03  0.67200956597E+03  0.93595276354E+03  0.00000000000E+00 0.  1.
<mgrwt>
<rscale>  0 0.45863577E+04</rscale>
<asrwt>0</asrwt>
<pdfrwt beam="1">  1        1 0.34021368E+00 0.45863577E+04</pdfrwt>
<pdfrwt beam="2">  1       -2 0.36584520E+00 0.45863577E+04</pdfrwt>
<totfact> 0.17320306E-02</totfact>
</mgrwt>
</event>
<event>
12    5  0.5428626E-008  0.1971118E+04  0.7818608E-02  0.8620244E-01
         -2   -1    0    0    0  501 -0.00000000000E+00  0.00000000000E+00  0.12563730544E+04  0.12563730544E+04  0.00000000000E+00 0.  1.
          1   -1    0    0  501    0  0.00000000000E+00 -0.00000000000E+00 -0.77311981977E+03  0.77311981977E+03  0.00000000000E+00 0. -1.
        -24    2    1    2    0    0  0.47160363651E+02 -0.77859192115E+03  0.18372467366E+03  0.80532479850E+03  0.79773402832E+02 0.  0.
        254    2    1    2    0    0 -0.47160363651E+02  0.77859192115E+03  0.29952856099E+03  0.12241680757E+04  0.89467348184E+03 0.  0.
         23    2    4    4    0    0 -0.41977496527E+03  0.41358740799E+03  0.35170058530E+03  0.69205919934E+03  0.89370398760E+02 0.  0.
         23    2    4    4    0    0  0.37261460162E+03  0.36500451315E+03 -0.52172024309E+02  0.53210887635E+03  0.91367391381E+02 0.  0.
          1    1    3    3  502    0  0.38423892598E+02 -0.74787061101E+03  0.16057798136E+03  0.76587997391E+03  0.00000000000E+00 0. -1.
         -2    1    3    3    0  502  0.87364710534E+01 -0.30721310133E+02  0.23146692299E+02  0.39444824592E+02  0.00000000000E+00 0.  1.
         13    1    5    5    0    0 -0.14537538859E+03  0.95728222097E+02  0.77432456143E+02  0.19050900603E+03  0.00000000000E+00 0. -1.
        -13    1    5    5    0    0 -0.27439957668E+03  0.31785918590E+03  0.27426812915E+03  0.50155019331E+03  0.00000000000E+00 0.  1.
          3    1    6    6  503    0  0.16612431499E+03  0.18642006571E+03  0.17638397113E+02  0.25032147727E+03  0.00000000000E+00 0. -1.
         -3    1    6    6    0  503  0.20649028663E+03  0.17858444744E+03 -0.69810421421E+02  0.28178739908E+03  0.00000000000E+00 0.  1.
<mgrwt>
<rscale>  0 0.19711184E+04</rscale>
<asrwt>0</asrwt>
<pdfrwt beam="1">  1        1 0.11894151E+00 0.19711184E+04</pdfrwt>
<pdfrwt beam="2">  1       -2 0.19328816E+00 0.19711184E+04</pdfrwt>
<totfact> 0.28014306E+00</totfact>
</mgrwt>
</event>
<event>
12    5  0.5428626E-008  0.1382893E+04  0.7818608E-02  0.8966296E-01
         -2   -1    0    0    0  501 -0.00000000000E+00  0.00000000000E+00  0.63758603125E+03  0.63758603125E+03  0.00000000000E+00 0.  1.
          1   -1    0    0  501    0  0.00000000000E+00 -0.00000000000E+00 -0.74985648037E+03  0.74985648037E+03  0.00000000000E+00 0. -1.
        -24    2    1    2    0    0  0.38377254090E+03  0.68401050053E+02  0.79310583684E+01  0.39682703767E+03  0.73815508803E+02 0.  0.
        254    2    1    2    0    0 -0.38377254090E+03 -0.68401050053E+02 -0.12020150749E+03  0.99061547396E+03  0.90272396005E+03 0.  0.
         23    2    4    4    0    0 -0.20441374165E+03  0.21983367065E+03  0.30454537934E+03  0.43757185207E+03  0.92786944788E+02 0.  0.
         23    2    4    4    0    0 -0.17935879925E+03 -0.28823472071E+03 -0.42474688682E+03  0.55304362188E+03  0.10098760691E+03 0.  0.
          1    1    3    3  502    0  0.22484972180E+03  0.55982820700E+02 -0.28060637028E+02  0.23340709705E+03  0.00000000000E+00 0. -1.
         -2    1    3    3    0  502  0.15892281911E+03  0.12418229353E+02  0.35991695396E+02  0.16341994062E+03  0.00000000000E+00 0.  1.
         13    1    5    5    0    0 -0.17369770066E+03  0.21377779274E+03  0.29758901424E+03  0.40550099541E+03  0.00000000000E+00 0. -1.
        -13    1    5    5    0    0 -0.30716040993E+02  0.60558779129E+01  0.69563650924E+01  0.32070856660E+02  0.00000000000E+00 0.  1.
          1    1    6    6  503    0 -0.15977078688E+03 -0.28579467409E+03 -0.36606250576E+03  0.49112835207E+03  0.00000000000E+00 0. -1.
         -1    1    6    6    0  503 -0.19588012368E+02 -0.24400466215E+01 -0.58684381061E+02  0.61915269817E+02  0.00000000000E+00 0.  1.
<mgrwt>
<rscale>  0 0.13828926E+04</rscale>
<asrwt>0</asrwt>
<pdfrwt beam="1">  1        1 0.11536254E+00 0.13828926E+04</pdfrwt>
<pdfrwt beam="2">  1       -2 0.98090159E-01 0.13828926E+04</pdfrwt>
<totfact> 0.18113728E+01</totfact>
</mgrwt>
</event>
<event>
12    5  0.5428626E-008  0.1784223E+04  0.7818608E-02  0.8714735E-01
         -2   -1    0    0    0  501 -0.00000000000E+00  0.00000000000E+00  0.20804602652E+04  0.20804602652E+04  0.00000000000E+00 0.  1.
          1   -1    0    0  501    0  0.00000000000E+00 -0.00000000000E+00 -0.38254162523E+03  0.38254162523E+03  0.00000000000E+00 0. -1.
        -24    2    1    2    0    0 -0.34360982879E+03  0.45551278947E+03  0.16695531187E+03  0.59990227894E+03  0.80305991727E+02 0.  0.
        254    2    1    2    0    0  0.34360982879E+03 -0.45551278947E+03  0.15309633281E+04  0.18630996115E+04  0.89539479256E+03 0.  0.
         23    2    4    4    0    0  0.49995831795E+03 -0.27284712656E+03  0.39768220707E+03  0.70104534684E+03  0.94390499293E+02 0.  0.
         23    2    4    4    0    0 -0.15634848916E+03 -0.18266566291E+03  0.11332811210E+04  0.11620542647E+04  0.90732685549E+02 0.  0.
          3    1    3    3  502    0 -0.33007771238E+03  0.45332763956E+03  0.15520261056E+03  0.58184628153E+03  0.00000000000E+00 0. -1.
         -4    1    3    3    0  502 -0.13532116407E+02  0.21851499042E+01  0.11752701303E+02  0.18055997410E+02  0.00000000000E+00 0.  1.
         13    1    5    5    0    0  0.20158462857E+03 -0.12050853676E+03  0.22011096437E+03  0.32188119943E+03  0.00000000000E+00 0. -1.
        -13    1    5    5    0    0  0.29837368937E+03 -0.15233858980E+03  0.17757124270E+03  0.37916414741E+03  0.00000000000E+00 0.  1.
          4    1    6    6  503    0 -0.63115966562E+02 -0.17479528293E+02  0.23435391986E+03  0.24333293837E+03  0.00000000000E+00 0. -1.
         -4    1    6    6    0  503 -0.93232522600E+02 -0.16518613462E+03  0.89892720118E+03  0.91872132628E+03  0.00000000000E+00 0.  1.
<mgrwt>
<rscale>  0 0.17842227E+04</rscale>
<asrwt>0</asrwt>
<pdfrwt beam="1">  1        1 0.58852559E-01 0.17842227E+04</pdfrwt>
<pdfrwt beam="2">  1       -2 0.32007080E+00 0.17842227E+04</pdfrwt>
<totfact> 0.12617470E+00</totfact>
</mgrwt>
</event>
<event>
12    5  0.5428626E-008  0.1522543E+04  0.7818608E-02  0.8869599E-01
          1   -1    0    0  501    0  0.00000000000E+00  0.00000000000E+00  0.46975378162E+03  0.46975378162E+03  0.00000000000E+00 0. -1.
         -2   -1    0    0    0  501 -0.00000000000E+00 -0.00000000000E+00 -0.12336984826E+04  0.12336984826E+04  0.00000000000E+00 0.  1.
        -24    2    1    2    0    0  0.38892236592E+03  0.33380553505E+02 -0.58096349996E+03  0.70476150713E+03  0.82433764805E+02 0.  0.
        254    2    1    2    0    0 -0.38892236592E+03 -0.33380553505E+02 -0.18298120098E+03  0.99869075705E+03  0.90084751221E+03 0.  0.
         23    2    4    4    0    0 -0.41634433100E+03  0.23902535695E+03  0.19238295129E+03  0.52531933140E+03  0.92051489809E+02 0.  0.
         23    2    4    4    0    0  0.27421965085E+02 -0.27240591045E+03 -0.37536415227E+03  0.47337142565E+03  0.90693525645E+02 0.  0.
          3    1    3    3  502    0  0.53141856367E+02 -0.23847706334E+02 -0.90264243214E+02  0.10742627052E+03  0.00000000000E+00 0. -1.
         -4    1    3    3    0  502  0.33578050955E+03  0.57228259839E+02 -0.49069925675E+03  0.59733523660E+03  0.00000000000E+00 0.  1.
         13    1    5    5    0    0 -0.41094244067E+03  0.23165886470E+03  0.17050156809E+03  0.50160771910E+03  0.00000000000E+00 0. -1.
        -13    1    5    5    0    0 -0.54018903291E+01  0.73664922454E+01  0.21881383200E+02  0.23711612300E+02  0.00000000000E+00 0.  1.
          2    1    6    6  503    0  0.37935669377E+02 -0.25623067928E+03 -0.30370880727E+03  0.39916452201E+03  0.00000000000E+00 0. -1.
         -2    1    6    6    0  503 -0.10513704293E+02 -0.16175231174E+02 -0.71655344996E+02  0.74206903641E+02  0.00000000000E+00 0.  1.
<mgrwt>
<rscale>  0 0.15225433E+04</rscale>
<asrwt>0</asrwt>
<pdfrwt beam="1">  1        1 0.72269812E-01 0.15225433E+04</pdfrwt>
<pdfrwt beam="2">  1       -2 0.18979977E+00 0.15225433E+04</pdfrwt>
<totfact> 0.63338303E+00</totfact>
</mgrwt>
</event>
<event>
12    5  0.5428626E-008  0.2060343E+04  0.7818608E-02  0.8578917E-01
          3   -1    0    0  501    0  0.00000000000E+00  0.00000000000E+00  0.15202417574E+04  0.15202417574E+04  0.00000000000E+00 0. -1.
         -2   -1    0    0    0  501 -0.00000000000E+00 -0.00000000000E+00 -0.69808208425E+03  0.69808208425E+03  0.00000000000E+00 0.  1.
        -24    2    1    2    0    0 -0.16886805272E+03  0.37156366664E+03 -0.37523314353E+03  0.56008188658E+03  0.79472196843E+02 0.  0.
        254    2    1    2    0    0  0.16886805272E+03 -0.37156366664E+03  0.11973928167E+04  0.16582419551E+04  0.10721197911E+04 0.  0.
         23    2    4    4    0    0  0.28820239625E+03 -0.69527472271E+03  0.61955058753E+03  0.97909190570E+03  0.91161768563E+02 0.  0.
         23    2    4    4    0    0 -0.11933434352E+03  0.32371105607E+03  0.57784222919E+03  0.67915004941E+03  0.91179023943E+02 0.  0.
          3    1    3    3  502    0 -0.55527101112E+01  0.13289933778E+02 -0.41515057915E+02  0.43942632638E+02  0.00000000000E+00 0. -1.
         -4    1    3    3    0  502 -0.16331534261E+03  0.35827373286E+03 -0.33371808562E+03  0.51613925394E+03  0.00000000000E+00 0.  1.
         13    1    5    5    0    0  0.81535980531E+02 -0.16902732264E+03  0.10732183994E+03  0.21618586736E+03  0.00000000000E+00 0. -1.
        -13    1    5    5    0    0  0.20666641572E+03 -0.52624740008E+03  0.51222874759E+03  0.76290603834E+03  0.00000000000E+00 0.  1.
          2    1    6    6  503    0 -0.68011223833E+02  0.17665261809E+03  0.22894844325E+03  0.29706743967E+03  0.00000000000E+00 0.  1.
         -2    1    6    6    0  503 -0.51323119692E+02  0.14705843798E+03  0.34889378594E+03  0.38208260974E+03  0.00000000000E+00 0. -1.
<mgrwt>
<rscale>  0 0.20603432E+04</rscale>
<asrwt>0</asrwt>
<pdfrwt beam="1">  1        3 0.23388335E+00 0.20603432E+04</pdfrwt>
<pdfrwt beam="2">  1       -2 0.10739724E+00 0.20603432E+04</pdfrwt>
<totfact> 0.24245457E-01</totfact>
</mgrwt>
</event>
<event>
12    5  0.5428626E-008  0.1890403E+04  0.7818608E-02  0.8659648E-01
          1   -1    0    0  501    0  0.00000000000E+00  0.00000000000E+00  0.31139425310E+04  0.31139425310E+04  0.00000000000E+00 0. -1.
         -2   -1    0    0    0  501 -0.00000000000E+00 -0.00000000000E+00 -0.28690506819E+03  0.28690506819E+03  0.00000000000E+00 0.  1.
        -24    2    1    2    0    0 -0.24537234522E+03  0.29890121559E+03  0.22129762380E+04  0.22478426907E+04  0.77352489386E+02 0.  0.
        254    2    1    2    0    0  0.24537234522E+03 -0.29890121559E+03  0.61406122486E+03  0.11530049086E+04  0.89599085196E+03 0.  0.
         23    2    4    4    0    0  0.26116415966E+03  0.27264960550E+03  0.32733645208E+03  0.50623863991E+03  0.81141124032E+02 0.  0.
         23    2    4    4    0    0 -0.15791814442E+02 -0.57155082109E+03  0.28672477277E+03  0.64676626864E+03  0.95790335831E+02 0.  0.
          1    1    3    3  502    0 -0.24816710348E+03  0.28119858324E+03  0.20646128197E+04  0.20984007362E+04  0.00000000000E+00 0. -1.
         -2    1    3    3    0  502  0.27947582575E+01  0.17702632351E+02  0.14836341830E+03  0.14944195447E+03  0.00000000000E+00 0.  1.
         13    1    5    5    0    0  0.30899905169E+01  0.20554678754E+02  0.27916674414E+01  0.20972273772E+02  0.00000000000E+00 0.  1.
        -13    1    5    5    0    0  0.25807416914E+03  0.25209492674E+03  0.32454478464E+03  0.48526636614E+03  0.00000000000E+00 0. -1.
          4    1    6    6  503    0  0.13426441693E+02 -0.48906571465E+03  0.26580841613E+03  0.55679408822E+03  0.00000000000E+00 0.  1.
         -4    1    6    6    0  503 -0.29218256134E+02 -0.82485106436E+02  0.20916356643E+02  0.89972180426E+02  0.00000000000E+00 0. -1.
<mgrwt>
<rscale>  0 0.18904030E+04</rscale>
<asrwt>0</asrwt>
<pdfrwt beam="1">  1        1 0.47906806E+00 0.18904030E+04</pdfrwt>
<pdfrwt beam="2">  1       -2 0.44139244E-01 0.18904030E+04</pdfrwt>
<totfact> 0.19792137E+00</totfact>
</mgrwt>
</event>
<event>
12    5  0.5428626E-008  0.4078416E+04  0.7818608E-02  0.7988912E-01
         -2   -1    0    0    0  501 -0.00000000000E+00  0.00000000000E+00  0.22063691164E+04  0.22063691164E+04  0.00000000000E+00 0.  1.
          1   -1    0    0  501    0  0.00000000000E+00 -0.00000000000E+00 -0.18847115770E+04  0.18847115770E+04  0.00000000000E+00 0. -1.
        -24    2    1    2    0    0 -0.11497759898E+04  0.56094346237E+03  0.16142153099E+04  0.20612499069E+04  0.80110657029E+02 0.  0.
        254    2    1    2    0    0  0.11497759898E+04 -0.56094346237E+03 -0.12925577705E+04  0.20298307864E+04  0.90159028205E+03 0.  0.
         23    2    4    4    0    0  0.11756818332E+04 -0.20505246600E+03 -0.98532676639E+03  0.15505585226E+04  0.95334194704E+02 0.  0.
         23    2    4    4    0    0 -0.25905843338E+02 -0.35589099637E+03 -0.30723100414E+03  0.47927226389E+03  0.89339235562E+02 0.  0.
          3    1    3    3  502    0 -0.12067845839E+03  0.81982802407E+02  0.20823556257E+03  0.25425679879E+03  0.00000000000E+00 0. -1.
         -4    1    3    3    0  502 -0.10290975314E+04  0.47896065996E+03  0.14059797473E+04  0.18069931081E+04  0.00000000000E+00 0.  1.
         13    1    5    5    0    0  0.46984761170E+03 -0.89560536746E+02 -0.33574578045E+03  0.58438266320E+03  0.00000000000E+00 0.  1.
        -13    1    5    5    0    0  0.70583422146E+03 -0.11549192926E+03 -0.64958098594E+03  0.96617585935E+03  0.00000000000E+00 0. -1.
          4    1    6    6  503    0 -0.45159585880E+02 -0.32185614548E+03 -0.25037007755E+03  0.41026325977E+03  0.00000000000E+00 0. -1.
         -4    1    6    6    0  503  0.19253742543E+02 -0.34034850884E+02 -0.56860926595E+02  0.69009004122E+02  0.00000000000E+00 0.  1.
<mgrwt>
<rscale>  0 0.40784161E+04</rscale>
<asrwt>0</asrwt>
<pdfrwt beam="1">  1        1 0.28995563E+00 0.40784161E+04</pdfrwt>
<pdfrwt beam="2">  1       -2 0.33944140E+00 0.40784161E+04</pdfrwt>
<totfact> 0.44189059E-02</totfact>
</mgrwt>
</event>
<event>
12    5  0.5428626E-008  0.1264221E+04  0.7818608E-02  0.9058430E-01
          1   -1    0    0  501    0  0.00000000000E+00  0.00000000000E+00  0.49623763137E+03  0.49623763137E+03  0.00000000000E+00 0. -1.
         -2   -1    0    0    0  501 -0.00000000000E+00 -0.00000000000E+00 -0.80518612737E+03  0.80518612737E+03  0.00000000000E+00 0.  1.
        -24    2    1    2    0    0 -0.23279527057E+03 -0.18396602489E+03 -0.35215292271E+02  0.30905939685E+03  0.78996567394E+02 0.  0.
        254    2    1    2    0    0  0.23279527057E+03  0.18396602489E+03 -0.27373320372E+03  0.99236436189E+03  0.90654289673E+03 0.  0.
         23    2    4    4    0    0  0.15161964303E+03 -0.17677683542E+03  0.24391317395E+03  0.34916313690E+03  0.90458244801E+02 0.  0.
         23    2    4    4    0    0  0.81175627546E+02  0.36074286031E+03 -0.51764637767E+03  0.64320122499E+03  0.95000788088E+02 0.  0.
          1    1    3    3  502    0 -0.22466112282E+03 -0.14828553727E+03 -0.40036440074E+02  0.27214727117E+03  0.00000000000E+00 0. -1.
         -2    1    3    3    0  502 -0.81341477489E+01 -0.35680487620E+02  0.48211478035E+01  0.36912125684E+02  0.00000000000E+00 0.  1.
         13    1    5    5    0    0  0.10137749434E+03 -0.54710519510E+02  0.88574191650E+02  0.14531353939E+03  0.00000000000E+00 0. -1.
        -13    1    5    5    0    0  0.50242148692E+02 -0.12206631591E+03  0.15533898230E+03  0.20384959752E+03  0.00000000000E+00 0.  1.
          4    1    6    6  503    0  0.60036353046E+02  0.33111207421E+03 -0.50014455955E+03  0.60281352824E+03  0.00000000000E+00 0.  1.
         -4    1    6    6    0  503  0.21139274500E+02  0.29630786100E+02 -0.17501818115E+02  0.40387696748E+02  0.00000000000E+00 0. -1.
<mgrwt>
<rscale>  0 0.12642210E+04</rscale>
<asrwt>0</asrwt>
<pdfrwt beam="1">  1        1 0.76344252E-01 0.12642210E+04</pdfrwt>
<pdfrwt beam="2">  1       -2 0.12387479E+00 0.12642210E+04</pdfrwt>
<totfact> 0.18916320E+01</totfact>
</mgrwt>
</event>
<event>
12    5  0.5428626E-008  0.1355024E+04  0.7818608E-02  0.8987034E-01
         -2   -1    0    0    0  501 -0.00000000000E+00  0.00000000000E+00  0.28520988200E+03  0.28520988200E+03  0.00000000000E+00 0.  1.
          1   -1    0    0  501    0  0.00000000000E+00 -0.00000000000E+00 -0.16094195976E+04  0.16094195976E+04  0.00000000000E+00 0. -1.
        -24    2    1    2    0    0 -0.63215020686E+02  0.59670657493E+02 -0.88465394455E+03  0.89228910783E+03  0.77527570247E+02 0.  0.
        254    2    1    2    0    0  0.63215020686E+02 -0.59670657493E+02 -0.43955577103E+03  0.10023403717E+04  0.89661598177E+03 0.  0.
         23    2    4    4    0    0  0.12965838962E+03 -0.26514247523E+03  0.16765792673E+03  0.35146571583E+03  0.91143506835E+02 0.  0.
         23    2    4    4    0    0 -0.66443368937E+02  0.20547181774E+03 -0.60721369776E+03  0.65087465592E+03  0.91082126719E+02 0.  0.
          3    1    3    3  502    0 -0.34665177200E+02  0.32871067835E+02 -0.76287932108E+03  0.76437362602E+03  0.00000000000E+00 0. -1.
         -2    1    3    3    0  502 -0.28549843485E+02  0.26799589658E+02 -0.12177462346E+03  0.12791548181E+03  0.00000000000E+00 0.  1.
         13    1    5    5    0    0  0.54188449134E+02 -0.49595497129E+02  0.75076640751E+02  0.10503620015E+03  0.00000000000E+00 0. -1.
        -13    1    5    5    0    0  0.75469940488E+02 -0.21554697810E+03  0.92581285974E+02  0.24642951568E+03  0.00000000000E+00 0.  1.
          4    1    6    6  503    0 -0.45866250846E+02  0.20089555778E+03 -0.58508693990E+03  0.62031400544E+03  0.00000000000E+00 0. -1.
         -4    1    6    6    0  503 -0.20577118091E+02  0.45762599545E+01 -0.22126757854E+02  0.30560650471E+02  0.00000000000E+00 0.  1.
<mgrwt>
<rscale>  0 0.13550238E+04</rscale>
<asrwt>0</asrwt>
<pdfrwt beam="1">  1        1 0.24760302E+00 0.13550238E+04</pdfrwt>
<pdfrwt beam="2">  1       -2 0.43878443E-01 0.13550238E+04</pdfrwt>
<totfact> 0.23252253E+01</totfact>
</mgrwt>
</event>
<event>
12    5  0.5428626E-008  0.1118346E+04  0.7818608E-02  0.9187493E-01
         -2   -1    0    0    0  501 -0.00000000000E+00  0.00000000000E+00  0.22795258087E+04  0.22795258087E+04  0.00000000000E+00 0.  1.
          1   -1    0    0  501    0  0.00000000000E+00 -0.00000000000E+00 -0.13716651166E+03  0.13716651166E+03  0.00000000000E+00 0. -1.
        -24    2    1    2    0    0 -0.77280589079E+02 -0.15436462667E+03  0.44096624808E+03  0.48029113176E+03  0.80172388530E+02 0.  0.
        254    2    1    2    0    0  0.77280589079E+02  0.15436462667E+03  0.17013930489E+04  0.19364011886E+04  0.90835594827E+03 0.  0.
         23    2    4    4    0    0 -0.25993513759E+03  0.18604121875E+03  0.18811996645E+03  0.38224308761E+03  0.92428596338E+02 0.  0.
         23    2    4    4    0    0  0.33721572667E+03 -0.31676592082E+02  0.15132730825E+04  0.15541581009E+04  0.10341241619E+03 0.  0.
          1    1    3    3  502    0 -0.46071012868E+00  0.90307906518E+01  0.31769454735E+02  0.33031283471E+02  0.00000000000E+00 0. -1.
         -2    1    3    3    0  502 -0.76819878951E+02 -0.16339541732E+03  0.40919679334E+03  0.44725984828E+03  0.00000000000E+00 0.  1.
         13    1    5    5    0    0 -0.25952097340E+03  0.18885019576E+03  0.19447590762E+03  0.37528177509E+03  0.00000000000E+00 0. -1.
        -13    1    5    5    0    0 -0.41416419681E+00 -0.28089770051E+01 -0.63559411749E+01  0.69613125211E+01  0.00000000000E+00 0.  1.
          2    1    6    6  503    0  0.31427578050E+03 -0.17381484290E+01  0.13972225486E+04  0.14321323744E+04  0.00000000000E+00 0. -1.
         -2    1    6    6    0  503  0.22939946171E+02 -0.29938443653E+02  0.11605053383E+03  0.12202572655E+03  0.00000000000E+00 0.  1.
<mgrwt>
<rscale>  0 0.11183463E+04</rscale>
<asrwt>0</asrwt>
<pdfrwt beam="1">  1        1 0.21102542E-01 0.11183463E+04</pdfrwt>
<pdfrwt beam="2">  1       -2 0.35069625E+00 0.11183463E+04</pdfrwt>
<totfact> 0.33184514E+00</totfact>
</mgrwt>
</event>
<event>
12    5  0.5428626E-008  0.1371734E+04  0.7818608E-02  0.8974537E-01
          1   -1    0    0  501    0  0.00000000000E+00  0.00000000000E+00  0.15306479126E+04  0.15306479126E+04  0.00000000000E+00 0. -1.
         -2   -1    0    0    0  501 -0.00000000000E+00 -0.00000000000E+00 -0.30732955297E+03  0.30732955297E+03  0.00000000000E+00 0.  1.
        -24    2    1    2    0    0 -0.19770338242E+03 -0.31409976985E+03  0.31120269810E+03  0.49041538944E+03  0.76908010360E+02 0.  0.
        254    2    1    2    0    0  0.19770338242E+03  0.31409976985E+03  0.91211566155E+03  0.13475620761E+04  0.91990394942E+03 0.  0.
         23    2    4    4    0    0  0.20305072613E+03 -0.77529888747E+02 -0.10157157062E+03  0.25697735996E+03  0.92087450518E+02 0.  0.
         23    2    4    4    0    0 -0.53473437145E+01  0.39162965860E+03  0.10136872322E+04  0.10905847162E+04  0.91710604133E+02 0.  0.
          3    1    3    3  502    0  0.53448647004E+00 -0.40200419136E+02  0.24254610807E+02  0.46953652892E+02  0.00000000000E+00 0. -1.
         -4    1    3    3    0  502 -0.19823786889E+03 -0.27389935071E+03  0.28694808729E+03  0.44346173655E+03  0.00000000000E+00 0.  1.
         13    1    5    5    0    0  0.20498813090E+03 -0.87844237305E+02 -0.87835760090E+02  0.23969118588E+03  0.00000000000E+00 0.  1.
        -13    1    5    5    0    0 -0.19374047700E+01  0.10314348558E+02 -0.13735810531E+02  0.17286174081E+02  0.00000000000E+00 0. -1.
          3    1    6    6  503    0  0.39886489603E+02  0.11131581032E+03  0.28858025079E+03  0.31186648237E+03  0.00000000000E+00 0. -1.
         -3    1    6    6    0  503 -0.45233833317E+02  0.28031384828E+03  0.72510698138E+03  0.77871823381E+03  0.00000000000E+00 0.  1.
<mgrwt>
<rscale>  0 0.13717337E+04</rscale>
<asrwt>0</asrwt>
<pdfrwt beam="1">  1        1 0.23548429E+00 0.13717337E+04</pdfrwt>
<pdfrwt beam="2">  1       -2 0.47281471E-01 0.13717337E+04</pdfrwt>
<totfact> 0.22646263E+01</totfact>
</mgrwt>
</event>
<event>
12    5  0.5428626E-008  0.1565269E+04  0.7818608E-02  0.8842173E-01
          1   -1    0    0  501    0  0.00000000000E+00  0.00000000000E+00  0.18941124498E+04  0.18941124498E+04  0.00000000000E+00 0. -1.
         -2   -1    0    0    0  501 -0.00000000000E+00 -0.00000000000E+00 -0.32337940941E+03  0.32337940941E+03  0.00000000000E+00 0.  1.
        -24    2    1    2    0    0 -0.41235693347E+03 -0.30794678926E+03  0.51041769250E+03  0.72923756160E+03  0.79948326009E+02 0.  0.
        254    2    1    2    0    0  0.41235693347E+03  0.30794678926E+03  0.10603153479E+04  0.14882542976E+04  0.90871489027E+03 0.  0.
         23    2    4    4    0    0  0.20045709178E+03  0.17339547089E+03 -0.10205557027E+03  0.29550577539E+03  0.81604466161E+02 0.  0.
         23    2    4    4    0    0  0.21189984170E+03  0.13455131837E+03  0.11623709182E+04  0.11927485222E+04  0.92397433326E+02 0.  0.
          1    1    3    3  502    0 -0.10974970153E+03 -0.94864864035E+02  0.19448187516E+03  0.24262633654E+03  0.00000000000E+00 0. -1.
         -4    1    3    3    0  502 -0.30260723194E+03 -0.21308192523E+03  0.31593581734E+03  0.48661122507E+03  0.00000000000E+00 0.  1.
         13    1    5    5    0    0  0.94693876646E+02  0.12122147372E+03 -0.86710806552E+02  0.17657955697E+03  0.00000000000E+00 0. -1.
        -13    1    5    5    0    0  0.10576321513E+03  0.52173997169E+02 -0.15344763721E+02  0.11892621843E+03  0.00000000000E+00 0.  1.
          2    1    6    6  503    0  0.18141404451E+03  0.14192895632E+03  0.92183202216E+03  0.95017322698E+03  0.00000000000E+00 0. -1.
         -2    1    6    6    0  503  0.30485797184E+02 -0.73776379506E+01  0.24053889600E+03  0.24257529524E+03  0.00000000000E+00 0.  1.
<mgrwt>
<rscale>  0 0.15652693E+04</rscale>
<asrwt>0</asrwt>
<pdfrwt beam="1">  1        1 0.29140191E+00 0.15652693E+04</pdfrwt>
<pdfrwt beam="2">  1       -2 0.49750679E-01 0.15652693E+04</pdfrwt>
<totfact> 0.11358972E+01</totfact>
</mgrwt>
</event>
<event>
12    5  0.5428626E-008  0.1596797E+04  0.7818608E-02  0.8822518E-01
          1   -1    0    0  501    0  0.00000000000E+00  0.00000000000E+00  0.22407387893E+04  0.22407387893E+04  0.00000000000E+00 0. -1.
         -2   -1    0    0    0  501 -0.00000000000E+00 -0.00000000000E+00 -0.28447753104E+03  0.28447753104E+03  0.00000000000E+00 0.  1.
        -24    2    1    2    0    0  0.32384532788E+03 -0.40428997354E+03  0.95783373265E+03  0.10918100412E+04  0.79230850450E+02 0.  0.
        254    2    1    2    0    0 -0.32384532788E+03  0.40428997354E+03  0.99842752565E+03  0.14334062791E+04  0.88852116351E+03 0.  0.
         23    2    4    4    0    0 -0.21399997252E+03  0.67221244121E+03  0.81225111573E+03  0.10798070912E+04  0.92552282195E+02 0.  0.
         23    2    4    4    0    0 -0.10984535537E+03 -0.26792246767E+03  0.18617640992E+03  0.35359918790E+03  0.80760629577E+02 0.  0.
          1    1    3    3  502    0  0.16036390298E+03 -0.19883397502E+03  0.38997491582E+03  0.46618876646E+03  0.00000000000E+00 0. -1.
         -2    1    3    3    0  502  0.16348142491E+03 -0.20545599852E+03  0.56785881683E+03  0.62562127479E+03  0.00000000000E+00 0.  1.
         13    1    5    5    0    0 -0.36139070156E+02  0.45633669446E+02  0.46406807077E+02  0.74444985875E+02  0.00000000000E+00 0. -1.
        -13    1    5    5    0    0 -0.17786090236E+03  0.62657877177E+03  0.76584430865E+03  0.10053621054E+04  0.00000000000E+00 0.  1.
          3    1    6    6  503    0 -0.33734204600E+02 -0.12119301844E+03  0.12500831515E+03  0.17734943794E+03  0.00000000000E+00 0. -1.
         -3    1    6    6    0  503 -0.76111150769E+02 -0.14672944923E+03  0.61168094765E+02  0.17624974996E+03  0.00000000000E+00 0.  1.
<mgrwt>
<rscale>  0 0.15967966E+04</rscale>
<asrwt>0</asrwt>
<pdfrwt beam="1">  1        1 0.34472903E+00 0.15967966E+04</pdfrwt>
<pdfrwt beam="2">  1       -2 0.43765776E-01 0.15967966E+04</pdfrwt>
<totfact> 0.85341802E+00</totfact>
</mgrwt>
</event>
<event>
12    5  0.5428626E-008  0.1327899E+04  0.7818608E-02  0.9007729E-01
          1   -1    0    0  501    0  0.00000000000E+00  0.00000000000E+00  0.83692733099E+03  0.83692733099E+03  0.00000000000E+00 0. -1.
         -2   -1    0    0    0  501 -0.00000000000E+00 -0.00000000000E+00 -0.52672307354E+03  0.52672307354E+03  0.00000000000E+00 0.  1.
        -24    2    1    2    0    0  0.73502962396E+02  0.52485824256E+01 -0.26921962243E+03  0.29249718532E+03  0.87436635458E+02 0.  0.
        254    2    1    2    0    0 -0.73502962396E+02 -0.52485824256E+01  0.57942387988E+03  0.10711532192E+04  0.89789027912E+03 0.  0.
         23    2    4    4    0    0  0.39779877986E+03  0.69217523419E+02  0.28972832068E+03  0.50551212468E+03  0.92547682798E+02 0.  0.
         23    2    4    4    0    0 -0.47130174225E+03 -0.74466105844E+02  0.28969555920E+03  0.56564109453E+03  0.91410052110E+02 0.  0.
          3    1    3    3  502    0  0.75081469217E+02  0.25706747359E+02 -0.13405905026E+03  0.15578797398E+03  0.00000000000E+00 0. -1.
         -4    1    3    3    0  502 -0.15785068208E+01 -0.20458164933E+02 -0.13516057218E+03  0.13670921135E+03  0.00000000000E+00 0.  1.
         13    1    5    5    0    0  0.28976647987E+03  0.79643756440E+01  0.20963396928E+03  0.35773516071E+03  0.00000000000E+00 0. -1.
        -13    1    5    5    0    0  0.10803229999E+03  0.61253147775E+02  0.80094351403E+02  0.14777696397E+03  0.00000000000E+00 0.  1.
          4    1    6    6  503    0 -0.14720991798E+03  0.17676419857E+02  0.10185474217E+03  0.17988219554E+03  0.00000000000E+00 0. -1.
         -4    1    6    6    0  503 -0.32409182428E+03 -0.92142525702E+02  0.18784081704E+03  0.38575889899E+03  0.00000000000E+00 0.  1.
<mgrwt>
<rscale>  0 0.13278990E+04</rscale>
<asrwt>0</asrwt>
<pdfrwt beam="1">  1        1 0.12875805E+00 0.13278990E+04</pdfrwt>
<pdfrwt beam="2">  1       -2 0.81034319E-01 0.13278990E+04</pdfrwt>
<totfact> 0.23706213E+01</totfact>
</mgrwt>
</event>
<event>
12    5  0.5428626E-008  0.1476147E+04  0.7818608E-02  0.8900472E-01
          1   -1    0    0  501    0  0.00000000000E+00  0.00000000000E+00  0.24342180266E+04  0.24342180266E+04  0.00000000000E+00 0. -1.
         -2   -1    0    0    0  501 -0.00000000000E+00 -0.00000000000E+00 -0.22378937793E+03  0.22378937793E+03  0.00000000000E+00 0.  1.
        -24    2    1    2    0    0  0.15763195212E+03  0.38752669826E+02  0.14509551548E+04  0.14621746218E+04  0.79587446495E+02 0.  0.
        254    2    1    2    0    0 -0.15763195212E+03 -0.38752669826E+02  0.75947349386E+03  0.11958327827E+04  0.90932197520E+03 0.  0.
         23    2    4    4    0    0 -0.16022557051E+03 -0.27681808788E+03  0.85794259270E+03  0.92014017784E+03  0.91060239844E+02 0.  0.
         23    2    4    4    0    0  0.25936183923E+01  0.23806541805E+03 -0.98469098839E+02  0.27569260487E+03  0.98124302936E+02 0.  0.
          3    1    3    3  502    0  0.11157754312E+03  0.47945414043E+02  0.76160490439E+03  0.77122651747E+03  0.00000000000E+00 0. -1.
         -4    1    3    3    0  502  0.46054409002E+02 -0.91927442162E+01  0.68935025042E+03  0.69094810434E+03  0.00000000000E+00 0.  1.
         13    1    5    5    0    0 -0.18786276772E+02 -0.11010457389E+03  0.34232672536E+03  0.36008822291E+03  0.00000000000E+00 0. -1.
        -13    1    5    5    0    0 -0.14143929374E+03 -0.16671351399E+03  0.51561586734E+03  0.56005195493E+03  0.00000000000E+00 0.  1.
          3    1    6    6  503    0 -0.39201123293E+02  0.14864965521E+03 -0.32946848549E+02  0.15722259027E+03  0.00000000000E+00 0. -1.
         -3    1    6    6    0  503  0.41794741685E+02  0.89415762842E+02 -0.65522250291E+02  0.11847001460E+03  0.00000000000E+00 0.  1.
<mgrwt>
<rscale>  0 0.14761465E+04</rscale>
<asrwt>0</asrwt>
<pdfrwt beam="1">  1        1 0.37449506E+00 0.14761465E+04</pdfrwt>
<pdfrwt beam="2">  1       -2 0.34429137E-01 0.14761465E+04</pdfrwt>
<totfact> 0.10147651E+01</totfact>
</mgrwt>
</event>
<event>
12    5  0.5428626E-008  0.2366203E+04  0.7818608E-02  0.8452266E-01
          1   -1    0    0  501    0  0.00000000000E+00  0.00000000000E+00  0.84845327395E+03  0.84845327395E+03  0.00000000000E+00 0. -1.
         -2   -1    0    0    0  501 -0.00000000000E+00 -0.00000000000E+00 -0.16497417543E+04  0.16497417543E+04  0.00000000000E+00 0.  1.
        -24    2    1    2    0    0  0.71064075791E+03  0.71950062284E+03 -0.34261620916E+03  0.10708272989E+04  0.81202242780E+02 0.  0.
        254    2    1    2    0    0 -0.71064075791E+03 -0.71950062284E+03 -0.45867227114E+03  0.14273677293E+04  0.89683161699E+03 0.  0.
         23    2    4    4    0    0  0.32506922001E+02 -0.30385693376E+03  0.17246410907E+03  0.36271608854E+03  0.91833304418E+02 0.  0.
         23    2    4    4    0    0 -0.74314767992E+03 -0.41564368908E+03 -0.63113638021E+03  0.10646516407E+04  0.10060733218E+03 0.  0.
          3    1    3    3  502    0  0.10013364354E+03  0.14055687372E+03 -0.44664531047E+02  0.17826357354E+03  0.00000000000E+00 0. -1.
         -4    1    3    3    0  502  0.61050711438E+03  0.57894374912E+03 -0.29795167812E+03  0.89256372537E+03  0.00000000000E+00 0.  1.
         13    1    5    5    0    0  0.25907823902E+02 -0.15233200451E+03  0.35922243673E+02  0.15864004074E+03  0.00000000000E+00 0. -1.
        -13    1    5    5    0    0  0.65990980995E+01 -0.15152492925E+03  0.13654186539E+03  0.20407604780E+03  0.00000000000E+00 0.  1.
          1    1    6    6  503    0 -0.46362444712E+03 -0.27832310375E+03 -0.34290966200E+03  0.64031118555E+03  0.00000000000E+00 0. -1.
         -1    1    6    6    0  503 -0.27952323280E+03 -0.13732058533E+03 -0.28822671820E+03  0.42434045520E+03  0.00000000000E+00 0.  1.
<mgrwt>
<rscale>  0 0.23662027E+04</rscale>
<asrwt>0</asrwt>
<pdfrwt beam="1">  1        1 0.13053127E+00 0.23662027E+04</pdfrwt>
<pdfrwt beam="2">  1       -2 0.25380642E+00 0.23662027E+04</pdfrwt>
<totfact> 0.96365599E-01</totfact>
</mgrwt>
</event>
<event>
12    5  0.5428626E-008  0.1230298E+04  0.7818608E-02  0.9086742E-01
          1   -1    0    0  501    0  0.00000000000E+00  0.00000000000E+00  0.17056662204E+04  0.17056662204E+04  0.00000000000E+00 0. -1.
         -2   -1    0    0    0  501 -0.00000000000E+00 -0.00000000000E+00 -0.22185366245E+03  0.22185366245E+03  0.00000000000E+00 0.  1.
        -24    2    1    2    0    0  0.25711971839E+03 -0.57784937036E+01  0.54501856475E+03  0.60791115144E+03  0.79792177220E+02 0.  0.
        254    2    1    2    0    0 -0.25711971839E+03  0.57784937036E+01  0.93879399318E+03  0.13196087314E+04  0.89100454644E+03 0.  0.
         23    2    4    4    0    0  0.22152284172E+03  0.13534666987E+03  0.25741919880E+02  0.27620459914E+03  0.90748243499E+02 0.  0.
         23    2    4    4    0    0 -0.47864256011E+03 -0.12956817616E+03  0.91305207331E+03  0.10434041323E+04  0.95611097816E+02 0.  0.
          3    1    3    3  502    0  0.19946904644E+03  0.17687720260E+02  0.35044372295E+03  0.40362304058E+03  0.00000000000E+00 0. -1.
         -4    1    3    3    0  502  0.57650671948E+02 -0.23466213963E+02  0.19457484180E+03  0.20428811086E+03  0.00000000000E+00 0.  1.
         13    1    5    5    0    0 -0.84337750176E+01  0.45043510571E+01  0.50732170259E+01  0.10823828827E+02  0.00000000000E+00 0. -1.
        -13    1    5    5    0    0  0.22995661674E+03  0.13084231881E+03  0.20668702854E+02  0.26538077031E+03  0.00000000000E+00 0.  1.
          1    1    6    6  503    0 -0.35373880799E+03 -0.51641671870E+02  0.63027788539E+03  0.72460211106E+03  0.00000000000E+00 0. -1.
         -1    1    6    6    0  503 -0.12490375212E+03 -0.77926504291E+02  0.28277418792E+03  0.31880202120E+03  0.00000000000E+00 0.  1.
<mgrwt>
<rscale>  0 0.12302980E+04</rscale>
<asrwt>0</asrwt>
<pdfrwt beam="1">  1        1 0.26241018E+00 0.12302980E+04</pdfrwt>
<pdfrwt beam="2">  1       -2 0.34131334E-01 0.12302980E+04</pdfrwt>
<totfact> 0.32921384E+01</totfact>
</mgrwt>
</event>
<event>
12    5  0.5428626E-008  0.1606718E+04  0.7818608E-02  0.8816431E-01
         -2   -1    0    0    0  501 -0.00000000000E+00  0.00000000000E+00  0.31189178807E+03  0.31189178807E+03  0.00000000000E+00 0.  1.
          1   -1    0    0  501    0  0.00000000000E+00 -0.00000000000E+00 -0.20692619503E+04  0.20692619503E+04  0.00000000000E+00 0. -1.
        -24    2    1    2    0    0  0.17256072528E+03  0.97175728453E+02  0.13648217793E+03  0.25340139577E+03  0.79778169784E+02 0.  0.
        254    2    1    2    0    0 -0.17256072528E+03 -0.97175728453E+02 -0.18938523401E+04  0.21277523426E+04  0.94943826497E+03 0.  0.
         23    2    4    4    0    0 -0.25432929876E+03  0.97851618643E+02 -0.18778749123E+04  0.18996317057E+04  0.89039875985E+02 0.  0.
         23    2    4    4    0    0  0.81768573483E+02 -0.19502734710E+03 -0.15977427815E+02  0.22812063687E+03  0.84035593906E+02 0.  0.
          3    1    3    3  502    0 -0.50778941866E+01  0.85690716957E+01 -0.34350647807E+01  0.10536302442E+02  0.00000000000E+00 0. -1.
         -4    1    3    3    0  502  0.17763861947E+03  0.88606656758E+02  0.13991724271E+03  0.24286509332E+03  0.00000000000E+00 0.  1.
         13    1    5    5    0    0 -0.76344995296E+02 -0.33516280801E+01 -0.36089007760E+03  0.36889217913E+03  0.00000000000E+00 0.  1.
        -13    1    5    5    0    0 -0.17798430347E+03  0.10120324672E+03 -0.15169848347E+04  0.15307395266E+04  0.00000000000E+00 0. -1.
          1    1    6    6  503    0  0.85817804250E+02 -0.19050287280E+03 -0.31639989246E+02  0.21132233434E+03  0.00000000000E+00 0. -1.
         -1    1    6    6    0  503 -0.40492307671E+01 -0.45244742966E+01  0.15662561430E+02  0.16798302534E+02  0.00000000000E+00 0.  1.
<mgrwt>
<rscale>  0 0.16067182E+04</rscale>
<asrwt>0</asrwt>
<pdfrwt beam="1">  1        1 0.31834799E+00 0.16067182E+04</pdfrwt>
<pdfrwt beam="2">  1       -2 0.47983353E-01 0.16067182E+04</pdfrwt>
<totfact> 0.92701886E+00</totfact>
</mgrwt>
</event>
<event>
12    5  0.5428626E-008  0.2820327E+04  0.7818608E-02  0.8296985E-01
         -2   -1    0    0    0  501 -0.00000000000E+00  0.00000000000E+00  0.90970251063E+03  0.90970251063E+03  0.00000000000E+00 0.  1.
          1   -1    0    0  501    0  0.00000000000E+00 -0.00000000000E+00 -0.21859470917E+04  0.21859470917E+04  0.00000000000E+00 0. -1.
        -24    2    1    2    0    0 -0.81579179307E+03 -0.93068604963E+03 -0.27232431583E+03  0.12686319220E+04  0.59779996289E+02 0.  0.
        254    2    1    2    0    0  0.81579179307E+03  0.93068604963E+03 -0.10039202653E+04  0.18270176803E+04  0.89355745905E+03 0.  0.
         23    2    4    4    0    0  0.54483993968E+03  0.10745987927E+04 -0.81803145823E+03  0.14591410012E+04  0.91125570349E+02 0.  0.
         23    2    4    4    0    0  0.27095185339E+03 -0.14391274306E+03 -0.18588880703E+03  0.36787667914E+03  0.81564808618E+02 0.  0.
          1    1    3    3  502    0 -0.52147435982E+03 -0.62694683887E+03 -0.19864534612E+03  0.83931985575E+03  0.00000000000E+00 0. -1.
         -2    1    3    3    0  502 -0.29431743325E+03 -0.30373921076E+03 -0.73678969716E+02  0.42931206627E+03  0.00000000000E+00 0.  1.
         13    1    5    5    0    0  0.54745851089E+03  0.10726182006E+04 -0.81251696767E+03  0.14527231147E+04  0.00000000000E+00 0. -1.
        -13    1    5    5    0    0 -0.26185712127E+01  0.19805921167E+01 -0.55144905549E+01  0.64178864441E+01  0.00000000000E+00 0.  1.
          4    1    6    6  503    0  0.56506421006E+02  0.60499242575E+00 -0.16986669377E+02  0.59007529750E+02  0.00000000000E+00 0.  1.
         -4    1    6    6    0  503  0.21444543239E+03 -0.14451773549E+03 -0.16890213765E+03  0.30886914939E+03  0.00000000000E+00 0. -1.
<mgrwt>
<rscale>  0 0.28203273E+04</rscale>
<asrwt>0</asrwt>
<pdfrwt beam="1">  1        1 0.33629955E+00 0.28203273E+04</pdfrwt>
<pdfrwt beam="2">  1       -2 0.13995423E+00 0.28203273E+04</pdfrwt>
<totfact> 0.60828329E-01</totfact>
</mgrwt>
</event>
<event>
12    5  0.5428626E-008  0.1109998E+04  0.7818608E-02  0.9195502E-01
          1   -1    0    0  501    0  0.00000000000E+00  0.00000000000E+00  0.11888022602E+04  0.11888022602E+04  0.00000000000E+00 0. -1.
         -2   -1    0    0    0  501 -0.00000000000E+00 -0.00000000000E+00 -0.25910434240E+03  0.25910434240E+03  0.00000000000E+00 0.  1.
        -24    2    1    2    0    0 -0.52377998569E+02  0.14157701414E+03  0.30483449246E+03  0.34925972203E+03  0.79188256512E+02 0.  0.
        254    2    1    2    0    0  0.52377998569E+02 -0.14157701414E+03  0.62486342537E+03  0.10986468806E+04  0.89094509497E+03 0.  0.
         23    2    4    4    0    0  0.36150888489E+03 -0.16009063818E+03  0.65911293594E+03  0.77398484890E+03  0.91131760182E+02 0.  0.
         23    2    4    4    0    0 -0.30913088632E+03  0.18513624042E+02 -0.34249510570E+02  0.32466203171E+03  0.91256488601E+02 0.  0.
          3    1    3    3  502    0 -0.55955101812E+02  0.13768129686E+03  0.30876496161E+03  0.34267027073E+03  0.00000000000E+00 0. -1.
         -4    1    3    3    0  502  0.35771032423E+01  0.38957172854E+01 -0.39304691452E+01  0.65894513030E+01  0.00000000000E+00 0.  1.
         13    1    5    5    0    0  0.30374225130E+03 -0.12271478873E+03  0.47133899116E+03  0.57400236862E+03  0.00000000000E+00 0. -1.
        -13    1    5    5    0    0  0.57766633587E+02 -0.37375849454E+02  0.18777394478E+03  0.19998248028E+03  0.00000000000E+00 0.  1.
          3    1    6    6  503    0 -0.11422302579E+03 -0.13765952981E+02  0.26322239476E+02  0.11802229185E+03  0.00000000000E+00 0. -1.
         -3    1    6    6    0  503 -0.19490786052E+03  0.32279577023E+02 -0.60571750046E+02  0.20663973986E+03  0.00000000000E+00 0.  1.
<mgrwt>
<rscale>  0 0.11099979E+04</rscale>
<asrwt>0</asrwt>
<pdfrwt beam="1">  1        1 0.18289265E+00 0.11099979E+04</pdfrwt>
<pdfrwt beam="2">  1       -2 0.39862207E-01 0.11099979E+04</pdfrwt>
<totfact> 0.56607737E+01</totfact>
</mgrwt>
</event>
<event>
12    5  0.5428626E-008  0.1887354E+04  0.7818608E-02  0.8661177E-01
         -2   -1    0    0    0  501 -0.00000000000E+00  0.00000000000E+00  0.31809654500E+03  0.31809654500E+03  0.00000000000E+00 0.  1.
          1   -1    0    0  501    0  0.00000000000E+00 -0.00000000000E+00 -0.27995485727E+04  0.27995485727E+04  0.00000000000E+00 0. -1.
        -24    2    1    2    0    0  0.25578453114E+03 -0.64060001347E+03 -0.13274284250E+04  0.14979290512E+04  0.77013733553E+02 0.  0.
        254    2    1    2    0    0 -0.25578453114E+03  0.64060001347E+03 -0.11540236027E+04  0.16197160666E+04  0.90328044208E+03 0.  0.
         23    2    4    4    0    0  0.35930991221E+02  0.72582900121E+03 -0.10612249117E+04  0.12892476738E+04  0.88557756248E+02 0.  0.
         23    2    4    4    0    0 -0.29171552236E+03 -0.85228987737E+02 -0.92798691040E+02  0.33046839274E+03  0.90751502495E+02 0.  0.
          1    1    3    3  502    0  0.11083365915E+03 -0.34239399926E+03 -0.75553099005E+03  0.83686607510E+03  0.00000000000E+00 0. -1.
         -2    1    3    3    0  502  0.14495087199E+03 -0.29820601421E+03 -0.57189743497E+03  0.66106297607E+03  0.00000000000E+00 0.  1.
         13    1    5    5    0    0 -0.11165838876E+02  0.27805405495E+03 -0.34477135386E+03  0.44306435185E+03  0.00000000000E+00 0. -1.
        -13    1    5    5    0    0  0.47096830097E+02  0.44777494625E+03 -0.71645355783E+03  0.84618332199E+03  0.00000000000E+00 0.  1.
          2    1    6    6  503    0 -0.22592795322E+02 -0.21129882489E+02 -0.37032978929E+02  0.48252957036E+02  0.00000000000E+00 0. -1.
         -2    1    6    6    0  503 -0.26912272704E+03 -0.64099105248E+02 -0.55765712112E+02  0.28221543570E+03  0.00000000000E+00 0.  1.
<mgrwt>
<rscale>  0 0.18873545E+04</rscale>
<asrwt>0</asrwt>
<pdfrwt beam="1">  1        1 0.43069977E+00 0.18873545E+04</pdfrwt>
<pdfrwt beam="2">  1       -2 0.48937931E-01 0.18873545E+04</pdfrwt>
<totfact> 0.27175170E+00</totfact>
</mgrwt>
</event>
<event>
12    5  0.5428626E-008  0.1501463E+04  0.7818608E-02  0.8883481E-01
          1   -1    0    0  501    0  0.00000000000E+00  0.00000000000E+00  0.17210698697E+04  0.17210698697E+04  0.00000000000E+00 0. -1.
         -2   -1    0    0    0  501 -0.00000000000E+00 -0.00000000000E+00 -0.32746946807E+03  0.32746946807E+03  0.00000000000E+00 0.  1.
        -24    2    1    2    0    0  0.24661568993E+03  0.34796667361E+03  0.73361360683E+03  0.85237002574E+03  0.80284694622E+02 0.  0.
        254    2    1    2    0    0 -0.24661568993E+03 -0.34796667361E+03  0.65998679482E+03  0.11961693121E+04  0.90185273149E+03 0.  0.
         23    2    4    4    0    0  0.90313752325E+02 -0.55818393373E+03  0.49840150877E+03  0.75951908960E+03  0.93484254288E+02 0.  0.
         23    2    4    4    0    0 -0.33692944226E+03  0.21021726012E+03  0.16158528605E+03  0.43665022245E+03  0.82709531428E+02 0.  0.
          3    1    3    3  502    0  0.10789533911E+03  0.14286226595E+03  0.38694057533E+03  0.42634966878E+03  0.00000000000E+00 0. -1.
         -4    1    3    3    0  502  0.13872035082E+03  0.20510440766E+03  0.34667303150E+03  0.42602035696E+03  0.00000000000E+00 0.  1.
         13    1    5    5    0    0  0.89714209659E+02 -0.56185623978E+03  0.49238730919E+03  0.75244689902E+03  0.00000000000E+00 0. -1.
        -13    1    5    5    0    0  0.59954266653E+00  0.36723060489E+01  0.60141995752E+01  0.70721905840E+01  0.00000000000E+00 0.  1.
          4    1    6    6  503    0 -0.30081886031E+03  0.21306258440E+03  0.15472254090E+03  0.39978333663E+03  0.00000000000E+00 0. -1.
         -4    1    6    6    0  503 -0.36110581950E+02 -0.28453242811E+01  0.68627451504E+01  0.36866885820E+02  0.00000000000E+00 0.  1.
<mgrwt>
<rscale>  0 0.15014631E+04</rscale>
<asrwt>0</asrwt>
<pdfrwt beam="1">  1        1 0.26477998E+00 0.15014631E+04</pdfrwt>
<pdfrwt beam="2">  1       -2 0.50379919E-01 0.15014631E+04</pdfrwt>
<totfact> 0.14586768E+01</totfact>
</mgrwt>
</event>
<event>
12    5  0.5428626E-008  0.1301864E+04  0.7818608E-02  0.9028089E-01
          1   -1    0    0  501    0  0.00000000000E+00  0.00000000000E+00  0.34951856033E+04  0.34951856033E+04  0.00000000000E+00 0. -1.
         -2   -1    0    0    0  501 -0.00000000000E+00 -0.00000000000E+00 -0.12122740933E+03  0.12122740933E+03  0.00000000000E+00 0.  1.
        -24    2    1    2    0    0  0.24041539640E+03 -0.20890828299E+03  0.63987787617E+03  0.72034751404E+03  0.89524360096E+02 0.  0.
        254    2    1    2    0    0 -0.24041539640E+03  0.20890828299E+03  0.27340803178E+04  0.28960654986E+04  0.90030992132E+03 0.  0.
         23    2    4    4    0    0 -0.44535957169E+03  0.38477770598E+03  0.12488952287E+04  0.13836617955E+04  0.91551301737E+02 0.  0.
         23    2    4    4    0    0  0.20494417530E+03 -0.17586942298E+03  0.14851850891E+04  0.15124037031E+04  0.93048607806E+02 0.  0.
          3    1    3    3  502    0  0.36610780923E+02 -0.23235915903E+02  0.17107396690E+03  0.17648387807E+03  0.00000000000E+00 0. -1.
         -4    1    3    3    0  502  0.20380461547E+03 -0.18567236709E+03  0.46880390927E+03  0.54386363597E+03  0.00000000000E+00 0.  1.
         13    1    5    5    0    0 -0.14335364880E+03  0.13132520484E+03  0.51667914081E+03  0.55204520884E+03  0.00000000000E+00 0. -1.
        -13    1    5    5    0    0 -0.30200592289E+03  0.25345250114E+03  0.73221608789E+03  0.83161658663E+03  0.00000000000E+00 0.  1.
          4    1    6    6  503    0  0.17801675804E+03 -0.17307603622E+03  0.11697752812E+04  0.11958342230E+04  0.00000000000E+00 0.  1.
         -4    1    6    6    0  503  0.26927417255E+02 -0.27933867617E+01  0.31540980792E+03  0.31656948012E+03  0.00000000000E+00 0. -1.
<mgrwt>
<rscale>  0 0.13018637E+04</rscale>
<asrwt>0</asrwt>
<pdfrwt beam="1">  1        1 0.53772078E+00 0.13018637E+04</pdfrwt>
<pdfrwt beam="2">  1       -2 0.18650373E-01 0.13018637E+04</pdfrwt>
<totfact> 0.53467833E+00</totfact>
</mgrwt>
</event>
<event>
12    5  0.5428626E-008  0.1945602E+04  0.7818608E-02  0.8632484E-01
          1   -1    0    0  501    0  0.00000000000E+00  0.00000000000E+00  0.11592056430E+04  0.11592056430E+04  0.00000000000E+00 0. -1.
         -2   -1    0    0    0  501 -0.00000000000E+00 -0.00000000000E+00 -0.81637096896E+03  0.81637096896E+03  0.00000000000E+00 0.  1.
        -24    2    1    2    0    0 -0.46719282148E+03 -0.34112334774E+03 -0.37184153584E+03  0.69232064998E+03  0.80046760142E+02 0.  0.
        254    2    1    2    0    0  0.46719282148E+03  0.34112334774E+03  0.71467620992E+03  0.12832559620E+04  0.89518127114E+03 0.  0.
         23    2    4    4    0    0  0.45511754502E+02  0.28099459555E+03  0.78660711637E+03  0.84162083004E+03  0.92442325312E+02 0.  0.
         23    2    4    4    0    0  0.42168106697E+03  0.60128752184E+02 -0.71930906451E+02  0.44163513196E+03  0.91853935129E+02 0.  0.
          1    1    3    3  502    0 -0.11768707338E+03 -0.45962088722E+02 -0.73481415716E+02  0.14615840481E+03  0.00000000000E+00 0. -1.
         -2    1    3    3    0  502 -0.34950574809E+03 -0.29516125901E+03 -0.29836012012E+03  0.54616224517E+03  0.00000000000E+00 0.  1.
         13    1    5    5    0    0  0.25433584623E+02  0.25658876283E+03  0.75090006989E+03  0.79393675780E+03  0.00000000000E+00 0. -1.
        -13    1    5    5    0    0  0.20078169878E+02  0.24405832727E+02  0.35707046485E+02  0.47684072240E+02  0.00000000000E+00 0.  1.
          1    1    6    6  503    0  0.19920744259E+03 -0.17116110349E+02 -0.41119912981E+02  0.20412597498E+03  0.00000000000E+00 0. -1.
         -1    1    6    6    0  503  0.22247362438E+03  0.77244862533E+02 -0.30810993471E+02  0.23750915699E+03  0.00000000000E+00 0.  1.
<mgrwt>
<rscale>  0 0.19456020E+04</rscale>
<asrwt>0</asrwt>
<pdfrwt beam="1">  1        1 0.17833933E+00 0.19456020E+04</pdfrwt>
<pdfrwt beam="2">  1       -2 0.12559553E+00 0.19456020E+04</pdfrwt>
<totfact> 0.44347932E+00</totfact>
</mgrwt>
</event>
<event>
12    5  0.5428626E-008  0.1919848E+04  0.7818608E-02  0.8645039E-01
         -2   -1    0    0    0  501 -0.00000000000E+00  0.00000000000E+00  0.25774391210E+03  0.25774391210E+03  0.00000000000E+00 0.  1.
          1   -1    0    0  501    0  0.00000000000E+00 -0.00000000000E+00 -0.35750768359E+04  0.35750768359E+04  0.00000000000E+00 0. -1.
        -24    2    1    2    0    0  0.26097711803E+03 -0.18132688013E+03  0.51080138814E+02  0.33300464601E+03  0.85407377248E+02 0.  0.
        254    2    1    2    0    0 -0.26097711803E+03  0.18132688013E+03 -0.33684130626E+04  0.34998161019E+04  0.89527520563E+03 0.  0.
         23    2    4    4    0    0 -0.38878001459E+03  0.11250125822E+03 -0.61935961306E+03  0.74539859568E+03  0.90588648915E+02 0.  0.
         23    2    4    4    0    0  0.12780289656E+03  0.68825621909E+02 -0.27490534495E+04  0.27544175063E+04  0.91925970165E+02 0.  0.
          3    1    3    3  502    0  0.80657220745E+02 -0.67209930801E+02 -0.22324014827E+02  0.10733649749E+03  0.00000000000E+00 0. -1.
         -4    1    3    3    0  502  0.18031989728E+03 -0.11411694933E+03  0.73404153641E+02  0.22566814851E+03  0.00000000000E+00 0.  1.
         13    1    5    5    0    0 -0.14404861089E+03  0.24622033574E+01 -0.17968115607E+03  0.23030714837E+03  0.00000000000E+00 0. -1.
        -13    1    5    5    0    0 -0.24473140370E+03  0.11003905486E+03 -0.43967845700E+03  0.51509144731E+03  0.00000000000E+00 0.  1.
          1    1    6    6  503    0  0.40889911406E+02  0.40796210110E+02 -0.47011717069E+03  0.47365226675E+03  0.00000000000E+00 0. -1.
         -1    1    6    6    0  503  0.86912985152E+02  0.28029411799E+02 -0.22789362788E+04  0.22807652395E+04  0.00000000000E+00 0.  1.
<mgrwt>
<rscale>  0 0.19198482E+04</rscale>
<asrwt>0</asrwt>
<pdfrwt beam="1">  1        1 0.55001177E+00 0.19198482E+04</pdfrwt>
<pdfrwt beam="2">  1       -2 0.39652913E-01 0.19198482E+04</pdfrwt>
<totfact> 0.10814888E+00</totfact>
</mgrwt>
</event>
<event>
12    5  0.5428626E-008  0.1756106E+04  0.7818608E-02  0.8729996E-01
          3   -1    0    0  501    0  0.00000000000E+00  0.00000000000E+00  0.11303346039E+04  0.11303346039E+04  0.00000000000E+00 0. -1.
         -4   -1    0    0    0  501 -0.00000000000E+00 -0.00000000000E+00 -0.68207893703E+03  0.68207893703E+03  0.00000000000E+00 0.  1.
        -24    2    1    2    0    0 -0.62067860693E+03 -0.17131187585E+03 -0.30079171555E+02  0.64955987373E+03  0.80209607206E+02 0.  0.
        254    2    1    2    0    0  0.62067860693E+03  0.17131187585E+03  0.47833483844E+03  0.11628536672E+04  0.84192323985E+03 0.  0.
         23    2    4    4    0    0 -0.19318824555E+03 -0.17806007383E+02  0.44927208138E+02  0.21735612953E+03  0.87100406973E+02 0.  0.
         23    2    4    4    0    0  0.81386685249E+03  0.18911788323E+03  0.43340763031E+03  0.94549753769E+03  0.89322967018E+02 0.  0.
          1    1    3    3  502    0 -0.10477870081E+03 -0.43787255786E+02 -0.32527123181E+02  0.11812668477E+03  0.00000000000E+00 0. -1.
         -2    1    3    3    0  502 -0.51589990612E+03 -0.12752462006E+03  0.24479516258E+01  0.53143318896E+03  0.00000000000E+00 0.  1.
         13    1    5    5    0    0 -0.26954286129E+02  0.26122132675E+02 -0.60465305311E+01  0.38019204196E+02  0.00000000000E+00 0. -1.
        -13    1    5    5    0    0 -0.16623395942E+03 -0.43928140058E+02  0.50973738669E+02  0.17933692534E+03  0.00000000000E+00 0.  1.
          2    1    6    6  503    0  0.37033591081E+03  0.11143568371E+03  0.15870366903E+03  0.41803522938E+03  0.00000000000E+00 0. -1.
         -2    1    6    6    0  503  0.44353094168E+03  0.77682199523E+02  0.27470396128E+03  0.52746230831E+03  0.00000000000E+00 0.  1.
<mgrwt>
<rscale>  0 0.17561064E+04</rscale>
<asrwt>0</asrwt>
<pdfrwt beam="1">  1        3 0.17389763E+00 0.17561064E+04</pdfrwt>
<pdfrwt beam="2">  1       -4 0.10493522E+00 0.17561064E+04</pdfrwt>
<totfact> 0.34846086E-01</totfact>
</mgrwt>
</event>
<event>
12    5  0.5428626E-008  0.1873045E+04  0.7818608E-02  0.8668391E-01
         -2   -1    0    0    0  501 -0.00000000000E+00  0.00000000000E+00  0.10847585135E+04  0.10847585135E+04  0.00000000000E+00 0.  1.
          1   -1    0    0  501    0  0.00000000000E+00 -0.00000000000E+00 -0.80854316918E+03  0.80854316918E+03  0.00000000000E+00 0. -1.
        -24    2    1    2    0    0  0.33811111434E+03  0.44379769995E+03  0.56853947345E+03  0.80059226501E+03  0.80220432583E+02 0.  0.
        254    2    1    2    0    0 -0.33811111434E+03 -0.44379769995E+03 -0.29232412913E+03  0.10927094177E+04  0.89290814247E+03 0.  0.
         23    2    4    4    0    0 -0.93621922747E+02  0.99198247230E+02 -0.44240456314E+03  0.47180716165E+03  0.90966167470E+02 0.  0.
         23    2    4    4    0    0 -0.24448919159E+03 -0.54299594718E+03  0.15008043401E+03  0.62090225603E+03  0.91520005491E+02 0.  0.
          3    1    3    3  502    0  0.23849323259E+03  0.27648177871E+03  0.32539694062E+03  0.48908523278E+03  0.00000000000E+00 0. -1.
         -4    1    3    3    0  502  0.99617881753E+02  0.16731592124E+03  0.24314253282E+03  0.31150703224E+03  0.00000000000E+00 0.  1.
         13    1    5    5    0    0  0.16403397226E+02  0.15065961637E+02 -0.34839094425E+02  0.41349935199E+02  0.00000000000E+00 0. -1.
        -13    1    5    5    0    0 -0.11002531997E+03  0.84132285593E+02 -0.40756546871E+03  0.43045722645E+03  0.00000000000E+00 0.  1.
          3    1    6    6  503    0 -0.14592338355E+03 -0.32333993028E+03  0.42766749368E+02  0.35731126379E+03  0.00000000000E+00 0. -1.
         -3    1    6    6    0  503 -0.98565808040E+02 -0.21965601690E+03  0.10731368464E+03  0.26359099223E+03  0.00000000000E+00 0.  1.
<mgrwt>
<rscale>  0 0.18730447E+04</rscale>
<asrwt>0</asrwt>
<pdfrwt beam="1">  1        1 0.12439126E+00 0.18730447E+04</pdfrwt>
<pdfrwt beam="2">  1       -2 0.16688593E+00 0.18730447E+04</pdfrwt>
<totfact> 0.40045236E+00</totfact>
</mgrwt>
</event>
<event>
12    5  0.5428626E-008  0.2273730E+04  0.7818608E-02  0.8488351E-01
         -2   -1    0    0    0  501 -0.00000000000E+00  0.00000000000E+00  0.16650023443E+04  0.16650023443E+04  0.00000000000E+00 0.  1.
          1   -1    0    0  501    0  0.00000000000E+00 -0.00000000000E+00 -0.77625254183E+03  0.77625254183E+03  0.00000000000E+00 0. -1.
        -24    2    1    2    0    0  0.51293700536E+03  0.26474726930E+03  0.11948905578E+04  0.13293839432E+04  0.79389767556E+02 0.  0.
        254    2    1    2    0    0 -0.51293700536E+03 -0.26474726930E+03 -0.30614075536E+03  0.11118709429E+04  0.89963289379E+03 0.  0.
         23    2    4    4    0    0 -0.66036575839E+03 -0.79909482295E+02  0.52023111229E+02  0.67304634521E+03  0.88411076689E+02 0.  0.
         23    2    4    4    0    0  0.14742875303E+03 -0.18483778701E+03 -0.35816386658E+03  0.43882459772E+03  0.91571979956E+02 0.  0.
          1    1    3    3  502    0 -0.21231031315E+01  0.47266473795E+01  0.63144915402E+01  0.81683269871E+01  0.00000000000E+00 0. -1.
         -2    1    3    3    0  502  0.51506010849E+03  0.26002062192E+03  0.11885760663E+04  0.13212156162E+04  0.00000000000E+00 0.  1.
         13    1    5    5    0    0 -0.46950419156E+03 -0.95272115945E+02  0.25642722512E+02  0.47975880522E+03  0.00000000000E+00 0. -1.
        -13    1    5    5    0    0 -0.19086156683E+03  0.15362633650E+02  0.26380388716E+02  0.19328753999E+03  0.00000000000E+00 0.  1.
          4    1    6    6  503    0  0.15552580206E+02 -0.21020997900E+02 -0.33421646781E+01  0.26361623025E+02  0.00000000000E+00 0.  1.
         -4    1    6    6    0  503  0.13187617283E+03 -0.16381678911E+03 -0.35482170191E+03  0.41246297470E+03  0.00000000000E+00 0. -1.
<mgrwt>
<rscale>  0 0.22737302E+04</rscale>
<asrwt>0</asrwt>
<pdfrwt beam="1">  1        1 0.11942347E+00 0.22737302E+04</pdfrwt>
<pdfrwt beam="2">  1       -2 0.25615421E+00 0.22737302E+04</pdfrwt>
<totfact> 0.10849678E+00</totfact>
</mgrwt>
</event>
<event>
12    5  0.5428626E-008  0.1330622E+04  0.7818608E-02  0.9005628E-01
         -2   -1    0    0    0  501 -0.00000000000E+00  0.00000000000E+00  0.20748368716E+04  0.20748368716E+04  0.00000000000E+00 0.  1.
          1   -1    0    0  501    0  0.00000000000E+00 -0.00000000000E+00 -0.21333650355E+03  0.21333650355E+03  0.00000000000E+00 0. -1.
        -24    2    1    2    0    0  0.89173304775E+02 -0.14603727778E+03  0.10382076597E+04  0.10551581575E+04  0.78770729858E+02 0.  0.
        254    2    1    2    0    0 -0.89173304775E+02  0.14603727778E+03  0.82329270830E+03  0.12330152176E+04  0.90179647289E+03 0.  0.
         23    2    4    4    0    0  0.33094313582E+03 -0.15653519763E+03  0.23784858100E+03  0.44599500831E+03  0.91175505008E+02 0.  0.
         23    2    4    4    0    0 -0.42011644060E+03  0.30257247541E+03  0.58544412730E+03  0.78702020929E+03  0.92779615805E+02 0.  0.
          1    1    3    3  502    0  0.50614507371E+02 -0.68470304176E+02  0.29883995602E+03  0.31073353573E+03  0.00000000000E+00 0. -1.
         -2    1    3    3    0  502  0.38558797404E+02 -0.77566973604E+02  0.73936770370E+03  0.74442462179E+03  0.00000000000E+00 0.  1.
         13    1    5    5    0    0  0.76220343356E+02 -0.75566261657E+02  0.92832670202E+02  0.14190738282E+03  0.00000000000E+00 0. -1.
        -13    1    5    5    0    0  0.25472279246E+03 -0.80968935971E+02  0.14501591080E+03  0.30408762549E+03  0.00000000000E+00 0.  1.
          2    1    6    6  503    0 -0.14232525845E+02  0.17311877420E+02  0.41205263114E+01  0.22786939874E+02  0.00000000000E+00 0. -1.
         -2    1    6    6    0  503 -0.40588391475E+03  0.28526059799E+03  0.58132360099E+03  0.76423326942E+03  0.00000000000E+00 0.  1.
<mgrwt>
<rscale>  0 0.13306216E+04</rscale>
<asrwt>0</asrwt>
<pdfrwt beam="1">  1        1 0.32821002E-01 0.13306216E+04</pdfrwt>
<pdfrwt beam="2">  1       -2 0.31920566E+00 0.13306216E+04</pdfrwt>
<totfact> 0.28527719E+00</totfact>
</mgrwt>
</event>
<event>
12    5  0.5428626E-008  0.1418430E+04  0.7818608E-02  0.8940585E-01
          1   -1    0    0  501    0  0.00000000000E+00  0.00000000000E+00  0.11016515564E+04  0.11016515564E+04  0.00000000000E+00 0. -1.
         -2   -1    0    0    0  501 -0.00000000000E+00 -0.00000000000E+00 -0.45657427030E+03  0.45657427030E+03  0.00000000000E+00 0.  1.
        -24    2    1    2    0    0  0.11686226437E+02  0.15179259716E+02 -0.26789531439E+03  0.28062389111E+03  0.81331980023E+02 0.  0.
        254    2    1    2    0    0 -0.11686226437E+02 -0.15179259716E+02  0.91297260050E+03  0.12776019356E+04  0.89352154915E+03 0.  0.
         23    2    4    4    0    0  0.31711142121E+03 -0.52599368630E+02  0.87041283164E+03  0.93232996101E+03  0.91073111648E+02 0.  0.
         23    2    4    4    0    0 -0.32879764765E+03  0.37420108914E+02  0.42559768854E+02  0.34527197459E+03  0.88843935436E+02 0.  0.
          3    1    3    3  502    0  0.52224707253E+01 -0.31640943783E+02 -0.15413444492E+03  0.15743522680E+03  0.00000000000E+00 0. -1.
         -4    1    3    3    0  502  0.64637557113E+01  0.46820203499E+02 -0.11376086947E+03  0.12318866431E+03  0.00000000000E+00 0.  1.
         13    1    5    5    0    0  0.60203835624E+02  0.14132824558E+02  0.24973366075E+03  0.25727638808E+03  0.00000000000E+00 0. -1.
        -13    1    5    5    0    0  0.25690758559E+03 -0.66732193188E+02  0.62067917089E+03  0.67505357293E+03  0.00000000000E+00 0.  1.
          2    1    6    6  503    0 -0.88139844800E+02 -0.23623804022E+01 -0.25947913194E+02  0.91910321954E+02  0.00000000000E+00 0. -1.
         -2    1    6    6    0  503 -0.24065780285E+03  0.39782489316E+02  0.68507682048E+02  0.25336165264E+03  0.00000000000E+00 0.  1.
<mgrwt>
<rscale>  0 0.14184298E+04</rscale>
<asrwt>0</asrwt>
<pdfrwt beam="1">  1        1 0.16948485E+00 0.14184298E+04</pdfrwt>
<pdfrwt beam="2">  1       -2 0.70242195E-01 0.14184298E+04</pdfrwt>
<totfact> 0.19914502E+01</totfact>
</mgrwt>
</event>
<event>
12    5  0.5428626E-008  0.1348917E+04  0.7818608E-02  0.8991649E-01
          1   -1    0    0  501    0  0.00000000000E+00  0.00000000000E+00  0.67884527699E+03  0.67884527699E+03  0.00000000000E+00 0. -1.
         -2   -1    0    0    0  501 -0.00000000000E+00 -0.00000000000E+00 -0.67009973354E+03  0.67009973354E+03  0.00000000000E+00 0.  1.
        -24    2    1    2    0    0 -0.38491703676E+02 -0.35684587301E+03  0.42679859002E+01  0.36893625312E+03  0.85294518132E+02 0.  0.
        254    2    1    2    0    0  0.38491703676E+02  0.35684587301E+03  0.44775575462E+01  0.98000875741E+03  0.91190817944E+03 0.  0.
         23    2    4    4    0    0 -0.26573718584E+03  0.45078814159E+03 -0.22355366958E+03  0.57805677123E+03  0.10172112387E+03 0.  0.
         23    2    4    4    0    0  0.30422888952E+03 -0.93942268582E+02  0.22803122712E+03  0.40195198618E+03  0.90480890831E+02 0.  0.
          1    1    3    3  502    0 -0.39548565989E+02 -0.16296294414E+03  0.38489167208E+02  0.17205355628E+03  0.00000000000E+00 0. -1.
         -2    1    3    3    0  502  0.10568623128E+01 -0.19388292887E+03 -0.34221181308E+02  0.19688269684E+03  0.00000000000E+00 0.  1.
         13    1    5    5    0    0 -0.18783300684E+03  0.22321823695E+03 -0.10662272506E+03  0.31060590024E+03  0.00000000000E+00 0.  1.
        -13    1    5    5    0    0 -0.77904178996E+02  0.22756990465E+03 -0.11693094452E+03  0.26745087099E+03  0.00000000000E+00 0. -1.
          3    1    6    6  503    0  0.21631578471E+03 -0.30283544800E+02  0.12186302733E+03  0.25012038948E+03  0.00000000000E+00 0. -1.
         -3    1    6    6    0  503  0.87913104805E+02 -0.63658723782E+02  0.10616819979E+03  0.15183159670E+03  0.00000000000E+00 0.  1.
<mgrwt>
<rscale>  0 0.13489167E+04</rscale>
<asrwt>0</asrwt>
<pdfrwt beam="1">  1        1 0.10443774E+00 0.13489167E+04</pdfrwt>
<pdfrwt beam="2">  1       -2 0.10309227E+00 0.13489167E+04</pdfrwt>
<totfact> 0.18790090E+01</totfact>
</mgrwt>
</event>
<event>
12    5  0.5428626E-008  0.1201948E+04  0.7818608E-02  0.9111153E-01
          1   -1    0    0  501    0  0.00000000000E+00  0.00000000000E+00  0.18488563159E+04  0.18488563159E+04  0.00000000000E+00 0. -1.
         -2   -1    0    0    0  501 -0.00000000000E+00 -0.00000000000E+00 -0.19534776631E+03  0.19534776631E+03  0.00000000000E+00 0.  1.
        -24    2    1    2    0    0 -0.13190402870E+03 -0.17891078505E+03  0.56364049033E+03  0.61127247561E+03  0.80967248396E+02 0.  0.
        254    2    1    2    0    0  0.13190402870E+03  0.17891078505E+03  0.10898680593E+04  0.14329316066E+04  0.90336751148E+03 0.  0.
         23    2    4    4    0    0 -0.28322162678E+03  0.55210242299E+02  0.56047757938E+02  0.30826041350E+03  0.92846489596E+02 0.  0.
         23    2    4    4    0    0  0.41512565548E+03  0.12370054275E+03  0.10338203014E+04  0.11246711931E+04  0.92031206883E+02 0.  0.
          1    1    3    3  502    0 -0.83928635353E+02 -0.64902497065E+02  0.18901950440E+03  0.21675959726E+03  0.00000000000E+00 0. -1.
         -2    1    3    3    0  502 -0.47975393345E+02 -0.11400828799E+03  0.37462098593E+03  0.39451287836E+03  0.00000000000E+00 0.  1.
         13    1    5    5    0    0 -0.49141398558E+02 -0.11262594333E+02  0.40071998074E+02  0.64400994658E+02  0.00000000000E+00 0. -1.
        -13    1    5    5    0    0 -0.23408022822E+03  0.66472836631E+02  0.15975759864E+02  0.24385941884E+03  0.00000000000E+00 0.  1.
          3    1    6    6  503    0  0.50178331454E+02  0.21670432259E+02  0.22406509374E+03  0.23063529395E+03  0.00000000000E+00 0. -1.
         -3    1    6    6    0  503  0.36494732402E+03  0.10203011049E+03  0.80975520762E+03  0.89403589919E+03  0.00000000000E+00 0.  1.
<mgrwt>
<rscale>  0 0.12019483E+04</rscale>
<asrwt>0</asrwt>
<pdfrwt beam="1">  1        1 0.28443942E+00 0.12019483E+04</pdfrwt>
<pdfrwt beam="2">  1       -2 0.30053504E-01 0.12019483E+04</pdfrwt>
<totfact> 0.33540115E+01</totfact>
</mgrwt>
</event>
<event>
12    5  0.5428626E-008  0.1651674E+04  0.7818608E-02  0.8789417E-01
          1   -1    0    0  501    0  0.00000000000E+00  0.00000000000E+00  0.15299202438E+04  0.15299202438E+04  0.00000000000E+00 0. -1.
         -2   -1    0    0    0  501 -0.00000000000E+00 -0.00000000000E+00 -0.44577928312E+03  0.44577928312E+03  0.00000000000E+00 0.  1.
        -24    2    1    2    0    0 -0.57461266620E+03  0.26085330381E+02  0.36583227084E+03  0.68648845452E+03  0.81073961158E+02 0.  0.
        254    2    1    2    0    0  0.57461266620E+03 -0.26085330381E+02  0.71830868986E+03  0.12892110724E+04  0.90290511945E+03 0.  0.
         23    2    4    4    0    0  0.68070298434E+03  0.26322256825E+03  0.40101167158E+03  0.83779254607E+03  0.91887519192E+02 0.  0.
         23    2    4    4    0    0 -0.10609031814E+03 -0.28930789863E+03  0.31729701828E+03  0.45141852635E+03  0.90261134033E+02 0.  0.
          1    1    3    3  502    0 -0.22176827748E+03 -0.27394995495E+02  0.15563140454E+03  0.27231009668E+03  0.00000000000E+00 0. -1.
         -2    1    3    3    0  502 -0.35284438872E+03  0.53480325876E+02  0.21020086630E+03  0.41417835783E+03  0.00000000000E+00 0.  1.
         13    1    5    5    0    0  0.45519253990E+03  0.22086900662E+03  0.26716602971E+03  0.57215474646E+03  0.00000000000E+00 0. -1.
        -13    1    5    5    0    0  0.22551044444E+03  0.42353561626E+02  0.13384564187E+03  0.26563779961E+03  0.00000000000E+00 0.  1.
          3    1    6    6  503    0 -0.41674534486E+02 -0.22616782304E+03  0.21215392008E+03  0.31288645993E+03  0.00000000000E+00 0. -1.
         -3    1    6    6    0  503 -0.64415783657E+02 -0.63140075591E+02  0.10514309819E+03  0.13853206642E+03  0.00000000000E+00 0.  1.
<mgrwt>
<rscale>  0 0.16516740E+04</rscale>
<asrwt>0</asrwt>
<pdfrwt beam="1">  1        1 0.23537234E+00 0.16516740E+04</pdfrwt>
<pdfrwt beam="2">  1       -2 0.68581429E-01 0.16516740E+04</pdfrwt>
<totfact> 0.10164546E+01</totfact>
</mgrwt>
</event>
<event>
12    5  0.5428626E-008  0.1446682E+04  0.7818608E-02  0.8920704E-01
          1   -1    0    0  501    0  0.00000000000E+00  0.00000000000E+00  0.10057743635E+04  0.10057743635E+04  0.00000000000E+00 0. -1.
         -2   -1    0    0    0  501 -0.00000000000E+00 -0.00000000000E+00 -0.52021800174E+03  0.52021800174E+03  0.00000000000E+00 0.  1.
        -24    2    1    2    0    0 -0.40702264650E+03  0.17803200011E+03  0.82839852075E+02  0.45883130145E+03  0.79378172523E+02 0.  0.
        254    2    1    2    0    0  0.40702264650E+03 -0.17803200011E+03  0.40271650967E+03  0.10671610638E+04  0.88277365222E+03 0.  0.
         23    2    4    4    0    0  0.30776533976E+03  0.31787117798E+03  0.76091875701E+02  0.45845531623E+03  0.92896250147E+02 0.  0.
         23    2    4    4    0    0  0.99257306740E+02 -0.49590317809E+03  0.32662463397E+03  0.60870574754E+03  0.89816816873E+02 0.  0.
          3    1    3    3  502    0 -0.15939175747E+03  0.37823482515E+02  0.55446159349E+02  0.17294688423E+03  0.00000000000E+00 0. -1.
         -4    1    3    3    0  502 -0.24763088903E+03  0.14020851760E+03  0.27393692726E+02  0.28588441722E+03  0.00000000000E+00 0.  1.
         13    1    5    5    0    0  0.20388364000E+03  0.26698863942E+03  0.47253792712E+02  0.33924090727E+03  0.00000000000E+00 0. -1.
        -13    1    5    5    0    0  0.10388169975E+03  0.50882538552E+02  0.28838082989E+02  0.11921440896E+03  0.00000000000E+00 0.  1.
          3    1    6    6  503    0  0.49796621211E+02 -0.40756775766E+03  0.24092097201E+03  0.47606102058E+03  0.00000000000E+00 0. -1.
         -3    1    6    6    0  503  0.49460685528E+02 -0.88335420431E+02  0.85703661964E+02  0.13264472696E+03  0.00000000000E+00 0.  1.
<mgrwt>
<rscale>  0 0.14466816E+04</rscale>
<asrwt>0</asrwt>
<pdfrwt beam="1">  1        1 0.15473452E+00 0.14466816E+04</pdfrwt>
<pdfrwt beam="2">  1       -2 0.80033539E-01 0.14466816E+04</pdfrwt>
<totfact> 0.17613534E+01</totfact>
</mgrwt>
</event>
<event>
12    5  0.5428626E-008  0.2163493E+04  0.7818608E-02  0.8533778E-01
          1   -1    0    0  501    0  0.00000000000E+00  0.00000000000E+00  0.76791208367E+03  0.76791208367E+03  0.00000000000E+00 0. -1.
         -2   -1    0    0    0  501 -0.00000000000E+00 -0.00000000000E+00 -0.15238408196E+04  0.15238408196E+04  0.00000000000E+00 0.  1.
        -24    2    1    2    0    0 -0.63093295755E+03  0.41468813883E+03 -0.81912356387E+03  0.11168442898E+04  0.79593375477E+02 0.  0.
        254    2    1    2    0    0  0.63093295755E+03 -0.41468813883E+03  0.63194827970E+02  0.11749086134E+04  0.89798330396E+03 0.  0.
         23    2    4    4    0    0  0.17128617834E+03  0.47128773559E+01 -0.36407530636E+03  0.41394797621E+03  0.97164459595E+02 0.  0.
         23    2    4    4    0    0  0.45964677922E+03 -0.41940101619E+03  0.42727013433E+03  0.76096063720E+03  0.96586487969E+02 0.  0.
          3    1    3    3  502    0 -0.71223109109E+02  0.20872133539E+02 -0.93919320007E+02  0.11970470292E+03  0.00000000000E+00 0. -1.
         -4    1    3    3    0  502 -0.55970984845E+03  0.39381600529E+03 -0.72520424386E+03  0.99713958691E+03  0.00000000000E+00 0.  1.
         13    1    5    5    0    0  0.74146039784E+01  0.17049767590E+02 -0.53094847790E+01  0.19335499881E+02  0.00000000000E+00 0. -1.
        -13    1    5    5    0    0  0.16387157436E+03 -0.12336890234E+02 -0.35876582158E+03  0.39461247633E+03  0.00000000000E+00 0.  1.
          4    1    6    6  503    0  0.89588300504E+02 -0.10819246716E+03  0.55497329042E+02  0.15103518487E+03  0.00000000000E+00 0. -1.
         -4    1    6    6    0  503  0.37005847872E+03 -0.31120854903E+03  0.37177280529E+03  0.60992545234E+03  0.00000000000E+00 0.  1.
<mgrwt>
<rscale>  0 0.21634933E+04</rscale>
<asrwt>0</asrwt>
<pdfrwt beam="1">  1        1 0.11814032E+00 0.21634933E+04</pdfrwt>
<pdfrwt beam="2">  1       -2 0.23443705E+00 0.21634933E+04</pdfrwt>
<totfact> 0.15168160E+00</totfact>
</mgrwt>
</event>
<event>
12    5  0.5428626E-008  0.1348747E+04  0.7818608E-02  0.8991777E-01
         -2   -1    0    0    0  501 -0.00000000000E+00  0.00000000000E+00  0.39918868150E+03  0.39918868150E+03  0.00000000000E+00 0.  1.
          1   -1    0    0  501    0  0.00000000000E+00 -0.00000000000E+00 -0.11392597512E+04  0.11392597512E+04  0.00000000000E+00 0. -1.
        -24    2    1    2    0    0 -0.22977303367E+03  0.22812224877E+03 -0.16306034552E+02  0.33386435931E+03  0.79775411439E+02 0.  0.
        254    2    1    2    0    0  0.22977303367E+03 -0.22812224877E+03 -0.72376503517E+03  0.12045840734E+04  0.90683601407E+03 0.  0.
         23    2    4    4    0    0  0.65356783248E+02 -0.55827910243E+03 -0.33267945288E+03  0.65953888912E+03  0.91481487575E+02 0.  0.
         23    2    4    4    0    0  0.16441625042E+03  0.33015685366E+03 -0.39108558229E+03  0.54504518430E+03  0.89944809912E+02 0.  0.
          3    1    3    3  502    0 -0.51790608000E+02  0.10117591426E+03  0.77696355767E+01  0.11392629170E+03  0.00000000000E+00 0. -1.
         -4    1    3    3    0  502 -0.17798242567E+03  0.12694633451E+03 -0.24075670129E+02  0.21993806761E+03  0.00000000000E+00 0.  1.
         13    1    5    5    0    0 -0.75820191081E+00 -0.10466668024E-01  0.41272784389E+01  0.41963563958E+01  0.00000000000E+00 0.  1.
        -13    1    5    5    0    0  0.66114985159E+02 -0.55826863576E+03 -0.33680673132E+03  0.65534253272E+03  0.00000000000E+00 0. -1.
          2    1    6    6  503    0  0.17693738258E+02  0.31927286764E+02 -0.87858662333E+02  0.95139710744E+02  0.00000000000E+00 0.  1.
         -2    1    6    6    0  503  0.14672251217E+03  0.29822956690E+03 -0.30322691996E+03  0.44990547356E+03  0.00000000000E+00 0. -1.
<mgrwt>
<rscale>  0 0.13487470E+04</rscale>
<asrwt>0</asrwt>
<pdfrwt beam="1">  1        1 0.17527073E+00 0.13487470E+04</pdfrwt>
<pdfrwt beam="2">  1       -2 0.61413644E-01 0.13487470E+04</pdfrwt>
<totfact> 0.25072682E+01</totfact>
</mgrwt>
</event>
<event>
12    5  0.5428626E-008  0.2452716E+04  0.7818608E-02  0.8420027E-01
         -2   -1    0    0    0  501 -0.00000000000E+00  0.00000000000E+00  0.22188995904E+04  0.22188995904E+04  0.00000000000E+00 0.  1.
          1   -1    0    0  501    0  0.00000000000E+00 -0.00000000000E+00 -0.67779242502E+03  0.67779242502E+03  0.00000000000E+00 0. -1.
        -24    2    1    2    0    0 -0.67503025518E+03  0.25032152919E+03  0.15895427257E+04  0.17465788973E+04  0.74599290851E+02 0.  0.
        254    2    1    2    0    0  0.67503025518E+03 -0.25032152919E+03 -0.48435560295E+02  0.11501131182E+04  0.89559336067E+03 0.  0.
         23    2    4    4    0    0 -0.11339330178E+02  0.20177061616E+03  0.18775830639E+03  0.29004781600E+03  0.89635885647E+02 0.  0.
         23    2    4    4    0    0  0.68636958536E+03 -0.45209214535E+03 -0.23619386669E+03  0.86006530216E+03  0.91838258526E+02 0.  0.
          3    1    3    3  502    0 -0.24893918066E+03  0.64671492396E+02  0.62674243178E+03  0.67746527099E+03  0.00000000000E+00 0. -1.
         -4    1    3    3    0  502 -0.42609107452E+03  0.18565003679E+03  0.96280029392E+03  0.10691136263E+04  0.00000000000E+00 0.  1.
         13    1    5    5    0    0  0.33855344148E+02  0.37424238432E+02  0.47645796982E+02  0.69403745718E+02  0.00000000000E+00 0.  1.
        -13    1    5    5    0    0 -0.45194674326E+02  0.16434637773E+03  0.14011250941E+03  0.22064407029E+03  0.00000000000E+00 0. -1.
          3    1    6    6  503    0  0.61645148214E+03 -0.36922706201E+03 -0.20399300064E+03  0.74696331734E+03  0.00000000000E+00 0. -1.
         -3    1    6    6    0  503  0.69918103221E+02 -0.82865083342E+02 -0.32200866042E+02  0.11310198482E+03  0.00000000000E+00 0.  1.
<mgrwt>
<rscale>  0 0.24527155E+04</rscale>
<asrwt>0</asrwt>
<pdfrwt beam="1">  1        1 0.10427576E+00 0.24527155E+04</pdfrwt>
<pdfrwt beam="2">  1       -2 0.34136916E+00 0.24527155E+04</pdfrwt>
<totfact> 0.39454349E-01</totfact>
</mgrwt>
</event>
<event>
12    5  0.5428626E-008  0.2132075E+04  0.7818608E-02  0.8547244E-01
         -2   -1    0    0    0  501 -0.00000000000E+00  0.00000000000E+00  0.70040764829E+03  0.70040764829E+03  0.00000000000E+00 0.  1.
          1   -1    0    0  501    0  0.00000000000E+00 -0.00000000000E+00 -0.16225353798E+04  0.16225353798E+04  0.00000000000E+00 0. -1.
        -24    2    1    2    0    0  0.43252437951E+03 -0.53502381708E+03 -0.97861451521E+03  0.11988384462E+04  0.78736440250E+02 0.  0.
        254    2    1    2    0    0 -0.43252437951E+03  0.53502381708E+03  0.56486783711E+02  0.11241045819E+04  0.88718235473E+03 0.  0.
         23    2    4    4    0    0 -0.59317153657E+03  0.55667219609E+03 -0.16573308560E+03  0.83467965419E+03  0.86523197818E+02 0.  0.
         23    2    4    4    0    0  0.16064715705E+03 -0.21648379010E+02  0.22221986931E+03  0.28942492768E+03  0.90049747723E+02 0.  0.
          3    1    3    3  502    0  0.42607710942E+03 -0.51728366585E+03 -0.96749036740E+03  0.11769289295E+04  0.00000000000E+00 0. -1.
         -4    1    3    3    0  502  0.64472700960E+01 -0.17740151226E+02 -0.11124147808E+02  0.21909516692E+02  0.00000000000E+00 0.  1.
         13    1    5    5    0    0 -0.12748613404E+03  0.16833709899E+03 -0.56149941880E+02  0.21850150856E+03  0.00000000000E+00 0. -1.
        -13    1    5    5    0    0 -0.46568540253E+03  0.38833509710E+03 -0.10958314372E+03  0.61617814563E+03  0.00000000000E+00 0.  1.
          2    1    6    6  503    0  0.76737726875E+02 -0.22943621848E+01  0.37120866926E+02  0.85275445382E+02  0.00000000000E+00 0. -1.
         -2    1    6    6    0  503  0.83909430179E+02 -0.19354016826E+02  0.18509900239E+03  0.20414948230E+03  0.00000000000E+00 0.  1.
<mgrwt>
<rscale>  0 0.21320752E+04</rscale>
<asrwt>0</asrwt>
<pdfrwt beam="1">  1        1 0.24962082E+00 0.21320752E+04</pdfrwt>
<pdfrwt beam="2">  1       -2 0.10775502E+00 0.21320752E+04</pdfrwt>
<totfact> 0.29945624E+00</totfact>
</mgrwt>
</event>
<event>
12    5  0.5428626E-008  0.2193363E+04  0.7818608E-02  0.8521196E-01
         -2   -1    0    0    0  501 -0.00000000000E+00  0.00000000000E+00  0.71866568556E+03  0.71866568556E+03  0.00000000000E+00 0.  1.
          1   -1    0    0  501    0  0.00000000000E+00 -0.00000000000E+00 -0.16735329339E+04  0.16735329339E+04  0.00000000000E+00 0. -1.
        -24    2    1    2    0    0 -0.38432426704E+03  0.85679288639E+03 -0.36087162293E+03  0.10090256934E+04  0.78136607060E+02 0.  0.
        254    2    1    2    0    0  0.38432426704E+03 -0.85679288639E+03 -0.59399562540E+03  0.13831729260E+04  0.82373378457E+03 0.  0.
         23    2    4    4    0    0  0.14036023399E+03 -0.38324892207E+03  0.16563552320E+03  0.45069142033E+03  0.95430070004E+02 0.  0.
         23    2    4    4    0    0  0.24396403305E+03 -0.47354396432E+03 -0.75963114861E+03  0.93248150568E+03  0.93380623986E+02 0.  0.
          1    1    3    3  502    0 -0.22749774153E+03  0.54743855909E+03 -0.19108629531E+03  0.62286288269E+03  0.00000000000E+00 0. -1.
         -4    1    3    3    0  502 -0.15682652552E+03  0.30935432731E+03 -0.16978532762E+03  0.38616281075E+03  0.00000000000E+00 0.  1.
         13    1    5    5    0    0  0.13383518065E+03 -0.23260386536E+03  0.10720887903E+03  0.28898124074E+03  0.00000000000E+00 0. -1.
        -13    1    5    5    0    0  0.65250533383E+01 -0.15064505672E+03  0.58426644173E+02  0.16171017959E+03  0.00000000000E+00 0.  1.
          4    1    6    6  503    0  0.19242982997E+03 -0.40842542535E+03 -0.68745181063E+03  0.82245398623E+03  0.00000000000E+00 0. -1.
         -4    1    6    6    0  503  0.51534203080E+02 -0.65118538974E+02 -0.72179337980E+02  0.11002751945E+03  0.00000000000E+00 0.  1.
<mgrwt>
<rscale>  0 0.21933633E+04</rscale>
<asrwt>0</asrwt>
<pdfrwt beam="1">  1        1 0.25746660E+00 0.21933633E+04</pdfrwt>
<pdfrwt beam="2">  1       -2 0.11056395E+00 0.21933633E+04</pdfrwt>
<totfact> 0.25828342E+00</totfact>
</mgrwt>
</event>
<event>
12    5  0.5428626E-008  0.3869661E+04  0.7818608E-02  0.8031369E-01
         -2   -1    0    0    0  501 -0.00000000000E+00  0.00000000000E+00  0.12352830687E+04  0.12352830687E+04  0.00000000000E+00 0.  1.
          1   -1    0    0  501    0  0.00000000000E+00 -0.00000000000E+00 -0.30305349686E+04  0.30305349686E+04  0.00000000000E+00 0. -1.
        -24    2    1    2    0    0  0.10462536018E+04 -0.38996582351E+03 -0.24648977610E+04  0.27070280667E+04  0.74565669141E+02 0.  0.
        254    2    1    2    0    0 -0.10462536018E+04  0.38996582351E+03  0.66964586115E+03  0.15587899706E+04  0.85713514121E+03 0.  0.
         23    2    4    4    0    0 -0.31419144383E+03 -0.20938572355E+03 -0.12598918708E+02  0.38876574596E+03  0.91768338061E+02 0.  0.
         23    2    4    4    0    0 -0.73206215798E+03  0.59935154706E+03  0.68224477985E+03  0.11700242246E+04  0.91441054855E+02 0.  0.
          3    1    3    3  502    0  0.24549296251E+03 -0.10790155247E+03 -0.52633917336E+03  0.59071352201E+03  0.00000000000E+00 0. -1.
         -4    1    3    3    0  502  0.80076063930E+03 -0.28206427104E+03 -0.19385585877E+04  0.21163145447E+04  0.00000000000E+00 0.  1.
         13    1    5    5    0    0 -0.40702794352E+02  0.44205457333E+01 -0.72572169227E+01  0.41580354618E+02  0.00000000000E+00 0. -1.
        -13    1    5    5    0    0 -0.27348864948E+03 -0.21380626929E+03 -0.53417017856E+01  0.34718539134E+03  0.00000000000E+00 0.  1.
          1    1    6    6  503    0 -0.36430528098E+02  0.59902711878E+02  0.55386122389E+02  0.89348423720E+02  0.00000000000E+00 0. -1.
         -1    1    6    6    0  503 -0.69563162988E+03  0.53944883518E+03  0.62685865747E+03  0.10806758009E+04  0.00000000000E+00 0.  1.
<mgrwt>
<rscale>  0 0.38696607E+04</rscale>
<asrwt>0</asrwt>
<pdfrwt beam="1">  1        1 0.46623614E+00 0.38696607E+04</pdfrwt>
<pdfrwt beam="2">  1       -2 0.19004355E+00 0.38696607E+04</pdfrwt>
<totfact> 0.61227222E-02</totfact>
</mgrwt>
</event>
<event>
12    5  0.5428626E-008  0.1298939E+04  0.7818608E-02  0.9030407E-01
          1   -1    0    0  501    0  0.00000000000E+00  0.00000000000E+00  0.17990044135E+04  0.17990044135E+04  0.00000000000E+00 0. -1.
         -2   -1    0    0    0  501 -0.00000000000E+00 -0.00000000000E+00 -0.23446888042E+03  0.23446888042E+03  0.00000000000E+00 0.  1.
        -24    2    1    2    0    0  0.16993211664E+02 -0.21791438841E+03  0.22710796445E+02  0.23371052210E+03  0.79557387753E+02 0.  0.
        254    2    1    2    0    0 -0.16993211664E+02  0.21791438841E+03  0.15418247366E+04  0.17997627718E+04  0.90230098437E+03 0.  0.
         23    2    4    4    0    0  0.20253733819E+02  0.40624323627E+03  0.24030896296E+03  0.48107394152E+03  0.90774218702E+02 0.  0.
         23    2    4    4    0    0 -0.37246945483E+02 -0.18832884785E+03  0.13015157737E+04  0.13186888303E+04  0.90232101539E+02 0.  0.
          3    1    3    3  502    0  0.11793015451E+02 -0.38699131221E+02 -0.25787806217E+02  0.47976128650E+02  0.00000000000E+00 0. -1.
         -4    1    3    3    0  502  0.52001962129E+01 -0.17921525719E+03  0.48498602662E+02  0.18573439345E+03  0.00000000000E+00 0.  1.
         13    1    5    5    0    0 -0.11071191448E+02  0.53345989804E+02  0.67927568320E+02  0.87077669044E+02  0.00000000000E+00 0. -1.
        -13    1    5    5    0    0  0.31324925268E+02  0.35289724646E+03  0.17238139464E+03  0.39399627247E+03  0.00000000000E+00 0.  1.
          1    1    6    6  503    0  0.26126473724E+02 -0.27197880591E+02  0.18240590533E+03  0.18626387636E+03  0.00000000000E+00 0. -1.
         -1    1    6    6    0  503 -0.63373419207E+02 -0.16113096726E+03  0.11191098683E+04  0.11324249539E+04  0.00000000000E+00 0.  1.
<mgrwt>
<rscale>  0 0.12989389E+04</rscale>
<asrwt>0</asrwt>
<pdfrwt beam="1">  1        1 0.27676990E+00 0.12989389E+04</pdfrwt>
<pdfrwt beam="2">  1       -2 0.36072137E-01 0.12989389E+04</pdfrwt>
<totfact> 0.25455017E+01</totfact>
</mgrwt>
</event>
<event>
12    5  0.5428626E-008  0.1634488E+04  0.7818608E-02  0.8799636E-01
         -2   -1    0    0    0  501 -0.00000000000E+00  0.00000000000E+00  0.49054537585E+03  0.49054537585E+03  0.00000000000E+00 0.  1.
          1   -1    0    0  501    0  0.00000000000E+00 -0.00000000000E+00 -0.13615211048E+04  0.13615211048E+04  0.00000000000E+00 0. -1.
        -24    2    1    2    0    0 -0.45848920492E+03  0.16501971480E+02 -0.68314871283E+03  0.82676825157E+03  0.79805462618E+02 0.  0.
        254    2    1    2    0    0  0.45848920492E+03 -0.16501971480E+02 -0.18782701615E+03  0.10252982291E+04  0.89748136724E+03 0.  0.
         23    2    4    4    0    0  0.45859845929E+03  0.29632536739E+03  0.13093939643E+03  0.56946228378E+03  0.94978402234E+02 0.  0.
         23    2    4    4    0    0 -0.10925436201E+00 -0.31282733887E+03 -0.31876641258E+03  0.45583594534E+03  0.91177998404E+02 0.  0.
          3    1    3    3  502    0 -0.15108711609E+03 -0.49032027007E+01 -0.29211620756E+03  0.32891220222E+03  0.00000000000E+00 0. -1.
         -4    1    3    3    0  502 -0.30740208883E+03  0.21405174181E+02 -0.39103250527E+03  0.49785604935E+03  0.00000000000E+00 0.  1.
         13    1    5    5    0    0  0.32072436782E+03  0.21029537070E+03  0.13586347766E+03  0.40687485498E+03  0.00000000000E+00 0.  1.
        -13    1    5    5    0    0  0.13787409147E+03  0.86029996692E+02 -0.49240812298E+01  0.16258742880E+03  0.00000000000E+00 0. -1.
          1    1    6    6  503    0 -0.28376267409E+02 -0.85475604142E+02 -0.51246474306E+02  0.10362187310E+03  0.00000000000E+00 0. -1.
         -1    1    6    6    0  503  0.28267013047E+02 -0.22735173473E+03 -0.26751993828E+03  0.35221407224E+03  0.00000000000E+00 0.  1.
<mgrwt>
<rscale>  0 0.16344882E+04</rscale>
<asrwt>0</asrwt>
<pdfrwt beam="1">  1        1 0.20946479E+00 0.16344882E+04</pdfrwt>
<pdfrwt beam="2">  1       -2 0.75468519E-01 0.16344882E+04</pdfrwt>
<totfact> 0.10811690E+01</totfact>
</mgrwt>
</event>
<event>
12    5  0.5428626E-008  0.1425596E+04  0.7818608E-02  0.8935496E-01
          1   -1    0    0  501    0  0.00000000000E+00  0.00000000000E+00  0.12570251072E+04  0.12570251072E+04  0.00000000000E+00 0. -1.
         -2   -1    0    0    0  501 -0.00000000000E+00 -0.00000000000E+00 -0.40419318520E+03  0.40419318520E+03  0.00000000000E+00 0.  1.
        -24    2    1    2    0    0 -0.11382234634E+03  0.21229973489E+03  0.66661993132E+03  0.71376956359E+03  0.84012815233E+02 0.  0.
        254    2    1    2    0    0  0.11382234634E+03 -0.21229973489E+03  0.18621199069E+03  0.94744872881E+03  0.89719422885E+03 0.  0.
         23    2    4    4    0    0 -0.13961529375E+03  0.29861193848E+03  0.61240901080E+01  0.34223617371E+03  0.91796372794E+02 0.  0.
         23    2    4    4    0    0  0.25343764009E+03 -0.51091167337E+03  0.18008790058E+03  0.60521255510E+03  0.92677988296E+02 0.  0.
          1    1    3    3  502    0  0.32412357454E+01  0.63875891856E+02  0.21133610766E+03  0.22080214122E+03  0.00000000000E+00 0. -1.
         -2    1    3    3    0  502 -0.11706358208E+03  0.14842384303E+03  0.45528382366E+03  0.49296742237E+03  0.00000000000E+00 0.  1.
         13    1    5    5    0    0 -0.12311672222E+03  0.28481177863E+03 -0.16881330060E+02  0.31074178323E+03  0.00000000000E+00 0. -1.
        -13    1    5    5    0    0 -0.16498571530E+02  0.13800159851E+02  0.23005420168E+02  0.31494390478E+02  0.00000000000E+00 0.  1.
          4    1    6    6  503    0  0.18958575944E+03 -0.43608424554E+03  0.17507108629E+03  0.50671699660E+03  0.00000000000E+00 0. -1.
         -4    1    6    6    0  503  0.63851880652E+02 -0.74827427835E+02  0.50168142914E+01  0.98495558503E+02  0.00000000000E+00 0.  1.
<mgrwt>
<rscale>  0 0.14255960E+04</rscale>
<asrwt>0</asrwt>
<pdfrwt beam="1">  1        1 0.19338848E+00 0.14255960E+04</pdfrwt>
<pdfrwt beam="2">  1       -2 0.62183568E-01 0.14255960E+04</pdfrwt>
<totfact> 0.19900206E+01</totfact>
</mgrwt>
</event>
<event>
12    5  0.5620170E-008  0.2227330E+04  0.7818608E-02  0.8507138E-01
          1   -1    0    0  501    0  0.00000000000E+00  0.00000000000E+00  0.12560612885E+04  0.12560612885E+04  0.00000000000E+00 0. -1.
         -2   -1    0    0    0  501 -0.00000000000E+00 -0.00000000000E+00 -0.98741160910E+03  0.98741160910E+03  0.00000000000E+00 0.  1.
        -24    2    1    2    0    0 -0.70632805070E+03 -0.58759077783E+03  0.26956769121E+03  0.96059416106E+03  0.76890602377E+02 0.  0.
        254    2    1    2    0    0  0.70632805070E+03  0.58759077783E+03 -0.91801180410E+00  0.12828787365E+04  0.89532942125E+03 0.  0.
         23    2    4    4    0    0  0.43262072848E+03  0.39067032032E+03  0.42833002058E+03  0.72924180962E+03  0.92428439746E+02 0.  0.
         23    2    4    4    0    0  0.27370732221E+03  0.19692045751E+03 -0.42924803238E+03  0.55363692693E+03  0.92555976220E+02 0.  0.
          3    1    3    3  502    0 -0.67006203312E+03 -0.57170195053E+03  0.26909087465E+03  0.92099736552E+03  0.00000000000E+00 0. -1.
         -4    1    3    3    0  502 -0.36266017571E+02 -0.15888827305E+02  0.47681656493E+00  0.39596795548E+02  0.00000000000E+00 0.  1.
         13    1    5    5    0    0  0.43531607421E+03  0.39300058766E+03  0.42431275315E+03  0.72387212880E+03  0.00000000000E+00 0. -1.
        -13    1    5    5    0    0 -0.26953457257E+01 -0.23302673440E+01  0.40172674346E+01  0.53696808208E+01  0.00000000000E+00 0.  1.
          4    1    6    6  503    0  0.24788332274E+03  0.16429195066E+03 -0.41308614948E+03  0.50899720396E+03  0.00000000000E+00 0. -1.
         -4    1    6    6    0  503  0.25823999472E+02  0.32628506849E+02 -0.16161882907E+02  0.44639722972E+02  0.00000000000E+00 0.  1.
<mgrwt>
<rscale>  0 0.22273298E+04</rscale>
<asrwt>0</asrwt>
<pdfrwt beam="1">  1        1 0.19324020E+00 0.22273298E+04</pdfrwt>
<pdfrwt beam="2">  1       -2 0.15190948E+00 0.22273298E+04</pdfrwt>
<totfact> 0.22492799E+00</totfact>
</mgrwt>
</event>
<event>
12    5  0.5428626E-008  0.2328555E+04  0.7818608E-02  0.8466747E-01
          1   -1    0    0  501    0  0.00000000000E+00  0.00000000000E+00  0.54263458081E+03  0.54263458081E+03  0.00000000000E+00 0. -1.
         -2   -1    0    0    0  501 -0.00000000000E+00 -0.00000000000E+00 -0.24980753782E+04  0.24980753782E+04  0.00000000000E+00 0.  1.
        -24    2    1    2    0    0  0.33190853067E+03 -0.25905060963E+03  0.33070742815E+03  0.54147242340E+03  0.80959812221E+02 0.  0.
        254    2    1    2    0    0 -0.33190853067E+03  0.25905060963E+03 -0.22861482255E+04  0.24992375356E+04  0.91784751412E+03 0.  0.
         23    2    4    4    0    0 -0.18142273429E+03 -0.32965548578E+03 -0.70953960966E+03  0.80715769609E+03  0.80437185774E+02 0.  0.
         23    2    4    4    0    0 -0.15048579638E+03  0.58870609541E+03 -0.15766086159E+04  0.16920798395E+04  0.90656571556E+02 0.  0.
          1    1    3    3  502    0  0.27944350317E+03 -0.18279167423E+03  0.28092087375E+03  0.43636911548E+03  0.00000000000E+00 0. -1.
         -2    1    3    3    0  502  0.52465027493E+02 -0.76258935398E+02  0.49786554395E+02  0.10510330792E+03  0.00000000000E+00 0.  1.
         13    1    5    5    0    0 -0.15099273005E+03 -0.20032754888E+03 -0.43472004835E+03  0.50190781205E+03  0.00000000000E+00 0.  1.
        -13    1    5    5    0    0 -0.30430004238E+02 -0.12932793690E+03 -0.27481956131E+03  0.30524988403E+03  0.00000000000E+00 0. -1.
          1    1    6    6  503    0 -0.11233126692E+03  0.41699929721E+03 -0.10007672107E+04  0.10899732737E+04  0.00000000000E+00 0. -1.
         -1    1    6    6    0  503 -0.38154529456E+02  0.17170679819E+03 -0.57584140520E+03  0.60210656583E+03  0.00000000000E+00 0.  1.
<mgrwt>
<rscale>  0 0.23285550E+04</rscale>
<asrwt>0</asrwt>
<pdfrwt beam="1">  1        1 0.83482244E-01 0.23285550E+04</pdfrwt>
<pdfrwt beam="2">  1       -2 0.38431929E+00 0.23285550E+04</pdfrwt>
<totfact> 0.29352263E-01</totfact>
</mgrwt>
</event>
<event>
12    5  0.5428626E-008  0.2050241E+04  0.7818608E-02  0.8583485E-01
         -2   -1    0    0    0  501 -0.00000000000E+00  0.00000000000E+00  0.13524230155E+04  0.13524230155E+04  0.00000000000E+00 0.  1.
          1   -1    0    0  501    0  0.00000000000E+00 -0.00000000000E+00 -0.77702931256E+03  0.77702931256E+03  0.00000000000E+00 0. -1.
        -24    2    1    2    0    0 -0.30869001693E+03 -0.74275407338E+03  0.44392751653E+02  0.80946400236E+03  0.79297633324E+02 0.  0.
        254    2    1    2    0    0  0.30869001693E+03  0.74275407338E+03  0.53100095125E+03  0.13199883257E+04  0.90190577644E+03 0.  0.
         23    2    4    4    0    0  0.31301833994E+03  0.88097159347E+03  0.62614628160E+03  0.11288970298E+04  0.90873034006E+02 0.  0.
         23    2    4    4    0    0 -0.43283230090E+01 -0.13821752009E+03 -0.95145330348E+02  0.19109129586E+03  0.91325966875E+02 0.  0.
          1    1    3    3  502    0 -0.29930846889E+03 -0.69468800666E+03  0.57975322623E+02  0.75864229000E+03  0.00000000000E+00 0. -1.
         -2    1    3    3    0  502 -0.93815480486E+01 -0.48066066713E+02 -0.13582570970E+02  0.50821712360E+02  0.00000000000E+00 0.  1.
         13    1    5    5    0    0  0.10585780393E+03  0.40751596035E+03  0.24948727284E+03  0.48940681636E+03  0.00000000000E+00 0. -1.
        -13    1    5    5    0    0  0.20716053601E+03  0.47345563312E+03  0.37665900876E+03  0.63949021344E+03  0.00000000000E+00 0.  1.
          2    1    6    6  503    0  0.15015417635E+02 -0.61192758211E+02  0.50839361138E+01  0.63212837546E+02  0.00000000000E+00 0. -1.
         -2    1    6    6    0  503 -0.19343740644E+02 -0.77024761878E+02 -0.10022926646E+03  0.12787845831E+03  0.00000000000E+00 0.  1.
<mgrwt>
<rscale>  0 0.20502413E+04</rscale>
<asrwt>0</asrwt>
<pdfrwt beam="1">  1        1 0.11954297E+00 0.20502413E+04</pdfrwt>
<pdfrwt beam="2">  1       -2 0.20806508E+00 0.20502413E+04</pdfrwt>
<totfact> 0.22080918E+00</totfact>
</mgrwt>
</event>
<event>
12    5  0.5428626E-008  0.1740610E+04  0.7818608E-02  0.8738536E-01
         -4   -1    0    0    0  501 -0.00000000000E+00  0.00000000000E+00  0.75153668675E+03  0.75153668675E+03  0.00000000000E+00 0.  1.
          1   -1    0    0  501    0  0.00000000000E+00 -0.00000000000E+00 -0.10078432680E+04  0.10078432680E+04  0.00000000000E+00 0. -1.
        -24    2    1    2    0    0 -0.31456784182E+03 -0.53277444545E+03 -0.24168185409E+03  0.66788116898E+03  0.69667786364E+02 0.  0.
        254    2    1    2    0    0  0.31456784182E+03  0.53277444545E+03 -0.14624727213E+02  0.10914987858E+04  0.89908519059E+03 0.  0.
         23    2    4    4    0    0  0.10025546813E+03 -0.22029350751E+03  0.13017915126E+03  0.29022937751E+03  0.93306440328E+02 0.  0.
         23    2    4    4    0    0  0.21431237369E+03  0.75306795296E+03 -0.14480387847E+03  0.80126940830E+03  0.89573244678E+02 0.  0.
          1    1    3    3  502    0 -0.31073137969E+03 -0.51790683694E+03 -0.24565904760E+03  0.65201982312E+03  0.00000000000E+00 0. -1.
         -2    1    3    3    0  502 -0.38364621322E+01 -0.14867608506E+02  0.39771935103E+01  0.15861345864E+02  0.00000000000E+00 0.  1.
         13    1    5    5    0    0 -0.14364754111E+02 -0.48223425259E+01  0.51266651024E+01  0.15996369687E+02  0.00000000000E+00 0.  1.
        -13    1    5    5    0    0  0.11462022224E+03 -0.21547116498E+03  0.12505248615E+03  0.27423300782E+03  0.00000000000E+00 0. -1.
          2    1    6    6  503    0  0.17802634083E+03  0.57610613164E+03 -0.75101442386E+02  0.60764453391E+03  0.00000000000E+00 0. -1.
         -2    1    6    6    0  503  0.36286032857E+02  0.17696182132E+03 -0.69702436083E+02  0.19362487439E+03  0.00000000000E+00 0.  1.
<mgrwt>
<rscale>  0 0.17406105E+04</rscale>
<asrwt>0</asrwt>
<pdfrwt beam="1">  1        1 0.15505281E+00 0.17406105E+04</pdfrwt>
<pdfrwt beam="2">  1       -4 0.11562103E+00 0.17406105E+04</pdfrwt>
<totfact> 0.39892564E+00</totfact>
</mgrwt>
</event>
<event>
12    5  0.5428626E-008  0.2011465E+04  0.7818608E-02  0.8601279E-01
         -2   -1    0    0    0  501 -0.00000000000E+00  0.00000000000E+00  0.66207184088E+03  0.66207184088E+03  0.00000000000E+00 0.  1.
          1   -1    0    0  501    0  0.00000000000E+00 -0.00000000000E+00 -0.15277762648E+04  0.15277762648E+04  0.00000000000E+00 0. -1.
        -24    2    1    2    0    0  0.58236987088E+03  0.39831314488E+03 -0.76620596451E+03  0.10450193194E+04  0.84768921063E+02 0.  0.
        254    2    1    2    0    0 -0.58236987088E+03 -0.39831314488E+03 -0.99498459373E+02  0.11448287862E+04  0.89606081184E+03 0.  0.
         23    2    4    4    0    0  0.22421286790E+03 -0.17351490439E+03 -0.49212869540E+02  0.30171338723E+03  0.90720611385E+02 0.  0.
         23    2    4    4    0    0 -0.80658273878E+03 -0.22479824048E+03 -0.50285589833E+02  0.84311539901E+03  0.84882107000E+02 0.  0.
          1    1    3    3  502    0  0.40246204576E+03  0.23223686529E+03 -0.52937086379E+03  0.70437431193E+03  0.00000000000E+00 0. -1.
         -2    1    3    3    0  502  0.17990782512E+03  0.16607627959E+03 -0.23683510072E+03  0.34064500747E+03  0.00000000000E+00 0.  1.
         13    1    5    5    0    0  0.11512864239E+03 -0.65212656542E+02  0.18760720604E+02  0.13363854051E+03  0.00000000000E+00 0. -1.
        -13    1    5    5    0    0  0.10908422551E+03 -0.10830224785E+03 -0.67973590144E+02  0.16807484672E+03  0.00000000000E+00 0.  1.
          4    1    6    6  503    0 -0.60196367098E+03 -0.20497925279E+03 -0.31590345758E+02  0.63669043121E+03  0.00000000000E+00 0. -1.
         -4    1    6    6    0  503 -0.20461906780E+03 -0.19818987693E+02 -0.18695244075E+02  0.20642496780E+03  0.00000000000E+00 0.  1.
<mgrwt>
<rscale>  0 0.20114648E+04</rscale>
<asrwt>0</asrwt>
<pdfrwt beam="1">  1        1 0.23504250E+00 0.20114648E+04</pdfrwt>
<pdfrwt beam="2">  1       -2 0.10185721E+00 0.20114648E+04</pdfrwt>
<totfact> 0.40246705E+00</totfact>
</mgrwt>
</event>
<event>
12    5  0.5428626E-008  0.1556158E+04  0.7818608E-02  0.8847944E-01
          1   -1    0    0  501    0  0.00000000000E+00  0.00000000000E+00  0.14774967642E+04  0.14774967642E+04  0.00000000000E+00 0. -1.
         -2   -1    0    0    0  501 -0.00000000000E+00 -0.00000000000E+00 -0.40975182923E+03  0.40975182923E+03  0.00000000000E+00 0.  1.
        -24    2    1    2    0    0  0.15294268381E+02  0.92404120726E+02 -0.25629050871E+03  0.28102617046E+03  0.67219397905E+02 0.  0.
        254    2    1    2    0    0 -0.15294268381E+02 -0.92404120726E+02  0.13240354437E+04  0.16062224230E+04  0.90449332765E+03 0.  0.
         23    2    4    4    0    0 -0.33588625219E+03  0.13979280461E+03  0.23339650368E+03  0.44240177018E+03  0.94253889584E+02 0.  0.
         23    2    4    4    0    0  0.32059198381E+03 -0.23219692534E+03  0.10906389400E+04  0.11638206528E+04  0.91052634177E+02 0.  0.
          1    1    3    3  502    0 -0.22960530899E+02  0.15499048254E+02 -0.43718536138E+02  0.51756322106E+02  0.00000000000E+00 0. -1.
         -2    1    3    3    0  502  0.38254799279E+02  0.76905072472E+02 -0.21257197257E+03  0.22926984835E+03  0.00000000000E+00 0.  1.
         13    1    5    5    0    0 -0.15602420086E+03  0.64209071709E+02  0.53436439727E+02  0.17697968594E+03  0.00000000000E+00 0. -1.
        -13    1    5    5    0    0 -0.17986205132E+03  0.75583732901E+02  0.17996006395E+03  0.26542208424E+03  0.00000000000E+00 0.  1.
          2    1    6    6  503    0  0.26393507081E+03 -0.22274108702E+03  0.98149621312E+03  0.10404855260E+04  0.00000000000E+00 0. -1.
         -2    1    6    6    0  503  0.56656912992E+02 -0.94558383183E+01  0.10914272689E+03  0.12333512679E+03  0.00000000000E+00 0.  1.
<mgrwt>
<rscale>  0 0.15561581E+04</rscale>
<asrwt>0</asrwt>
<pdfrwt beam="1">  1        1 0.22730719E+00 0.15561581E+04</pdfrwt>
<pdfrwt beam="2">  1       -2 0.63038744E-01 0.15561581E+04</pdfrwt>
<totfact> 0.13359231E+01</totfact>
</mgrwt>
</event>
<event>
12    5  0.5428626E-008  0.1548078E+04  0.7818608E-02  0.8853096E-01
         -2   -1    0    0    0  501 -0.00000000000E+00  0.00000000000E+00  0.20814183258E+03  0.20814183258E+03  0.00000000000E+00 0.  1.
          1   -1    0    0  501    0  0.00000000000E+00 -0.00000000000E+00 -0.28784999612E+04  0.28784999612E+04  0.00000000000E+00 0. -1.
        -24    2    1    2    0    0  0.49675684878E+03 -0.10042097368E+03 -0.99384371674E+03  0.11184663978E+04  0.79937544486E+02 0.  0.
        254    2    1    2    0    0 -0.49675684878E+03  0.10042097368E+03 -0.16765144119E+04  0.19681753959E+04  0.89786528901E+03 0.  0.
         23    2    4    4    0    0 -0.15354605963E+03  0.43259566762E+03 -0.11979224357E+04  0.12860311972E+04  0.90236767417E+02 0.  0.
         23    2    4    4    0    0 -0.34321078915E+03 -0.33217469393E+03 -0.47859197614E+03  0.68214419869E+03  0.90203963915E+02 0.  0.
          1    1    3    3  502    0  0.46249600386E+03 -0.96393626537E+02 -0.87106080496E+03  0.99092946810E+03  0.00000000000E+00 0. -1.
         -2    1    3    3    0  502  0.34260844922E+02 -0.40273471442E+01 -0.12278291178E+03  0.12753692973E+03  0.00000000000E+00 0.  1.
         13    1    5    5    0    0 -0.94354932680E+02  0.36812080457E+03 -0.99049667523E+03  0.10608955857E+04  0.00000000000E+00 0. -1.
        -13    1    5    5    0    0 -0.59191126953E+02  0.64474863044E+02 -0.20742576049E+03  0.22513561156E+03  0.00000000000E+00 0.  1.
          3    1    6    6  503    0 -0.20256208742E+03 -0.13598463570E+03 -0.25893300990E+03  0.35576610860E+03  0.00000000000E+00 0. -1.
         -3    1    6    6    0  503 -0.14064870172E+03 -0.19619005823E+03 -0.21965896623E+03  0.32637809009E+03  0.00000000000E+00 0.  1.
<mgrwt>
<rscale>  0 0.15480778E+04</rscale>
<asrwt>0</asrwt>
<pdfrwt beam="1">  1        1 0.44284612E+00 0.15480778E+04</pdfrwt>
<pdfrwt beam="2">  1       -2 0.32021822E-01 0.15480778E+04</pdfrwt>
<totfact> 0.56468036E+00</totfact>
</mgrwt>
</event>
<event>
12    5  0.5428626E-008  0.1961853E+04  0.7818608E-02  0.8624666E-01
         -2   -1    0    0    0  501 -0.00000000000E+00  0.00000000000E+00  0.11886771112E+04  0.11886771112E+04  0.00000000000E+00 0.  1.
          1   -1    0    0  501    0  0.00000000000E+00 -0.00000000000E+00 -0.80948537815E+03  0.80948537815E+03  0.00000000000E+00 0. -1.
        -24    2    1    2    0    0 -0.26879476517E+03 -0.12502027278E+03 -0.57201129237E+03  0.64905169504E+03  0.78679665990E+02 0.  0.
        254    2    1    2    0    0  0.26879476517E+03  0.12502027278E+03  0.95120302539E+03  0.13491107943E+04  0.90963291791E+03 0.  0.
         23    2    4    4    0    0 -0.31540658233E+03  0.13449384910E+03  0.45535358448E+03  0.57717794662E+03  0.90650910274E+02 0.  0.
         23    2    4    4    0    0  0.58420134751E+03 -0.94735763241E+01  0.49584944090E+03  0.77193284766E+03  0.92912271393E+02 0.  0.
          3    1    3    3  502    0 -0.25666850959E+03 -0.12108788351E+03 -0.49160524232E+03  0.56764136004E+03  0.00000000000E+00 0. -1.
         -4    1    3    3    0  502 -0.12126255582E+02 -0.39323892660E+01 -0.80406050055E+02  0.81410335003E+02  0.00000000000E+00 0.  1.
         13    1    5    5    0    0 -0.21584312298E+03  0.63168434134E+02  0.34781772592E+03  0.41419279964E+03  0.00000000000E+00 0. -1.
        -13    1    5    5    0    0 -0.99563459350E+02  0.71325414967E+02  0.10753585857E+03  0.16298514698E+03  0.00000000000E+00 0.  1.
          1    1    6    6  503    0  0.49179768046E+03  0.19932774799E+02  0.38676494720E+03  0.62597875236E+03  0.00000000000E+00 0. -1.
         -1    1    6    6    0  503  0.92403667046E+02 -0.29406351124E+02  0.10908449370E+03  0.14595409530E+03  0.00000000000E+00 0.  1.
<mgrwt>
<rscale>  0 0.19618529E+04</rscale>
<asrwt>0</asrwt>
<pdfrwt beam="1">  1        1 0.12453621E+00 0.19618529E+04</pdfrwt>
<pdfrwt beam="2">  1       -2 0.18287340E+00 0.19618529E+04</pdfrwt>
<totfact> 0.30633334E+00</totfact>
</mgrwt>
</event>
<event>
12    5  0.5428626E-008  0.2048188E+04  0.7818608E-02  0.8584417E-01
          1   -1    0    0  501    0  0.00000000000E+00  0.00000000000E+00  0.14579695010E+04  0.14579695010E+04  0.00000000000E+00 0. -1.
         -2   -1    0    0    0  501 -0.00000000000E+00 -0.00000000000E+00 -0.71933529681E+03  0.71933529681E+03  0.00000000000E+00 0.  1.
        -24    2    1    2    0    0  0.26905509069E+03 -0.76546698938E+03  0.17083055381E+03  0.83339138349E+03  0.83831773822E+02 0.  0.
        254    2    1    2    0    0 -0.26905509069E+03  0.76546698938E+03  0.56780365034E+03  0.13439134143E+04  0.90849982172E+03 0.  0.
         23    2    4    4    0    0  0.31414581286E+03  0.42289662454E+03  0.25891661344E+03  0.59482810361E+03  0.96195183593E+02 0.  0.
         23    2    4    4    0    0 -0.58320090355E+03  0.34257036484E+03  0.30888703690E+03  0.74908531066E+03  0.90773632285E+02 0.  0.
          1    1    3    3  502    0  0.18135722965E+03 -0.57666492060E+03  0.95512074266E+02  0.61200933957E+03  0.00000000000E+00 0. -1.
         -4    1    3    3    0  502  0.87697861039E+02 -0.18880206879E+03  0.75318479548E+02  0.22138204392E+03  0.00000000000E+00 0.  1.
         13    1    5    5    0    0  0.67192971938E+02  0.11523764849E+03  0.23606208580E+02  0.13546905252E+03  0.00000000000E+00 0. -1.
        -13    1    5    5    0    0  0.24695284092E+03  0.30765897605E+03  0.23531040486E+03  0.45935905109E+03  0.00000000000E+00 0.  1.
          3    1    6    6  503    0 -0.15247302460E+03  0.55694622162E+02  0.10220752236E+03  0.19182359551E+03  0.00000000000E+00 0. -1.
         -3    1    6    6    0  503 -0.43072787895E+03  0.28687574268E+03  0.20667951454E+03  0.55726171515E+03  0.00000000000E+00 0.  1.
<mgrwt>
<rscale>  0 0.20481884E+04</rscale>
<asrwt>0</asrwt>
<pdfrwt beam="1">  1        1 0.22430300E+00 0.20481884E+04</pdfrwt>
<pdfrwt beam="2">  1       -2 0.11066697E+00 0.20481884E+04</pdfrwt>
<totfact> 0.36734785E+00</totfact>
</mgrwt>
</event>
<event>
12    5  0.5428626E-008  0.1899724E+04  0.7818608E-02  0.8654994E-01
         -2   -1    0    0    0  501 -0.00000000000E+00  0.00000000000E+00  0.40380901611E+03  0.40380901611E+03  0.00000000000E+00 0.  1.
          1   -1    0    0  501    0  0.00000000000E+00 -0.00000000000E+00 -0.22343188496E+04  0.22343188496E+04  0.00000000000E+00 0. -1.
        -24    2    1    2    0    0  0.15187255999E+03 -0.84473621434E+02  0.27874995795E+03  0.34098989420E+03  0.91495910795E+02 0.  0.
        254    2    1    2    0    0 -0.15187255999E+03  0.84473621434E+02 -0.21092597914E+04  0.22971379715E+04  0.89312089054E+03 0.  0.
         23    2    4    4    0    0  0.25525371828E+03 -0.18886240635E+03 -0.40928828197E+03  0.52559634867E+03  0.88944672375E+02 0.  0.
         23    2    4    4    0    0 -0.40712627827E+03  0.27333602779E+03 -0.16999715095E+04  0.17715416228E+04  0.89399093311E+02 0.  0.
          3    1    3    3  502    0  0.10487943762E+03 -0.49474854031E+02  0.10082675488E+03  0.15366682178E+03  0.00000000000E+00 0. -1.
         -4    1    3    3    0  502  0.46993122378E+02 -0.34998767403E+02  0.17792320307E+03  0.18732307242E+03  0.00000000000E+00 0.  1.
         13    1    5    5    0    0  0.22584888260E+03 -0.19547679288E+03 -0.38219783740E+03  0.48507121254E+03  0.00000000000E+00 0. -1.
        -13    1    5    5    0    0  0.29404835678E+02  0.66143865319E+01 -0.27090444572E+02  0.40525136120E+02  0.00000000000E+00 0.  1.
          2    1    6    6  503    0 -0.12959899718E+03  0.13459822619E+03 -0.57738906473E+03  0.60686960266E+03  0.00000000000E+00 0. -1.
         -2    1    6    6    0  503 -0.27752728110E+03  0.13873780160E+03 -0.11225824447E+04  0.11646720202E+04  0.00000000000E+00 0.  1.
<mgrwt>
<rscale>  0 0.18997243E+04</rscale>
<asrwt>0</asrwt>
<pdfrwt beam="1">  1        1 0.34374135E+00 0.18997243E+04</pdfrwt>
<pdfrwt beam="2">  1       -2 0.62124465E-01 0.18997243E+04</pdfrwt>
<totfact> 0.40810109E+00</totfact>
</mgrwt>
</event>
<event>
12    5  0.5428626E-008  0.3445106E+04  0.7818608E-02  0.8126924E-01
          1   -1    0    0  501    0  0.00000000000E+00  0.00000000000E+00  0.21952465035E+04  0.21952465035E+04  0.00000000000E+00 0. -1.
         -2   -1    0    0    0  501 -0.00000000000E+00 -0.00000000000E+00 -0.13516422817E+04  0.13516422817E+04  0.00000000000E+00 0.  1.
        -24    2    1    2    0    0  0.15349320648E+04  0.45410519611E+03  0.52549106473E+03  0.16866267102E+04  0.79629315318E+02 0.  0.
        254    2    1    2    0    0 -0.15349320648E+04 -0.45410519611E+03  0.31811315704E+03  0.18602620751E+04  0.89283315052E+03 0.  0.
         23    2    4    4    0    0 -0.32264068660E+03  0.40386524015E+02  0.42547613883E+03  0.54345379504E+03  0.92649871291E+02 0.  0.
         23    2    4    4    0    0 -0.12122913782E+04 -0.49449172013E+03 -0.10736298179E+03  0.13168082800E+04  0.91020819886E+02 0.  0.
          1    1    3    3  502    0  0.83609098399E+03  0.25648101051E+03  0.24633812456E+03  0.90857752221E+03  0.00000000000E+00 0. -1.
         -2    1    3    3    0  502  0.69884108078E+03  0.19762418561E+03  0.27915294018E+03  0.77804918799E+03  0.00000000000E+00 0.  1.
         13    1    5    5    0    0 -0.12531657530E+03  0.52003484886E+02  0.21893274749E+03  0.25756582539E+03  0.00000000000E+00 0. -1.
        -13    1    5    5    0    0 -0.19732411130E+03 -0.11616960871E+02  0.20654339134E+03  0.28588796965E+03  0.00000000000E+00 0.  1.
          3    1    6    6  503    0 -0.10085993536E+04 -0.43192128816E+03 -0.11760808154E+03  0.11034764683E+04  0.00000000000E+00 0. -1.
         -3    1    6    6    0  503 -0.20369202457E+03 -0.62570431966E+02  0.10245099745E+02  0.21333181173E+03  0.00000000000E+00 0.  1.
<mgrwt>
<rscale>  0 0.34451055E+04</rscale>
<asrwt>0</asrwt>
<pdfrwt beam="1">  1        1 0.33773023E+00 0.34451055E+04</pdfrwt>
<pdfrwt beam="2">  1       -2 0.20794497E+00 0.34451055E+04</pdfrwt>
<totfact> 0.18678935E-01</totfact>
</mgrwt>
</event>
<event>
12    5  0.5428626E-008  0.1909071E+04  0.7818608E-02  0.8650354E-01
         -2   -1    0    0    0  501 -0.00000000000E+00  0.00000000000E+00  0.10171062864E+04  0.10171062864E+04  0.00000000000E+00 0.  1.
          1   -1    0    0  501    0  0.00000000000E+00 -0.00000000000E+00 -0.89581378477E+03  0.89581378477E+03  0.00000000000E+00 0. -1.
        -24    2    1    2    0    0  0.20356832164E+03  0.37623248937E+03  0.65592924867E+03  0.78703580903E+03  0.78684419031E+02 0.  0.
        254    2    1    2    0    0 -0.20356832164E+03 -0.37623248937E+03 -0.53463674705E+03  0.11258842621E+04  0.89374939038E+03 0.  0.
         23    2    4    4    0    0  0.30791452805E+03 -0.33094746392E+03 -0.32365342826E+03  0.56319174439E+03  0.89976768468E+02 0.  0.
         23    2    4    4    0    0 -0.51148284969E+03 -0.45285025447E+02 -0.21098331879E+03  0.56269251775E+03  0.91888354366E+02 0.  0.
          1    1    3    3  502    0  0.44454345214E+02  0.16186339423E+03  0.26250927470E+03  0.31158797555E+03  0.00000000000E+00 0. -1.
         -2    1    3    3    0  502  0.15911397643E+03  0.21436909513E+03  0.39341997397E+03  0.47544783348E+03  0.00000000000E+00 0.  1.
         13    1    5    5    0    0  0.72735802896E+02 -0.64437775745E+02 -0.11682458192E+03  0.15195626643E+03  0.00000000000E+00 0. -1.
        -13    1    5    5    0    0  0.23517872515E+03 -0.26650968818E+03 -0.20682884634E+03  0.41123547796E+03  0.00000000000E+00 0.  1.
          3    1    6    6  503    0 -0.73420248756E+02 -0.30467925065E+02 -0.87393466871E+01  0.79970016666E+02  0.00000000000E+00 0. -1.
         -3    1    6    6    0  503 -0.43806260093E+03 -0.14817100382E+02 -0.20224397210E+03  0.48272250108E+03  0.00000000000E+00 0.  1.
<mgrwt>
<rscale>  0 0.19090708E+04</rscale>
<asrwt>0</asrwt>
<pdfrwt beam="1">  1        1 0.13781751E+00 0.19090708E+04</pdfrwt>
<pdfrwt beam="2">  1       -2 0.15647789E+00 0.19090708E+04</pdfrwt>
<totfact> 0.40199859E+00</totfact>
</mgrwt>
</event>
<event>
12    5  0.5428626E-008  0.1781401E+04  0.7818608E-02  0.8716253E-01
         -2   -1    0    0    0  501 -0.00000000000E+00  0.00000000000E+00  0.86077537010E+03  0.86077537010E+03  0.00000000000E+00 0.  1.
          1   -1    0    0  501    0  0.00000000000E+00 -0.00000000000E+00 -0.92166557529E+03  0.92166557529E+03  0.00000000000E+00 0. -1.
        -24    2    1    2    0    0  0.43034250558E+03  0.33405241588E+03  0.35178014535E+03  0.65340003682E+03  0.79979052219E+02 0.  0.
        254    2    1    2    0    0 -0.43034250558E+03 -0.33405241588E+03 -0.41267035055E+03  0.11290409086E+04  0.89869397814E+03 0.  0.
         23    2    4    4    0    0  0.41152228307E+02  0.18329468442E+03  0.12331601384E+03  0.24284725873E+03  0.92073365164E+02 0.  0.
         23    2    4    4    0    0 -0.47149473389E+03 -0.51734710030E+03 -0.53598636439E+03  0.88619364984E+03  0.90013865213E+02 0.  0.
          3    1    3    3  502    0  0.75470637393E+01  0.53819115129E+00 -0.34159543728E+01  0.83016001516E+01  0.00000000000E+00 0. -1.
         -4    1    3    3    0  502  0.42279544184E+03  0.33351422473E+03  0.35519609972E+03  0.64509843667E+03  0.00000000000E+00 0.  1.
         13    1    5    5    0    0  0.41878532091E+02  0.19122614195E+03  0.10337975646E+03  0.22137891241E+03  0.00000000000E+00 0. -1.
        -13    1    5    5    0    0 -0.72630378311E+00 -0.79314575227E+01  0.19936257379E+02  0.21468346324E+02  0.00000000000E+00 0.  1.
          3    1    6    6  503    0 -0.19141269719E+03 -0.25376988445E+03 -0.28515057396E+03  0.42702321334E+03  0.00000000000E+00 0. -1.
         -3    1    6    6    0  503 -0.28008203670E+03 -0.26357721585E+03 -0.25083579043E+03  0.45917043650E+03  0.00000000000E+00 0.  1.
<mgrwt>
<rscale>  0 0.17814006E+04</rscale>
<asrwt>0</asrwt>
<pdfrwt beam="1">  1        1 0.14179470E+00 0.17814006E+04</pdfrwt>
<pdfrwt beam="2">  1       -2 0.13242698E+00 0.17814006E+04</pdfrwt>
<totfact> 0.59952432E+00</totfact>
</mgrwt>
</event>
<event>
12    5  0.5428626E-008  0.1770809E+04  0.7818608E-02  0.8721979E-01
          1   -1    0    0  501    0  0.00000000000E+00  0.00000000000E+00  0.16319732293E+04  0.16319732293E+04  0.00000000000E+00 0. -1.
         -2   -1    0    0    0  501 -0.00000000000E+00 -0.00000000000E+00 -0.48036375380E+03  0.48036375380E+03  0.00000000000E+00 0.  1.
        -24    2    1    2    0    0 -0.33534294947E+03 -0.55261869267E+03  0.57087791233E+03  0.86515052454E+03  0.68858740033E+02 0.  0.
        254    2    1    2    0    0  0.33534294947E+03  0.55261869267E+03  0.58073156318E+03  0.12471864586E+04  0.89464104574E+03 0.  0.
         23    2    4    4    0    0 -0.24006363985E+03  0.42405649473E+03  0.35580247119E+03  0.61013470318E+03  0.90633854761E+02 0.  0.
         23    2    4    4    0    0  0.57540658932E+03  0.12856219794E+03  0.22492909200E+03  0.63705175539E+03  0.87297542012E+02 0.  0.
          1    1    3    3  502    0 -0.11028832536E+03 -0.18840051659E+03  0.15069133549E+03  0.26526618321E+03  0.00000000000E+00 0. -1.
         -2    1    3    3    0  502 -0.22505462412E+03 -0.36421817608E+03  0.42018657683E+03  0.59988434133E+03  0.00000000000E+00 0.  1.
         13    1    5    5    0    0 -0.35718956035E+02  0.14660443409E+03  0.11587900650E+03  0.19025416700E+03  0.00000000000E+00 0.  1.
        -13    1    5    5    0    0 -0.20434468382E+03  0.27745206063E+03  0.23992346469E+03  0.41988053618E+03  0.00000000000E+00 0. -1.
          1    1    6    6  503    0  0.57104900759E+03  0.12407613976E+03  0.21016255138E+03  0.62101542294E+03  0.00000000000E+00 0. -1.
         -1    1    6    6    0  503  0.43575817313E+01  0.44860581782E+01  0.14766540617E+02  0.16036332446E+02  0.00000000000E+00 0.  1.
<mgrwt>
<rscale>  0 0.17708086E+04</rscale>
<asrwt>0</asrwt>
<pdfrwt beam="1">  1        1 0.25107280E+00 0.17708086E+04</pdfrwt>
<pdfrwt beam="2">  1       -2 0.73902117E-01 0.17708086E+04</pdfrwt>
<totfact> 0.72669398E+00</totfact>
</mgrwt>
</event>
<event>
12    5  0.5428626E-008  0.1271764E+04  0.7818608E-02  0.9052261E-01
         -2   -1    0    0    0  501 -0.00000000000E+00  0.00000000000E+00  0.18959714656E+03  0.18959714656E+03  0.00000000000E+00 0.  1.
          1   -1    0    0  501    0  0.00000000000E+00 -0.00000000000E+00 -0.21326598404E+04  0.21326598404E+04  0.00000000000E+00 0. -1.
        -24    2    1    2    0    0 -0.27153529972E+03  0.14373933642E+03 -0.52968820706E+03  0.61752053368E+03  0.79809755028E+02 0.  0.
        254    2    1    2    0    0  0.27153529972E+03 -0.14373933642E+03 -0.14133744868E+04  0.17047364533E+04  0.90227851543E+03 0.  0.
         23    2    4    4    0    0  0.10364345019E+03  0.37459316921E+03 -0.54837624585E+03  0.67858002291E+03  0.93232683573E+02 0.  0.
         23    2    4    4    0    0  0.16789184953E+03 -0.51833250563E+03 -0.86499824092E+03  0.10261564304E+04  0.88987657811E+02 0.  0.
          3    1    3    3  502    0 -0.23259278979E+01  0.26952953659E+01 -0.46913157727E+02  0.47048049116E+02  0.00000000000E+00 0. -1.
         -4    1    3    3    0  502 -0.26920937182E+03  0.14104404106E+03 -0.48277504933E+03  0.57047248457E+03  0.00000000000E+00 0.  1.
         13    1    5    5    0    0  0.48074169916E+02  0.30263209783E+03 -0.45207635167E+03  0.54614131888E+03  0.00000000000E+00 0. -1.
        -13    1    5    5    0    0  0.55569280273E+02  0.71961071385E+02 -0.96299894180E+02  0.13243870403E+03  0.00000000000E+00 0.  1.
          1    1    6    6  503    0  0.84215096745E+02 -0.19328583444E+03 -0.26480084956E+03  0.33848350955E+03  0.00000000000E+00 0. -1.
         -1    1    6    6    0  503  0.83676752784E+02 -0.32504667119E+03 -0.60019739136E+03  0.68767292081E+03  0.00000000000E+00 0.  1.
<mgrwt>
<rscale>  0 0.12717645E+04</rscale>
<asrwt>0</asrwt>
<pdfrwt beam="1">  1        1 0.32810151E+00 0.12717645E+04</pdfrwt>
<pdfrwt beam="2">  1       -2 0.29168792E-01 0.12717645E+04</pdfrwt>
<totfact> 0.22665274E+01</totfact>
</mgrwt>
</event>
<event>
12    5  0.5428626E-008  0.2113314E+04  0.7818608E-02  0.8555401E-01
         -2   -1    0    0    0  501 -0.00000000000E+00  0.00000000000E+00  0.69481459855E+03  0.69481459855E+03  0.00000000000E+00 0.  1.
          1   -1    0    0  501    0  0.00000000000E+00 -0.00000000000E+00 -0.16069385952E+04  0.16069385952E+04  0.00000000000E+00 0. -1.
        -24    2    1    2    0    0 -0.39584612957E+03 -0.21152138829E+03  0.42840678462E+03  0.62545295235E+03  0.78889584247E+02 0.  0.
        254    2    1    2    0    0  0.39584612957E+03  0.21152138829E+03 -0.13405307813E+04  0.16763002414E+04  0.90084641743E+03 0.  0.
         23    2    4    4    0    0 -0.31700493513E+01 -0.27488601048E+03 -0.76774185325E+03  0.82057856234E+03  0.91374262100E+02 0.  0.
         23    2    4    4    0    0  0.39901617892E+03  0.48640739876E+03 -0.57278892804E+03  0.85572167907E+03  0.91467848679E+02 0.  0.
          1    1    3    3  502    0 -0.44269779943E+02 -0.49716575983E+02  0.85605441080E+02  0.10844280929E+03  0.00000000000E+00 0. -1.
         -2    1    3    3    0  502 -0.35157634963E+03 -0.16180481230E+03  0.34280134354E+03  0.51701014307E+03  0.00000000000E+00 0.  1.
         13    1    5    5    0    0 -0.72585881398E+01  0.51822029554E+01 -0.15518976264E+02  0.17899188627E+02  0.00000000000E+00 0.  1.
        -13    1    5    5    0    0  0.40885387885E+01 -0.28006821343E+03 -0.75222287698E+03  0.80267937371E+03  0.00000000000E+00 0. -1.
          3    1    6    6  503    0  0.33769625295E+03  0.41180657531E+03 -0.43595919347E+03  0.68824692741E+03  0.00000000000E+00 0. -1.
         -3    1    6    6    0  503  0.61319925973E+02  0.74600823449E+02 -0.13682973457E+03  0.16747475166E+03  0.00000000000E+00 0.  1.
<mgrwt>
<rscale>  0 0.21133144E+04</rscale>
<asrwt>0</asrwt>
<pdfrwt beam="1">  1        1 0.24722132E+00 0.21133144E+04</pdfrwt>
<pdfrwt beam="2">  1       -2 0.10689455E+00 0.21133144E+04</pdfrwt>
<totfact> 0.31342340E+00</totfact>
</mgrwt>
</event>
<event>
12    5  0.5428626E-008  0.2246191E+04  0.7818608E-02  0.8499445E-01
          1   -1    0    0  501    0  0.00000000000E+00  0.00000000000E+00  0.13244795130E+04  0.13244795130E+04  0.00000000000E+00 0. -1.
         -2   -1    0    0    0  501 -0.00000000000E+00 -0.00000000000E+00 -0.95233123851E+03  0.95233123851E+03  0.00000000000E+00 0.  1.
        -24    2    1    2    0    0  0.68276224751E+02  0.17527256637E+03  0.10983254525E+04  0.11172611428E+04  0.81065073922E+02 0.  0.
        254    2    1    2    0    0 -0.68276224751E+02 -0.17527256637E+03 -0.72617717792E+03  0.11595496088E+04  0.88421710351E+03 0.  0.
         23    2    4    4    0    0 -0.39026477274E+03 -0.20638397251E+03 -0.68673036779E+03  0.82107917549E+03  0.87586970666E+02 0.  0.
         23    2    4    4    0    0  0.32198854799E+03  0.31111406141E+02 -0.39446810134E+02  0.33847043331E+03  0.91441996719E+02 0.  0.
          1    1    3    3  502    0  0.55639680681E+02  0.18053588664E+03  0.97137846359E+03  0.98957824348E+03  0.00000000000E+00 0. -1.
         -2    1    3    3    0  502  0.12636544070E+02 -0.52633202767E+01  0.12694698887E+03  0.12768289928E+03  0.00000000000E+00 0.  1.
         13    1    5    5    0    0 -0.63324099435E+02  0.15226086648E+00 -0.92749184935E+02  0.11230483542E+03  0.00000000000E+00 0.  1.
        -13    1    5    5    0    0 -0.32694067331E+03 -0.20653623337E+03 -0.59398118286E+03  0.70877434007E+03  0.00000000000E+00 0. -1.
          3    1    6    6  503    0  0.35657593257E+02  0.34659248633E+02 -0.85380326000E+01  0.50454191831E+02  0.00000000000E+00 0. -1.
         -3    1    6    6    0  503  0.28633095473E+03 -0.35478424920E+01 -0.30908777534E+02  0.28801624148E+03  0.00000000000E+00 0.  1.
<mgrwt>
<rscale>  0 0.22461907E+04</rscale>
<asrwt>0</asrwt>
<pdfrwt beam="1">  1        1 0.20376608E+00 0.22461907E+04</pdfrwt>
<pdfrwt beam="2">  1       -2 0.14651250E+00 0.22461907E+04</pdfrwt>
<totfact> 0.22079016E+00</totfact>
</mgrwt>
</event>
<event>
12    5  0.5428626E-008  0.2047003E+04  0.7818608E-02  0.8584955E-01
          1   -1    0    0  501    0  0.00000000000E+00  0.00000000000E+00  0.41148517057E+04  0.41148517057E+04  0.00000000000E+00 0. -1.
         -2   -1    0    0    0  501 -0.00000000000E+00 -0.00000000000E+00 -0.25457903134E+03  0.25457903134E+03  0.00000000000E+00 0.  1.
        -24    2    1    2    0    0 -0.65062890187E+02  0.78999472376E+03  0.10870644939E+04  0.13475248976E+04  0.76087399460E+02 0.  0.
        254    2    1    2    0    0  0.65062890187E+02 -0.78999472376E+03  0.27732081805E+04  0.30219058395E+04  0.90161324709E+03 0.  0.
         23    2    4    4    0    0 -0.28236873594E+03  0.30452093167E+02  0.60092745924E+03  0.67225655355E+03  0.10077514330E+03 0.  0.
         23    2    4    4    0    0  0.34743162613E+03 -0.82044681693E+03  0.21722807212E+04  0.23496492860E+04  0.90589849810E+02 0.  0.
          3    1    3    3  502    0 -0.24905167638E+02  0.66644939766E+02  0.81816128586E+02  0.10842367946E+03  0.00000000000E+00 0. -1.
         -4    1    3    3    0  502 -0.40157722549E+02  0.72334978400E+03  0.10052483653E+04  0.12391012181E+04  0.00000000000E+00 0.  1.
         13    1    5    5    0    0 -0.34747259502E+02  0.38641622499E+02  0.13286447029E+03  0.14266574396E+03  0.00000000000E+00 0. -1.
        -13    1    5    5    0    0 -0.24762147644E+03 -0.81895293318E+01  0.46806298894E+03  0.52959080959E+03  0.00000000000E+00 0.  1.
          1    1    6    6  503    0  0.78600020347E+02 -0.15755164409E+03  0.34476833945E+03  0.38712490445E+03  0.00000000000E+00 0. -1.
         -1    1    6    6    0  503  0.26883160578E+03 -0.66289517284E+03  0.18275123818E+04  0.19625243815E+04  0.00000000000E+00 0.  1.
<mgrwt>
<rscale>  0 0.20470026E+04</rscale>
<asrwt>0</asrwt>
<pdfrwt beam="1">  1        1 0.63305406E+00 0.20470026E+04</pdfrwt>
<pdfrwt beam="2">  1       -2 0.39166008E-01 0.20470026E+04</pdfrwt>
<totfact> 0.38223692E-01</totfact>
</mgrwt>
</event>
<event>
12    5  0.5428626E-008  0.1878979E+04  0.7818608E-02  0.8665391E-01
          1   -1    0    0  501    0  0.00000000000E+00  0.00000000000E+00  0.16021308422E+04  0.16021308422E+04  0.00000000000E+00 0. -1.
         -2   -1    0    0    0  501 -0.00000000000E+00 -0.00000000000E+00 -0.55091670630E+03  0.55091670630E+03  0.00000000000E+00 0.  1.
        -24    2    1    2    0    0  0.44465512770E+03  0.42906294256E+03 -0.18658529092E+02  0.62347848490E+03  0.81019066653E+02 0.  0.
        254    2    1    2    0    0 -0.44465512770E+03 -0.42906294256E+03  0.10698726650E+04  0.15295690636E+04  0.90174320610E+03 0.  0.
         23    2    4    4    0    0  0.19038053008E+03 -0.38240519921E+03  0.31692335105E+03  0.53945762792E+03  0.89975770401E+02 0.  0.
         23    2    4    4    0    0 -0.63503565778E+03 -0.46657743348E+02  0.75294931393E+03  0.99011143567E+03  0.89110908564E+02 0.  0.
          3    1    3    3  502    0  0.11096500266E+03  0.62839800951E+02 -0.10638426351E+02  0.12796580994E+03  0.00000000000E+00 0. -1.
         -4    1    3    3    0  502  0.33369012504E+03  0.36622314161E+03 -0.80201027410E+01  0.49551267496E+03  0.00000000000E+00 0.  1.
         13    1    5    5    0    0  0.63276948380E+02 -0.14974731200E+03  0.17456956598E+03  0.23854300035E+03  0.00000000000E+00 0. -1.
        -13    1    5    5    0    0  0.12710358170E+03 -0.23265788721E+03  0.14235378507E+03  0.30091462757E+03  0.00000000000E+00 0.  1.
          4    1    6    6  503    0 -0.54577031231E+01  0.34924703758E+01 -0.10319266331E+01  0.65611542645E+01  0.00000000000E+00 0. -1.
         -4    1    6    6    0  503 -0.62957795466E+03 -0.50150213723E+02  0.75398124057E+03  0.98355028141E+03  0.00000000000E+00 0.  1.
<mgrwt>
<rscale>  0 0.18789791E+04</rscale>
<asrwt>0</asrwt>
<pdfrwt beam="1">  1        1 0.24648167E+00 0.18789791E+04</pdfrwt>
<pdfrwt beam="2">  1       -2 0.84756417E-01 0.18789791E+04</pdfrwt>
<totfact> 0.55489527E+00</totfact>
</mgrwt>
</event>
<event>
12    5  0.5428626E-008  0.2562232E+04  0.7818608E-02  0.8381144E-01
          1   -1    0    0  501    0  0.00000000000E+00  0.00000000000E+00  0.36207618175E+04  0.36207618175E+04  0.00000000000E+00 0. -1.
         -2   -1    0    0    0  501 -0.00000000000E+00 -0.00000000000E+00 -0.45329100845E+03  0.45329100845E+03  0.00000000000E+00 0.  1.
        -24    2    1    2    0    0  0.39785700049E+03  0.40777096580E+03 -0.10091282763E+03  0.58498537468E+03  0.86354712804E+02 0.  0.
        254    2    1    2    0    0 -0.39785700049E+03 -0.40777096580E+03  0.32683836367E+04  0.34890674513E+04  0.10801355145E+04 0.  0.
         23    2    4    4    0    0 -0.64469747795E+03 -0.53049482313E+03  0.29033592113E+04  0.30224108414E+04  0.91722347245E+02 0.  0.
         23    2    4    4    0    0  0.24684047745E+03  0.12272385733E+03  0.36502442543E+03  0.46665660990E+03  0.92380701115E+02 0.  0.
          1    1    3    3  502    0  0.21787916987E+02  0.60425751531E+01 -0.17112681577E+02  0.28356126532E+02  0.00000000000E+00 0. -1.
         -2    1    3    3    0  502  0.37606908350E+03  0.40172839065E+03 -0.83800146052E+02  0.55662924815E+03  0.00000000000E+00 0.  1.
         13    1    5    5    0    0 -0.98318566069E+02 -0.10718498008E+03  0.41041872374E+03  0.43542931595E+03  0.00000000000E+00 0. -1.
        -13    1    5    5    0    0 -0.54637891188E+03 -0.42330984305E+03  0.24929404876E+04  0.25869815255E+04  0.00000000000E+00 0.  1.
          4    1    6    6  503    0  0.53506763682E+02  0.52302512478E+02  0.48619359824E+02  0.89232105887E+02  0.00000000000E+00 0. -1.
         -4    1    6    6    0  503  0.19333371377E+03  0.70421344853E+02  0.31640506560E+03  0.37742450401E+03  0.00000000000E+00 0.  1.
<mgrwt>
<rscale>  0 0.25622324E+04</rscale>
<asrwt>0</asrwt>
<pdfrwt beam="1">  1        1 0.55704026E+00 0.25622324E+04</pdfrwt>
<pdfrwt beam="2">  1       -2 0.69737081E-01 0.25622324E+04</pdfrwt>
<totfact> 0.29179025E-01</totfact>
</mgrwt>
</event>
<event>
12    5  0.5428626E-008  0.1895562E+04  0.7818608E-02  0.8657069E-01
          1   -1    0    0  501    0  0.00000000000E+00  0.00000000000E+00  0.18520312385E+04  0.18520312385E+04  0.00000000000E+00 0. -1.
         -2   -1    0    0    0  501 -0.00000000000E+00 -0.00000000000E+00 -0.48502904373E+03  0.48502904373E+03  0.00000000000E+00 0.  1.
        -24    2    1    2    0    0 -0.23038935607E+03  0.59874886269E+03  0.97518600510E+02  0.65298287971E+03  0.72782606347E+02 0.  0.
        254    2    1    2    0    0  0.23038935607E+03 -0.59874886269E+03  0.12694835943E+04  0.16840774026E+04  0.90163664836E+03 0.  0.
         23    2    4    4    0    0 -0.92512445252E+02 -0.22356454923E+03 -0.57059894914E+02  0.26513705445E+03  0.92207189721E+02 0.  0.
         23    2    4    4    0    0  0.32290180132E+03 -0.37518431345E+03  0.13265434892E+04  0.14189403481E+04  0.92979784707E+02 0.  0.
          3    1    3    3  502    0 -0.45778451434E+01  0.55300819367E+02  0.21875030599E+02  0.59646074913E+02  0.00000000000E+00 0. -1.
         -4    1    3    3    0  502 -0.22581151093E+03  0.54344804332E+03  0.75643569911E+02  0.59333680479E+03  0.00000000000E+00 0.  1.
         13    1    5    5    0    0 -0.49710266061E+02 -0.12445155234E+03  0.15727101561E+02  0.13493198714E+03  0.00000000000E+00 0. -1.
        -13    1    5    5    0    0 -0.42802179192E+02 -0.99112996894E+02 -0.72786996475E+02  0.13020506731E+03  0.00000000000E+00 0.  1.
          2    1    6    6  503    0  0.74481655429E+02 -0.14782400932E+03  0.38911206802E+03  0.42285654330E+03  0.00000000000E+00 0.  1.
         -2    1    6    6    0  503  0.24842014589E+03 -0.22736030414E+03  0.93743142119E+03  0.99608380481E+03  0.00000000000E+00 0. -1.
<mgrwt>
<rscale>  0 0.18955621E+04</rscale>
<asrwt>0</asrwt>
<pdfrwt beam="1">  1        1 0.28492788E+00 0.18955621E+04</pdfrwt>
<pdfrwt beam="2">  1       -2 0.74619854E-01 0.18955621E+04</pdfrwt>
<totfact> 0.49838483E+00</totfact>
</mgrwt>
</event>
<event>
12    5  0.5428626E-008  0.1787867E+04  0.7818608E-02  0.8712778E-01
          3   -1    0    0  501    0  0.00000000000E+00  0.00000000000E+00  0.14912726648E+04  0.14912726648E+04  0.00000000000E+00 0. -1.
         -4   -1    0    0    0  501 -0.00000000000E+00 -0.00000000000E+00 -0.53586244976E+03  0.53586244976E+03  0.00000000000E+00 0.  1.
        -24    2    1    2    0    0 -0.27545585927E+03 -0.27171222528E+03 -0.25350536955E+03  0.46949107527E+03  0.80333265763E+02 0.  0.
        254    2    1    2    0    0  0.27545585927E+03  0.27171222528E+03  0.12089155846E+04  0.15576440393E+04  0.90281481971E+03 0.  0.
         23    2    4    4    0    0  0.42624561235E+03  0.28383175087E+03  0.12690002635E+04  0.13715042842E+04  0.91741746102E+02 0.  0.
         23    2    4    4    0    0 -0.15078975308E+03 -0.12119525588E+02 -0.60084678906E+02  0.18613975509E+03  0.90296219483E+02 0.  0.
          3    1    3    3  502    0 -0.19592902272E+03 -0.23591531361E+03 -0.18116209933E+03  0.35617962235E+03  0.00000000000E+00 0. -1.
         -2    1    3    3    0  502 -0.79526836549E+02 -0.35796911674E+02 -0.72343270218E+02  0.11331145292E+03  0.00000000000E+00 0.  1.
         13    1    5    5    0    0  0.30385012751E+03  0.23422185562E+03  0.10177584955E+04  0.10876659105E+04  0.00000000000E+00 0.  1.
        -13    1    5    5    0    0  0.12239548484E+03  0.49609895250E+02  0.25124176800E+03  0.28383837373E+03  0.00000000000E+00 0. -1.
          3    1    6    6  503    0 -0.20463183063E+02 -0.28391402299E+02 -0.40208105861E+02  0.53305772319E+02  0.00000000000E+00 0. -1.
         -3    1    6    6    0  503 -0.13032657001E+03  0.16271876711E+02 -0.19876573044E+02  0.13283398277E+03  0.00000000000E+00 0.  1.
<mgrwt>
<rscale>  0 0.17878669E+04</rscale>
<asrwt>0</asrwt>
<pdfrwt beam="1">  1        3 0.22942656E+00 0.17878669E+04</pdfrwt>
<pdfrwt beam="2">  1       -4 0.82440377E-01 0.17878669E+04</pdfrwt>
<totfact> 0.27348561E-01</totfact>
</mgrwt>
</event>
<event>
12    5  0.5428626E-008  0.2033382E+04  0.7818608E-02  0.8591171E-01
          1   -1    0    0  501    0  0.00000000000E+00  0.00000000000E+00  0.76233343909E+03  0.76233343909E+03  0.00000000000E+00 0. -1.
         -2   -1    0    0    0  501 -0.00000000000E+00 -0.00000000000E+00 -0.13559167806E+04  0.13559167806E+04  0.00000000000E+00 0.  1.
        -24    2    1    2    0    0 -0.51565671847E+02 -0.62482935633E+03  0.30418830728E+03  0.70143076261E+03  0.80024030134E+02 0.  0.
        254    2    1    2    0    0  0.51565671847E+02  0.62482935633E+03 -0.89777164879E+03  0.14168194571E+04  0.89906212108E+03 0.  0.
         23    2    4    4    0    0  0.39820608069E+03  0.61303666870E+03 -0.63545074550E+03  0.97293304661E+03  0.91755236150E+02 0.  0.
         23    2    4    4    0    0 -0.34664040885E+03  0.11792687630E+02 -0.26232090330E+03  0.44388641048E+03  0.89018248564E+02 0.  0.
          1    1    3    3  502    0 -0.13824421974E+02 -0.33629109361E+03  0.20450801219E+03  0.39383542417E+03  0.00000000000E+00 0. -1.
         -2    1    3    3    0  502 -0.37741249873E+02 -0.28853826272E+03  0.99680295091E+02  0.30759533843E+03  0.00000000000E+00 0.  1.
         13    1    5    5    0    0  0.29227578994E+03  0.39116382017E+03 -0.46039053834E+03  0.67111379020E+03  0.00000000000E+00 0.  1.
        -13    1    5    5    0    0  0.10593029076E+03  0.22187284853E+03 -0.17506020715E+03  0.30181925641E+03  0.00000000000E+00 0. -1.
          1    1    6    6  503    0 -0.98678742378E+02 -0.33746659624E+02 -0.57689943491E+02  0.11918246856E+03  0.00000000000E+00 0. -1.
         -1    1    6    6    0  503 -0.24796166647E+03  0.45539347253E+02 -0.20463095980E+03  0.32470394192E+03  0.00000000000E+00 0.  1.
<mgrwt>
<rscale>  0 0.20333821E+04</rscale>
<asrwt>0</asrwt>
<pdfrwt beam="1">  1        1 0.11728207E+00 0.20333821E+04</pdfrwt>
<pdfrwt beam="2">  1       -2 0.20860258E+00 0.20333821E+04</pdfrwt>
<totfact> 0.22607760E+00</totfact>
</mgrwt>
</event>
<event>
12    5  0.5428626E-008  0.2142515E+04  0.7818608E-02  0.8542743E-01
          1   -1    0    0  501    0  0.00000000000E+00  0.00000000000E+00  0.84480062249E+03  0.84480062249E+03  0.00000000000E+00 0. -1.
         -2   -1    0    0    0  501 -0.00000000000E+00 -0.00000000000E+00 -0.13584181796E+04  0.13584181796E+04  0.00000000000E+00 0.  1.
        -24    2    1    2    0    0 -0.96372379481E+02  0.25659069870E+02 -0.11138228226E+04  0.11211373386E+04  0.80010178542E+02 0.  0.
        254    2    1    2    0    0  0.96372379481E+02 -0.25659069870E+02  0.60020526540E+03  0.10820814635E+04  0.89482283699E+03 0.  0.
         23    2    4    4    0    0 -0.25397215593E+03  0.26511720989E+03  0.46252929041E+03  0.59743267813E+03  0.90573006146E+02 0.  0.
         23    2    4    4    0    0  0.35034453541E+03 -0.29077627976E+03  0.13767597499E+03  0.48464878536E+03  0.92938865378E+02 0.  0.
          1    1    3    3  502    0 -0.45807535179E+02  0.51899222507E+02 -0.51979397379E+03  0.52438309924E+03  0.00000000000E+00 0. -1.
         -2    1    3    3    0  502 -0.50564844302E+02 -0.26240152637E+02 -0.59402884876E+03  0.59675423941E+03  0.00000000000E+00 0.  1.
         13    1    5    5    0    0 -0.25587777731E+03  0.25907824661E+03  0.46502206907E+03  0.59062720857E+03  0.00000000000E+00 0. -1.
        -13    1    5    5    0    0  0.19056213801E+01  0.60389632824E+01 -0.24927786630E+01  0.68054695527E+01  0.00000000000E+00 0.  1.
          3    1    6    6  503    0  0.89203154580E+02 -0.96361337985E+02  0.80726923748E+02  0.15414131978E+03  0.00000000000E+00 0. -1.
         -3    1    6    6    0  503  0.26114138083E+03 -0.19441494177E+03  0.56949051245E+02  0.33050746558E+03  0.00000000000E+00 0.  1.
<mgrwt>
<rscale>  0 0.21425149E+04</rscale>
<asrwt>0</asrwt>
<pdfrwt beam="1">  1        1 0.12996933E+00 0.21425149E+04</pdfrwt>
<pdfrwt beam="2">  1       -2 0.20898741E+00 0.21425149E+04</pdfrwt>
<totfact> 0.18879622E+00</totfact>
</mgrwt>
</event>
<event>
12    5  0.5428626E-008  0.1487312E+04  0.7818608E-02  0.8892934E-01
         -2   -1    0    0    0  501 -0.00000000000E+00  0.00000000000E+00  0.35197446133E+03  0.35197446133E+03  0.00000000000E+00 0.  1.
          1   -1    0    0  501    0  0.00000000000E+00 -0.00000000000E+00 -0.15712060092E+04  0.15712060092E+04  0.00000000000E+00 0. -1.
        -24    2    1    2    0    0  0.28624135322E+03 -0.23967967426E+02  0.88886561637E+02  0.31079654464E+03  0.78645378509E+02 0.  0.
        254    2    1    2    0    0 -0.28624135322E+03  0.23967967426E+02 -0.13081181095E+04  0.16123839259E+04  0.89783091966E+03 0.  0.
         23    2    4    4    0    0 -0.52358349409E+03  0.21350374312E+03 -0.10784878453E+04  0.12208950380E+04  0.87892762730E+02 0.  0.
         23    2    4    4    0    0  0.23734214087E+03 -0.18953577569E+03 -0.22963026425E+03  0.39148888793E+03  0.90985652795E+02 0.  0.
          3    1    3    3  502    0  0.14261747351E+03 -0.51106849875E+02  0.40285853384E+02  0.15676289050E+03  0.00000000000E+00 0. -1.
         -4    1    3    3    0  502  0.14362387971E+03  0.27138882449E+02  0.48600708253E+02  0.15403365413E+03  0.00000000000E+00 0.  1.
         13    1    5    5    0    0 -0.23356897214E+03  0.52182812106E+02 -0.48852848281E+03  0.54400146061E+03  0.00000000000E+00 0. -1.
        -13    1    5    5    0    0 -0.29001452195E+03  0.16132093101E+03 -0.58995936249E+03  0.67689357739E+03  0.00000000000E+00 0.  1.
          1    1    6    6  503    0  0.12107627975E+03 -0.39840610289E+02 -0.88456800437E+02  0.15514942891E+03  0.00000000000E+00 0. -1.
         -1    1    6    6    0  503  0.11626586111E+03 -0.14969516540E+03 -0.14117346381E+03  0.23633945902E+03  0.00000000000E+00 0.  1.
<mgrwt>
<rscale>  0 0.14873122E+04</rscale>
<asrwt>0</asrwt>
<pdfrwt beam="1">  1        1 0.24172400E+00 0.14873122E+04</pdfrwt>
<pdfrwt beam="2">  1       -2 0.54149917E-01 0.14873122E+04</pdfrwt>
<totfact> 0.15938057E+01</totfact>
</mgrwt>
</event>
<event>
12    5  0.5428626E-008  0.1642718E+04  0.7818608E-02  0.8794726E-01
         -4   -1    0    0    0  501 -0.00000000000E+00  0.00000000000E+00  0.35450259048E+03  0.35450259048E+03  0.00000000000E+00 0.  1.
          1   -1    0    0  501    0  0.00000000000E+00 -0.00000000000E+00 -0.19030335550E+04  0.19030335550E+04  0.00000000000E+00 0. -1.
        -24    2    1    2    0    0  0.46474795325E+03  0.94378445287E+02 -0.10707201565E+03  0.49252139941E+03  0.78835026197E+02 0.  0.
        254    2    1    2    0    0 -0.46474795325E+03 -0.94378445287E+02 -0.14414589489E+04  0.17650147461E+04  0.90142953225E+03 0.  0.
         23    2    4    4    0    0 -0.41083352618E+03  0.25147861724E+03 -0.12754429772E+04  0.13671439966E+04  0.10149994101E+03 0.  0.
         23    2    4    4    0    0 -0.53914427068E+02 -0.34585706253E+03 -0.16601597168E+03  0.39787074954E+03  0.90641918235E+02 0.  0.
          1    1    3    3  502    0  0.55059682250E+02  0.14608480517E+02  0.12560204470E+02  0.58332967083E+02  0.00000000000E+00 0. -1.
         -4    1    3    3    0  502  0.40968827100E+03  0.79769964771E+02 -0.11963222011E+03  0.43418843233E+03  0.00000000000E+00 0.  1.
         13    1    5    5    0    0 -0.40450933600E+03  0.25412586514E+03 -0.12732960983E+04  0.13599598201E+04  0.00000000000E+00 0. -1.
        -13    1    5    5    0    0 -0.63241901876E+01 -0.26472479004E+01 -0.21468789348E+01  0.71841765106E+01  0.00000000000E+00 0.  1.
          4    1    6    6  503    0 -0.54336018152E+02 -0.26312829883E+03 -0.84316332438E+02  0.28159926922E+03  0.00000000000E+00 0. -1.
         -4    1    6    6    0  503  0.42159108468E+00 -0.82728763703E+02 -0.81699639246E+02  0.11627148032E+03  0.00000000000E+00 0.  1.
<mgrwt>
<rscale>  0 0.16427177E+04</rscale>
<asrwt>0</asrwt>
<pdfrwt beam="1">  1        1 0.29277440E+00 0.16427177E+04</pdfrwt>
<pdfrwt beam="2">  1       -4 0.54538859E-01 0.16427177E+04</pdfrwt>
<totfact> 0.52599847E+00</totfact>
</mgrwt>
</event>
<event>
12    5  0.5428626E-008  0.1592979E+04  0.7818608E-02  0.8824873E-01
         -2   -1    0    0    0  501 -0.00000000000E+00  0.00000000000E+00  0.28680469662E+03  0.28680469662E+03  0.00000000000E+00 0.  1.
          1   -1    0    0  501    0  0.00000000000E+00 -0.00000000000E+00 -0.22119413084E+04  0.22119413084E+04  0.00000000000E+00 0. -1.
        -24    2    1    2    0    0 -0.45962862848E+03  0.24262100240E+03 -0.44347551241E+03  0.68781737018E+03  0.79364839157E+02 0.  0.
        254    2    1    2    0    0  0.45962862848E+03 -0.24262100240E+03 -0.14816610994E+04  0.18109286348E+04  0.90223028110E+03 0.  0.
         23    2    4    4    0    0  0.59245574273E+03 -0.47041624695E+03 -0.10990028943E+04  0.13373553836E+04  0.91743162271E+02 0.  0.
         23    2    4    4    0    0 -0.13282711424E+03  0.22779524455E+03 -0.38265820505E+03  0.47357325124E+03  0.91162528895E+02 0.  0.
          1    1    3    3  502    0 -0.29058917280E+03  0.14345819653E+03 -0.32419281886E+03  0.45839208686E+03  0.00000000000E+00 0. -1.
         -2    1    3    3    0  502 -0.16903945569E+03  0.99162805872E+02 -0.11928269355E+03  0.22942528332E+03  0.00000000000E+00 0.  1.
         13    1    5    5    0    0  0.54154391840E+03 -0.40324683267E+03 -0.10088289034E+04  0.12139248658E+04  0.00000000000E+00 0. -1.
        -13    1    5    5    0    0  0.50911824323E+02 -0.67169414288E+02 -0.90173990962E+02  0.12343051777E+03  0.00000000000E+00 0.  1.
          4    1    6    6  503    0 -0.91185200805E+02  0.21570928532E+03 -0.33912741163E+03  0.41213182107E+03  0.00000000000E+00 0. -1.
         -4    1    6    6    0  503 -0.41641913436E+02  0.12085959236E+02 -0.43530793424E+02  0.61441430171E+02  0.00000000000E+00 0.  1.
<mgrwt>
<rscale>  0 0.15929785E+04</rscale>
<asrwt>0</asrwt>
<pdfrwt beam="1">  1        1 0.34029866E+00 0.15929785E+04</pdfrwt>
<pdfrwt beam="2">  1       -2 0.44123799E-01 0.15929785E+04</pdfrwt>
<totfact> 0.87876399E+00</totfact>
</mgrwt>
</event>
<event>
12    5  0.5428626E-008  0.2196337E+04  0.7818608E-02  0.8519954E-01
          1   -1    0    0  501    0  0.00000000000E+00  0.00000000000E+00  0.27864150689E+04  0.27864150689E+04  0.00000000000E+00 0. -1.
         -2   -1    0    0    0  501 -0.00000000000E+00 -0.00000000000E+00 -0.43280482563E+03  0.43280482563E+03  0.00000000000E+00 0.  1.
        -24    2    1    2    0    0 -0.87073550701E+03 -0.92283125970E+02  0.13080798915E+04  0.15762098474E+04  0.81657712586E+02 0.  0.
        254    2    1    2    0    0  0.87073550701E+03  0.92283125970E+02  0.10455303518E+04  0.16430100471E+04  0.91632516059E+03 0.  0.
         23    2    4    4    0    0 -0.11069037699E+03 -0.18879888632E+03  0.13775120186E+03  0.27393951094E+03  0.90388511465E+02 0.  0.
         23    2    4    4    0    0  0.98142588401E+03  0.28108201229E+03  0.90777914991E+03  0.13690705362E+04  0.89929330986E+02 0.  0.
          1    1    3    3  502    0 -0.51072871119E+03 -0.73640204506E+02  0.83239308911E+03  0.97935945952E+03  0.00000000000E+00 0. -1.
         -2    1    3    3    0  502 -0.36000679583E+03 -0.18642921464E+02  0.47568680237E+03  0.59685038788E+03  0.00000000000E+00 0.  1.
         13    1    5    5    0    0 -0.26012943830E+02  0.26498600444E+01  0.68038802681E+01  0.27018286246E+02  0.00000000000E+00 0.  1.
        -13    1    5    5    0    0 -0.84677433162E+02 -0.19144874637E+03  0.13094732159E+03  0.24692122469E+03  0.00000000000E+00 0. -1.
          4    1    6    6  503    0  0.50398295080E+03  0.16605848772E+03  0.41819533378E+03  0.67561939969E+03  0.00000000000E+00 0. -1.
         -4    1    6    6    0  503  0.47744293321E+03  0.11502352458E+03  0.48958381613E+03  0.69345113649E+03  0.00000000000E+00 0.  1.
<mgrwt>
<rscale>  0 0.21963368E+04</rscale>
<asrwt>0</asrwt>
<pdfrwt beam="1">  1        1 0.42867923E+00 0.21963368E+04</pdfrwt>
<pdfrwt beam="2">  1       -2 0.66585359E-01 0.21963368E+04</pdfrwt>
<totfact> 0.14162108E+00</totfact>
</mgrwt>
</event>
<event>
12    5  0.5428626E-008  0.1097607E+04  0.7818608E-02  0.9207527E-01
          1   -1    0    0  501    0  0.00000000000E+00  0.00000000000E+00  0.20635103992E+04  0.20635103992E+04  0.00000000000E+00 0. -1.
         -2   -1    0    0    0  501 -0.00000000000E+00 -0.00000000000E+00 -0.14595783498E+03  0.14595783498E+03  0.00000000000E+00 0.  1.
        -24    2    1    2    0    0 -0.63183167715E+02 -0.11395356167E+03  0.16198211470E+03  0.22230793348E+03  0.78772361286E+02 0.  0.
        254    2    1    2    0    0  0.63183167715E+02  0.11395356167E+03  0.17555704495E+04  0.19871603007E+04  0.92184647886E+03 0.  0.
         23    2    4    4    0    0  0.38665022985E+03  0.93453144499E+02  0.15262694107E+04  0.15797414058E+04  0.88615488465E+02 0.  0.
         23    2    4    4    0    0 -0.32346706214E+03  0.20500417175E+02  0.22930103886E+03  0.40741889492E+03  0.91432937848E+02 0.  0.
          1    1    3    3  502    0 -0.21833821596E+02  0.72367984243E+01  0.35663054868E+02  0.42437489316E+02  0.00000000000E+00 0. -1.
         -2    1    3    3    0  502 -0.41349346119E+02 -0.12119036010E+03  0.12631905983E+03  0.17987044416E+03  0.00000000000E+00 0.  1.
         13    1    5    5    0    0  0.18323547506E+03  0.69542818724E+02  0.60394595870E+03  0.63495052089E+03  0.00000000000E+00 0.  1.
        -13    1    5    5    0    0  0.20341475479E+03  0.23910325774E+02  0.92232345197E+03  0.94479088490E+03  0.00000000000E+00 0. -1.
          4    1    6    6  503    0 -0.29687241980E+03  0.82578521911E+01  0.17232729704E+03  0.34336296112E+03  0.00000000000E+00 0. -1.
         -4    1    6    6    0  503 -0.26594642331E+02  0.12242564984E+02  0.56973741818E+02  0.64055933799E+02  0.00000000000E+00 0.  1.
<mgrwt>
<rscale>  0 0.10976074E+04</rscale>
<asrwt>0</asrwt>
<pdfrwt beam="1">  1        1 0.31746312E+00 0.10976074E+04</pdfrwt>
<pdfrwt beam="2">  1       -2 0.22455053E-01 0.10976074E+04</pdfrwt>
<totfact> 0.41241046E+01</totfact>
</mgrwt>
</event>
<event>
12    5  0.5428626E-008  0.1737960E+04  0.7818608E-02  0.8740005E-01
          1   -1    0    0  501    0  0.00000000000E+00  0.00000000000E+00  0.50619296630E+03  0.50619296630E+03  0.00000000000E+00 0. -1.
         -2   -1    0    0    0  501 -0.00000000000E+00 -0.00000000000E+00 -0.14917761936E+04  0.14917761936E+04  0.00000000000E+00 0.  1.
        -24    2    1    2    0    0 -0.12391242641E+03 -0.55754884511E+02  0.34888179242E+03  0.38304139236E+03  0.80865979324E+02 0.  0.
        254    2    1    2    0    0  0.12391242641E+03  0.55754884511E+02 -0.13344650197E+04  0.16149277675E+04  0.89929522902E+03 0.  0.
         23    2    4    4    0    0  0.38294029600E+02  0.46667334350E+03 -0.63772862427E+03  0.79643488346E+03  0.91434583989E+02 0.  0.
         23    2    4    4    0    0  0.85618396811E+02 -0.41091845899E+03 -0.69673639546E+03  0.81849288408E+03  0.91129066300E+02 0.  0.
          3    1    3    3  502    0 -0.13075849925E+03 -0.48632995354E+02  0.27361262829E+03  0.30712672258E+03  0.00000000000E+00 0. -1.
         -4    1    3    3    0  502  0.68460728428E+01 -0.71218891572E+01  0.75269164126E+02  0.75914669773E+02  0.00000000000E+00 0.  1.
         13    1    5    5    0    0  0.59040865990E+02  0.39031565844E+03 -0.56295023062E+03  0.68756461459E+03  0.00000000000E+00 0.  1.
        -13    1    5    5    0    0 -0.20746836390E+02  0.76357685061E+02 -0.74778393645E+02  0.10887026887E+03  0.00000000000E+00 0. -1.
          3    1    6    6  503    0  0.47721391238E+01 -0.72381382344E+02 -0.65875392616E+02  0.97986760198E+02  0.00000000000E+00 0. -1.
         -3    1    6    6    0  503  0.80846257687E+02 -0.33853707664E+03 -0.63086100285E+03  0.72050612388E+03  0.00000000000E+00 0.  1.
<mgrwt>
<rscale>  0 0.17379604E+04</rscale>
<asrwt>0</asrwt>
<pdfrwt beam="1">  1        1 0.77875842E-01 0.17379604E+04</pdfrwt>
<pdfrwt beam="2">  1       -2 0.22950403E+00 0.17379604E+04</pdfrwt>
<totfact> 0.31127177E+00</totfact>
</mgrwt>
</event>
<event>
12    5  0.5428626E-008  0.1684613E+04  0.7818608E-02  0.8770189E-01
          1   -1    0    0  501    0  0.00000000000E+00  0.00000000000E+00  0.14074149294E+04  0.14074149294E+04  0.00000000000E+00 0. -1.
         -2   -1    0    0    0  501 -0.00000000000E+00 -0.00000000000E+00 -0.50410169126E+03  0.50410169126E+03  0.00000000000E+00 0.  1.
        -24    2    1    2    0    0 -0.32390094035E+03  0.38379423147E+03  0.69257320638E+03  0.85907116412E+03  0.78331268071E+02 0.  0.
        254    2    1    2    0    0  0.32390094035E+03 -0.38379423147E+03  0.21074003172E+03  0.10524454565E+04  0.90056662534E+03 0.  0.
         23    2    4    4    0    0 -0.24251104347E+03 -0.32998690749E+03 -0.50315407483E+02  0.42035825961E+03  0.80414307638E+02 0.  0.
         23    2    4    4    0    0  0.56641198382E+03 -0.53807323978E+02  0.26105543921E+03  0.63208719689E+03  0.87558658070E+02 0.  0.
          1    1    3    3  502    0 -0.46514145370E+02  0.19597736652E+02  0.68230305505E+02  0.84870557855E+02  0.00000000000E+00 0. -1.
         -2    1    3    3    0  502 -0.27738679498E+03  0.36419649482E+03  0.62434290088E+03  0.77420060627E+03  0.00000000000E+00 0.  1.
         13    1    5    5    0    0 -0.17835211233E+03 -0.17722408478E+03 -0.23714454317E+02  0.25254747582E+03  0.00000000000E+00 0. -1.
        -13    1    5    5    0    0 -0.64158931142E+02 -0.15276282272E+03 -0.26600953166E+02  0.16781078380E+03  0.00000000000E+00 0.  1.
          3    1    6    6  503    0  0.51963230671E+03 -0.71976085469E+02  0.24784020507E+03  0.58019225977E+03  0.00000000000E+00 0. -1.
         -3    1    6    6    0  503  0.46779677113E+02  0.18168761490E+02  0.13215234140E+02  0.51894937116E+02  0.00000000000E+00 0.  1.
<mgrwt>
<rscale>  0 0.16846130E+04</rscale>
<asrwt>0</asrwt>
<pdfrwt beam="1">  1        1 0.21652537E+00 0.16846130E+04</pdfrwt>
<pdfrwt beam="2">  1       -2 0.77554107E-01 0.16846130E+04</pdfrwt>
<totfact> 0.94054818E+00</totfact>
</mgrwt>
</event>
<event>
12    5  0.5428626E-008  0.1562559E+04  0.7818608E-02  0.8843886E-01
          1   -1    0    0  501    0  0.00000000000E+00  0.00000000000E+00  0.61518884591E+03  0.61518884591E+03  0.00000000000E+00 0. -1.
         -2   -1    0    0    0  501 -0.00000000000E+00 -0.00000000000E+00 -0.99221144394E+03  0.99221144394E+03  0.00000000000E+00 0.  1.
        -24    2    1    2    0    0  0.19022435722E+03 -0.43928902696E+03  0.80841811073E+02  0.49198439311E+03  0.79706269290E+02 0.  0.
        254    2    1    2    0    0 -0.19022435722E+03  0.43928902696E+03 -0.45786440910E+03  0.11154158967E+04  0.89741442504E+03 0.  0.
         23    2    4    4    0    0  0.31950360782E+03  0.22699348850E+03 -0.37310305895E+03  0.54893672300E+03  0.92287778302E+02 0.  0.
         23    2    4    4    0    0 -0.50972796504E+03  0.21229553846E+03 -0.84761350149E+02  0.56647917373E+03  0.93926427582E+02 0.  0.
          3    1    3    3  502    0  0.27191104316E+02 -0.49032031915E+02  0.36096083355E+02  0.66681508241E+02  0.00000000000E+00 0. -1.
         -4    1    3    3    0  502  0.16303325290E+03 -0.39025699504E+03  0.44745727718E+02  0.42530288487E+03  0.00000000000E+00 0.  1.
         13    1    5    5    0    0  0.19091336814E+03  0.18369336134E+03 -0.22008113598E+03  0.34442251894E+03  0.00000000000E+00 0.  1.
        -13    1    5    5    0    0  0.12859023968E+03  0.43300127159E+02 -0.15302192297E+03  0.20451420406E+03  0.00000000000E+00 0. -1.
          3    1    6    6  503    0 -0.29440171607E+02  0.39847830135E+02 -0.27214436660E+01  0.49618338610E+02  0.00000000000E+00 0. -1.
         -3    1    6    6    0  503 -0.48028779343E+03  0.17244770832E+03 -0.82039906483E+02  0.51686083512E+03  0.00000000000E+00 0.  1.
<mgrwt>
<rscale>  0 0.15625587E+04</rscale>
<asrwt>0</asrwt>
<pdfrwt beam="1">  1        1 0.94644438E-01 0.15625587E+04</pdfrwt>
<pdfrwt beam="2">  1       -2 0.15264791E+00 0.15625587E+04</pdfrwt>
<totfact> 0.79507172E+00</totfact>
</mgrwt>
</event>
<event>
12    5  0.5428626E-008  0.1445853E+04  0.7818608E-02  0.8921280E-01
         -2   -1    0    0    0  501 -0.00000000000E+00  0.00000000000E+00  0.16593293630E+04  0.16593293630E+04  0.00000000000E+00 0.  1.
          1   -1    0    0  501    0  0.00000000000E+00 -0.00000000000E+00 -0.31496036664E+03  0.31496036664E+03  0.00000000000E+00 0. -1.
        -24    2    1    2    0    0 -0.38406453973E+03 -0.22508183445E+03  0.46028312380E+03  0.64462633252E+03  0.74264067016E+02 0.  0.
        254    2    1    2    0    0  0.38406453973E+03  0.22508183445E+03  0.88408587259E+03  0.13296633971E+04  0.88782290843E+03 0.  0.
         23    2    4    4    0    0 -0.55767837133E+02  0.43234320457E+01 -0.14899015719E+03  0.18193116464E+03  0.88159730060E+02 0.  0.
         23    2    4    4    0    0  0.43983237686E+03  0.22075840241E+03  0.10330760298E+04  0.11477322325E+04  0.88636348390E+02 0.  0.
          1    1    3    3  502    0 -0.11744765648E+02  0.25722849814E+01  0.27356777788E+01  0.12330454293E+02  0.00000000000E+00 0. -1.
         -2    1    3    3    0  502 -0.37231977408E+03 -0.22765411943E+03  0.45754744603E+03  0.63229587823E+03  0.00000000000E+00 0.  1.
         13    1    5    5    0    0  0.72923261567E+01  0.30753682556E+01  0.88996211227E+01  0.11909624965E+02  0.00000000000E+00 0.  1.
        -13    1    5    5    0    0 -0.63060163290E+02  0.12480637901E+01 -0.15788977832E+03  0.17002153968E+03  0.00000000000E+00 0. -1.
          4    1    6    6  503    0  0.18324726944E+03  0.10503497062E+03  0.54211010136E+03  0.58180346235E+03  0.00000000000E+00 0.  1.
         -4    1    6    6    0  503  0.25658510742E+03  0.11572343179E+03  0.49096592842E+03  0.56592877015E+03  0.00000000000E+00 0. -1.
<mgrwt>
<rscale>  0 0.14458534E+04</rscale>
<asrwt>0</asrwt>
<pdfrwt beam="1">  1        1 0.48455442E-01 0.14458534E+04</pdfrwt>
<pdfrwt beam="2">  1       -2 0.25528144E+00 0.14458534E+04</pdfrwt>
<totfact> 0.41674861E+00</totfact>
</mgrwt>
</event>
<event>
12    5  0.5428626E-008  0.1827756E+04  0.7818608E-02  0.8691677E-01
          1   -1    0    0  501    0  0.00000000000E+00  0.00000000000E+00  0.10758216843E+04  0.10758216843E+04  0.00000000000E+00 0. -1.
         -2   -1    0    0    0  501 -0.00000000000E+00 -0.00000000000E+00 -0.77631155140E+03  0.77631155140E+03  0.00000000000E+00 0.  1.
        -24    2    1    2    0    0  0.10705835452E+03 -0.33832639985E+03  0.71664578051E+03  0.80374501944E+03  0.80614126837E+02 0.  0.
        254    2    1    2    0    0 -0.10705835452E+03  0.33832639985E+03 -0.41713564764E+03  0.10483882162E+04  0.89397397015E+03 0.  0.
         23    2    4    4    0    0  0.22116125004E+03  0.25525776232E+03  0.15071731308E+03  0.38101017586E+03  0.91565396874E+02 0.  0.
         23    2    4    4    0    0 -0.32821960456E+03  0.83068637533E+02 -0.56785296072E+03  0.66737804038E+03  0.91147991879E+02 0.  0.
          3    1    3    3  502    0  0.10481433200E+03 -0.28285677424E+03  0.65288563755E+03  0.71920348626E+03  0.00000000000E+00 0. -1.
         -4    1    3    3    0  502  0.22440225159E+01 -0.55469625612E+02  0.63760142953E+02  0.84541533178E+02  0.00000000000E+00 0.  1.
         13    1    5    5    0    0  0.79575285295E+02  0.14352209003E+03  0.38420358320E+02  0.16854358573E+03  0.00000000000E+00 0. -1.
        -13    1    5    5    0    0  0.14158596475E+03  0.11173567229E+03  0.11229695476E+03  0.21246659013E+03  0.00000000000E+00 0.  1.
          1    1    6    6  503    0 -0.54335238833E+02 -0.19334391506E+02 -0.80290036682E+02  0.98856597475E+02  0.00000000000E+00 0. -1.
         -1    1    6    6    0  503 -0.27388436573E+03  0.10240302904E+03 -0.48756292404E+03  0.56852144290E+03  0.00000000000E+00 0.  1.
<mgrwt>
<rscale>  0 0.18277558E+04</rscale>
<asrwt>0</asrwt>
<pdfrwt beam="1">  1        1 0.16551103E+00 0.18277558E+04</pdfrwt>
<pdfrwt beam="2">  1       -2 0.11943255E+00 0.18277558E+04</pdfrwt>
<totfact> 0.58652215E+00</totfact>
</mgrwt>
</event>
<event>
12    5  0.5428626E-008  0.1495362E+04  0.7818608E-02  0.8887543E-01
          1   -1    0    0  501    0  0.00000000000E+00  0.00000000000E+00  0.79900596778E+03  0.79900596778E+03  0.00000000000E+00 0. -1.
         -2   -1    0    0    0  501 -0.00000000000E+00 -0.00000000000E+00 -0.69965268691E+03  0.69965268691E+03  0.00000000000E+00 0.  1.
        -24    2    1    2    0    0 -0.14340239777E+03  0.37943466698E+02  0.48971375657E+03  0.51750433288E+03  0.77377107891E+02 0.  0.
        254    2    1    2    0    0  0.14340239777E+03 -0.37943466698E+02 -0.39036047570E+03  0.98115432182E+03  0.88785052114E+03 0.  0.
         23    2    4    4    0    0  0.18941985663E+03  0.54355346058E+02  0.24749421412E+03  0.32862550060E+03  0.88921020524E+02 0.  0.
         23    2    4    4    0    0 -0.46017458863E+02 -0.92298812756E+02 -0.63785468983E+03  0.65252882121E+03  0.91096541248E+02 0.  0.
          1    1    3    3  502    0 -0.82504406205E+02  0.18132105741E+02  0.38965954620E+03  0.39871081281E+03  0.00000000000E+00 0. -1.
         -2    1    3    3    0  502 -0.60897991561E+02  0.19811360957E+02  0.10005421036E+03  0.11879352007E+03  0.00000000000E+00 0.  1.
         13    1    5    5    0    0  0.17459607337E+03  0.41394590791E+02  0.25108363943E+03  0.30861026388E+03  0.00000000000E+00 0.  1.
        -13    1    5    5    0    0  0.14823783258E+02  0.12960755267E+02 -0.35894253014E+01  0.20015236725E+02  0.00000000000E+00 0. -1.
          1    1    6    6  503    0  0.14229895403E+02  0.10472356453E+02 -0.61295363186E+02  0.63790921932E+02  0.00000000000E+00 0. -1.
         -1    1    6    6    0  503 -0.60247354266E+02 -0.10277116921E+03 -0.57655932664E+03  0.58873789928E+03  0.00000000000E+00 0.  1.
<mgrwt>
<rscale>  0 0.14953617E+04</rscale>
<asrwt>0</asrwt>
<pdfrwt beam="1">  1        1 0.12292400E+00 0.14953617E+04</pdfrwt>
<pdfrwt beam="2">  1       -2 0.10763887E+00 0.14953617E+04</pdfrwt>
<totfact> 0.13003735E+01</totfact>
</mgrwt>
</event>
<event>
12    5  0.5428626E-008  0.1528454E+04  0.7818608E-02  0.8865749E-01
         -2   -1    0    0    0  501 -0.00000000000E+00  0.00000000000E+00  0.53037442584E+03  0.53037442584E+03  0.00000000000E+00 0.  1.
          1   -1    0    0  501    0  0.00000000000E+00 -0.00000000000E+00 -0.11011891445E+04  0.11011891445E+04  0.00000000000E+00 0. -1.
        -24    2    1    2    0    0  0.45714128861E+03  0.13552630140E+03 -0.34784505576E+03  0.59578616548E+03  0.81359916645E+02 0.  0.
        254    2    1    2    0    0 -0.45714128861E+03 -0.13552630140E+03 -0.22296966287E+03  0.10357774048E+04  0.89206155935E+03 0.  0.
         23    2    4    4    0    0 -0.50630662175E+03  0.10449889490E+03 -0.44894126694E+03  0.69077152806E+03  0.91381773619E+02 0.  0.
         23    2    4    4    0    0  0.49165333140E+02 -0.24002519630E+03  0.22597160408E+03  0.34500587677E+03  0.89087397068E+02 0.  0.
          3    1    3    3  502    0  0.24057312005E+03  0.67564941183E+02 -0.13218659260E+03  0.28269018842E+03  0.00000000000E+00 0. -1.
         -4    1    3    3    0  502  0.21656816856E+03  0.67961360220E+02 -0.21565846316E+03  0.31309597706E+03  0.00000000000E+00 0.  1.
         13    1    5    5    0    0 -0.41613599296E+03  0.86397946653E+02 -0.41116414336E+03  0.59134568791E+03  0.00000000000E+00 0. -1.
        -13    1    5    5    0    0 -0.90170628788E+02  0.18100948244E+02 -0.37777123586E+02  0.99425840151E+02  0.00000000000E+00 0.  1.
          3    1    6    6  503    0  0.65832931206E+02 -0.10912495464E+03  0.93833452721E+02  0.15826227411E+03  0.00000000000E+00 0. -1.
         -3    1    6    6    0  503 -0.16667598066E+02 -0.13090024167E+03  0.13213815136E+03  0.18674360267E+03  0.00000000000E+00 0.  1.
<mgrwt>
<rscale>  0 0.15284535E+04</rscale>
<asrwt>0</asrwt>
<pdfrwt beam="1">  1        1 0.16941371E+00 0.15284535E+04</pdfrwt>
<pdfrwt beam="2">  1       -2 0.81596065E-01 0.15284535E+04</pdfrwt>
<totfact> 0.14156776E+01</totfact>
</mgrwt>
</event>
<event>
12    5  0.5428626E-008  0.1574006E+04  0.7818608E-02  0.8836678E-01
         -2   -1    0    0    0  501 -0.00000000000E+00  0.00000000000E+00  0.36870984657E+03  0.36870984657E+03  0.00000000000E+00 0.  1.
          1   -1    0    0  501    0  0.00000000000E+00 -0.00000000000E+00 -0.16798414825E+04  0.16798414825E+04  0.00000000000E+00 0. -1.
        -24    2    1    2    0    0  0.27137721849E+03 -0.29746512376E+03 -0.14583946993E+02  0.41079688954E+03  0.80064338967E+02 0.  0.
        254    2    1    2    0    0 -0.27137721849E+03  0.29746512376E+03 -0.12965476889E+04  0.16377544395E+04  0.91600906106E+03 0.  0.
         23    2    4    4    0    0  0.22334277951E+03  0.11434333090E+03 -0.38039868298E+02  0.26997762310E+03  0.92111296358E+02 0.  0.
         23    2    4    4    0    0 -0.49471999799E+03  0.18312179287E+03 -0.12585078206E+04  0.13677768164E+04  0.93220263400E+02 0.  0.
          1    1    3    3  502    0  0.86580931329E+02 -0.79566194081E+02  0.30679376599E+02  0.12152473435E+03  0.00000000000E+00 0. -1.
         -2    1    3    3    0  502  0.18479628716E+03 -0.21789892968E+03 -0.45263323592E+02  0.28927215519E+03  0.00000000000E+00 0.  1.
         13    1    5    5    0    0  0.21310994099E+03  0.12621681854E+03 -0.23839106969E+02  0.24882691826E+03  0.00000000000E+00 0. -1.
        -13    1    5    5    0    0  0.10232838519E+02 -0.11873487642E+02 -0.14200761329E+02  0.21150704840E+02  0.00000000000E+00 0.  1.
          3    1    6    6  503    0 -0.45378874260E+03  0.13803034041E+03 -0.11328800334E+04  0.12281668323E+04  0.00000000000E+00 0. -1.
         -3    1    6    6    0  503 -0.40931255390E+02  0.45091452454E+02 -0.12562778720E+03  0.13960998413E+03  0.00000000000E+00 0.  1.
<mgrwt>
<rscale>  0 0.15740065E+04</rscale>
<asrwt>0</asrwt>
<pdfrwt beam="1">  1        1 0.25843715E+00 0.15740065E+04</pdfrwt>
<pdfrwt beam="2">  1       -2 0.56724592E-01 0.15740065E+04</pdfrwt>
<totfact> 0.12102600E+01</totfact>
</mgrwt>
</event>
<event>
12    5  0.5428626E-008  0.1921621E+04  0.7818608E-02  0.8644169E-01
         -2   -1    0    0    0  501 -0.00000000000E+00  0.00000000000E+00  0.96482433961E+03  0.96482433961E+03  0.00000000000E+00 0.  1.
          1   -1    0    0  501    0  0.00000000000E+00 -0.00000000000E+00 -0.95681323194E+03  0.95681323194E+03  0.00000000000E+00 0. -1.
        -24    2    1    2    0    0  0.16858258052E+03  0.41135461240E+03  0.60079755552E+03  0.75166232695E+03  0.80036538210E+02 0.  0.
        254    2    1    2    0    0 -0.16858258052E+03 -0.41135461240E+03 -0.59278644784E+03  0.11699752446E+04  0.90543558392E+03 0.  0.
         23    2    4    4    0    0  0.16066504984E+03 -0.81033781063E+02  0.17541488675E+03  0.26704676527E+03  0.90354083670E+02 0.  0.
         23    2    4    4    0    0 -0.32924763036E+03 -0.33032083134E+03 -0.76820133459E+03  0.90292847933E+03  0.87353847074E+02 0.  0.
          1    1    3    3  502    0  0.16261846634E+02  0.23094763689E+02  0.77539310797E+02  0.82523696504E+02  0.00000000000E+00 0. -1.
         -2    1    3    3    0  502  0.15232073388E+03  0.38825984871E+03  0.52325824472E+03  0.66913863045E+03  0.00000000000E+00 0.  1.
         13    1    5    5    0    0  0.63491280972E+02 -0.34433533616E+02  0.14962136085E+02  0.73760941649E+02  0.00000000000E+00 0.  1.
        -13    1    5    5    0    0  0.97173768867E+02 -0.46600247447E+02  0.16045275066E+03  0.19328582362E+03  0.00000000000E+00 0. -1.
          1    1    6    6  503    0 -0.16949585578E+03 -0.17225180940E+03 -0.48057437384E+03  0.53791380328E+03  0.00000000000E+00 0. -1.
         -1    1    6    6    0  503 -0.15975177458E+03 -0.15806902194E+03 -0.28762696075E+03  0.36501467604E+03  0.00000000000E+00 0.  1.
<mgrwt>
<rscale>  0 0.19216209E+04</rscale>
<asrwt>0</asrwt>
<pdfrwt beam="1">  1        1 0.14720204E+00 0.19216209E+04</pdfrwt>
<pdfrwt beam="2">  1       -2 0.14843451E+00 0.19216209E+04</pdfrwt>
<totfact> 0.41270416E+00</totfact>
</mgrwt>
</event>
<event>
12    5  0.5428626E-008  0.1665413E+04  0.7818608E-02  0.8781340E-01
          1   -1    0    0  501    0  0.00000000000E+00  0.00000000000E+00  0.63702180184E+03  0.63702180184E+03  0.00000000000E+00 0. -1.
         -2   -1    0    0    0  501 -0.00000000000E+00 -0.00000000000E+00 -0.10885029043E+04  0.10885029043E+04  0.00000000000E+00 0.  1.
        -24    2    1    2    0    0  0.16567586305E+03 -0.14999325749E+00 -0.73774478462E+03  0.76034239632E+03  0.80029234148E+02 0.  0.
        254    2    1    2    0    0 -0.16567586305E+03  0.14999325749E+00  0.28626368214E+03  0.96518230983E+03  0.90674223536E+03 0.  0.
         23    2    4    4    0    0  0.35203044426E+03 -0.10034515676E+03  0.52082056419E+02  0.38110356139E+03  0.92373154833E+02 0.  0.
         23    2    4    4    0    0 -0.51770630731E+03  0.10049515001E+03  0.23418162572E+03  0.58407874844E+03  0.90486765556E+02 0.  0.
          1    1    3    3  502    0  0.82426640722E+02 -0.35132322505E+02 -0.28778705539E+03  0.30141303959E+03  0.00000000000E+00 0. -1.
         -2    1    3    3    0  502  0.83249222331E+02  0.34982329247E+02 -0.44995772923E+03  0.45892935673E+03  0.00000000000E+00 0.  1.
         13    1    5    5    0    0  0.33795872425E+03 -0.11338116856E+03  0.57712283133E+02  0.36111230428E+03  0.00000000000E+00 0. -1.
        -13    1    5    5    0    0  0.14071720014E+02  0.13036011807E+02 -0.56302267139E+01  0.19991257110E+02  0.00000000000E+00 0.  1.
          3    1    6    6  503    0 -0.43422157307E+03  0.52703507344E+02  0.17487862304E+03  0.47107172172E+03  0.00000000000E+00 0. -1.
         -3    1    6    6    0  503 -0.83484734244E+02  0.47791642671E+02  0.59303002680E+02  0.11300702672E+03  0.00000000000E+00 0.  1.
<mgrwt>
<rscale>  0 0.16654130E+04</rscale>
<asrwt>0</asrwt>
<pdfrwt beam="1">  1        1 0.98003354E-01 0.16654130E+04</pdfrwt>
<pdfrwt beam="2">  1       -2 0.16746198E+00 0.16654130E+04</pdfrwt>
<totfact> 0.58214719E+00</totfact>
</mgrwt>
</event>
<event>
12    5  0.5428626E-008  0.1871202E+04  0.7818608E-02  0.8669325E-01
          1   -1    0    0  501    0  0.00000000000E+00  0.00000000000E+00  0.24288417541E+04  0.24288417541E+04  0.00000000000E+00 0. -1.
         -2   -1    0    0    0  501 -0.00000000000E+00 -0.00000000000E+00 -0.36039761182E+03  0.36039761182E+03  0.00000000000E+00 0.  1.
        -24    2    1    2    0    0 -0.63460400990E+03 -0.30656172684E+03  0.54226369323E+03  0.89287751256E+03  0.80486009326E+02 0.  0.
        254    2    1    2    0    0  0.63460400990E+03  0.30656172684E+03  0.15261804490E+04  0.18963618533E+04  0.87764410442E+03 0.  0.
         23    2    4    4    0    0  0.19725596066E+03  0.25875325536E+03  0.34444890304E+02  0.33875343943E+03  0.87774034185E+02 0.  0.
         23    2    4    4    0    0  0.43734804924E+03  0.47808471483E+02  0.14917355587E+04  0.15576084139E+04  0.85498700570E+02 0.  0.
          1    1    3    3  502    0 -0.37902651864E+03 -0.15979623219E+03  0.35790943106E+03  0.54524774047E+03  0.00000000000E+00 0. -1.
         -2    1    3    3    0  502 -0.25557749127E+03 -0.14676549465E+03  0.18435426217E+03  0.34762977209E+03  0.00000000000E+00 0.  1.
         13    1    5    5    0    0  0.54470362269E+02  0.50317398183E+02  0.43439521156E+02  0.85940985123E+02  0.00000000000E+00 0. -1.
        -13    1    5    5    0    0  0.14278559840E+03  0.20843585718E+03 -0.89946308514E+01  0.25281245430E+03  0.00000000000E+00 0.  1.
          1    1    6    6  503    0  0.22943229731E+03 -0.51211148563E+01  0.87615168548E+03  0.90570811017E+03  0.00000000000E+00 0. -1.
         -1    1    6    6    0  503  0.20791575193E+03  0.52929586339E+02  0.61558387323E+03  0.65190030372E+03  0.00000000000E+00 0.  1.
<mgrwt>
<rscale>  0 0.18712015E+04</rscale>
<asrwt>0</asrwt>
<pdfrwt beam="1">  1        1 0.37366795E+00 0.18712015E+04</pdfrwt>
<pdfrwt beam="2">  1       -2 0.55445788E-01 0.18712015E+04</pdfrwt>
<totfact> 0.38243258E+00</totfact>
</mgrwt>
</event>
<event>
12    5  0.5428626E-008  0.1852818E+04  0.7818608E-02  0.8678705E-01
          1   -1    0    0  501    0  0.00000000000E+00  0.00000000000E+00  0.12383529491E+04  0.12383529491E+04  0.00000000000E+00 0. -1.
         -2   -1    0    0    0  501 -0.00000000000E+00 -0.00000000000E+00 -0.69304471888E+03  0.69304471888E+03  0.00000000000E+00 0.  1.
        -24    2    1    2    0    0  0.28910790950E+03  0.12239899596E+03 -0.44891006618E+03  0.55384083005E+03  0.81575241158E+02 0.  0.
        254    2    1    2    0    0 -0.28910790950E+03 -0.12239899596E+03  0.99421829639E+03  0.13775568379E+04  0.90034877866E+03 0.  0.
         23    2    4    4    0    0  0.30078762662E+03  0.65243161602E+02  0.26207576673E+03  0.41445117701E+03  0.91412275761E+02 0.  0.
         23    2    4    4    0    0 -0.58989553612E+03 -0.18764215756E+03  0.73214252966E+03  0.96310566089E+03  0.91397524484E+02 0.  0.
          1    1    3    3  502    0  0.55974028590E+02  0.27751903624E+02 -0.41525127090E+02  0.75017306078E+02  0.00000000000E+00 0. -1.
         -2    1    3    3    0  502  0.23313388091E+03  0.94647092332E+02 -0.40738493909E+03  0.47882352398E+03  0.00000000000E+00 0.  1.
         13    1    5    5    0    0  0.19560330550E+03  0.82961626586E+02  0.15251420320E+03  0.26154132902E+03  0.00000000000E+00 0.  1.
        -13    1    5    5    0    0  0.10518432112E+03 -0.17718464985E+02  0.10956156353E+03  0.15290984799E+03  0.00000000000E+00 0. -1.
          4    1    6    6  503    0 -0.50007677487E+03 -0.13451382003E+03  0.56831199528E+03  0.76886232352E+03  0.00000000000E+00 0. -1.
         -4    1    6    6    0  503 -0.89818761252E+02 -0.53128337523E+02  0.16383053438E+03  0.19424333738E+03  0.00000000000E+00 0.  1.
<mgrwt>
<rscale>  0 0.18528184E+04</rscale>
<asrwt>0</asrwt>
<pdfrwt beam="1">  1        1 0.19051584E+00 0.18528184E+04</pdfrwt>
<pdfrwt beam="2">  1       -2 0.10662226E+00 0.18528184E+04</pdfrwt>
<totfact> 0.58495642E+00</totfact>
</mgrwt>
</event>
<event>
12    5  0.5428626E-008  0.2501203E+04  0.7818608E-02  0.8402557E-01
         -2   -1    0    0    0  501 -0.00000000000E+00  0.00000000000E+00  0.15368593920E+04  0.15368593920E+04  0.00000000000E+00 0.  1.
          1   -1    0    0  501    0  0.00000000000E+00 -0.00000000000E+00 -0.10176628512E+04  0.10176628512E+04  0.00000000000E+00 0. -1.
        -24    2    1    2    0    0 -0.14889066560E+02 -0.21101756150E+01 -0.86662079760E+03  0.87042118719E+03  0.79845470337E+02 0.  0.
        254    2    1    2    0    0  0.14889066560E+02  0.21101756150E+01  0.13858173384E+04  0.16841010559E+04  0.95680746968E+03 0.  0.
         23    2    4    4    0    0  0.47061056612E+03 -0.72961712083E+02  0.68216461661E+03  0.83732771730E+03  0.94717609985E+02 0.  0.
         23    2    4    4    0    0 -0.45572149956E+03  0.75071887698E+02  0.70365272180E+03  0.84677333864E+03  0.92628616760E+02 0.  0.
          1    1    3    3  502    0 -0.23192773070E+02  0.26415402041E+02 -0.71799934315E+03  0.71885932904E+03  0.00000000000E+00 0. -1.
         -2    1    3    3    0  502  0.83037065100E+01 -0.28525577656E+02 -0.14862145445E+03  0.15156185814E+03  0.00000000000E+00 0.  1.
         13    1    5    5    0    0  0.84940577094E+02  0.24516177854E+01  0.18520044186E+03  0.20376485401E+03  0.00000000000E+00 0. -1.
        -13    1    5    5    0    0  0.38566998902E+03 -0.75413329869E+02  0.49696417475E+03  0.63356286329E+03  0.00000000000E+00 0.  1.
          3    1    6    6  503    0 -0.76285842582E+02 -0.21014147120E+02  0.10394807605E+03  0.13063815167E+03  0.00000000000E+00 0. -1.
         -3    1    6    6    0  503 -0.37943565698E+03  0.96086034818E+02  0.59970464575E+03  0.71613518696E+03  0.00000000000E+00 0.  1.
<mgrwt>
<rscale>  0 0.25012035E+04</rscale>
<asrwt>0</asrwt>
<pdfrwt beam="1">  1        1 0.15656352E+00 0.25012035E+04</pdfrwt>
<pdfrwt beam="2">  1       -2 0.23643991E+00 0.25012035E+04</pdfrwt>
<totfact> 0.89009028E-01</totfact>
</mgrwt>
</event>
<event>
12    5  0.5428626E-008  0.1088230E+04  0.7818608E-02  0.9216740E-01
         -2   -1    0    0    0  501 -0.00000000000E+00  0.00000000000E+00  0.10063647494E+04  0.10063647494E+04  0.00000000000E+00 0.  1.
          1   -1    0    0  501    0  0.00000000000E+00 -0.00000000000E+00 -0.29418879702E+03  0.29418879702E+03  0.00000000000E+00 0. -1.
        -24    2    1    2    0    0  0.10223387946E+03 -0.11071645681E+03  0.13785091983E+03  0.21915753700E+03  0.79481129874E+02 0.  0.
        254    2    1    2    0    0 -0.10223387946E+03  0.11071645681E+03  0.57432503250E+03  0.10813960094E+04  0.90380207248E+03 0.  0.
         23    2    4    4    0    0 -0.15291090097E+03  0.30276413101E+03  0.73099855228E+03  0.81206023108E+03  0.10017521055E+03 0.  0.
         23    2    4    4    0    0  0.50677021511E+02 -0.19204767419E+03 -0.15667351978E+03  0.26933577829E+03  0.92437546468E+02 0.  0.
          1    1    3    3  502    0  0.17368249343E+01  0.11460690049E+02  0.14432058774E+02  0.18510761673E+02  0.00000000000E+00 0. -1.
         -2    1    3    3    0  502  0.10049705453E+03 -0.12217714686E+03  0.12341886105E+03  0.20064677532E+03  0.00000000000E+00 0.  1.
         13    1    5    5    0    0 -0.67791648314E+00  0.33395176380E+02  0.26591301626E+02  0.42694199821E+02  0.00000000000E+00 0. -1.
        -13    1    5    5    0    0 -0.15223298449E+03  0.26936895463E+03  0.70440725066E+03  0.76936603126E+03  0.00000000000E+00 0.  1.
          3    1    6    6  503    0  0.18555907092E+02 -0.49479947314E+02  0.29374117903E+01  0.52926508124E+02  0.00000000000E+00 0. -1.
         -3    1    6    6    0  503  0.32121114419E+02 -0.14256772688E+03 -0.15961093157E+03  0.21640927017E+03  0.00000000000E+00 0.  1.
<mgrwt>
<rscale>  0 0.10882302E+04</rscale>
<asrwt>0</asrwt>
<pdfrwt beam="1">  1        1 0.45259815E-01 0.10882302E+04</pdfrwt>
<pdfrwt beam="2">  1       -2 0.15482534E+00 0.10882302E+04</pdfrwt>
<totfact> 0.21526195E+01</totfact>
</mgrwt>
</event>
<event>
12    5  0.5428626E-008  0.1435358E+04  0.7818608E-02  0.8928615E-01
          1   -1    0    0  501    0  0.00000000000E+00  0.00000000000E+00  0.60593960310E+03  0.60593960310E+03  0.00000000000E+00 0. -1.
         -2   -1    0    0    0  501 -0.00000000000E+00 -0.00000000000E+00 -0.85002437301E+03  0.85002437301E+03  0.00000000000E+00 0.  1.
        -24    2    1    2    0    0 -0.66171318313E+02 -0.61804789094E+01  0.35795149417E+03  0.37276581365E+03  0.80051470688E+02 0.  0.
        254    2    1    2    0    0  0.66171318313E+02  0.61804789094E+01 -0.60203626408E+03  0.10831981625E+04  0.89802770236E+03 0.  0.
         23    2    4    4    0    0  0.48664870108E+02  0.33004506720E+03 -0.65638337246E+03  0.74189123172E+03  0.90914531874E+02 0.  0.
         23    2    4    4    0    0  0.17506448205E+02 -0.32386458829E+03  0.54347108378E+02  0.34130693074E+03  0.91334908479E+02 0.  0.
          3    1    3    3  502    0  0.92928672939E+01  0.21454091668E+02  0.69427395407E+02  0.73258437500E+02  0.00000000000E+00 0. -1.
         -4    1    3    3    0  502 -0.75464185607E+02 -0.27634570578E+02  0.28852409877E+03  0.29950737615E+03  0.00000000000E+00 0.  1.
         13    1    5    5    0    0  0.44606911897E+02  0.11170006924E+03 -0.16518566873E+03  0.20433547712E+03  0.00000000000E+00 0. -1.
        -13    1    5    5    0    0  0.40579582109E+01  0.21834499796E+03 -0.49119770373E+03  0.53755575460E+03  0.00000000000E+00 0.  1.
          3    1    6    6  503    0  0.22156560228E+02 -0.22657869766E+02 -0.10073647721E+02  0.33253129205E+02  0.00000000000E+00 0. -1.
         -3    1    6    6    0  503 -0.46501120228E+01 -0.30120671852E+03  0.64420756099E+02  0.30805380153E+03  0.00000000000E+00 0.  1.
<mgrwt>
<rscale>  0 0.14353584E+04</rscale>
<asrwt>0</asrwt>
<pdfrwt beam="1">  1        1 0.93221478E-01 0.14353584E+04</pdfrwt>
<pdfrwt beam="2">  1       -2 0.13077298E+00 0.14353584E+04</pdfrwt>
<totfact> 0.12285928E+01</totfact>
</mgrwt>
</event>
<event>
12    5  0.5428626E-008  0.1609836E+04  0.7818608E-02  0.8814528E-01
         -2   -1    0    0    0  501 -0.00000000000E+00  0.00000000000E+00  0.39849269856E+03  0.39849269856E+03  0.00000000000E+00 0.  1.
          1   -1    0    0  501    0  0.00000000000E+00 -0.00000000000E+00 -0.16258587515E+04  0.16258587515E+04  0.00000000000E+00 0. -1.
        -24    2    1    2    0    0  0.43215498771E+03  0.11667449193E+03 -0.82956938252E+03  0.94558484640E+03  0.74662379183E+02 0.  0.
        254    2    1    2    0    0 -0.43215498771E+03 -0.11667449193E+03 -0.39779667045E+03  0.10787666037E+04  0.89728720249E+03 0.  0.
         23    2    4    4    0    0  0.21181252201E+03  0.52073399375E+02 -0.32595951150E+03  0.40296619996E+03  0.92498496033E+02 0.  0.
         23    2    4    4    0    0 -0.64396750972E+03 -0.16874789130E+03 -0.71837158948E+02  0.67580040373E+03  0.91518325376E+02 0.  0.
          1    1    3    3  502    0  0.33505759260E+03  0.11603444096E+03 -0.61132650716E+03  0.70671612419E+03  0.00000000000E+00 0. -1.
         -2    1    3    3    0  502  0.97097395114E+02  0.64005097095E+00 -0.21824287536E+03  0.23886872221E+03  0.00000000000E+00 0.  1.
         13    1    5    5    0    0  0.64850591892E+02  0.75401303486E+01 -0.35261372427E+02  0.74201194194E+02  0.00000000000E+00 0. -1.
        -13    1    5    5    0    0  0.14696193012E+03  0.44533269026E+02 -0.29069813907E+03  0.32876500576E+03  0.00000000000E+00 0.  1.
          3    1    6    6  503    0 -0.57271244614E+03 -0.13815996503E+03 -0.90477289684E+02  0.59604853984E+03  0.00000000000E+00 0. -1.
         -3    1    6    6    0  503 -0.71255063587E+02 -0.30587926269E+02  0.18640130736E+02  0.79751863891E+02  0.00000000000E+00 0.  1.
<mgrwt>
<rscale>  0 0.16098358E+04</rscale>
<asrwt>0</asrwt>
<pdfrwt beam="1">  1        1 0.25013211E+00 0.16098358E+04</pdfrwt>
<pdfrwt beam="2">  1       -2 0.61306570E-01 0.16098358E+04</pdfrwt>
<totfact> 0.11151947E+01</totfact>
</mgrwt>
</event>
<event>
12    5  0.5428626E-008  0.1982754E+04  0.7818608E-02  0.8614726E-01
         -2   -1    0    0    0  501 -0.00000000000E+00  0.00000000000E+00  0.26926988604E+04  0.26926988604E+04  0.00000000000E+00 0.  1.
          1   -1    0    0  501    0  0.00000000000E+00 -0.00000000000E+00 -0.36499744928E+03  0.36499744928E+03  0.00000000000E+00 0. -1.
        -24    2    1    2    0    0  0.77859923020E+03  0.82358234723E+02  0.87994321526E+03  0.11803778486E+04  0.77409063941E+02 0.  0.
        254    2    1    2    0    0 -0.77859923020E+03 -0.82358234723E+02  0.14477581958E+04  0.18773184611E+04  0.90295136672E+03 0.  0.
         23    2    4    4    0    0 -0.47935226378E+03  0.31427169923E+03  0.37402600906E+03  0.69060829818E+03  0.92190413452E+02 0.  0.
         23    2    4    4    0    0 -0.29924696642E+03 -0.39662993395E+03  0.10737321868E+04  0.11867101629E+04  0.92282991033E+02 0.  0.
          1    1    3    3  502    0  0.19828048201E+03 -0.27702651970E+01  0.25934308494E+03  0.32646846650E+03  0.00000000000E+00 0. -1.
         -2    1    3    3    0  502  0.58031874819E+03  0.85128499921E+02  0.62060013032E+03  0.85390938205E+03  0.00000000000E+00 0.  1.
         13    1    5    5    0    0 -0.33235016424E+03  0.17730089939E+03  0.21023738038E+03  0.43138381599E+03  0.00000000000E+00 0.  1.
        -13    1    5    5    0    0 -0.14700209954E+03  0.13697079984E+03  0.16378862868E+03  0.25922448218E+03  0.00000000000E+00 0. -1.
          1    1    6    6  503    0 -0.65505819919E+02 -0.38503447612E+02  0.19957398705E+03  0.21354930163E+03  0.00000000000E+00 0. -1.
         -1    1    6    6    0  503 -0.23374114650E+03 -0.35812648634E+03  0.87415819972E+03  0.97316086128E+03  0.00000000000E+00 0.  1.
<mgrwt>
<rscale>  0 0.19827539E+04</rscale>
<asrwt>0</asrwt>
<pdfrwt beam="1">  1        1 0.56153456E-01 0.19827539E+04</pdfrwt>
<pdfrwt beam="2">  1       -2 0.41426135E+00 0.19827539E+04</pdfrwt>
<totfact> 0.33039954E-01</totfact>
</mgrwt>
</event>
<event>
12    5  0.5428626E-008  0.1638597E+04  0.7818608E-02  0.8797181E-01
          1   -1    0    0  501    0  0.00000000000E+00  0.00000000000E+00  0.13656822444E+04  0.13656822444E+04  0.00000000000E+00 0. -1.
         -2   -1    0    0    0  501 -0.00000000000E+00 -0.00000000000E+00 -0.49151283726E+03  0.49151283726E+03  0.00000000000E+00 0.  1.
        -24    2    1    2    0    0 -0.34795445681E+03 -0.14981306858E+03 -0.19654673050E+03  0.43709931510E+03  0.94387151987E+02 0.  0.
        254    2    1    2    0    0  0.34795445681E+03  0.14981306858E+03  0.10707161377E+04  0.14200957666E+04  0.85248031022E+03 0.  0.
         23    2    4    4    0    0  0.45018854442E+03  0.40240091463E+03  0.53467245563E+03  0.81179712674E+03  0.92432237634E+02 0.  0.
         23    2    4    4    0    0 -0.10223408761E+03 -0.25258784605E+03  0.53604368205E+03  0.60829863987E+03  0.91825800058E+02 0.  0.
          3    1    3    3  502    0 -0.14211723478E+03 -0.23695202003E+02 -0.40536050529E+02  0.14967278448E+03  0.00000000000E+00 0. -1.
         -4    1    3    3    0  502 -0.20583722202E+03 -0.12611786658E+03 -0.15601067997E+03  0.28742653062E+03  0.00000000000E+00 0.  1.
         13    1    5    5    0    0  0.42660438642E+03  0.37095684453E+03  0.46584889412E+03  0.73254042562E+03  0.00000000000E+00 0. -1.
        -13    1    5    5    0    0  0.23584157996E+02  0.31444070093E+02  0.68823561515E+02  0.79256701118E+02  0.00000000000E+00 0.  1.
          4    1    6    6  503    0 -0.36770422269E+02 -0.84683491968E+02  0.98027411837E+02  0.13465783021E+03  0.00000000000E+00 0.  1.
         -4    1    6    6    0  503 -0.65463665344E+02 -0.16790435408E+03  0.43801627021E+03  0.47364080965E+03  0.00000000000E+00 0. -1.
<mgrwt>
<rscale>  0 0.16385974E+04</rscale>
<asrwt>0</asrwt>
<pdfrwt beam="1">  1        1 0.21010496E+00 0.16385974E+04</pdfrwt>
<pdfrwt beam="2">  1       -2 0.75617360E-01 0.16385974E+04</pdfrwt>
<totfact> 0.10688185E+01</totfact>
</mgrwt>
</event>
<event>
12    5  0.5428626E-008  0.1136622E+04  0.7818608E-02  0.9170215E-01
         -2   -1    0    0    0  501 -0.00000000000E+00  0.00000000000E+00  0.29520945684E+03  0.29520945684E+03  0.00000000000E+00 0.  1.
          1   -1    0    0  501    0  0.00000000000E+00 -0.00000000000E+00 -0.10940619583E+04  0.10940619583E+04  0.00000000000E+00 0. -1.
        -24    2    1    2    0    0  0.16498128836E+03 -0.13794731925E+03 -0.30048197299E+03  0.37742250477E+03  0.76876801592E+02 0.  0.
        254    2    1    2    0    0 -0.16498128836E+03  0.13794731925E+03 -0.49837052848E+03  0.10118489104E+04  0.85394188642E+03 0.  0.
         23    2    4    4    0    0  0.19701919130E+02  0.42667484288E+03 -0.49172594457E+03  0.65760255554E+03  0.90593207908E+02 0.  0.
         23    2    4    4    0    0 -0.18468320749E+03 -0.28872752363E+03 -0.66445839041E+01  0.35424635484E+03  0.89302068252E+02 0.  0.
          1    1    3    3  502    0  0.24148900156E+01 -0.10223734648E+02 -0.57224153229E+02  0.58180410420E+02  0.00000000000E+00 0. -1.
         -2    1    3    3    0  502  0.16256639834E+03 -0.12772358460E+03 -0.24325781976E+03  0.31924209435E+03  0.00000000000E+00 0.  1.
         13    1    5    5    0    0  0.55955751424E+02  0.24172728886E+03 -0.27479472535E+03  0.37023677475E+03  0.00000000000E+00 0. -1.
        -13    1    5    5    0    0 -0.36253832294E+02  0.18494755402E+03 -0.21693121922E+03  0.28736578079E+03  0.00000000000E+00 0.  1.
          4    1    6    6  503    0 -0.18418428441E+02  0.15949299064E+01  0.60282511540E+01  0.19445362419E+02  0.00000000000E+00 0. -1.
         -4    1    6    6    0  503 -0.16626477904E+03 -0.29032245353E+03 -0.12672835058E+02  0.33480099242E+03  0.00000000000E+00 0.  1.
<mgrwt>
<rscale>  0 0.11366221E+04</rscale>
<asrwt>0</asrwt>
<pdfrwt beam="1">  1        1 0.16831722E+00 0.11366221E+04</pdfrwt>
<pdfrwt beam="2">  1       -2 0.45416840E-01 0.11366221E+04</pdfrwt>
<totfact> 0.51322758E+01</totfact>
</mgrwt>
</event>
<event>
12    5  0.5428626E-008  0.1542840E+04  0.7818608E-02  0.8856454E-01
         -2   -1    0    0    0  501 -0.00000000000E+00  0.00000000000E+00  0.54713364121E+03  0.54713364121E+03  0.00000000000E+00 0.  1.
          1   -1    0    0  501    0  0.00000000000E+00 -0.00000000000E+00 -0.10876475001E+04  0.10876475001E+04  0.00000000000E+00 0. -1.
        -24    2    1    2    0    0 -0.70936620524E+02 -0.49316320253E+03 -0.25544077116E+03  0.56713198190E+03  0.90259342211E+02 0.  0.
        254    2    1    2    0    0  0.70936620524E+02  0.49316320253E+03 -0.28507308776E+03  0.10676491594E+04  0.90020337359E+03 0.  0.
         23    2    4    4    0    0 -0.13238359465E+03  0.39745019933E+03  0.23794482604E+03  0.49101106059E+03  0.94773647730E+02 0.  0.
         23    2    4    4    0    0  0.20332021517E+03  0.95713003198E+02 -0.52301791380E+03  0.57663809885E+03  0.91998206550E+02 0.  0.
          3    1    3    3  502    0 -0.13315852473E+02 -0.15394833775E+03 -0.12647334093E+03  0.19968201869E+03  0.00000000000E+00 0. -1.
         -4    1    3    3    0  502 -0.57620768051E+02 -0.33921486478E+03 -0.12896743023E+03  0.36744996320E+03  0.00000000000E+00 0.  1.
         13    1    5    5    0    0 -0.48800354894E+02  0.43546436947E+02  0.28276444925E+02  0.71255344684E+02  0.00000000000E+00 0.  1.
        -13    1    5    5    0    0 -0.83583239757E+02  0.35390376239E+03  0.20966838111E+03  0.41975571591E+03  0.00000000000E+00 0. -1.
          3    1    6    6  503    0  0.36033732794E+02  0.24132943864E+02 -0.21125681944E+03  0.21566240432E+03  0.00000000000E+00 0. -1.
         -3    1    6    6    0  503  0.16728648238E+03  0.71580059333E+02 -0.31176109436E+03  0.36097569452E+03  0.00000000000E+00 0.  1.
<mgrwt>
<rscale>  0 0.15428396E+04</rscale>
<asrwt>0</asrwt>
<pdfrwt beam="1">  1        1 0.16733038E+00 0.15428396E+04</pdfrwt>
<pdfrwt beam="2">  1       -2 0.84174408E-01 0.15428396E+04</pdfrwt>
<totfact> 0.13490836E+01</totfact>
</mgrwt>
</event>
<event>
12    5  0.5428626E-008  0.1935639E+04  0.7818608E-02  0.8637317E-01
         -2   -1    0    0    0  501 -0.00000000000E+00  0.00000000000E+00  0.65948430475E+03  0.65948430475E+03  0.00000000000E+00 0.  1.
          1   -1    0    0  501    0  0.00000000000E+00 -0.00000000000E+00 -0.14203135723E+04  0.14203135723E+04  0.00000000000E+00 0. -1.
        -24    2    1    2    0    0  0.55697122433E+03  0.44388389958E+03 -0.58552135581E+03  0.92544108836E+03  0.79725083102E+02 0.  0.
        254    2    1    2    0    0 -0.55697122433E+03 -0.44388389958E+03 -0.17530791171E+03  0.11543567887E+04  0.89137919574E+03 0.  0.
         23    2    4    4    0    0 -0.78268169282E+03 -0.24188927264E+03 -0.12173179128E+03  0.83324545489E+03  0.91533090136E+02 0.  0.
         23    2    4    4    0    0  0.22571046849E+03 -0.20199462694E+03 -0.53576120432E+02  0.32111133379E+03  0.92168558133E+02 0.  0.
          1    1    3    3  502    0  0.24710743577E+03  0.15718829378E+03 -0.20921870637E+03  0.35992042400E+03  0.00000000000E+00 0. -1.
         -2    1    3    3    0  502  0.30986378856E+03  0.28669560580E+03 -0.37630264944E+03  0.56552066436E+03  0.00000000000E+00 0.  1.
         13    1    5    5    0    0 -0.98088592589E+02 -0.28538792437E+02  0.15020004890E+02  0.10325422614E+03  0.00000000000E+00 0. -1.
        -13    1    5    5    0    0 -0.68459310023E+03 -0.21335048021E+03 -0.13675179617E+03  0.72999122874E+03  0.00000000000E+00 0.  1.
          1    1    6    6  503    0 -0.49967804412E+01 -0.22264442641E+02  0.36604303365E+01  0.23109997212E+02  0.00000000000E+00 0. -1.
         -1    1    6    6    0  503  0.23070724893E+03 -0.17973018430E+03 -0.57236550769E+02  0.29800133657E+03  0.00000000000E+00 0.  1.
<mgrwt>
<rscale>  0 0.19356389E+04</rscale>
<asrwt>0</asrwt>
<pdfrwt beam="1">  1        1 0.21850978E+00 0.19356389E+04</pdfrwt>
<pdfrwt beam="2">  1       -2 0.10145912E+00 0.19356389E+04</pdfrwt>
<totfact> 0.48566083E+00</totfact>
</mgrwt>
</event>
<event>
12    5  0.5428626E-008  0.3252390E+04  0.7818608E-02  0.8175116E-01
          1   -1    0    0  501    0  0.00000000000E+00  0.00000000000E+00  0.26240825019E+04  0.26240825019E+04  0.00000000000E+00 0. -1.
         -2   -1    0    0    0  501 -0.00000000000E+00 -0.00000000000E+00 -0.10077849009E+04  0.10077849009E+04  0.00000000000E+00 0.  1.
        -24    2    1    2    0    0  0.40241107420E+03  0.10447382300E+04  0.18588530706E+04  0.21714714822E+04  0.80876560359E+02 0.  0.
        254    2    1    2    0    0 -0.40241107420E+03 -0.10447382300E+04 -0.24255546956E+03  0.14603959207E+04  0.90582031742E+03 0.  0.
         23    2    4    4    0    0 -0.16976505461E+03 -0.85787757578E+02 -0.40401759136E+03  0.45635650846E+03  0.94081536832E+02 0.  0.
         23    2    4    4    0    0 -0.23264601959E+03 -0.95895047244E+03  0.16146212180E+03  0.10040394122E+04  0.91186323008E+02 0.  0.
          3    1    3    3  502    0  0.38743807673E+03  0.10157067546E+04  0.17744915532E+04  0.20810066667E+04  0.00000000000E+00 0. -1.
         -4    1    3    3    0  502  0.14972997468E+02  0.29031475419E+02  0.84361517355E+02  0.90464815418E+02  0.00000000000E+00 0.  1.
         13    1    5    5    0    0 -0.37393204573E+00 -0.34859498175E+02 -0.55922567520E+02  0.65898846699E+02  0.00000000000E+00 0.  1.
        -13    1    5    5    0    0 -0.16939112257E+03 -0.50928259403E+02 -0.34809502384E+03  0.39045766177E+03  0.00000000000E+00 0. -1.
          2    1    6    6  503    0 -0.45498158377E+02 -0.29476719154E+03  0.15087133156E+02  0.29863924928E+03  0.00000000000E+00 0. -1.
         -2    1    6    6    0  503 -0.18714786121E+03 -0.66418328090E+03  0.14637498864E+03  0.70540016295E+03  0.00000000000E+00 0.  1.
<mgrwt>
<rscale>  0 0.32523903E+04</rscale>
<asrwt>0</asrwt>
<pdfrwt beam="1">  1        1 0.40370500E+00 0.32523903E+04</pdfrwt>
<pdfrwt beam="2">  1       -2 0.15504383E+00 0.32523903E+04</pdfrwt>
<totfact> 0.22309155E-01</totfact>
</mgrwt>
</event>
<event>
12    5  0.5428626E-008  0.1107252E+04  0.7818608E-02  0.9198152E-01
         -4   -1    0    0    0  501 -0.00000000000E+00  0.00000000000E+00  0.89000787494E+02  0.89000787494E+02  0.00000000000E+00 0.  1.
          1   -1    0    0  501    0  0.00000000000E+00 -0.00000000000E+00 -0.34438102252E+04  0.34438102252E+04  0.00000000000E+00 0. -1.
        -24    2    1    2    0    0 -0.89508852317E+02  0.36824643448E+02 -0.12222990474E+03  0.17530242653E+03  0.80143010462E+02 0.  0.
        254    2    1    2    0    0  0.89508852317E+02 -0.36824643448E+02 -0.32325795330E+04  0.33575085862E+04  0.90217824193E+03 0.  0.
         23    2    4    4    0    0 -0.17506475874E+03  0.26635084430E+03 -0.54198082320E+03  0.63547913150E+03  0.92195834221E+02 0.  0.
         23    2    4    4    0    0  0.26457361105E+03 -0.30317548775E+03 -0.26905987098E+04  0.27220294547E+04  0.90600016603E+02 0.  0.
          1    1    3    3  502    0  0.13759344024E+02 -0.38451295846E+01 -0.98406980552E+01  0.17347734945E+02  0.00000000000E+00 0. -1.
         -2    1    3    3    0  502 -0.10326819634E+03  0.40669773033E+02 -0.11238920668E+03  0.15795469158E+03  0.00000000000E+00 0.  1.
         13    1    5    5    0    0 -0.13872524888E+03  0.18141592532E+03 -0.45250268337E+03  0.50686794246E+03  0.00000000000E+00 0. -1.
        -13    1    5    5    0    0 -0.36339509857E+02  0.84934918985E+02 -0.89478139822E+02  0.12861118904E+03  0.00000000000E+00 0.  1.
          1    1    6    6  503    0  0.21472900126E+03 -0.25062580042E+03 -0.23977572063E+04  0.24203639099E+04  0.00000000000E+00 0. -1.
         -1    1    6    6    0  503  0.49844609797E+02 -0.52549687326E+02 -0.29284150345E+03  0.30166554478E+03  0.00000000000E+00 0.  1.
<mgrwt>
<rscale>  0 0.11072521E+04</rscale>
<asrwt>0</asrwt>
<pdfrwt beam="1">  1        1 0.52981703E+00 0.11072521E+04</pdfrwt>
<pdfrwt beam="2">  1       -4 0.13692427E-01 0.11072521E+04</pdfrwt>
<totfact> 0.65155656E+00</totfact>
</mgrwt>
</event>
<event>
12    5  0.5428626E-008  0.2232375E+04  0.7818608E-02  0.8505072E-01
         -2   -1    0    0    0  501 -0.00000000000E+00  0.00000000000E+00  0.14222952157E+04  0.14222952157E+04  0.00000000000E+00 0.  1.
          1   -1    0    0  501    0  0.00000000000E+00 -0.00000000000E+00 -0.87596062107E+03  0.87596062107E+03  0.00000000000E+00 0. -1.
        -24    2    1    2    0    0 -0.24391298417E+03  0.71796033158E+03 -0.33267890090E+03  0.83174460192E+03  0.78506370091E+02 0.  0.
        254    2    1    2    0    0  0.24391298417E+03 -0.71796033158E+03  0.87901349551E+03  0.14665112348E+04  0.89611935309E+03 0.  0.
         23    2    4    4    0    0  0.33881651358E+03 -0.23161808713E+03 -0.34221189698E+02  0.42345275961E+03  0.98476299872E+02 0.  0.
         23    2    4    4    0    0 -0.94903529405E+02 -0.48634224445E+03  0.91323468521E+03  0.10430584752E+04  0.91858226675E+02 0.  0.
          1    1    3    3  502    0 -0.22339383887E+03  0.57852620182E+03 -0.28902896287E+03  0.68420400087E+03  0.00000000000E+00 0. -1.
         -2    1    3    3    0  502 -0.20519145309E+02  0.13943412976E+03 -0.43649938031E+02  0.14754060105E+03  0.00000000000E+00 0.  1.
         13    1    5    5    0    0  0.16867419489E+03 -0.57745325448E+02 -0.41668873924E+01  0.17833359073E+03  0.00000000000E+00 0.  1.
        -13    1    5    5    0    0  0.17014231869E+03 -0.17387276168E+03 -0.30054302306E+02  0.24511916888E+03  0.00000000000E+00 0. -1.
          1    1    6    6  503    0 -0.21872897633E+02 -0.33074730874E+03  0.62530161872E+03  0.70772474894E+03  0.00000000000E+00 0. -1.
         -1    1    6    6    0  503 -0.73030631772E+02 -0.15559493571E+03  0.28793306649E+03  0.33533372627E+03  0.00000000000E+00 0.  1.
<mgrwt>
<rscale>  0 0.22323751E+04</rscale>
<asrwt>0</asrwt>
<pdfrwt beam="1">  1        1 0.13476317E+00 0.22323751E+04</pdfrwt>
<pdfrwt beam="2">  1       -2 0.21881465E+00 0.22323751E+04</pdfrwt>
<totfact> 0.15262158E+00</totfact>
</mgrwt>
</event>
<event>
12    5  0.5428626E-008  0.2064861E+04  0.7818608E-02  0.8576882E-01
          1   -1    0    0  501    0  0.00000000000E+00  0.00000000000E+00  0.12118102868E+04  0.12118102868E+04  0.00000000000E+00 0. -1.
         -4   -1    0    0    0  501 -0.00000000000E+00 -0.00000000000E+00 -0.87960383459E+03  0.87960383459E+03  0.00000000000E+00 0.  1.
        -24    2    1    2    0    0  0.23542907108E+03  0.21838226576E+03 -0.64335463962E+03  0.72348065745E+03  0.80008798764E+02 0.  0.
        254    2    1    2    0    0 -0.23542907108E+03 -0.21838226576E+03  0.97556109180E+03  0.13679334639E+04  0.90355124719E+03 0.  0.
         23    2    4    4    0    0 -0.16023513684E+03 -0.36685922526E+03  0.38734230701E+02  0.41206653110E+03  0.89652078535E+02 0.  0.
         23    2    4    4    0    0 -0.75193934246E+02  0.14847695950E+03  0.93682686110E+03  0.95586693280E+03  0.91309858654E+02 0.  0.
          1    1    3    3  502    0  0.58852625250E+02  0.27739585625E+02 -0.19130938229E+03  0.20207027457E+03  0.00000000000E+00 0. -1.
         -2    1    3    3    0  502  0.17657644583E+03  0.19064268014E+03 -0.45204525733E+03  0.52141038289E+03  0.00000000000E+00 0.  1.
         13    1    5    5    0    0 -0.11274368680E+03 -0.19493066463E+03  0.58350409070E+02  0.23262388778E+03  0.00000000000E+00 0. -1.
        -13    1    5    5    0    0 -0.47491450034E+02 -0.17192856063E+03 -0.19616178368E+02  0.17944264332E+03  0.00000000000E+00 0.  1.
          1    1    6    6  503    0 -0.53536358896E+02  0.12635306802E+03  0.51706590592E+03  0.53496578450E+03  0.00000000000E+00 0. -1.
         -1    1    6    6    0  503 -0.21657575350E+02  0.22123891485E+02  0.41976095518E+03  0.42090114829E+03  0.00000000000E+00 0.  1.
<mgrwt>
<rscale>  0 0.20648612E+04</rscale>
<asrwt>0</asrwt>
<pdfrwt beam="1">  1        1 0.18643235E+00 0.20648612E+04</pdfrwt>
<pdfrwt beam="2">  1       -4 0.13532367E+00 0.20648612E+04</pdfrwt>
<totfact> 0.18353592E+00</totfact>
</mgrwt>
</event>
<event>
12    5  0.5428626E-008  0.1250915E+04  0.7818608E-02  0.9069422E-01
         -2   -1    0    0    0  501 -0.00000000000E+00  0.00000000000E+00  0.23593444196E+03  0.23593444196E+03  0.00000000000E+00 0.  1.
          1   -1    0    0  501    0  0.00000000000E+00 -0.00000000000E+00 -0.16580742440E+04  0.16580742440E+04  0.00000000000E+00 0. -1.
        -24    2    1    2    0    0 -0.18785482078E+03 -0.51695150816E+02 -0.95148633600E+01  0.21049455819E+03  0.79092376970E+02 0.  0.
        254    2    1    2    0    0  0.18785482078E+03  0.51695150816E+02 -0.14126249387E+04  0.16835141278E+04  0.89484567312E+03 0.  0.
         23    2    4    4    0    0 -0.11691742343E+03 -0.36217672351E+03 -0.66107204182E+03  0.76840592951E+03  0.92680985531E+02 0.  0.
         23    2    4    4    0    0  0.30477224421E+03  0.41387187433E+03 -0.75155289686E+03  0.91510819826E+03  0.91734445736E+02 0.  0.
          3    1    3    3  502    0 -0.40491774035E+02 -0.41604607250E+02 -0.22395069950E+02  0.62225929218E+02  0.00000000000E+00 0. -1.
         -4    1    3    3    0  502 -0.14736304675E+03 -0.10090543566E+02  0.12880206590E+02  0.14826862898E+03  0.00000000000E+00 0.  1.
         13    1    5    5    0    0 -0.90165825337E+02 -0.25184569395E+03 -0.37500748015E+03  0.46063731914E+03  0.00000000000E+00 0.  1.
        -13    1    5    5    0    0 -0.26751598093E+02 -0.11033102956E+03 -0.28606456167E+03  0.30776861037E+03  0.00000000000E+00 0. -1.
          2    1    6    6  503    0  0.77872599105E+02  0.67379506910E+02 -0.10343975791E+03  0.14595863510E+03  0.00000000000E+00 0. -1.
         -2    1    6    6    0  503  0.22689964511E+03  0.34649236742E+03 -0.64811313895E+03  0.76914956316E+03  0.00000000000E+00 0.  1.
<mgrwt>
<rscale>  0 0.12509146E+04</rscale>
<asrwt>0</asrwt>
<pdfrwt beam="1">  1        1 0.25508835E+00 0.12509146E+04</pdfrwt>
<pdfrwt beam="2">  1       -2 0.36297606E-01 0.12509146E+04</pdfrwt>
<totfact> 0.31478615E+01</totfact>
</mgrwt>
</event>
<event>
12    5  0.5428626E-008  0.1593283E+04  0.7818608E-02  0.8824685E-01
          1   -1    0    0  501    0  0.00000000000E+00  0.00000000000E+00  0.18820868971E+04  0.18820868971E+04  0.00000000000E+00 0. -1.
         -2   -1    0    0    0  501 -0.00000000000E+00 -0.00000000000E+00 -0.33719877403E+03  0.33719877403E+03  0.00000000000E+00 0.  1.
        -24    2    1    2    0    0 -0.19259596116E+03 -0.38155632111E+03  0.73341993790E+02  0.44089710270E+03  0.79578745165E+02 0.  0.
        254    2    1    2    0    0  0.19259596116E+03  0.38155632111E+03  0.14715461293E+04  0.17783885685E+04  0.90251839832E+03 0.  0.
         23    2    4    4    0    0 -0.32709922852E+02 -0.27706252924E+03  0.36390887465E+03  0.46702217340E+03  0.88580230545E+02 0.  0.
         23    2    4    4    0    0  0.22530588401E+03  0.65861885035E+03  0.11076372547E+04  0.13113663951E+04  0.90994520470E+02 0.  0.
          1    1    3    3  502    0 -0.28243898369E+02 -0.13629652129E+03  0.31492581069E+02  0.14271034361E+03  0.00000000000E+00 0. -1.
         -2    1    3    3    0  502 -0.16435206279E+03 -0.24525979982E+03  0.41849412720E+02  0.29818675909E+03  0.00000000000E+00 0.  1.
         13    1    5    5    0    0 -0.24725338498E+02 -0.30597454645E+02  0.20823699987E+02  0.44510370429E+02  0.00000000000E+00 0. -1.
        -13    1    5    5    0    0 -0.79845843536E+01 -0.24646507459E+03  0.34308517466E+03  0.42251180297E+03  0.00000000000E+00 0.  1.
          3    1    6    6  503    0  0.19096011856E+03  0.44252398668E+03  0.72498888426E+03  0.87057574511E+03  0.00000000000E+00 0. -1.
         -3    1    6    6    0  503  0.34345765446E+02  0.21609486367E+03  0.38264837041E+03  0.44079064995E+03  0.00000000000E+00 0.  1.
<mgrwt>
<rscale>  0 0.15932826E+04</rscale>
<asrwt>0</asrwt>
<pdfrwt beam="1">  1        1 0.28955182E+00 0.15932826E+04</pdfrwt>
<pdfrwt beam="2">  1       -2 0.51876736E-01 0.15932826E+04</pdfrwt>
<totfact> 0.10598481E+01</totfact>
</mgrwt>
</event>
<event>
12    5  0.5428626E-008  0.1623244E+04  0.7818608E-02  0.8806395E-01
          1   -1    0    0  501    0  0.00000000000E+00  0.00000000000E+00  0.82551297560E+03  0.82551297560E+03  0.00000000000E+00 0. -1.
         -2   -1    0    0    0  501 -0.00000000000E+00 -0.00000000000E+00 -0.79796432696E+03  0.79796432696E+03  0.00000000000E+00 0.  1.
        -24    2    1    2    0    0 -0.21766591430E+02 -0.48509520219E+03 -0.26106229987E+03  0.55748489761E+03  0.82732985933E+02 0.  0.
        254    2    1    2    0    0  0.21766591430E+02  0.48509520219E+03  0.28861094851E+03  0.10659924050E+04  0.90402012595E+03 0.  0.
         23    2    4    4    0    0 -0.43033705869E+03  0.20845230291E+03  0.17309317235E+03  0.51621396526E+03  0.88731420275E+02 0.  0.
         23    2    4    4    0    0  0.45210365012E+03  0.27664289928E+03  0.11551777616E+03  0.54977843969E+03  0.89347478796E+02 0.  0.
          1    1    3    3  502    0  0.18623652977E+02 -0.36895378558E+02 -0.11489128079E+02  0.42896497214E+02  0.00000000000E+00 0. -1.
         -2    1    3    3    0  502 -0.40390244406E+02 -0.44819982363E+03 -0.24957317179E+03  0.51458840040E+03  0.00000000000E+00 0.  1.
         13    1    5    5    0    0 -0.53282953623E+02  0.21766483231E+02  0.54051996356E+02  0.78958667979E+02  0.00000000000E+00 0.  1.
        -13    1    5    5    0    0 -0.37705410507E+03  0.18668581968E+03  0.11904117600E+03  0.43725529728E+03  0.00000000000E+00 0. -1.
          3    1    6    6  503    0  0.17477602091E+03  0.57807465571E+02  0.45698212246E+02  0.18967521494E+03  0.00000000000E+00 0. -1.
         -3    1    6    6    0  503  0.27732762921E+03  0.21883543371E+03  0.69819563913E+02  0.36010322475E+03  0.00000000000E+00 0.  1.
<mgrwt>
<rscale>  0 0.16232436E+04</rscale>
<asrwt>0</asrwt>
<pdfrwt beam="1">  1        1 0.12700200E+00 0.16232436E+04</pdfrwt>
<pdfrwt beam="2">  1       -2 0.12276374E+00 0.16232436E+04</pdfrwt>
<totfact> 0.88434510E+00</totfact>
</mgrwt>
</event>
<event>
12    5  0.5428626E-008  0.1482925E+04  0.7818608E-02  0.8895887E-01
         -2   -1    0    0    0  501 -0.00000000000E+00  0.00000000000E+00  0.43895539068E+03  0.43895539068E+03  0.00000000000E+00 0.  1.
          1   -1    0    0  501    0  0.00000000000E+00 -0.00000000000E+00 -0.12524435340E+04  0.12524435340E+04  0.00000000000E+00 0. -1.
        -24    2    1    2    0    0  0.24049021469E+02 -0.17770060573E+03  0.22173012097E+03  0.30167188453E+03  0.98416556837E+02 0.  0.
        254    2    1    2    0    0 -0.24049021469E+02  0.17770060573E+03 -0.10352182643E+04  0.13897270402E+04  0.90967495884E+03 0.  0.
         23    2    4    4    0    0 -0.91984510133E+02 -0.28425025985E+03 -0.77405553450E+02  0.32042600618E+03  0.86150132909E+02 0.  0.
         23    2    4    4    0    0  0.67935488664E+02  0.46195086559E+03 -0.95781271086E+03  0.10693010340E+04  0.89362628637E+02 0.  0.
          3    1    3    3  502    0  0.36519021258E+02 -0.37322758929E+02  0.20716224711E+02  0.56176411544E+02  0.00000000000E+00 0. -1.
         -4    1    3    3    0  502 -0.12469999789E+02 -0.14037784681E+03  0.20101389626E+03  0.24549547299E+03  0.00000000000E+00 0.  1.
         13    1    5    5    0    0 -0.50628766472E+02 -0.22316588735E+03 -0.89419204494E+02  0.24568695407E+03  0.00000000000E+00 0. -1.
        -13    1    5    5    0    0 -0.41355743662E+02 -0.61084372506E+02  0.12013651044E+02  0.74739052106E+02  0.00000000000E+00 0.  1.
          4    1    6    6  503    0  0.53766962892E+02  0.31624536022E+03 -0.74362940162E+03  0.80986832331E+03  0.00000000000E+00 0.  1.
         -4    1    6    6    0  503  0.14168525772E+02  0.14570550536E+03 -0.21418330925E+03  0.25943271069E+03  0.00000000000E+00 0. -1.
<mgrwt>
<rscale>  0 0.14829253E+04</rscale>
<asrwt>0</asrwt>
<pdfrwt beam="1">  1        1 0.19268362E+00 0.14829253E+04</pdfrwt>
<pdfrwt beam="2">  1       -2 0.67531599E-01 0.14829253E+04</pdfrwt>
<totfact> 0.16715286E+01</totfact>
</mgrwt>
</event>
<event>
12    5  0.5428626E-008  0.5026993E+04  0.7818608E-02  0.7824357E-01
          1   -1    0    0  501    0  0.00000000000E+00  0.00000000000E+00  0.31713429770E+04  0.31713429770E+04  0.00000000000E+00 0. -1.
         -2   -1    0    0    0  501 -0.00000000000E+00 -0.00000000000E+00 -0.19921102316E+04  0.19921102316E+04  0.00000000000E+00 0.  1.
        -24    2    1    2    0    0  0.12216751919E+03 -0.45090227541E+03  0.30268478755E+04  0.30637001901E+04  0.78822767964E+02 0.  0.
        254    2    1    2    0    0 -0.12216751919E+03  0.45090227541E+03 -0.18476151301E+04  0.20997530184E+04  0.88150059835E+03 0.  0.
         23    2    4    4    0    0  0.29180453332E+03  0.31678662137E+03 -0.43833226576E+03  0.62137716424E+03  0.92036709452E+02 0.  0.
         23    2    4    4    0    0 -0.41397205251E+03  0.13411565404E+03 -0.14092828643E+04  0.14783758542E+04  0.10078246745E+03 0.  0.
          1    1    3    3  502    0  0.11326500258E+03 -0.40800713165E+03  0.25579814305E+04  0.25927915032E+04  0.00000000000E+00 0. -1.
         -2    1    3    3    0  502  0.89025166077E+01 -0.42895143758E+02  0.46886644499E+03  0.47090868690E+03  0.00000000000E+00 0.  1.
         13    1    5    5    0    0  0.23562298230E+03  0.28449394033E+03 -0.33099923573E+03  0.49599948178E+03  0.00000000000E+00 0.  1.
        -13    1    5    5    0    0  0.56181551018E+02  0.32292681042E+02 -0.10733303002E+03  0.12537768246E+03  0.00000000000E+00 0. -1.
          4    1    6    6  503    0 -0.26728215960E+03  0.38532980364E+02 -0.79390618681E+03  0.83857711445E+03  0.00000000000E+00 0. -1.
         -4    1    6    6    0  503 -0.14668989290E+03  0.95582673677E+02 -0.61537667749E+03  0.63979873975E+03  0.00000000000E+00 0.  1.
<mgrwt>
<rscale>  0 0.50269931E+04</rscale>
<asrwt>0</asrwt>
<pdfrwt beam="1">  1        1 0.48789892E+00 0.50269931E+04</pdfrwt>
<pdfrwt beam="2">  1       -2 0.30647850E+00 0.50269931E+04</pdfrwt>
<totfact> 0.82096712E-03</totfact>
</mgrwt>
</event>
<event>
12    5  0.5428626E-008  0.1528537E+04  0.7818608E-02  0.8865695E-01
         -2   -1    0    0    0  501 -0.00000000000E+00  0.00000000000E+00  0.52912562072E+03  0.52912562072E+03  0.00000000000E+00 0.  1.
          1   -1    0    0  501    0  0.00000000000E+00 -0.00000000000E+00 -0.11039080787E+04  0.11039080787E+04  0.00000000000E+00 0. -1.
        -24    2    1    2    0    0  0.31811711317E+03  0.34154437196E+03 -0.35182276101E+03  0.59028427674E+03  0.82493736031E+02 0.  0.
        254    2    1    2    0    0 -0.31811711317E+03 -0.34154437196E+03 -0.22295969698E+03  0.10427494227E+04  0.90540834784E+03 0.  0.
         23    2    4    4    0    0 -0.68962395763E+01  0.28943204476E+03 -0.11714023219E+03  0.32546808709E+03  0.91592440003E+02 0.  0.
         23    2    4    4    0    0 -0.31122087359E+03 -0.63097641672E+03 -0.10581946478E+03  0.71728133560E+03  0.91132237171E+02 0.  0.
          1    1    3    3  502    0  0.23662664467E+03  0.26889587551E+03 -0.30886836150E+03  0.47296598775E+03  0.00000000000E+00 0. -1.
         -2    1    3    3    0  502  0.81490468495E+02  0.72648496454E+02 -0.42954399517E+02  0.11731828899E+03  0.00000000000E+00 0.  1.
         13    1    5    5    0    0  0.33616997052E+02  0.46681412888E+02 -0.23764536563E+02  0.62241545595E+02  0.00000000000E+00 0. -1.
        -13    1    5    5    0    0 -0.40513236628E+02  0.24275063187E+03 -0.93375695629E+02  0.26322654150E+03  0.00000000000E+00 0.  1.
          4    1    6    6  503    0 -0.91039571902E+02 -0.21390357694E+03  0.61304138715E+01  0.23255220028E+03  0.00000000000E+00 0. -1.
         -4    1    6    6    0  503 -0.22018130169E+03 -0.41707283978E+03 -0.11194987865E+03  0.48472913532E+03  0.00000000000E+00 0.  1.
<mgrwt>
<rscale>  0 0.15285366E+04</rscale>
<asrwt>0</asrwt>
<pdfrwt beam="1">  1        1 0.16983201E+00 0.15285366E+04</pdfrwt>
<pdfrwt beam="2">  1       -2 0.81403942E-01 0.15285366E+04</pdfrwt>
<totfact> 0.14165416E+01</totfact>
</mgrwt>
</event>
<event>
12    5  0.5428626E-008  0.1801103E+04  0.7818608E-02  0.8705713E-01
         -2   -1    0    0    0  501 -0.00000000000E+00  0.00000000000E+00  0.28519852756E+03  0.28519852756E+03  0.00000000000E+00 0.  1.
          1   -1    0    0  501    0  0.00000000000E+00 -0.00000000000E+00 -0.28436081888E+04  0.28436081888E+04  0.00000000000E+00 0. -1.
        -24    2    1    2    0    0  0.61996973468E+03  0.44423783024E+02 -0.14133261113E+04  0.15460274001E+04  0.79837839115E+02 0.  0.
        254    2    1    2    0    0 -0.61996973468E+03 -0.44423783024E+02 -0.11450835500E+04  0.15827793163E+04  0.89868686609E+03 0.  0.
         23    2    4    4    0    0 -0.17787167352E+03 -0.65426759129E+02 -0.11097390487E+04  0.11293091900E+04  0.88879116152E+02 0.  0.
         23    2    4    4    0    0 -0.44209806116E+03  0.21002976105E+02 -0.35344501255E+02  0.45347012632E+03  0.92163447243E+02 0.  0.
          1    1    3    3  502    0  0.39399788662E+03  0.56489109862E+02 -0.83533715507E+03  0.92531806252E+03  0.00000000000E+00 0. -1.
         -4    1    3    3    0  502  0.22597184806E+03 -0.12065326838E+02 -0.57798895621E+03  0.62070933755E+03  0.00000000000E+00 0.  1.
         13    1    5    5    0    0 -0.69839383071E+02  0.18524493303E+02 -0.41058625022E+03  0.41689538874E+03  0.00000000000E+00 0. -1.
        -13    1    5    5    0    0 -0.10803229045E+03 -0.83951252432E+02 -0.69915279849E+03  0.71241380124E+03  0.00000000000E+00 0.  1.
          3    1    6    6  503    0 -0.25948596555E+03  0.53489490786E+02 -0.39932595398E+02  0.26793414138E+03  0.00000000000E+00 0.  1.
         -3    1    6    6    0  503 -0.18261209561E+03 -0.32486514681E+02  0.45880941424E+01  0.18553598494E+03  0.00000000000E+00 0. -1.
<mgrwt>
<rscale>  0 0.18011028E+04</rscale>
<asrwt>0</asrwt>
<pdfrwt beam="1">  1        1 0.43747818E+00 0.18011028E+04</pdfrwt>
<pdfrwt beam="2">  1       -2 0.43876697E-01 0.18011028E+04</pdfrwt>
<totfact> 0.31738179E+00</totfact>
</mgrwt>
</event>
<event>
12    5  0.5428626E-008  0.1852203E+04  0.7818608E-02  0.8679021E-01
          1   -1    0    0  501    0  0.00000000000E+00  0.00000000000E+00  0.46991355326E+03  0.46991355326E+03  0.00000000000E+00 0. -1.
         -2   -1    0    0    0  501 -0.00000000000E+00 -0.00000000000E+00 -0.18251528664E+04  0.18251528664E+04  0.00000000000E+00 0.  1.
        -24    2    1    2    0    0  0.17752208988E+03 -0.52370224356E+03  0.89277944278E+01  0.55873261970E+03  0.79525483363E+02 0.  0.
        254    2    1    2    0    0 -0.17752208988E+03  0.52370224356E+03 -0.13641671076E+04  0.17363338000E+04  0.92093704196E+03 0.  0.
         23    2    4    4    0    0  0.26119011907E+03  0.47815171565E+03 -0.43247337093E+03  0.70152464017E+03  0.90852973117E+02 0.  0.
         23    2    4    4    0    0 -0.43871220895E+03  0.45550527909E+02 -0.93169373668E+03  0.10348091598E+04  0.90738775813E+02 0.  0.
          1    1    3    3  502    0  0.15106935370E+03 -0.45966197255E+03  0.34009676148E+02  0.48504405646E+03  0.00000000000E+00 0. -1.
         -2    1    3    3    0  502  0.26452736175E+02 -0.64040271009E+02 -0.25081881720E+02  0.73688563242E+02  0.00000000000E+00 0.  1.
         13    1    5    5    0    0  0.15916541681E+03  0.22981270031E+03 -0.26437826970E+03  0.38476405318E+03  0.00000000000E+00 0. -1.
        -13    1    5    5    0    0  0.10202470227E+03  0.24833901534E+03 -0.16809510123E+03  0.31676058699E+03  0.00000000000E+00 0.  1.
          3    1    6    6  503    0 -0.11078589549E+02 -0.72524961996E+01 -0.77728917894E+01  0.15354207707E+02  0.00000000000E+00 0. -1.
         -3    1    6    6    0  503 -0.42763361940E+03  0.52803024108E+02 -0.92392084489E+03  0.10194549521E+04  0.00000000000E+00 0.  1.
<mgrwt>
<rscale>  0 0.18522031E+04</rscale>
<asrwt>0</asrwt>
<pdfrwt beam="1">  1        1 0.72294393E-01 0.18522031E+04</pdfrwt>
<pdfrwt beam="2">  1       -2 0.28079275E+00 0.18522031E+04</pdfrwt>
<totfact> 0.16538224E+00</totfact>
</mgrwt>
</event>
<event>
12    5  0.5428626E-008  0.1211698E+04  0.7818608E-02  0.9102679E-01
         -2   -1    0    0    0  501 -0.00000000000E+00  0.00000000000E+00  0.32392963149E+03  0.32392963149E+03  0.00000000000E+00 0.  1.
          1   -1    0    0  501    0  0.00000000000E+00 -0.00000000000E+00 -0.11331253014E+04  0.11331253014E+04  0.00000000000E+00 0. -1.
        -24    2    1    2    0    0 -0.17286452285E+03  0.78741717058E+02 -0.34991459049E+03  0.40636834090E+03  0.81317935196E+02 0.  0.
        254    2    1    2    0    0  0.17286452285E+03 -0.78741717058E+02 -0.45928107939E+03  0.10506865920E+04  0.92570016925E+03 0.  0.
         23    2    4    4    0    0 -0.15287412464E+03  0.23317326268E+03 -0.50957471737E+03  0.58792235596E+03  0.90807684928E+02 0.  0.
         23    2    4    4    0    0  0.32573864749E+03 -0.31191497974E+03  0.50293637978E+02  0.46276423599E+03  0.90689950039E+02 0.  0.
          1    1    3    3  502    0 -0.13785623127E+03  0.60474716418E+02 -0.19413655902E+03  0.24566345958E+03  0.00000000000E+00 0. -1.
         -2    1    3    3    0  502 -0.35008291582E+02  0.18267000640E+02 -0.15577803147E+03  0.16070488132E+03  0.00000000000E+00 0.  1.
         13    1    5    5    0    0 -0.78771899354E+02  0.15804605082E+03 -0.23639178246E+03  0.29506718069E+03  0.00000000000E+00 0. -1.
        -13    1    5    5    0    0 -0.74102225289E+02  0.75127211858E+02 -0.27318293491E+03  0.29285517527E+03  0.00000000000E+00 0.  1.
          4    1    6    6  503    0 -0.56521864866E+01 -0.12609332628E+01  0.74020155902E+00  0.58382414408E+01  0.00000000000E+00 0. -1.
         -4    1    6    6    0  503  0.33139083398E+03 -0.31065404648E+03  0.49553436419E+02  0.45692599455E+03  0.00000000000E+00 0.  1.
<mgrwt>
<rscale>  0 0.12116978E+04</rscale>
<asrwt>0</asrwt>
<pdfrwt beam="1">  1        1 0.17432697E+00 0.12116978E+04</pdfrwt>
<pdfrwt beam="2">  1       -2 0.49835327E-01 0.12116978E+04</pdfrwt>
<totfact> 0.39554116E+01</totfact>
</mgrwt>
</event>
<event>
12    5  0.5428626E-008  0.1266173E+04  0.7818608E-02  0.9056829E-01
          1   -1    0    0  501    0  0.00000000000E+00  0.00000000000E+00  0.95825947791E+03  0.95825947791E+03  0.00000000000E+00 0. -1.
         -2   -1    0    0    0  501 -0.00000000000E+00 -0.00000000000E+00 -0.41825675385E+03  0.41825675385E+03  0.00000000000E+00 0.  1.
        -24    2    1    2    0    0 -0.10862706406E+03  0.50292144613E+02 -0.16810263752E+03  0.22109015520E+03  0.79329824979E+02 0.  0.
        254    2    1    2    0    0  0.10862706406E+03 -0.50292144613E+02  0.70810536158E+03  0.11554260766E+04  0.90513373401E+03 0.  0.
         23    2    4    4    0    0  0.13203713725E+03  0.33561928880E+03  0.65669365198E+03  0.75482452924E+03  0.91866232962E+02 0.  0.
         23    2    4    4    0    0 -0.23410073194E+02 -0.38591143341E+03  0.51411709601E+02  0.40060154732E+03  0.91448181328E+02 0.  0.
          3    1    3    3  502    0  0.12211955421E+02  0.66088438874E+01 -0.26234104832E+02  0.29682266239E+02  0.00000000000E+00 0. -1.
         -4    1    3    3    0  502 -0.12083901948E+03  0.43683300726E+02 -0.14186853269E+03  0.19140788896E+03  0.00000000000E+00 0.  1.
         13    1    5    5    0    0  0.90205054309E+02  0.21794684354E+03  0.51178229956E+03  0.56352364686E+03  0.00000000000E+00 0.  1.
        -13    1    5    5    0    0  0.41832082943E+02  0.11767244526E+03  0.14491135242E+03  0.19130088238E+03  0.00000000000E+00 0. -1.
          1    1    6    6  503    0 -0.41628332840E+02 -0.12298223010E+03  0.43476737842E+02  0.13692251001E+03  0.00000000000E+00 0. -1.
         -1    1    6    6    0  503  0.18218259645E+02 -0.26292920331E+03  0.79349717593E+01  0.26367903731E+03  0.00000000000E+00 0.  1.
<mgrwt>
<rscale>  0 0.12661730E+04</rscale>
<asrwt>0</asrwt>
<pdfrwt beam="1">  1        1 0.14742453E+00 0.12661730E+04</pdfrwt>
<pdfrwt beam="2">  1       -2 0.64347193E-01 0.12661730E+04</pdfrwt>
<totfact> 0.31449731E+01</totfact>
</mgrwt>
</event>
<event>
12    5  0.5428626E-008  0.1421495E+04  0.7818608E-02  0.8938405E-01
          1   -1    0    0  501    0  0.00000000000E+00  0.00000000000E+00  0.13493783551E+04  0.13493783551E+04  0.00000000000E+00 0. -1.
         -2   -1    0    0    0  501 -0.00000000000E+00 -0.00000000000E+00 -0.37436643667E+03  0.37436643667E+03  0.00000000000E+00 0.  1.
        -24    2    1    2    0    0 -0.13283107483E+03 -0.99312414102E+02  0.78633356065E+03  0.80760421191E+03  0.79981525714E+02 0.  0.
        254    2    1    2    0    0  0.13283107483E+03  0.99312414102E+02  0.18867835776E+03  0.91614057983E+03  0.88102610023E+03 0.  0.
         23    2    4    4    0    0 -0.26044897984E+03  0.16154205283E+03  0.35165427185E+03  0.47525696678E+03  0.90988744530E+02 0.  0.
         23    2    4    4    0    0  0.39328005467E+03 -0.62229638726E+02 -0.16297591409E+03  0.44088361306E+03  0.96309305618E+02 0.  0.
          1    1    3    3  502    0 -0.11382038664E+03 -0.57112917571E+02  0.43569456990E+03  0.45392369845E+03  0.00000000000E+00 0. -1.
         -2    1    3    3    0  502 -0.19010688198E+02 -0.42199496531E+02  0.35063899074E+03  0.35368051346E+03  0.00000000000E+00 0.  1.
         13    1    5    5    0    0 -0.21631274346E+03  0.97680029757E+02  0.29763193962E+03  0.38068013170E+03  0.00000000000E+00 0. -1.
        -13    1    5    5    0    0 -0.44136236382E+02  0.63862023072E+02  0.54022332234E+02  0.94576835075E+02  0.00000000000E+00 0.  1.
          3    1    6    6  503    0  0.30365153479E+03 -0.52902215946E+02 -0.16723317801E+03  0.35067055032E+03  0.00000000000E+00 0. -1.
         -3    1    6    6    0  503  0.89628519887E+02 -0.93274227804E+01  0.42572639261E+01  0.90213062740E+02  0.00000000000E+00 0.  1.
<mgrwt>
<rscale>  0 0.14214949E+04</rscale>
<asrwt>0</asrwt>
<pdfrwt beam="1">  1        1 0.20759667E+00 0.14214949E+04</pdfrwt>
<pdfrwt beam="2">  1       -2 0.57594837E-01 0.14214949E+04</pdfrwt>
<totfact> 0.20110998E+01</totfact>
</mgrwt>
</event>
<event>
12    5  0.5428626E-008  0.1995558E+04  0.7818608E-02  0.8608700E-01
         -2   -1    0    0    0  501 -0.00000000000E+00  0.00000000000E+00  0.96580148251E+03  0.96580148251E+03  0.00000000000E+00 0.  1.
          1   -1    0    0  501    0  0.00000000000E+00 -0.00000000000E+00 -0.10308148418E+04  0.10308148418E+04  0.00000000000E+00 0. -1.
        -24    2    1    2    0    0 -0.21121567639E+02  0.78115249402E+03  0.10264326283E+03  0.79206744493E+03  0.78675653028E+02 0.  0.
        254    2    1    2    0    0  0.21121567639E+02 -0.78115249402E+03 -0.16765662211E+03  0.12045488794E+04  0.90121247234E+03 0.  0.
         23    2    4    4    0    0  0.37275458310E+03 -0.63099510734E+03 -0.28890214838E+03  0.79323019248E+03  0.92999366743E+02 0.  0.
         23    2    4    4    0    0 -0.35163301546E+03 -0.15015738668E+03  0.12124552627E+03  0.41131868689E+03  0.91047054911E+02 0.  0.
          3    1    3    3  502    0  0.18072244650E+02  0.65786499915E+02 -0.60982302530E+00  0.68226398717E+02  0.00000000000E+00 0. -1.
         -4    1    3    3    0  502 -0.39193812288E+02  0.71536599411E+03  0.10325308585E+03  0.72384104621E+03  0.00000000000E+00 0.  1.
         13    1    5    5    0    0  0.25785644569E+01 -0.39096008143E+02 -0.46460429806E+01  0.39455450355E+02  0.00000000000E+00 0.  1.
        -13    1    5    5    0    0  0.37017601864E+03 -0.59189909920E+03 -0.28425610540E+03  0.75377474212E+03  0.00000000000E+00 0. -1.
          4    1    6    6  503    0 -0.18221095630E+03 -0.53809595184E+02  0.10154301494E+03  0.21542351082E+03  0.00000000000E+00 0. -1.
         -4    1    6    6    0  503 -0.16942205916E+03 -0.96347791495E+02  0.19702511330E+02  0.19589517607E+03  0.00000000000E+00 0.  1.
<mgrwt>
<rscale>  0 0.19955576E+04</rscale>
<asrwt>0</asrwt>
<pdfrwt beam="1">  1        1 0.15858690E+00 0.19955576E+04</pdfrwt>
<pdfrwt beam="2">  1       -2 0.14858484E+00 0.19955576E+04</pdfrwt>
<totfact> 0.35789828E+00</totfact>
</mgrwt>
</event>
<event>
12    5  0.5428626E-008  0.2492953E+04  0.7818608E-02  0.8405500E-01
          1   -1    0    0  501    0  0.00000000000E+00  0.00000000000E+00  0.27580881660E+04  0.27580881660E+04  0.00000000000E+00 0. -1.
         -2   -1    0    0    0  501 -0.00000000000E+00 -0.00000000000E+00 -0.56332618885E+03  0.56332618885E+03  0.00000000000E+00 0.  1.
        -24    2    1    2    0    0  0.10360110408E+04  0.19223299180E+03  0.10360680660E+04  0.14800818533E+04  0.83263770023E+02 0.  0.
        254    2    1    2    0    0 -0.10360110408E+04 -0.19223299180E+03  0.11586939112E+04  0.18413325016E+04  0.96832918046E+03 0.  0.
         23    2    4    4    0    0  0.62453204014E+02  0.13127938966E+03  0.47486004598E+03  0.50450546290E+03  0.88876419761E+02 0.  0.
         23    2    4    4    0    0 -0.10984642448E+04 -0.32351238147E+03  0.68383386522E+03  0.13368270387E+04  0.90519710805E+02 0.  0.
          3    1    3    3  502    0  0.31363272917E+03  0.40284382771E+02  0.26431159716E+03  0.41212733553E+03  0.00000000000E+00 0. -1.
         -4    1    3    3    0  502  0.72237831161E+03  0.15194860903E+03  0.77175646881E+03  0.10679545178E+04  0.00000000000E+00 0.  1.
         13    1    5    5    0    0  0.39039157021E+02  0.30479833181E+01  0.13268617744E+03  0.13834365785E+03  0.00000000000E+00 0. -1.
        -13    1    5    5    0    0  0.23414046993E+02  0.12823140634E+03  0.34217386853E+03  0.36616180505E+03  0.00000000000E+00 0.  1.
          3    1    6    6  503    0 -0.10869952923E+04 -0.31304096662E+03  0.68277071466E+03  0.13212604819E+04  0.00000000000E+00 0. -1.
         -3    1    6    6    0  503 -0.11468952498E+02 -0.10471414847E+02  0.10631505607E+01  0.15566556762E+02  0.00000000000E+00 0.  1.
<mgrwt>
<rscale>  0 0.24929527E+04</rscale>
<asrwt>0</asrwt>
<pdfrwt beam="1">  1        1 0.42432125E+00 0.24929527E+04</pdfrwt>
<pdfrwt beam="2">  1       -2 0.86665569E-01 0.24929527E+04</pdfrwt>
<totfact> 0.80408034E-01</totfact>
</mgrwt>
</event>
<event>
12    5  0.5428626E-008  0.1706311E+04  0.7818608E-02  0.8757773E-01
          1   -1    0    0  501    0  0.00000000000E+00  0.00000000000E+00  0.18686486543E+04  0.18686486543E+04  0.00000000000E+00 0. -1.
         -2   -1    0    0    0  501 -0.00000000000E+00 -0.00000000000E+00 -0.38951929573E+03  0.38951929573E+03  0.00000000000E+00 0.  1.
        -24    2    1    2    0    0  0.37792733536E+03 -0.61543779528E+01  0.11706097074E+04  0.12326585100E+04  0.79075710366E+02 0.  0.
        254    2    1    2    0    0 -0.37792733536E+03  0.61543779528E+01  0.30851965122E+03  0.10255094401E+04  0.90200792091E+03 0.  0.
         23    2    4    4    0    0  0.12753586368E+03  0.28858557135E+03  0.29073576222E+03  0.43931136415E+03  0.94446613118E+02 0.  0.
         23    2    4    4    0    0 -0.50546319904E+03 -0.28243119339E+03  0.17783889003E+02  0.58619807595E+03  0.89730111779E+02 0.  0.
          3    1    3    3  502    0  0.26360307239E+03  0.72924384900E+00  0.92186718903E+03  0.95881501124E+03  0.00000000000E+00 0. -1.
         -4    1    3    3    0  502  0.11432426297E+03 -0.68836218018E+01  0.24874251836E+03  0.27384349873E+03  0.00000000000E+00 0.  1.
         13    1    5    5    0    0  0.11837270553E+03  0.25180572185E+03  0.20510907825E+03  0.34567029515E+03  0.00000000000E+00 0. -1.
        -13    1    5    5    0    0  0.91631581486E+01  0.36779849497E+02  0.85626683970E+02  0.93641069002E+02  0.00000000000E+00 0.  1.
          1    1    6    6  503    0 -0.23263207168E+03 -0.14473277748E+03 -0.34512349230E+02  0.27614554116E+03  0.00000000000E+00 0. -1.
         -1    1    6    6    0  503 -0.27283112736E+03 -0.13769841591E+03  0.52296238233E+02  0.31005253480E+03  0.00000000000E+00 0.  1.
<mgrwt>
<rscale>  0 0.17063115E+04</rscale>
<asrwt>0</asrwt>
<pdfrwt beam="1">  1        1 0.28748440E+00 0.17063115E+04</pdfrwt>
<pdfrwt beam="2">  1       -2 0.59926047E-01 0.17063115E+04</pdfrwt>
<totfact> 0.79345658E+00</totfact>
</mgrwt>
</event>
<event>
12    5  0.5428626E-008  0.1884485E+04  0.7818608E-02  0.8662618E-01
         -2   -1    0    0    0  501 -0.00000000000E+00  0.00000000000E+00  0.70245067175E+03  0.70245067175E+03  0.00000000000E+00 0.  1.
          1   -1    0    0  501    0  0.00000000000E+00 -0.00000000000E+00 -0.12638903704E+04  0.12638903704E+04  0.00000000000E+00 0. -1.
        -24    2    1    2    0    0 -0.53294479989E+03  0.19745043828E+01  0.29722501514E+03  0.61594597793E+03  0.83741744043E+02 0.  0.
        254    2    1    2    0    0  0.53294479989E+03 -0.19745043828E+01 -0.85866471384E+03  0.13503950643E+04  0.89567163649E+03 0.  0.
         23    2    4    4    0    0  0.75193204613E+03 -0.62004851339E+02 -0.78946323726E+03  0.10957012422E+04  0.89792013048E+02 0.  0.
         23    2    4    4    0    0 -0.21898724624E+03  0.60030346957E+02 -0.69201476583E+02  0.25469382207E+03  0.92309490672E+02 0.  0.
          1    1    3    3  502    0 -0.13585416136E+03 -0.14498898863E+02  0.11564378524E+03  0.17899736392E+03  0.00000000000E+00 0. -1.
         -2    1    3    3    0  502 -0.39709063853E+03  0.16473403246E+02  0.18158122991E+03  0.43694861400E+03  0.00000000000E+00 0.  1.
         13    1    5    5    0    0  0.27148115722E+03  0.19669244470E+02 -0.29706203540E+03  0.40290786885E+03  0.00000000000E+00 0. -1.
        -13    1    5    5    0    0  0.48045088890E+03 -0.81674095810E+02 -0.49240120186E+03  0.69279337336E+03  0.00000000000E+00 0.  1.
          4    1    6    6  503    0 -0.23517721954E+02  0.51911725681E+01 -0.43945764928E+02  0.50112491194E+02  0.00000000000E+00 0. -1.
         -4    1    6    6    0  503 -0.19546952428E+03  0.54839174389E+02 -0.25255711655E+02  0.20458133087E+03  0.00000000000E+00 0.  1.
<mgrwt>
<rscale>  0 0.18844847E+04</rscale>
<asrwt>0</asrwt>
<pdfrwt beam="1">  1        1 0.19444467E+00 0.18844847E+04</pdfrwt>
<pdfrwt beam="2">  1       -2 0.10806933E+00 0.18844847E+04</pdfrwt>
<totfact> 0.54124022E+00</totfact>
</mgrwt>
</event>
<event>
12    5  0.5428626E-008  0.1454662E+04  0.7818608E-02  0.8915175E-01
          1   -1    0    0  501    0  0.00000000000E+00  0.00000000000E+00  0.85341919273E+03  0.85341919273E+03  0.00000000000E+00 0. -1.
         -2   -1    0    0    0  501 -0.00000000000E+00 -0.00000000000E+00 -0.61987142088E+03  0.61987142088E+03  0.00000000000E+00 0.  1.
        -24    2    1    2    0    0  0.39696173854E+03 -0.17024512376E+03  0.15146406644E+03  0.46472249445E+03  0.80396575738E+02 0.  0.
        254    2    1    2    0    0 -0.39696173854E+03  0.17024512376E+03  0.82083705414E+02  0.10085681192E+04  0.90769482332E+03 0.  0.
         23    2    4    4    0    0 -0.92084155715E+02  0.78030575201E+02  0.47180951484E+03  0.49709743308E+03  0.99666329753E+02 0.  0.
         23    2    4    4    0    0 -0.30487758283E+03  0.92214548561E+02 -0.38972580942E+03  0.51147068609E+03  0.90896604538E+02 0.  0.
          1    1    3    3  502    0  0.20589302731E+03 -0.46001096225E+02  0.83501895121E+02  0.22689338033E+03  0.00000000000E+00 0. -1.
         -2    1    3    3    0  502  0.19106871123E+03 -0.12424402754E+03  0.67962171315E+02  0.23782911411E+03  0.00000000000E+00 0.  1.
         13    1    5    5    0    0 -0.60439410201E+02  0.50173306506E+02  0.43209862307E+03  0.43918049029E+03  0.00000000000E+00 0. -1.
        -13    1    5    5    0    0 -0.31644745514E+02  0.27857268695E+02  0.39710891771E+02  0.57916942798E+02  0.00000000000E+00 0.  1.
          4    1    6    6  503    0 -0.17282299007E+03  0.43277114147E+02 -0.14756055232E+03  0.23133268491E+03  0.00000000000E+00 0. -1.
         -4    1    6    6    0  503 -0.13205459275E+03  0.48937434414E+02 -0.24216525710E+03  0.28013800117E+03  0.00000000000E+00 0.  1.
<mgrwt>
<rscale>  0 0.14546617E+04</rscale>
<asrwt>0</asrwt>
<pdfrwt beam="1">  1        1 0.13129526E+00 0.14546617E+04</pdfrwt>
<pdfrwt beam="2">  1       -2 0.95364835E-01 0.14546617E+04</pdfrwt>
<totfact> 0.15634201E+01</totfact>
</mgrwt>
</event>
<event>
12    5  0.5428626E-008  0.1255182E+04  0.7818608E-02  0.9065881E-01
          1   -1    0    0  501    0  0.00000000000E+00  0.00000000000E+00  0.14111010316E+04  0.14111010316E+04  0.00000000000E+00 0. -1.
         -2   -1    0    0    0  501 -0.00000000000E+00 -0.00000000000E+00 -0.27912288175E+03  0.27912288175E+03  0.00000000000E+00 0.  1.
        -24    2    1    2    0    0  0.95689717591E+02 -0.12908752987E+03  0.67458332059E+03  0.69831460863E+03  0.82222404412E+02 0.  0.
        254    2    1    2    0    0 -0.95689717591E+02  0.12908752987E+03  0.45739482926E+03  0.99190930472E+03  0.86536346499E+03 0.  0.
         23    2    4    4    0    0 -0.23718655621E+02 -0.16565611034E+03 -0.19134505887E+03  0.27035192477E+03  0.92047325647E+02 0.  0.
         23    2    4    4    0    0 -0.71971061970E+02  0.29474364021E+03  0.64873988814E+03  0.72155737995E+03  0.87908832850E+02 0.  0.
          3    1    3    3  502    0  0.10740013653E+03 -0.12433507861E+03  0.57765374556E+03  0.60056461007E+03  0.00000000000E+00 0. -1.
         -4    1    3    3    0  502 -0.11710418934E+02 -0.47524512567E+01  0.96929575029E+02  0.97749998567E+02  0.00000000000E+00 0.  1.
         13    1    5    5    0    0  0.15436959584E+02 -0.85402369132E+02 -0.14686497385E+03  0.17059069412E+03  0.00000000000E+00 0. -1.
        -13    1    5    5    0    0 -0.39155615205E+02 -0.80253741204E+02 -0.44480085021E+02  0.99761230659E+02  0.00000000000E+00 0.  1.
          3    1    6    6  503    0 -0.71472702560E+02  0.15554466650E+03  0.28993413312E+03  0.33669614199E+03  0.00000000000E+00 0. -1.
         -3    1    6    6    0  503 -0.49835941052E+00  0.13919897371E+03  0.35880575502E+03  0.38486123795E+03  0.00000000000E+00 0.  1.
<mgrwt>
<rscale>  0 0.12551822E+04</rscale>
<asrwt>0</asrwt>
<pdfrwt beam="1">  1        1 0.21709246E+00 0.12551822E+04</pdfrwt>
<pdfrwt beam="2">  1       -2 0.42941983E-01 0.12551822E+04</pdfrwt>
<totfact> 0.33550165E+01</totfact>
</mgrwt>
</event>
<event>
12    5  0.5428626E-008  0.1814743E+04  0.7818608E-02  0.8698499E-01
         -2   -1    0    0    0  501 -0.00000000000E+00  0.00000000000E+00  0.26548205056E+03  0.26548205056E+03  0.00000000000E+00 0.  1.
          1   -1    0    0  501    0  0.00000000000E+00 -0.00000000000E+00 -0.31012370940E+04  0.31012370940E+04  0.00000000000E+00 0. -1.
        -24    2    1    2    0    0  0.60677989676E+02  0.20166544180E+03  0.12751515514E+03  0.25863143103E+03  0.79242245557E+02 0.  0.
        254    2    1    2    0    0 -0.60677989676E+02 -0.20166544180E+03 -0.29632701986E+04  0.31080877135E+04  0.91372216583E+03 0.  0.
         23    2    4    4    0    0  0.56053536969E+02  0.29489512819E+03 -0.49525736412E+03  0.58631500907E+03  0.91543964875E+02 0.  0.
         23    2    4    4    0    0 -0.11673152664E+03 -0.49656056999E+03 -0.24680128345E+04  0.25217727045E+04  0.89730557300E+02 0.  0.
          1    1    3    3  502    0 -0.91348590071E+01  0.50098642976E+02  0.59795347029E+02  0.78541729058E+02  0.00000000000E+00 0. -1.
         -2    1    3    3    0  502  0.69812848683E+02  0.15156679883E+03  0.67719808107E+02  0.18008970197E+03  0.00000000000E+00 0.  1.
         13    1    5    5    0    0  0.77921005982E+02  0.22175795052E+03 -0.40335462110E+03  0.46684389484E+03  0.00000000000E+00 0.  1.
        -13    1    5    5    0    0 -0.21867469014E+02  0.73137177673E+02 -0.91902743025E+02  0.11947111423E+03  0.00000000000E+00 0. -1.
          1    1    6    6  503    0 -0.64869882804E+01 -0.12529026692E+03 -0.76985230346E+03  0.78000788531E+03  0.00000000000E+00 0. -1.
         -1    1    6    6    0  503 -0.11024453836E+03 -0.37127030307E+03 -0.16981605310E+04  0.17417648192E+04  0.00000000000E+00 0.  1.
<mgrwt>
<rscale>  0 0.18147427E+04</rscale>
<asrwt>0</asrwt>
<pdfrwt beam="1">  1        1 0.47711339E+00 0.18147427E+04</pdfrwt>
<pdfrwt beam="2">  1       -2 0.40843394E-01 0.18147427E+04</pdfrwt>
<totfact> 0.23750607E+00</totfact>
</mgrwt>
</event>
<event>
12    5  0.5428626E-008  0.1553525E+04  0.7818608E-02  0.8849619E-01
          1   -1    0    0  501    0  0.00000000000E+00  0.00000000000E+00  0.12719531764E+04  0.12719531764E+04  0.00000000000E+00 0. -1.
         -2   -1    0    0    0  501 -0.00000000000E+00 -0.00000000000E+00 -0.47435715184E+03  0.47435715184E+03  0.00000000000E+00 0.  1.
        -24    2    1    2    0    0 -0.69675053437E+02  0.15096983106E+03  0.81529063602E+03  0.83589131794E+03  0.79805834819E+02 0.  0.
        254    2    1    2    0    0  0.69675053437E+02 -0.15096983106E+03 -0.17694611456E+02  0.91041901031E+03  0.89493193713E+03 0.  0.
         23    2    4    4    0    0  0.94119683026E+02 -0.10535908980E+03  0.42455792966E+03  0.45618668542E+03  0.88869588634E+02 0.  0.
         23    2    4    4    0    0 -0.24444629589E+02 -0.45610741263E+02 -0.44225254111E+03  0.45423232489E+03  0.89787611706E+02 0.  0.
          3    1    3    3  502    0 -0.58424271769E+02  0.15351849122E+03  0.65853445755E+03  0.67871124527E+03  0.00000000000E+00 0. -1.
         -4    1    3    3    0  502 -0.11250781667E+02 -0.25486601593E+01  0.15675617847E+03  0.15718007267E+03  0.00000000000E+00 0.  1.
         13    1    5    5    0    0  0.10116625580E+03 -0.93435811975E+02  0.29131110969E+03  0.32222201182E+03  0.00000000000E+00 0. -1.
        -13    1    5    5    0    0 -0.70465727737E+01 -0.11923277826E+02  0.13324681996E+03  0.13396467360E+03  0.00000000000E+00 0.  1.
          2    1    6    6  503    0  0.16430100634E+02 -0.49205968004E+02 -0.34192922668E+03  0.34584211940E+03  0.00000000000E+00 0. -1.
         -2    1    6    6    0  503 -0.40874730224E+02  0.35952267401E+01 -0.10032331444E+03  0.10839020549E+03  0.00000000000E+00 0.  1.
<mgrwt>
<rscale>  0 0.15535251E+04</rscale>
<asrwt>0</asrwt>
<pdfrwt beam="1">  1        1 0.19568510E+00 0.15535251E+04</pdfrwt>
<pdfrwt beam="2">  1       -2 0.72978024E-01 0.15535251E+04</pdfrwt>
<totfact> 0.13579358E+01</totfact>
</mgrwt>
</event>
<event>
12    5  0.5428626E-008  0.1357802E+04  0.7818608E-02  0.8984943E-01
         -2   -1    0    0    0  501 -0.00000000000E+00  0.00000000000E+00  0.32724793409E+03  0.32724793409E+03  0.00000000000E+00 0.  1.
          1   -1    0    0  501    0  0.00000000000E+00 -0.00000000000E+00 -0.14084329923E+04  0.14084329923E+04  0.00000000000E+00 0. -1.
        -24    2    1    2    0    0 -0.19337035282E+03 -0.12815715784E+03  0.68353184271E+02  0.25495390416E+03  0.80703066817E+02 0.  0.
        254    2    1    2    0    0  0.19337035282E+03  0.12815715784E+03 -0.11495382425E+04  0.14807270222E+04  0.90404534897E+03 0.  0.
         23    2    4    4    0    0  0.39003806339E+03 -0.14502005277E+03 -0.20130274984E+03  0.47042446360E+03  0.87268965018E+02 0.  0.
         23    2    4    4    0    0 -0.19666771058E+03  0.27317721061E+03 -0.94823549263E+03  0.10103025586E+04  0.90866570941E+02 0.  0.
          3    1    3    3  502    0 -0.40954494853E+02  0.46822988018E+01 -0.93049138903E+00  0.41231788525E+02  0.00000000000E+00 0. -1.
         -4    1    3    3    0  502 -0.15241585796E+03 -0.13283945664E+03  0.69283675660E+02  0.21372211564E+03  0.00000000000E+00 0.  1.
         13    1    5    5    0    0  0.38356186612E+03 -0.12422711950E+03 -0.19425405849E+03  0.44753404519E+03  0.00000000000E+00 0. -1.
        -13    1    5    5    0    0  0.64761972665E+01 -0.20792933269E+02 -0.70486913534E+01  0.22890418405E+02  0.00000000000E+00 0.  1.
          2    1    6    6  503    0 -0.20402713017E+03  0.24215381537E+03 -0.85344478748E+03  0.91029310962E+03  0.00000000000E+00 0. -1.
         -2    1    6    6    0  503  0.73594195933E+01  0.31023395235E+02 -0.94790705157E+02  0.10000944902E+03  0.00000000000E+00 0.  1.
<mgrwt>
<rscale>  0 0.13578023E+04</rscale>
<asrwt>0</asrwt>
<pdfrwt beam="1">  1        1 0.21668200E+00 0.13578023E+04</pdfrwt>
<pdfrwt beam="2">  1       -2 0.50345837E-01 0.13578023E+04</pdfrwt>
<totfact> 0.24268489E+01</totfact>
</mgrwt>
</event>
<event>
12    5  0.5428626E-008  0.1518664E+04  0.7818608E-02  0.8872136E-01
          1   -1    0    0  501    0  0.00000000000E+00  0.00000000000E+00  0.12854409220E+04  0.12854409220E+04  0.00000000000E+00 0. -1.
         -2   -1    0    0    0  501 -0.00000000000E+00 -0.00000000000E+00 -0.44855025913E+03  0.44855025913E+03  0.00000000000E+00 0.  1.
        -24    2    1    2    0    0  0.72681065344E+02 -0.43338430965E+03  0.15708501773E+02  0.44486562210E+03  0.67484572985E+02 0.  0.
        254    2    1    2    0    0 -0.72681065344E+02  0.43338430965E+03  0.82118216113E+03  0.12891255591E+04  0.89129123645E+03 0.  0.
         23    2    4    4    0    0 -0.28407005538E+03  0.83535826609E+02 -0.57766797800E+02  0.31570068436E+03  0.93037027496E+02 0.  0.
         23    2    4    4    0    0  0.21138899003E+03  0.34984848304E+03  0.87894895893E+03  0.97342487471E+03  0.89024985887E+02 0.  0.
          1    1    3    3  502    0  0.68712687667E+00 -0.14799517162E+03  0.26440702436E+02  0.15034012675E+03  0.00000000000E+00 0. -1.
         -2    1    3    3    0  502  0.71993938467E+02 -0.28538913803E+03 -0.10732200663E+02  0.29452549536E+03  0.00000000000E+00 0.  1.
         13    1    5    5    0    0 -0.78283601677E+02  0.44667024589E+02  0.19965259582E+02  0.92315096096E+02  0.00000000000E+00 0.  1.
        -13    1    5    5    0    0 -0.20578645370E+03  0.38868802020E+02 -0.77732057382E+02  0.22338558826E+03  0.00000000000E+00 0. -1.
          4    1    6    6  503    0  0.20679387377E+03  0.35376582889E+03  0.87503267432E+03  0.96622779356E+03  0.00000000000E+00 0. -1.
         -4    1    6    6    0  503  0.45951162604E+01 -0.39173458511E+01  0.39162846102E+01  0.71970811523E+01  0.00000000000E+00 0.  1.
<mgrwt>
<rscale>  0 0.15186637E+04</rscale>
<asrwt>0</asrwt>
<pdfrwt beam="1">  1        1 0.19776014E+00 0.15186637E+04</pdfrwt>
<pdfrwt beam="2">  1       -2 0.69007733E-01 0.15186637E+04</pdfrwt>
<totfact> 0.15055332E+01</totfact>
</mgrwt>
</event>
<event>
12    5  0.5428626E-008  0.1414694E+04  0.7818608E-02  0.8943250E-01
         -2   -1    0    0    0  501 -0.00000000000E+00  0.00000000000E+00  0.27762536079E+03  0.27762536079E+03  0.00000000000E+00 0.  1.
          1   -1    0    0  501    0  0.00000000000E+00 -0.00000000000E+00 -0.18022132537E+04  0.18022132537E+04  0.00000000000E+00 0. -1.
        -24    2    1    2    0    0  0.27437733903E+03 -0.17369951531E+03 -0.84639797682E+03  0.90991605789E+03  0.78123309265E+02 0.  0.
        254    2    1    2    0    0 -0.27437733903E+03  0.17369951531E+03 -0.67818991613E+03  0.11699225566E+04  0.89628275695E+03 0.  0.
         23    2    4    4    0    0 -0.39190705699E+03 -0.26826023231E+03 -0.39017675172E+03  0.62153357648E+03  0.92257224938E+02 0.  0.
         23    2    4    4    0    0  0.11752971796E+03  0.44195974762E+03 -0.28801316441E+03  0.54838898016E+03  0.92936739603E+02 0.  0.
          3    1    3    3  502    0  0.21255596419E+03 -0.10339377294E+03 -0.66546490745E+03  0.70619675250E+03  0.00000000000E+00 0. -1.
         -4    1    3    3    0  502  0.61821374842E+02 -0.70305742365E+02 -0.18093306937E+03  0.20371930539E+03  0.00000000000E+00 0.  1.
         13    1    5    5    0    0 -0.67689962524E+02 -0.36524648784E+02 -0.24653485417E+02  0.80769891287E+02  0.00000000000E+00 0.  1.
        -13    1    5    5    0    0 -0.32421709447E+03 -0.23173558353E+03 -0.36552326630E+03  0.54076368520E+03  0.00000000000E+00 0. -1.
          2    1    6    6  503    0  0.12299194931E+03  0.30257491903E+03 -0.18938893956E+03  0.37755366724E+03  0.00000000000E+00 0. -1.
         -2    1    6    6    0  503 -0.54622313498E+01  0.13938482859E+03 -0.98624224854E+02  0.17083531292E+03  0.00000000000E+00 0.  1.
<mgrwt>
<rscale>  0 0.14146945E+04</rscale>
<asrwt>0</asrwt>
<pdfrwt beam="1">  1        1 0.27726357E+00 0.14146945E+04</pdfrwt>
<pdfrwt beam="2">  1       -2 0.42711595E-01 0.14146945E+04</pdfrwt>
<totfact> 0.18042222E+01</totfact>
</mgrwt>
</event>
<event>
12    5  0.5428626E-008  0.2862175E+04  0.7818608E-02  0.8284221E-01
         -2   -1    0    0    0  501 -0.00000000000E+00  0.00000000000E+00  0.11053926288E+04  0.11053926288E+04  0.00000000000E+00 0.  1.
          1   -1    0    0  501    0  0.00000000000E+00 -0.00000000000E+00 -0.18527458204E+04  0.18527458204E+04  0.00000000000E+00 0. -1.
        -24    2    1    2    0    0  0.60265928491E+03 -0.90547280044E+03  0.37971749715E+03  0.11549166856E+04  0.81042994119E+02 0.  0.
        254    2    1    2    0    0 -0.60265928491E+03  0.90547280044E+03 -0.11270706887E+04  0.18032217637E+04  0.89344344285E+03 0.  0.
         23    2    4    4    0    0 -0.42774656076E+03 -0.38653330343E+02 -0.29183742506E+03  0.52744320770E+03  0.92552982088E+02 0.  0.
         23    2    4    4    0    0 -0.17491272415E+03  0.94412613079E+03 -0.83523326365E+03  0.12757785560E+04  0.89597473464E+02 0.  0.
          1    1    3    3  502    0  0.11806026689E+03 -0.14220289662E+03  0.89607046400E+02  0.20540037290E+03  0.00000000000E+00 0. -1.
         -4    1    3    3    0  502  0.48459901803E+03 -0.76326990383E+03  0.29011045075E+03  0.94951631265E+03  0.00000000000E+00 0.  1.
         13    1    5    5    0    0 -0.31388954566E+03 -0.43602256868E+02 -0.25775432985E+03  0.40849124622E+03  0.00000000000E+00 0. -1.
        -13    1    5    5    0    0 -0.11385701510E+03  0.49489265250E+01 -0.34083095206E+02  0.11895196148E+03  0.00000000000E+00 0.  1.
          1    1    6    6  503    0 -0.13377512861E+03  0.49004008751E+03 -0.42076643374E+03  0.65960553679E+03  0.00000000000E+00 0. -1.
         -1    1    6    6    0  503 -0.41137595545E+02  0.45408604328E+03 -0.41446682991E+03  0.61617301918E+03  0.00000000000E+00 0.  1.
<mgrwt>
<rscale>  0 0.28621751E+04</rscale>
<asrwt>0</asrwt>
<pdfrwt beam="1">  1        1 0.28503781E+00 0.28621751E+04</pdfrwt>
<pdfrwt beam="2">  1       -2 0.17006041E+00 0.28621751E+04</pdfrwt>
<totfact> 0.60450897E-01</totfact>
</mgrwt>
</event>
<event>
12    5  0.5428626E-008  0.2254973E+04  0.7818608E-02  0.8495889E-01
         -2   -1    0    0    0  501 -0.00000000000E+00  0.00000000000E+00  0.16149959079E+04  0.16149959079E+04  0.00000000000E+00 0.  1.
          1   -1    0    0  501    0  0.00000000000E+00 -0.00000000000E+00 -0.78713863622E+03  0.78713863622E+03  0.00000000000E+00 0. -1.
        -24    2    1    2    0    0 -0.57786246399E+03 -0.12696124359E+03  0.11327408630E+04  0.12812788531E+04  0.92355032856E+02 0.  0.
        254    2    1    2    0    0  0.57786246399E+03  0.12696124359E+03 -0.30488359133E+03  0.11208556910E+04  0.90184216528E+03 0.  0.
         23    2    4    4    0    0  0.28765084436E+03 -0.33826534663E+03 -0.33710867855E+03  0.56485268026E+03  0.90828609223E+02 0.  0.
         23    2    4    4    0    0  0.29021161962E+03  0.46522659022E+03  0.32225087218E+02  0.55600301072E+03  0.86268924091E+02 0.  0.
          3    1    3    3  502    0 -0.20044684064E+02  0.59360283433E+01  0.17546820179E+02  0.27293161966E+02  0.00000000000E+00 0. -1.
         -4    1    3    3    0  502 -0.55781777992E+03 -0.13289727194E+03  0.11151940428E+04  0.12539856912E+04  0.00000000000E+00 0.  1.
         13    1    5    5    0    0  0.10580086204E+03 -0.86724474028E+02 -0.14729254243E+03  0.20102251083E+03  0.00000000000E+00 0.  1.
        -13    1    5    5    0    0  0.18184998232E+03 -0.25154087260E+03 -0.18981613612E+03  0.36383016943E+03  0.00000000000E+00 0. -1.
          2    1    6    6  503    0  0.27227661228E+03  0.46140363193E+03  0.25125246174E+02  0.53633864595E+03  0.00000000000E+00 0. -1.
         -2    1    6    6    0  503  0.17935007346E+02  0.38229582969E+01  0.70998410445E+01  0.19664364763E+02  0.00000000000E+00 0.  1.
<mgrwt>
<rscale>  0 0.22549729E+04</rscale>
<asrwt>0</asrwt>
<pdfrwt beam="1">  1        1 0.12109825E+00 0.22549729E+04</pdfrwt>
<pdfrwt beam="2">  1       -2 0.24846091E+00 0.22549729E+04</pdfrwt>
<totfact> 0.11850759E+00</totfact>
</mgrwt>
</event>
<event>
12    5  0.5428626E-008  0.1343235E+04  0.7818608E-02  0.8995965E-01
         -4   -1    0    0    0  501 -0.00000000000E+00  0.00000000000E+00  0.18504993278E+03  0.18504993278E+03  0.00000000000E+00 0.  1.
          3   -1    0    0  501    0  0.00000000000E+00 -0.00000000000E+00 -0.24375601923E+04  0.24375601923E+04  0.00000000000E+00 0. -1.
        -24    2    1    2    0    0 -0.11404306910E+03  0.36464901152E+02 -0.12928278707E+04  0.13009057237E+04  0.81340567971E+02 0.  0.
        254    2    1    2    0    0  0.11404306910E+03 -0.36464901152E+02 -0.95968238884E+03  0.13217044014E+04  0.90087553340E+03 0.  0.
         23    2    4    4    0    0 -0.38498389384E+03 -0.18346125177E+02 -0.36619865805E+03  0.54069512797E+03  0.98491550068E+02 0.  0.
         23    2    4    4    0    0  0.49902696294E+03 -0.18118775976E+02 -0.59348373079E+03  0.78100927346E+03  0.91631581476E+02 0.  0.
          3    1    3    3  502    0 -0.10151218579E+03  0.53478152094E+02 -0.86769901271E+03  0.87525208555E+03  0.00000000000E+00 0. -1.
         -4    1    3    3    0  502 -0.12530883315E+02 -0.17013250941E+02 -0.42512885802E+03  0.42565363814E+03  0.00000000000E+00 0.  1.
         13    1    5    5    0    0 -0.26709934408E+02  0.25393776942E+02 -0.32471609067E+02  0.49118936255E+02  0.00000000000E+00 0. -1.
        -13    1    5    5    0    0 -0.35827395943E+03 -0.43739902119E+02 -0.33372704898E+03  0.49157619172E+03  0.00000000000E+00 0.  1.
          1    1    6    6  503    0  0.40829431447E+03  0.20527438555E+02 -0.46799862711E+03  0.62140835039E+03  0.00000000000E+00 0.  1.
         -1    1    6    6    0  503  0.90732648471E+02 -0.38646214531E+02 -0.12548510368E+03  0.15960092306E+03  0.00000000000E+00 0. -1.
<mgrwt>
<rscale>  0 0.13432354E+04</rscale>
<asrwt>0</asrwt>
<pdfrwt beam="1">  1        3 0.37500922E+00 0.13432354E+04</pdfrwt>
<pdfrwt beam="2">  1       -4 0.28469223E-01 0.13432354E+04</pdfrwt>
<totfact> 0.40862613E-01</totfact>
</mgrwt>
</event>
<event>
12    5  0.5428626E-008  0.1464934E+04  0.7818608E-02  0.8908112E-01
         -2   -1    0    0    0  501 -0.00000000000E+00  0.00000000000E+00  0.34502819875E+03  0.34502819875E+03  0.00000000000E+00 0.  1.
          1   -1    0    0  501    0  0.00000000000E+00 -0.00000000000E+00 -0.15549687912E+04  0.15549687912E+04  0.00000000000E+00 0. -1.
        -24    2    1    2    0    0 -0.40725310444E+02  0.32872683702E+03  0.10717018681E+02  0.34137763953E+03  0.81877677006E+02 0.  0.
        254    2    1    2    0    0  0.40725310444E+02 -0.32872683702E+03 -0.12206576111E+04  0.15586193504E+04  0.91080700019E+03 0.  0.
         23    2    4    4    0    0 -0.19772333553E+03 -0.57428886894E+03 -0.81159983766E+03  0.10176881771E+04  0.89959473428E+02 0.  0.
         23    2    4    4    0    0  0.23844864597E+03  0.24556203192E+03 -0.40905777345E+03  0.54093117333E+03  0.90109954874E+02 0.  0.
          1    1    3    3  502    0  0.81821892525E+00 -0.49192481308E+01  0.13760671246E+00  0.49887292961E+01  0.00000000000E+00 0. -1.
         -4    1    3    3    0  502 -0.41543529369E+02  0.33364608515E+03  0.10579411968E+02  0.33638891023E+03  0.00000000000E+00 0.  1.
         13    1    5    5    0    0  0.23427527286E+01 -0.81155902122E+02 -0.92314118588E+02  0.12293764855E+03  0.00000000000E+00 0.  1.
        -13    1    5    5    0    0 -0.20006608826E+03 -0.49313296682E+03 -0.71928571907E+03  0.89475052852E+03  0.00000000000E+00 0. -1.
          2    1    6    6  503    0  0.51259346735E+02  0.28523765332E+02 -0.12156561891E+03  0.13497898176E+03  0.00000000000E+00 0.  1.
         -2    1    6    6    0  503  0.18718929924E+03  0.21703826659E+03 -0.28749215454E+03  0.40595219157E+03  0.00000000000E+00 0. -1.
<mgrwt>
<rscale>  0 0.14649342E+04</rscale>
<asrwt>0</asrwt>
<pdfrwt beam="1">  1        1 0.23922597E+00 0.14649342E+04</pdfrwt>
<pdfrwt beam="2">  1       -2 0.53081262E-01 0.14649342E+04</pdfrwt>
<totfact> 0.17073669E+01</totfact>
</mgrwt>
</event>
<event>
12    5  0.5428626E-008  0.1311082E+04  0.7818608E-02  0.9020823E-01
          3   -1    0    0  501    0  0.00000000000E+00  0.00000000000E+00  0.28999258366E+03  0.28999258366E+03  0.00000000000E+00 0. -1.
         -4   -1    0    0    0  501 -0.00000000000E+00 -0.00000000000E+00 -0.14818794439E+04  0.14818794439E+04  0.00000000000E+00 0.  1.
        -24    2    1    2    0    0 -0.48669786034E+02  0.14360214542E+03 -0.71647123653E+03  0.73662640249E+03  0.79354267842E+02 0.  0.
        254    2    1    2    0    0  0.48669786034E+02 -0.14360214542E+03 -0.47541562371E+03  0.10352456251E+04  0.90704088371E+03 0.  0.
         23    2    4    4    0    0  0.46745483458E+02 -0.15283378249E+03 -0.73558508376E+03  0.75873790719E+03  0.95155089517E+02 0.  0.
         23    2    4    4    0    0  0.19243025756E+01  0.92316370650E+01  0.26016946004E+03  0.27650771789E+03  0.93163533914E+02 0.  0.
          3    1    3    3  502    0 -0.17490830718E+02  0.29037676931E+02 -0.55178433873E+02  0.64759365388E+02  0.00000000000E+00 0. -1.
         -4    1    3    3    0  502 -0.31178955316E+02  0.11456446849E+03 -0.66129280266E+03  0.67186703710E+03  0.00000000000E+00 0.  1.
         13    1    5    5    0    0  0.64354252170E+02 -0.92822275762E+02 -0.58286685667E+03  0.59370970790E+03  0.00000000000E+00 0.  1.
        -13    1    5    5    0    0 -0.17608768711E+02 -0.60011506725E+02 -0.15271822709E+03  0.16502819929E+03  0.00000000000E+00 0. -1.
          4    1    6    6  503    0 -0.25923118399E+02 -0.25393837733E+02  0.50526800552E+02  0.62207818129E+02  0.00000000000E+00 0. -1.
         -4    1    6    6    0  503  0.27847420974E+02  0.34625474798E+02  0.20964265949E+03  0.21429989976E+03  0.00000000000E+00 0.  1.
<mgrwt>
<rscale>  0 0.13110821E+04</rscale>
<asrwt>0</asrwt>
<pdfrwt beam="1">  1        3 0.44614244E-01 0.13110821E+04</pdfrwt>
<pdfrwt beam="2">  1       -4 0.22798145E+00 0.13110821E+04</pdfrwt>
<totfact> 0.97392424E-01</totfact>
</mgrwt>
</event>
<event>
12    5  0.5428626E-008  0.1575079E+04  0.7818608E-02  0.8836006E-01
          1   -1    0    0  501    0  0.00000000000E+00  0.00000000000E+00  0.90123034674E+03  0.90123034674E+03  0.00000000000E+00 0. -1.
         -2   -1    0    0    0  501 -0.00000000000E+00 -0.00000000000E+00 -0.68819117625E+03  0.68819117625E+03  0.00000000000E+00 0.  1.
        -24    2    1    2    0    0  0.44593791486E+03  0.17214980552E+03  0.29306336474E+03  0.56618248589E+03  0.78614833992E+02 0.  0.
        254    2    1    2    0    0 -0.44593791486E+03 -0.17214980552E+03 -0.80024194255E+02  0.10232390371E+04  0.90117594061E+03 0.  0.
         23    2    4    4    0    0 -0.12787631023E+03 -0.22895564887E+03  0.36980184012E+03  0.46194855258E+03  0.88713158025E+02 0.  0.
         23    2    4    4    0    0 -0.31806160463E+03  0.56805843353E+02 -0.44982603438E+03  0.56129048452E+03  0.91178169713E+02 0.  0.
          3    1    3    3  502    0  0.13025498461E+03  0.47620903324E+02  0.12834592340E+03  0.18896239706E+03  0.00000000000E+00 0. -1.
         -4    1    3    3    0  502  0.31568293025E+03  0.12452890220E+03  0.16471744133E+03  0.37722008882E+03  0.00000000000E+00 0.  1.
         13    1    5    5    0    0 -0.63597681891E+02 -0.15857877822E+03  0.17229896693E+03  0.24264959932E+03  0.00000000000E+00 0. -1.
        -13    1    5    5    0    0 -0.64278628336E+02 -0.70376870650E+02  0.19750287319E+03  0.21929895326E+03  0.00000000000E+00 0.  1.
          4    1    6    6  503    0 -0.28635373249E+02  0.22945510185E+02 -0.19415717479E+02  0.41514468851E+02  0.00000000000E+00 0. -1.
         -4    1    6    6    0  503 -0.28942623138E+03  0.33860333167E+02 -0.43041031690E+03  0.51977601567E+03  0.00000000000E+00 0.  1.
<mgrwt>
<rscale>  0 0.15750794E+04</rscale>
<asrwt>0</asrwt>
<pdfrwt beam="1">  1        1 0.13865082E+00 0.15750794E+04</pdfrwt>
<pdfrwt beam="2">  1       -2 0.10587557E+00 0.15750794E+04</pdfrwt>
<totfact> 0.11022184E+01</totfact>
</mgrwt>
</event>
<event>
12    5  0.5428626E-008  0.2096306E+04  0.7818608E-02  0.8562872E-01
          1   -1    0    0  501    0  0.00000000000E+00  0.00000000000E+00  0.17580672647E+04  0.17580672647E+04  0.00000000000E+00 0. -1.
         -4   -1    0    0    0  501 -0.00000000000E+00 -0.00000000000E+00 -0.62490505359E+03  0.62490505359E+03  0.00000000000E+00 0.  1.
        -24    2    1    2    0    0 -0.63724812417E+03 -0.55906576596E+03  0.27816952179E+03  0.89673647813E+03  0.90101753177E+02 0.  0.
        254    2    1    2    0    0  0.63724812417E+03  0.55906576596E+03  0.85499268929E+03  0.14862358401E+04  0.87134652771E+03 0.  0.
         23    2    4    4    0    0  0.12483966941E+03  0.52655564120E+03  0.78831589776E+03  0.96075788748E+03  0.93637478437E+02 0.  0.
         23    2    4    4    0    0  0.51240845476E+03  0.32510124765E+02  0.66676791533E+02  0.52547795266E+03  0.89788370509E+02 0.  0.
          3    1    3    3  502    0 -0.13947871739E+03 -0.11840493750E+03  0.21943871946E+02  0.18427038651E+03  0.00000000000E+00 0. -1.
         -4    1    3    3    0  502 -0.49776940678E+03 -0.44066082846E+03  0.25622564985E+03  0.71246609162E+03  0.00000000000E+00 0.  1.
         13    1    5    5    0    0  0.13151048867E+02  0.12068244460E+03  0.11850537268E+03  0.16964883105E+03  0.00000000000E+00 0.  1.
        -13    1    5    5    0    0  0.11168862054E+03  0.40587319660E+03  0.66981052507E+03  0.79110905644E+03  0.00000000000E+00 0. -1.
          2    1    6    6  503    0  0.36553681160E+03  0.19995174318E+02  0.88074731809E+02  0.37652905069E+03  0.00000000000E+00 0. -1.
         -2    1    6    6    0  503  0.14687164316E+03  0.12514950447E+02 -0.21397940276E+02  0.14894890197E+03  0.00000000000E+00 0.  1.
<mgrwt>
<rscale>  0 0.20963064E+04</rscale>
<asrwt>0</asrwt>
<pdfrwt beam="1">  1        1 0.27047188E+00 0.20963064E+04</pdfrwt>
<pdfrwt beam="2">  1       -4 0.96139240E-01 0.20963064E+04</pdfrwt>
<totfact> 0.17810461E+00</totfact>
</mgrwt>
</event>
<event>
12    5  0.5428626E-008  0.2132635E+04  0.7818608E-02  0.8547002E-01
         -2   -1    0    0    0  501 -0.00000000000E+00  0.00000000000E+00  0.59667134151E+03  0.59667134151E+03  0.00000000000E+00 0.  1.
          1   -1    0    0  501    0  0.00000000000E+00 -0.00000000000E+00 -0.19056274909E+04  0.19056274909E+04  0.00000000000E+00 0. -1.
        -24    2    1    2    0    0 -0.55569328010E+03 -0.28126069105E+03 -0.12608760466E+04  0.14085488594E+04  0.79365524488E+02 0.  0.
        254    2    1    2    0    0  0.55569328010E+03  0.28126069105E+03 -0.48080102762E+02  0.10937499730E+04  0.89781663456E+03 0.  0.
         23    2    4    4    0    0  0.33422937263E+03  0.50126714130E+03 -0.30367845267E+03  0.68058150013E+03  0.89401091870E+02 0.  0.
         23    2    4    4    0    0  0.22146390747E+03 -0.22000645025E+03  0.25559834991E+03  0.41316847288E+03  0.89042518192E+02 0.  0.
          3    1    3    3  502    0 -0.53953127149E+03 -0.28086462983E+03 -0.11972662772E+04  0.13429167777E+04  0.00000000000E+00 0. -1.
         -4    1    3    3    0  502 -0.16162008609E+02 -0.39606122341E+00 -0.63609769411E+02  0.65632081723E+02  0.00000000000E+00 0.  1.
         13    1    5    5    0    0  0.23874434684E+03  0.36606542894E+03 -0.26323674927E+03  0.51019246132E+03  0.00000000000E+00 0. -1.
        -13    1    5    5    0    0  0.95485025788E+02  0.13520171236E+03 -0.40441703394E+02  0.17038903881E+03  0.00000000000E+00 0.  1.
          1    1    6    6  503    0  0.20145835481E+03 -0.21117396600E+03  0.20105703618E+03  0.35440632675E+03  0.00000000000E+00 0. -1.
         -1    1    6    6    0  503  0.20005552654E+02 -0.88324842433E+01  0.54541313728E+02  0.58762146132E+02  0.00000000000E+00 0.  1.
<mgrwt>
<rscale>  0 0.21326353E+04</rscale>
<asrwt>0</asrwt>
<pdfrwt beam="1">  1        1 0.29317346E+00 0.21326353E+04</pdfrwt>
<pdfrwt beam="2">  1       -2 0.91795591E-01 0.21326353E+04</pdfrwt>
<totfact> 0.28082072E+00</totfact>
</mgrwt>
</event>
<event>
12    5  0.5428626E-008  0.1780393E+04  0.7818608E-02  0.8716796E-01
         -2   -1    0    0    0  501 -0.00000000000E+00  0.00000000000E+00  0.30932466890E+03  0.30932466890E+03  0.00000000000E+00 0.  1.
          1   -1    0    0  501    0  0.00000000000E+00 -0.00000000000E+00 -0.25618705941E+04  0.25618705941E+04  0.00000000000E+00 0. -1.
        -24    2    1    2    0    0  0.20818311468E+03  0.84394116844E+02 -0.18193158563E+04  0.18349173828E+04  0.80926142079E+02 0.  0.
        254    2    1    2    0    0 -0.20818311468E+03 -0.84394116844E+02 -0.43323006885E+03  0.10362778802E+04  0.91417775961E+03 0.  0.
         23    2    4    4    0    0 -0.18975272114E+01 -0.16772230743E+03  0.24778893104E+03  0.31341210179E+03  0.93238501621E+02 0.  0.
         23    2    4    4    0    0 -0.20628558747E+03  0.83328190582E+02 -0.68101899990E+03  0.72286577837E+03  0.96180686084E+02 0.  0.
          3    1    3    3  502    0  0.17943559618E+03  0.99182468613E+02 -0.16326657253E+04  0.16454882758E+04  0.00000000000E+00 0. -1.
         -4    1    3    3    0  502  0.28747518502E+02 -0.14788351769E+02 -0.18665013106E+03  0.18942910703E+03  0.00000000000E+00 0.  1.
         13    1    5    5    0    0 -0.40675496568E+02 -0.73889208568E+02  0.15196695404E+03  0.17380467855E+03  0.00000000000E+00 0.  1.
        -13    1    5    5    0    0  0.38777969357E+02 -0.93833098858E+02  0.95821977000E+02  0.13960742324E+03  0.00000000000E+00 0. -1.
          4    1    6    6  503    0 -0.32035644382E+01  0.29866391447E+02 -0.56559068646E+02  0.64040552849E+02  0.00000000000E+00 0. -1.
         -4    1    6    6    0  503 -0.20308202303E+03  0.53461799136E+02 -0.62445993125E+03  0.65882522552E+03  0.00000000000E+00 0.  1.
<mgrwt>
<rscale>  0 0.17803930E+04</rscale>
<asrwt>0</asrwt>
<pdfrwt beam="1">  1        1 0.39413395E+00 0.17803930E+04</pdfrwt>
<pdfrwt beam="2">  1       -2 0.47588409E-01 0.17803930E+04</pdfrwt>
<totfact> 0.42675051E+00</totfact>
</mgrwt>
</event>
<event>
12    5  0.5428626E-008  0.1570433E+04  0.7818608E-02  0.8838921E-01
          1   -1    0    0  501    0  0.00000000000E+00  0.00000000000E+00  0.14073052041E+04  0.14073052041E+04  0.00000000000E+00 0. -1.
         -2   -1    0    0    0  501 -0.00000000000E+00 -0.00000000000E+00 -0.43811763379E+03  0.43811763379E+03  0.00000000000E+00 0.  1.
        -24    2    1    2    0    0  0.43539633490E+03  0.28708712073E+03  0.37474651510E+03  0.64692581577E+03  0.78032539384E+02 0.  0.
        254    2    1    2    0    0 -0.43539633490E+03 -0.28708712073E+03  0.59444105521E+03  0.11984970221E+04  0.90058090174E+03 0.  0.
         23    2    4    4    0    0 -0.30638192996E+03 -0.36211273253E+03  0.79596690252E+03  0.93138871651E+03  0.94478110022E+02 0.  0.
         23    2    4    4    0    0 -0.12901440493E+03  0.75025611795E+02 -0.20152584731E+03  0.26710830560E+03  0.91981632300E+02 0.  0.
          1    1    3    3  502    0  0.61614128092E+02  0.53662928941E+02  0.28650387505E+02  0.86584383276E+02  0.00000000000E+00 0. -1.
         -2    1    3    3    0  502  0.37378220680E+03  0.23342419179E+03  0.34609612759E+03  0.56034143250E+03  0.00000000000E+00 0.  1.
         13    1    5    5    0    0 -0.24614808804E+03 -0.33350696668E+03  0.65010067978E+03  0.77100367828E+03  0.00000000000E+00 0. -1.
        -13    1    5    5    0    0 -0.60233841919E+02 -0.28605765845E+02  0.14586622274E+03  0.16038503823E+03  0.00000000000E+00 0.  1.
          3    1    6    6  503    0 -0.37963978763E+02  0.74685136896E+02 -0.10646651166E+03  0.13547786337E+03  0.00000000000E+00 0. -1.
         -3    1    6    6    0  503 -0.91050426168E+02  0.34047489962E+00 -0.95059335652E+02  0.13163044224E+03  0.00000000000E+00 0.  1.
<mgrwt>
<rscale>  0 0.15704333E+04</rscale>
<asrwt>0</asrwt>
<pdfrwt beam="1">  1        1 0.21650849E+00 0.15704333E+04</pdfrwt>
<pdfrwt beam="2">  1       -2 0.67402713E-01 0.15704333E+04</pdfrwt>
<totfact> 0.12932729E+01</totfact>
</mgrwt>
</event>
<event>
12    5  0.5428626E-008  0.2288434E+04  0.7818608E-02  0.8482495E-01
         -4   -1    0    0    0  501 -0.00000000000E+00  0.00000000000E+00  0.13504017870E+04  0.13504017870E+04  0.00000000000E+00 0.  1.
          3   -1    0    0  501    0  0.00000000000E+00 -0.00000000000E+00 -0.96951351700E+03  0.96951351700E+03  0.00000000000E+00 0. -1.
        -24    2    1    2    0    0 -0.79721327085E+01  0.84862119254E+03  0.62620759025E+03  0.10576747420E+04  0.79488555716E+02 0.  0.
        254    2    1    2    0    0  0.79721327085E+01 -0.84862119254E+03 -0.24531932023E+03  0.12622405620E+04  0.90158093602E+03 0.  0.
         23    2    4    4    0    0 -0.17927055183E+03  0.11095109149E+03 -0.14544598230E+03  0.27532578128E+03  0.10100334952E+03 0.  0.
         23    2    4    4    0    0  0.18724268454E+03 -0.95957228402E+03 -0.99873337924E+02  0.98691478074E+03  0.90483753413E+02 0.  0.
          3    1    3    3  502    0 -0.35673102515E+02  0.22761185693E+03  0.18302563724E+03  0.29424158704E+03  0.00000000000E+00 0. -1.
         -4    1    3    3    0  502  0.27700969806E+02  0.62100933561E+03  0.44318195300E+03  0.76343315497E+03  0.00000000000E+00 0.  1.
         13    1    5    5    0    0 -0.56162173449E+02  0.14149694454E+02  0.50374809787E+01  0.58135873558E+02  0.00000000000E+00 0. -1.
        -13    1    5    5    0    0 -0.12310837838E+03  0.96801397032E+02 -0.15048346328E+03  0.21718990772E+03  0.00000000000E+00 0.  1.
          3    1    6    6  503    0  0.10722033606E+03 -0.34094810380E+03 -0.53811016683E+02  0.36143801054E+03  0.00000000000E+00 0. -1.
         -3    1    6    6    0  503  0.80022348473E+02 -0.61862418022E+03 -0.46062321242E+02  0.62547677019E+03  0.00000000000E+00 0.  1.
<mgrwt>
<rscale>  0 0.22884342E+04</rscale>
<asrwt>0</asrwt>
<pdfrwt beam="1">  1        3 0.14915593E+00 0.22884342E+04</pdfrwt>
<pdfrwt beam="2">  1       -4 0.20775412E+00 0.22884342E+04</pdfrwt>
<totfact> 0.79552612E-02</totfact>
</mgrwt>
</event>
<event>
12    5  0.5428626E-008  0.1216838E+04  0.7818608E-02  0.9098244E-01
         -2   -1    0    0    0  501 -0.00000000000E+00  0.00000000000E+00  0.21893710725E+04  0.21893710725E+04  0.00000000000E+00 0.  1.
          1   -1    0    0  501    0  0.00000000000E+00 -0.00000000000E+00 -0.16907771560E+03  0.16907771560E+03  0.00000000000E+00 0. -1.
        -24    2    1    2    0    0 -0.17522064052E+03 -0.92304624109E+02  0.11250582789E+03  0.24147134117E+03  0.80177495612E+02 0.  0.
        254    2    1    2    0    0  0.17522064052E+03  0.92304624109E+02  0.19077875290E+04  0.21169774469E+04  0.89594522067E+03 0.  0.
         23    2    4    4    0    0  0.38648013125E+03 -0.39207239483E+02  0.17764462896E+04  0.18208663955E+04  0.94281020682E+02 0.  0.
         23    2    4    4    0    0 -0.21125949073E+03  0.13151186359E+03  0.13134123939E+03  0.29611105143E+03  0.92224134175E+02 0.  0.
          3    1    3    3  502    0 -0.12379693528E+03 -0.85078654526E+02  0.46011070364E+02  0.15710212359E+03  0.00000000000E+00 0. -1.
         -4    1    3    3    0  502 -0.51423705238E+02 -0.72259695824E+01  0.66494757525E+02  0.84369217580E+02  0.00000000000E+00 0.  1.
         13    1    5    5    0    0  0.36255920280E+03 -0.35247934033E+02  0.15098797129E+04  0.15531993883E+04  0.00000000000E+00 0.  1.
        -13    1    5    5    0    0  0.23920928454E+02 -0.39593054500E+01  0.26656657667E+03  0.26766700715E+03  0.00000000000E+00 0. -1.
          1    1    6    6  503    0 -0.11150566743E+03  0.28677419005E+02  0.25334276957E+02  0.11788865008E+03  0.00000000000E+00 0. -1.
         -1    1    6    6    0  503 -0.99753823302E+02  0.10283444459E+03  0.10600696243E+03  0.17822240135E+03  0.00000000000E+00 0.  1.
<mgrwt>
<rscale>  0 0.12168383E+04</rscale>
<asrwt>0</asrwt>
<pdfrwt beam="1">  1        1 0.26011958E-01 0.12168383E+04</pdfrwt>
<pdfrwt beam="2">  1       -2 0.33682630E+00 0.12168383E+04</pdfrwt>
<totfact> 0.30424412E+00</totfact>
</mgrwt>
</event>
<event>
12    5  0.5428626E-008  0.2166300E+04  0.7818608E-02  0.8532587E-01
          1   -1    0    0  501    0  0.00000000000E+00  0.00000000000E+00  0.74326058381E+03  0.74326058381E+03  0.00000000000E+00 0. -1.
         -2   -1    0    0    0  501 -0.00000000000E+00 -0.00000000000E+00 -0.15784692458E+04  0.15784692458E+04  0.00000000000E+00 0.  1.
        -24    2    1    2    0    0 -0.59867805290E+03 -0.46266218288E+03  0.14240170140E+03  0.77404108300E+03  0.79935268284E+02 0.  0.
        254    2    1    2    0    0  0.59867805290E+03  0.46266218288E+03 -0.97761036340E+03  0.15476887466E+04  0.93120713448E+03 0.  0.
         23    2    4    4    0    0 -0.79011791431E+02 -0.18721951995E+03 -0.57787684145E+02  0.23018584275E+03  0.91389791146E+02 0.  0.
         23    2    4    4    0    0  0.67768984433E+03  0.64988170283E+03 -0.91982267926E+03  0.13175029039E+04  0.90168662280E+02 0.  0.
          1    1    3    3  502    0 -0.58316559478E+03 -0.46286034755E+03  0.13431535823E+03  0.75654638174E+03  0.00000000000E+00 0. -1.
         -2    1    3    3    0  502 -0.15512458122E+02  0.19816467263E+00  0.80863431676E+01  0.17494701256E+02  0.00000000000E+00 0.  1.
         13    1    5    5    0    0 -0.51504881953E+02 -0.45462678564E+02 -0.51118018803E+02  0.85630951493E+02  0.00000000000E+00 0. -1.
        -13    1    5    5    0    0 -0.27506909479E+02 -0.14175684139E+03 -0.66696653417E+01  0.14455489126E+03  0.00000000000E+00 0.  1.
          4    1    6    6  503    0  0.36458492199E+03  0.34830247229E+03 -0.43085402633E+03  0.66322844447E+03  0.00000000000E+00 0. -1.
         -4    1    6    6    0  503  0.31310492234E+03  0.30157923055E+03 -0.48896865292E+03  0.65427445941E+03  0.00000000000E+00 0.  1.
<mgrwt>
<rscale>  0 0.21663000E+04</rscale>
<asrwt>0</asrwt>
<pdfrwt beam="1">  1        1 0.11434778E+00 0.21663000E+04</pdfrwt>
<pdfrwt beam="2">  1       -2 0.24284142E+00 0.21663000E+04</pdfrwt>
<totfact> 0.14154920E+00</totfact>
</mgrwt>
</event>
<event>
12    5  0.5428626E-008  0.1977256E+04  0.7818608E-02  0.8617329E-01
          1   -1    0    0  501    0  0.00000000000E+00  0.00000000000E+00  0.12959091334E+04  0.12959091334E+04  0.00000000000E+00 0. -1.
         -2   -1    0    0    0  501 -0.00000000000E+00 -0.00000000000E+00 -0.75420785609E+03  0.75420785609E+03  0.00000000000E+00 0.  1.
        -24    2    1    2    0    0 -0.23979497063E+03 -0.35713435413E+03  0.89477672587E+03  0.99607754154E+03  0.80613303889E+02 0.  0.
        254    2    1    2    0    0  0.23979497063E+03  0.35713435413E+03 -0.35307544856E+03  0.10540394480E+04  0.89514820597E+03 0.  0.
         23    2    4    4    0    0  0.20176430806E+03  0.64782997955E+03 -0.27243053724E+03  0.73670935651E+03  0.90165181443E+02 0.  0.
         23    2    4    4    0    0  0.38030662564E+02 -0.29069562542E+03 -0.80644911317E+02  0.31733009145E+03  0.90799269197E+02 0.  0.
          1    1    3    3  502    0 -0.19693269692E+03 -0.28050329050E+03  0.63099671644E+03  0.71806785143E+03  0.00000000000E+00 0. -1.
         -2    1    3    3    0  502 -0.42862273702E+02 -0.76631063629E+02  0.26378000943E+03  0.27800969011E+03  0.00000000000E+00 0.  1.
         13    1    5    5    0    0  0.98492901300E+02  0.19502873358E+03 -0.64114318975E+02  0.22770091002E+03  0.00000000000E+00 0.  1.
        -13    1    5    5    0    0  0.10327140676E+03  0.45280124597E+03 -0.20831621826E+03  0.50900844649E+03  0.00000000000E+00 0. -1.
          2    1    6    6  503    0  0.42920551987E+02 -0.91561418621E+02  0.32865617039E+01  0.10117543502E+03  0.00000000000E+00 0. -1.
         -2    1    6    6    0  503 -0.48898894223E+01 -0.19913420680E+03 -0.83931473021E+02  0.21615465644E+03  0.00000000000E+00 0.  1.
<mgrwt>
<rscale>  0 0.19772555E+04</rscale>
<asrwt>0</asrwt>
<pdfrwt beam="1">  1        1 0.19937064E+00 0.19772555E+04</pdfrwt>
<pdfrwt beam="2">  1       -2 0.11603198E+00 0.19772555E+04</pdfrwt>
<totfact> 0.42845415E+00</totfact>
</mgrwt>
</event>
<event>
12    5  0.5428626E-008  0.1395851E+04  0.7818608E-02  0.8956827E-01
          1   -1    0    0  501    0  0.00000000000E+00  0.00000000000E+00  0.15702881247E+04  0.15702881247E+04  0.00000000000E+00 0. -1.
         -2   -1    0    0    0  501 -0.00000000000E+00 -0.00000000000E+00 -0.31019799656E+03  0.31019799656E+03  0.00000000000E+00 0.  1.
        -24    2    1    2    0    0  0.88896349950E+01  0.39662612899E+03  0.26799767407E+03  0.48556547092E+03  0.80992354198E+02 0.  0.
        254    2    1    2    0    0 -0.88896349950E+01 -0.39662612899E+03  0.99209245410E+03  0.13949206504E+04  0.89675240256E+03 0.  0.
         23    2    4    4    0    0  0.37965550424E+03 -0.17043693725E+03  0.18135692729E+03  0.46308754769E+03  0.91502405824E+02 0.  0.
         23    2    4    4    0    0 -0.38854513923E+03 -0.22618919174E+03  0.81073552681E+03  0.93183310267E+03  0.94297195636E+02 0.  0.
          3    1    3    3  502    0  0.17869367977E+02  0.49278199604E+02  0.63688005713E+02  0.82485255288E+02  0.00000000000E+00 0. -1.
         -4    1    3    3    0  502 -0.89797329825E+01  0.34734792939E+03  0.20430966835E+03  0.40308021563E+03  0.00000000000E+00 0.  1.
         13    1    5    5    0    0  0.22636946436E+03 -0.94603991818E+02  0.15459676844E+03  0.28998829369E+03  0.00000000000E+00 0.  1.
        -13    1    5    5    0    0  0.15328603988E+03 -0.75832945435E+02  0.26760158845E+02  0.17309925400E+03  0.00000000000E+00 0. -1.
          4    1    6    6  503    0 -0.32695477021E+03 -0.22619449278E+03  0.71127461839E+03  0.81484658255E+03  0.00000000000E+00 0. -1.
         -4    1    6    6    0  503 -0.61590369021E+02  0.53010413465E-02  0.99460908430E+02  0.11698652012E+03  0.00000000000E+00 0.  1.
<mgrwt>
<rscale>  0 0.13958513E+04</rscale>
<asrwt>0</asrwt>
<pdfrwt beam="1">  1        1 0.24158278E+00 0.13958513E+04</pdfrwt>
<pdfrwt beam="2">  1       -2 0.47722770E-01 0.13958513E+04</pdfrwt>
<totfact> 0.20830173E+01</totfact>
</mgrwt>
</event>
<event>
12    5  0.5428626E-008  0.2146235E+04  0.7818608E-02  0.8541145E-01
         -2   -1    0    0    0  501 -0.00000000000E+00  0.00000000000E+00  0.15789717796E+04  0.15789717796E+04  0.00000000000E+00 0.  1.
          1   -1    0    0  501    0  0.00000000000E+00 -0.00000000000E+00 -0.72932379929E+03  0.72932379929E+03  0.00000000000E+00 0. -1.
        -24    2    1    2    0    0  0.42120810182E+03  0.48426133851E+03  0.99324631166E+03  0.11852343385E+04  0.79478880499E+02 0.  0.
        254    2    1    2    0    0 -0.42120810182E+03 -0.48426133851E+03 -0.14359833134E+03  0.11230612404E+04  0.91034101303E+03 0.  0.
         23    2    4    4    0    0 -0.63333452686E+03 -0.30504929543E+03 -0.32375903115E+03  0.77954125270E+03  0.93257486882E+02 0.  0.
         23    2    4    4    0    0  0.21212642504E+03 -0.17921204308E+03  0.18016069981E+03  0.34351998774E+03  0.91834239989E+02 0.  0.
          1    1    3    3  502    0  0.59151141103E+01  0.32580136709E+02  0.52974572732E+02  0.62472067671E+02  0.00000000000E+00 0. -1.
         -2    1    3    3    0  502  0.41529298771E+03  0.45168120180E+03  0.94027173893E+03  0.11227622708E+04  0.00000000000E+00 0.  1.
         13    1    5    5    0    0 -0.49531723860E+03 -0.20725394399E+03 -0.21461436676E+03  0.57823238458E+03  0.00000000000E+00 0. -1.
        -13    1    5    5    0    0 -0.13801728826E+03 -0.97795351437E+02 -0.10914466439E+03  0.20130886813E+03  0.00000000000E+00 0.  1.
          4    1    6    6  503    0  0.13845906693E+03 -0.16696563165E+03  0.14552189294E+03  0.26119926626E+03  0.00000000000E+00 0. -1.
         -4    1    6    6    0  503  0.73667358107E+02 -0.12246411424E+02  0.34638806872E+02  0.82320721479E+02  0.00000000000E+00 0.  1.
<mgrwt>
<rscale>  0 0.21462355E+04</rscale>
<asrwt>0</asrwt>
<pdfrwt beam="1">  1        1 0.11220366E+00 0.21462355E+04</pdfrwt>
<pdfrwt beam="2">  1       -2 0.24291873E+00 0.21462355E+04</pdfrwt>
<totfact> 0.14585414E+00</totfact>
</mgrwt>
</event>
<event>
12    5  0.5428626E-008  0.1596853E+04  0.7818608E-02  0.8822484E-01
          1   -1    0    0  501    0  0.00000000000E+00  0.00000000000E+00  0.17258773709E+04  0.17258773709E+04  0.00000000000E+00 0. -1.
         -2   -1    0    0    0  501 -0.00000000000E+00 -0.00000000000E+00 -0.36936848715E+03  0.36936848715E+03  0.00000000000E+00 0.  1.
        -24    2    1    2    0    0  0.39578074080E+03  0.30692508372E+03  0.19652300034E+03  0.54390767601E+03  0.79805191277E+02 0.  0.
        254    2    1    2    0    0 -0.39578074080E+03 -0.30692508372E+03  0.11599858834E+04  0.15513381820E+04  0.90013193673E+03 0.  0.
         23    2    4    4    0    0  0.25169307610E+03 -0.66680397019E+02  0.12169497689E+03  0.30104712577E+03  0.89576920190E+02 0.  0.
         23    2    4    4    0    0 -0.64747381690E+03 -0.24024468670E+03  0.10382909065E+04  0.12502910562E+04  0.90773706372E+02 0.  0.
          3    1    3    3  502    0  0.77853215386E+01 -0.50068098455E+01  0.48195544780E+01  0.10435874743E+02  0.00000000000E+00 0. -1.
         -4    1    3    3    0  502  0.38799541926E+03  0.31193189356E+03  0.19170344586E+03  0.53347180127E+03  0.00000000000E+00 0.  1.
         13    1    5    5    0    0  0.18917063019E+03 -0.53125286307E+02  0.45744818072E+02  0.20174343051E+03  0.00000000000E+00 0. -1.
        -13    1    5    5    0    0  0.62522445908E+02 -0.13555110712E+02  0.75950158813E+02  0.99303695261E+02  0.00000000000E+00 0.  1.
          2    1    6    6  503    0 -0.17444285460E+03 -0.23957206417E+02  0.27969721564E+03  0.33050686785E+03  0.00000000000E+00 0. -1.
         -2    1    6    6    0  503 -0.47303096230E+03 -0.21628748028E+03  0.75859369083E+03  0.91978418838E+03  0.00000000000E+00 0.  1.
<mgrwt>
<rscale>  0 0.15968528E+04</rscale>
<asrwt>0</asrwt>
<pdfrwt beam="1">  1        1 0.26551959E+00 0.15968528E+04</pdfrwt>
<pdfrwt beam="2">  1       -2 0.56825922E-01 0.15968528E+04</pdfrwt>
<totfact> 0.11195667E+01</totfact>
</mgrwt>
</event>
<event>
12    5  0.5428626E-008  0.1856054E+04  0.7818608E-02  0.8677046E-01
         -2   -1    0    0    0  501 -0.00000000000E+00  0.00000000000E+00  0.55438134496E+03  0.55438134496E+03  0.00000000000E+00 0.  1.
          1   -1    0    0  501    0  0.00000000000E+00 -0.00000000000E+00 -0.15535050236E+04  0.15535050236E+04  0.00000000000E+00 0. -1.
        -24    2    1    2    0    0  0.15710379859E+03 -0.69079330144E+03 -0.39702080785E+03  0.81644290790E+03  0.84122001587E+02 0.  0.
        254    2    1    2    0    0 -0.15710379859E+03  0.69079330144E+03 -0.60210287076E+03  0.12914434606E+04  0.89633774672E+03 0.  0.
         23    2    4    4    0    0  0.12784323316E+02  0.47161479061E+03 -0.80390762805E+03  0.93637928521E+03  0.89189358559E+02 0.  0.
         23    2    4    4    0    0 -0.16988812191E+03  0.21917851082E+03  0.20180475729E+03  0.35506417543E+03  0.91892410090E+02 0.  0.
          1    1    3    3  502    0  0.15300275461E+03 -0.68477359932E+03 -0.40098051175E+03  0.80815227281E+03  0.00000000000E+00 0. -1.
         -2    1    3    3    0  502  0.41010439815E+01 -0.60197021131E+01  0.39597038933E+01  0.82906350897E+01  0.00000000000E+00 0.  1.
         13    1    5    5    0    0 -0.29453628486E+02  0.68864202608E+02 -0.13755296450E+03  0.15662251650E+03  0.00000000000E+00 0.  1.
        -13    1    5    5    0    0  0.42237951802E+02  0.40275058800E+03 -0.66635466355E+03  0.77975676871E+03  0.00000000000E+00 0. -1.
          3    1    6    6  503    0 -0.15245985879E+03  0.17859737787E+03  0.20369567757E+03  0.31085842595E+03  0.00000000000E+00 0. -1.
         -3    1    6    6    0  503 -0.17428263122E+02  0.40581132953E+02 -0.18909202776E+01  0.44205749475E+02  0.00000000000E+00 0.  1.
<mgrwt>
<rscale>  0 0.18560541E+04</rscale>
<asrwt>0</asrwt>
<pdfrwt beam="1">  1        1 0.23900077E+00 0.18560541E+04</pdfrwt>
<pdfrwt beam="2">  1       -2 0.85289439E-01 0.18560541E+04</pdfrwt>
<totfact> 0.59197054E+00</totfact>
</mgrwt>
</event>
<event>
12    5  0.5428626E-008  0.1790996E+04  0.7818608E-02  0.8711102E-01
         -2   -1    0    0    0  501 -0.00000000000E+00  0.00000000000E+00  0.88799660357E+03  0.88799660357E+03  0.00000000000E+00 0.  1.
          1   -1    0    0  501    0  0.00000000000E+00 -0.00000000000E+00 -0.90306277052E+03  0.90306277052E+03  0.00000000000E+00 0. -1.
        -24    2    1    2    0    0 -0.28444070911E+03  0.18221814521E+02 -0.59900960891E+03  0.66830995257E+03  0.81161133658E+02 0.  0.
        254    2    1    2    0    0  0.28444070911E+03 -0.18221814521E+02  0.58394344195E+03  0.11227494215E+04  0.91560786836E+03 0.  0.
         23    2    4    4    0    0 -0.16562163214E+03 -0.12039558508E+03 -0.13690907068E+03  0.26201100747E+03  0.89331139388E+02 0.  0.
         23    2    4    4    0    0  0.45006234124E+03  0.10217377056E+03  0.72085251263E+03  0.86073841405E+03  0.90811244136E+02 0.  0.
          3    1    3    3  502    0 -0.24670589343E+03 -0.11160732142E+02 -0.52513293343E+03  0.58030419399E+03  0.00000000000E+00 0. -1.
         -4    1    3    3    0  502 -0.37734815678E+02  0.29382546663E+02 -0.73876675481E+02  0.88005758577E+02  0.00000000000E+00 0.  1.
         13    1    5    5    0    0 -0.10405060519E+02  0.73438261273E+01  0.72383190261E+01  0.14648901970E+02  0.00000000000E+00 0. -1.
        -13    1    5    5    0    0 -0.15521657162E+03 -0.12773941120E+03 -0.14414738970E+03  0.24736210550E+03  0.00000000000E+00 0.  1.
          1    1    6    6  503    0  0.45842689606E+01 -0.68532451197E+01  0.32973021223E+02  0.33988271788E+02  0.00000000000E+00 0. -1.
         -1    1    6    6    0  503  0.44547807228E+03  0.10902701568E+03  0.68787949141E+03  0.82675014226E+03  0.00000000000E+00 0.  1.
<mgrwt>
<rscale>  0 0.17909960E+04</rscale>
<asrwt>0</asrwt>
<pdfrwt beam="1">  1        1 0.13893273E+00 0.17909960E+04</pdfrwt>
<pdfrwt beam="2">  1       -2 0.13661486E+00 0.17909960E+04</pdfrwt>
<totfact> 0.57284349E+00</totfact>
</mgrwt>
</event>
<event>
12    5  0.5428626E-008  0.2193846E+04  0.7818608E-02  0.8520994E-01
         -2   -1    0    0    0  501 -0.00000000000E+00  0.00000000000E+00  0.32561198553E+03  0.32561198553E+03  0.00000000000E+00 0.  1.
          1   -1    0    0  501    0  0.00000000000E+00 -0.00000000000E+00 -0.36953194892E+04  0.36953194892E+04  0.00000000000E+00 0. -1.
        -24    2    1    2    0    0  0.68882368986E+03  0.43753409686E+03 -0.67124902858E+03  0.10596535852E+04  0.79851741669E+02 0.  0.
        254    2    1    2    0    0 -0.68882368986E+03 -0.43753409686E+03 -0.26984584751E+04  0.29612778895E+04  0.90640743351E+03 0.  0.
         23    2    4    4    0    0 -0.15686467191E+03 -0.25555640986E+03 -0.21403946705E+04  0.21631194903E+04  0.88774883403E+02 0.  0.
         23    2    4    4    0    0 -0.53195901795E+03 -0.18197768700E+03 -0.55806380461E+03  0.79815839923E+03  0.97597873437E+02 0.  0.
          1    1    3    3  502    0  0.79839040759E+02  0.27872795481E+02 -0.89279896895E+02  0.12297180631E+03  0.00000000000E+00 0. -1.
         -2    1    3    3    0  502  0.60898464910E+03  0.40966130138E+03 -0.58196913168E+03  0.93668177890E+03  0.00000000000E+00 0.  1.
         13    1    5    5    0    0 -0.14661338172E+03 -0.22536416673E+03 -0.16566071648E+04  0.16782823928E+04  0.00000000000E+00 0. -1.
        -13    1    5    5    0    0 -0.10251290185E+02 -0.30192243127E+02 -0.48378750567E+03  0.48483709753E+03  0.00000000000E+00 0.  1.
          4    1    6    6  503    0 -0.36565604945E+03 -0.10524578029E+03 -0.31596335112E+03  0.49458453274E+03  0.00000000000E+00 0. -1.
         -4    1    6    6    0  503 -0.16630296850E+03 -0.76731906714E+02 -0.24210045349E+03  0.30357386650E+03  0.00000000000E+00 0.  1.
<mgrwt>
<rscale>  0 0.21938462E+04</rscale>
<asrwt>0</asrwt>
<pdfrwt beam="1">  1        1 0.56851070E+00 0.21938462E+04</pdfrwt>
<pdfrwt beam="2">  1       -2 0.50094151E-01 0.21938462E+04</pdfrwt>
<totfact> 0.52801776E-01</totfact>
</mgrwt>
</event>
<event>
12    5  0.5428626E-008  0.2696082E+04  0.7818608E-02  0.8336277E-01
         -2   -1    0    0    0  501 -0.00000000000E+00  0.00000000000E+00  0.68195112106E+03  0.68195112106E+03  0.00000000000E+00 0.  1.
          1   -1    0    0  501    0  0.00000000000E+00 -0.00000000000E+00 -0.26647280313E+04  0.26647280313E+04  0.00000000000E+00 0. -1.
        -24    2    1    2    0    0  0.90179151392E+03  0.54418871558E+03 -0.16509482030E+03  0.10692774949E+04  0.82029072179E+02 0.  0.
        254    2    1    2    0    0 -0.90179151392E+03 -0.54418871558E+03 -0.18176820899E+04  0.22774016574E+04  0.87932976553E+03 0.  0.
         23    2    4    4    0    0 -0.73946378579E+03 -0.21903825855E+03 -0.54093492596E+03  0.94636341077E+03  0.90601666192E+02 0.  0.
         23    2    4    4    0    0 -0.16232772813E+03 -0.32515045703E+03 -0.12767471639E+04  0.13310382467E+04  0.97500678989E+02 0.  0.
          3    1    3    3  502    0  0.18140464859E+03  0.14103554977E+03 -0.15436308166E+02  0.23029753025E+03  0.00000000000E+00 0. -1.
         -4    1    3    3    0  502  0.72038686533E+03  0.40315316580E+03 -0.14965851213E+03  0.83897996465E+03  0.00000000000E+00 0.  1.
         13    1    5    5    0    0 -0.19921928292E+02 -0.64313541278E+01 -0.37097715256E+02  0.42596784151E+02  0.00000000000E+00 0.  1.
        -13    1    5    5    0    0 -0.71954185750E+03 -0.21260690442E+03 -0.50383721071E+03  0.90376662662E+03  0.00000000000E+00 0. -1.
          3    1    6    6  503    0 -0.51892320723E+02 -0.20052164637E+03 -0.62877423227E+03  0.66201116212E+03  0.00000000000E+00 0. -1.
         -3    1    6    6    0  503 -0.11043540740E+03 -0.12462881066E+03 -0.64797293168E+03  0.66902708453E+03  0.00000000000E+00 0.  1.
<mgrwt>
<rscale>  0 0.26960818E+04</rscale>
<asrwt>0</asrwt>
<pdfrwt beam="1">  1        1 0.40995815E+00 0.26960818E+04</pdfrwt>
<pdfrwt beam="2">  1       -2 0.10491556E+00 0.26960818E+04</pdfrwt>
<totfact> 0.58774913E-01</totfact>
</mgrwt>
</event>
<event>
12    5  0.5428626E-008  0.1960867E+04  0.7818608E-02  0.8625138E-01
         -2   -1    0    0    0  501 -0.00000000000E+00  0.00000000000E+00  0.15318806396E+04  0.15318806396E+04  0.00000000000E+00 0.  1.
          1   -1    0    0  501    0  0.00000000000E+00 -0.00000000000E+00 -0.62749664681E+03  0.62749664681E+03  0.00000000000E+00 0. -1.
        -24    2    1    2    0    0 -0.37418836779E+03  0.66838163944E+03  0.43484669620E+03  0.88445678288E+03  0.80132397022E+02 0.  0.
        254    2    1    2    0    0  0.37418836779E+03 -0.66838163944E+03  0.46953729662E+03  0.12749205036E+04  0.90454743764E+03 0.  0.
         23    2    4    4    0    0  0.50404518507E+03 -0.32436284105E+03  0.61982045333E+03  0.86729828770E+03  0.93574164321E+02 0.  0.
         23    2    4    4    0    0 -0.12985681728E+03 -0.34401879839E+03 -0.15028315672E+03  0.40762221586E+03  0.91428206959E+02 0.  0.
          1    1    3    3  502    0 -0.40968521224E+02  0.40813031594E+02  0.17546813764E+02  0.60431895158E+02  0.00000000000E+00 0. -1.
         -2    1    3    3    0  502 -0.33321984656E+03  0.62756860785E+03  0.41729988244E+03  0.82402488772E+03  0.00000000000E+00 0.  1.
         13    1    5    5    0    0  0.34892674152E+03 -0.23707299203E+03  0.49243943490E+03  0.64842121459E+03  0.00000000000E+00 0.  1.
        -13    1    5    5    0    0  0.15511844355E+03 -0.87289849019E+02  0.12738101844E+03  0.21887707310E+03  0.00000000000E+00 0. -1.
          3    1    6    6  503    0  0.10556049173E+01 -0.11547474357E+03 -0.42917108333E+02  0.12319662695E+03  0.00000000000E+00 0. -1.
         -3    1    6    6    0  503 -0.13091242220E+03 -0.22854405482E+03 -0.10736604838E+03  0.28442558891E+03  0.00000000000E+00 0.  1.
<mgrwt>
<rscale>  0 0.19608671E+04</rscale>
<asrwt>0</asrwt>
<pdfrwt beam="1">  1        1 0.96537947E-01 0.19608671E+04</pdfrwt>
<pdfrwt beam="2">  1       -2 0.23567394E+00 0.19608671E+04</pdfrwt>
<totfact> 0.20598473E+00</totfact>
</mgrwt>
</event>
<event>
12    5  0.5428626E-008  0.1913262E+04  0.7818608E-02  0.8648283E-01
          1   -1    0    0  501    0  0.00000000000E+00  0.00000000000E+00  0.39281549809E+04  0.39281549809E+04  0.00000000000E+00 0. -1.
         -2   -1    0    0    0  501 -0.00000000000E+00 -0.00000000000E+00 -0.23297004437E+03  0.23297004437E+03  0.00000000000E+00 0.  1.
        -24    2    1    2    0    0  0.47167294351E+03  0.31800398371E+01  0.27032688588E+04  0.27452961033E+04  0.80639281696E+02 0.  0.
        254    2    1    2    0    0 -0.47167294351E+03 -0.31800398371E+01  0.99191607778E+03  0.14158289220E+04  0.89341398729E+03 0.  0.
         23    2    4    4    0    0 -0.18311016539E+03  0.63637409564E+02  0.10707167166E+04  0.10925161238E+04  0.97867976856E+02 0.  0.
         23    2    4    4    0    0 -0.28856277812E+03 -0.66817449401E+02 -0.78800638832E+02  0.32331279822E+03  0.10290080831E+03 0.  0.
          3    1    3    3  502    0  0.32910601762E+03 -0.32194592821E+02  0.19499526690E+04  0.19777923739E+04  0.00000000000E+00 0. -1.
         -4    1    3    3    0  502  0.14256692589E+03  0.35374632658E+02  0.75331618974E+03  0.76750372945E+03  0.00000000000E+00 0.  1.
         13    1    5    5    0    0 -0.70377702389E+02  0.32452049436E+01  0.19153520660E+03  0.20408157123E+03  0.00000000000E+00 0.  1.
        -13    1    5    5    0    0 -0.11273246300E+03  0.60392204621E+02  0.87918151002E+03  0.88843455254E+03  0.00000000000E+00 0. -1.
          2    1    6    6  503    0 -0.21528999390E+03 -0.38343061213E+02 -0.10207581507E+03  0.24132849777E+03  0.00000000000E+00 0. -1.
         -2    1    6    6    0  503 -0.73272784221E+02 -0.28474388189E+02  0.23275176237E+02  0.81984300443E+02  0.00000000000E+00 0.  1.
<mgrwt>
<rscale>  0 0.19132616E+04</rscale>
<asrwt>0</asrwt>
<pdfrwt beam="1">  1        1 0.60433149E+00 0.19132616E+04</pdfrwt>
<pdfrwt beam="2">  1       -2 0.35841548E-01 0.19132616E+04</pdfrwt>
<totfact> 0.67208606E-01</totfact>
</mgrwt>
</event>
<event>
12    5  0.5428626E-008  0.1839725E+04  0.7818608E-02  0.8685455E-01
          3   -1    0    0  501    0  0.00000000000E+00  0.00000000000E+00  0.41224152674E+03  0.41224152674E+03  0.00000000000E+00 0. -1.
         -4   -1    0    0    0  501 -0.00000000000E+00 -0.00000000000E+00 -0.20525519852E+04  0.20525519852E+04  0.00000000000E+00 0.  1.
        -24    2    1    2    0    0  0.39202832732E+03 -0.53917462248E+03 -0.35543593362E+03  0.75809938514E+03  0.63122831765E+02 0.  0.
        254    2    1    2    0    0 -0.39202832732E+03  0.53917462248E+03 -0.12848745248E+04  0.17066941268E+04  0.90416083465E+03 0.  0.
         23    2    4    4    0    0  0.69567668536E+01  0.21282279615E+03  0.80029351287E+02  0.24483914829E+03  0.90551489793E+02 0.  0.
         23    2    4    4    0    0 -0.39898509417E+03  0.32635182634E+03 -0.13649038761E+04  0.14618549785E+04  0.91448166844E+02 0.  0.
          3    1    3    3  502    0  0.84748701776E+01 -0.35410787175E+02 -0.21256639117E+02  0.42161498780E+02  0.00000000000E+00 0. -1.
         -2    1    3    3    0  502  0.38355345714E+03 -0.50376383531E+03 -0.33417929451E+03  0.71593788636E+03  0.00000000000E+00 0.  1.
         13    1    5    5    0    0 -0.27511159407E+02  0.31470047398E+02 -0.40466759572E+01  0.41995277847E+02  0.00000000000E+00 0. -1.
        -13    1    5    5    0    0  0.34467926261E+02  0.18135274875E+03  0.84076027244E+02  0.20284387044E+03  0.00000000000E+00 0.  1.
          2    1    6    6  503    0 -0.26357809741E+03  0.20817694494E+03 -0.76213119397E+03  0.83285953837E+03  0.00000000000E+00 0. -1.
         -2    1    6    6    0  503 -0.13540699676E+03  0.11817488140E+03 -0.60277268211E+03  0.62899544010E+03  0.00000000000E+00 0.  1.
<mgrwt>
<rscale>  0 0.18397252E+04</rscale>
<asrwt>0</asrwt>
<pdfrwt beam="1">  1        3 0.63421772E-01 0.18397252E+04</pdfrwt>
<pdfrwt beam="2">  1       -4 0.31577723E+00 0.18397252E+04</pdfrwt>
<totfact> 0.12799576E-01</totfact>
</mgrwt>
</event>
<event>
12    5  0.5428626E-008  0.1449698E+04  0.7818608E-02  0.8918610E-01
          1   -1    0    0  501    0  0.00000000000E+00  0.00000000000E+00  0.99549673878E+03  0.99549673878E+03  0.00000000000E+00 0. -1.
         -2   -1    0    0    0  501 -0.00000000000E+00 -0.00000000000E+00 -0.52778283276E+03  0.52778283276E+03  0.00000000000E+00 0.  1.
        -24    2    1    2    0    0 -0.36090995057E+03  0.21845559674E+03  0.10970138263E+03  0.44419756122E+03  0.85429736500E+02 0.  0.
        254    2    1    2    0    0  0.36090995057E+03 -0.21845559674E+03  0.35801252339E+03  0.10790820103E+04  0.92642656369E+03 0.  0.
         23    2    4    4    0    0 -0.33110663926E+02 -0.25290248643E+03 -0.23573834924E+03  0.35984131852E+03  0.94112812642E+02 0.  0.
         23    2    4    4    0    0  0.39402061449E+03  0.34446889691E+02  0.59375087263E+03  0.71924069179E+03  0.91259197482E+02 0.  0.
          1    1    3    3  502    0 -0.12058393858E+03  0.43870266108E+02  0.64887373177E+02  0.14378962998E+03  0.00000000000E+00 0. -1.
         -2    1    3    3    0  502 -0.24032601199E+03  0.17458533063E+03  0.44814009453E+02  0.30040793124E+03  0.00000000000E+00 0.  1.
         13    1    5    5    0    0 -0.24011061012E+02 -0.12493373928E+03 -0.55965540969E+02  0.13898601382E+03  0.00000000000E+00 0.  1.
        -13    1    5    5    0    0 -0.90996029135E+01 -0.12796874715E+03 -0.17977280827E+03  0.22085530470E+03  0.00000000000E+00 0. -1.
          3    1    6    6  503    0  0.22749831711E+03 -0.19729633218E+02  0.37468319739E+03  0.43878495999E+03  0.00000000000E+00 0. -1.
         -3    1    6    6    0  503  0.16652229739E+03  0.54176522910E+02  0.21906767524E+03  0.28045573180E+03  0.00000000000E+00 0.  1.
<mgrwt>
<rscale>  0 0.14496980E+04</rscale>
<asrwt>0</asrwt>
<pdfrwt beam="1">  1        1 0.15315334E+00 0.14496980E+04</pdfrwt>
<pdfrwt beam="2">  1       -2 0.81197359E-01 0.14496980E+04</pdfrwt>
<totfact> 0.17363468E+01</totfact>
</mgrwt>
</event>
<event>
12    5  0.5428626E-008  0.1481698E+04  0.7818608E-02  0.8896716E-01
         -2   -1    0    0    0  501 -0.00000000000E+00  0.00000000000E+00  0.30652049732E+03  0.30652049732E+03  0.00000000000E+00 0.  1.
          1   -1    0    0  501    0  0.00000000000E+00 -0.00000000000E+00 -0.17906049228E+04  0.17906049228E+04  0.00000000000E+00 0. -1.
        -24    2    1    2    0    0  0.24944424768E+03 -0.39361145407E+03 -0.49224697266E+03  0.68331627080E+03  0.86380752304E+02 0.  0.
        254    2    1    2    0    0 -0.24944424768E+03  0.39361145407E+03 -0.99183745286E+03  0.14138091494E+04  0.89328739410E+03 0.  0.
         23    2    4    4    0    0 -0.30088135747E+03 -0.28386242111E+02 -0.92230214180E+03  0.97470937864E+03  0.89898620802E+02 0.  0.
         23    2    4    4    0    0  0.51437109785E+02  0.42199769618E+03 -0.69535311053E+02  0.43909977072E+03  0.85121191950E+02 0.  0.
          3    1    3    3  502    0  0.52841370505E+02 -0.11187771187E+03 -0.83019911568E+02  0.14900046499E+03  0.00000000000E+00 0. -1.
         -4    1    3    3    0  502  0.19660287718E+03 -0.28173374220E+03 -0.40922706109E+03  0.53431580581E+03  0.00000000000E+00 0.  1.
         13    1    5    5    0    0 -0.68622462236E+02  0.20786089573E+02 -0.14176491637E+03  0.15886596664E+03  0.00000000000E+00 0.  1.
        -13    1    5    5    0    0 -0.23225889523E+03 -0.49172331684E+02 -0.78053722543E+03  0.81584341200E+03  0.00000000000E+00 0. -1.
          1    1    6    6  503    0  0.74210836606E+02  0.31700954062E+03 -0.61787342767E+02  0.33139096674E+03  0.00000000000E+00 0. -1.
         -1    1    6    6    0  503 -0.22773726821E+02  0.10498815556E+03 -0.77479682864E+01  0.10770880398E+03  0.00000000000E+00 0.  1.
<mgrwt>
<rscale>  0 0.14816978E+04</rscale>
<asrwt>0</asrwt>
<pdfrwt beam="1">  1        1 0.27547767E+00 0.14816978E+04</pdfrwt>
<pdfrwt beam="2">  1       -2 0.47157001E-01 0.14816978E+04</pdfrwt>
<totfact> 0.14988007E+01</totfact>
</mgrwt>
</event>
<event>
12    5  0.5428626E-008  0.2443620E+04  0.7818608E-02  0.8423351E-01
         -2   -1    0    0    0  501 -0.00000000000E+00  0.00000000000E+00  0.13100380875E+04  0.13100380875E+04  0.00000000000E+00 0.  1.
          1   -1    0    0  501    0  0.00000000000E+00 -0.00000000000E+00 -0.11395236746E+04  0.11395236746E+04  0.00000000000E+00 0. -1.
        -24    2    1    2    0    0  0.24965319856E+03 -0.41290048239E+03 -0.86638722816E+03  0.99496517906E+03  0.80717721261E+02 0.  0.
        254    2    1    2    0    0 -0.24965319856E+03  0.41290048239E+03  0.10369016410E+04  0.14545965830E+04  0.89881737764E+03 0.  0.
         23    2    4    4    0    0 -0.10724339554E+03  0.25822278573E+03  0.11582197248E+04  0.11950438618E+04  0.92069254517E+02 0.  0.
         23    2    4    4    0    0 -0.14240980302E+03  0.15467769666E+03 -0.12131808383E+03  0.25955272126E+03  0.91890128996E+02 0.  0.
          3    1    3    3  502    0  0.12807622878E+03 -0.16508169178E+03 -0.43902584130E+03  0.48620898250E+03  0.00000000000E+00 0. -1.
         -4    1    3    3    0  502  0.12157696979E+03 -0.24781879061E+03 -0.42736138686E+03  0.50875619656E+03  0.00000000000E+00 0.  1.
         13    1    5    5    0    0 -0.26289290154E+02  0.40263954507E+02  0.37412710827E+03  0.37720472684E+03  0.00000000000E+00 0.  1.
        -13    1    5    5    0    0 -0.80954105384E+02  0.21795883122E+03  0.78409261655E+03  0.81783913493E+03  0.00000000000E+00 0. -1.
          1    1    6    6  503    0 -0.65465803300E+02  0.12546683855E+02 -0.23737998291E+02  0.70757919983E+02  0.00000000000E+00 0. -1.
         -1    1    6    6    0  503 -0.76943999722E+02  0.14213101281E+03 -0.97580085537E+02  0.18879480127E+03  0.00000000000E+00 0.  1.
<mgrwt>
<rscale>  0 0.24436198E+04</rscale>
<asrwt>0</asrwt>
<pdfrwt beam="1">  1        1 0.17531133E+00 0.24436198E+04</pdfrwt>
<pdfrwt beam="2">  1       -2 0.20154432E+00 0.24436198E+04</pdfrwt>
<totfact> 0.12050892E+00</totfact>
</mgrwt>
</event>
<event>
12    5  0.5428626E-008  0.1738698E+04  0.7818608E-02  0.8739596E-01
         -2   -1    0    0    0  501 -0.00000000000E+00  0.00000000000E+00  0.59455489419E+03  0.59455489419E+03  0.00000000000E+00 0.  1.
          1   -1    0    0  501    0  0.00000000000E+00 -0.00000000000E+00 -0.12711485117E+04  0.12711485117E+04  0.00000000000E+00 0. -1.
        -24    2    1    2    0    0 -0.14962563376E+02 -0.17740445213E+01 -0.92856703283E+03  0.93205533386E+03  0.79141552863E+02 0.  0.
        254    2    1    2    0    0  0.14962563376E+02  0.17740445213E+01  0.25197341533E+03  0.93364807201E+03  0.89887768623E+03 0.  0.
         23    2    4    4    0    0 -0.25246203720E+03 -0.22320548869E+03 -0.16135954541E+03  0.38477417406E+03  0.91959185061E+02 0.  0.
         23    2    4    4    0    0  0.26742460058E+03  0.22497953321E+03  0.41333296074E+03  0.54887389795E+03  0.91031379564E+02 0.  0.
          1    1    3    3  502    0 -0.43000927850E+02 -0.46841203158E+01 -0.75284898345E+03  0.75409058651E+03  0.00000000000E+00 0. -1.
         -2    1    3    3    0  502  0.28038364474E+02  0.29100757945E+01 -0.17571804938E+03  0.17796474735E+03  0.00000000000E+00 0.  1.
         13    1    5    5    0    0 -0.11802694021E+03 -0.16072834127E+03 -0.73950613470E+02  0.21267969235E+03  0.00000000000E+00 0.  1.
        -13    1    5    5    0    0 -0.13443509699E+03 -0.62477147417E+02 -0.87408931938E+02  0.17209448171E+03  0.00000000000E+00 0. -1.
          1    1    6    6  503    0  0.15499325457E+03  0.79946185515E+02  0.16489245297E+03  0.24000796359E+03  0.00000000000E+00 0. -1.
         -1    1    6    6    0  503  0.11243134600E+03  0.14503334770E+03  0.24844050777E+03  0.30886593436E+03  0.00000000000E+00 0.  1.
<mgrwt>
<rscale>  0 0.17386979E+04</rscale>
<asrwt>0</asrwt>
<pdfrwt beam="1">  1        1 0.19556131E+00 0.17386979E+04</pdfrwt>
<pdfrwt beam="2">  1       -2 0.91469985E-01 0.17386979E+04</pdfrwt>
<totfact> 0.80359142E+00</totfact>
</mgrwt>
</event>
<event>
12    5  0.5428626E-008  0.2005242E+04  0.7818608E-02  0.8604174E-01
         -2   -1    0    0    0  501 -0.00000000000E+00  0.00000000000E+00  0.12950186163E+04  0.12950186163E+04  0.00000000000E+00 0.  1.
          1   -1    0    0  501    0  0.00000000000E+00 -0.00000000000E+00 -0.77624308256E+03  0.77624308256E+03  0.00000000000E+00 0. -1.
        -24    2    1    2    0    0  0.52018750143E+03 -0.29542002819E+02  0.83468062587E+03  0.98724635517E+03  0.80596848732E+02 0.  0.
        254    2    1    2    0    0 -0.52018750143E+03  0.29542002819E+02 -0.31590509211E+03  0.10840153437E+04  0.89656314425E+03 0.  0.
         23    2    4    4    0    0 -0.62125795324E+03  0.21793117177E+03  0.31900735446E+02  0.66560223627E+03  0.92483727823E+02 0.  0.
         23    2    4    4    0    0  0.10107045181E+03 -0.18838916895E+03 -0.34780582755E+03  0.41841310745E+03  0.91623793852E+02 0.  0.
          1    1    3    3  502    0  0.19670083584E+03  0.27132721709E+02  0.30000644600E+03  0.35976557791E+03  0.00000000000E+00 0. -1.
         -2    1    3    3    0  502  0.32348666558E+03 -0.56674724527E+02  0.53467417987E+03  0.62748077726E+03  0.00000000000E+00 0.  1.
         13    1    5    5    0    0 -0.44523728755E+03  0.15066010156E+03  0.64251388853E+02  0.47440799887E+03  0.00000000000E+00 0.  1.
        -13    1    5    5    0    0 -0.17602066569E+03  0.67271070202E+02 -0.32350653407E+02  0.19119423739E+03  0.00000000000E+00 0. -1.
          4    1    6    6  503    0  0.84501407646E+02 -0.18948130661E+03 -0.27931130756E+03  0.34793456278E+03  0.00000000000E+00 0. -1.
         -4    1    6    6    0  503  0.16569044166E+02  0.10921376595E+01 -0.68494519999E+02  0.70478544672E+02  0.00000000000E+00 0.  1.
<mgrwt>
<rscale>  0 0.20052424E+04</rscale>
<asrwt>0</asrwt>
<pdfrwt beam="1">  1        1 0.11942201E+00 0.20052424E+04</pdfrwt>
<pdfrwt beam="2">  1       -2 0.19923363E+00 0.20052424E+04</pdfrwt>
<totfact> 0.25347537E+00</totfact>
</mgrwt>
</event>
<event>
12    5  0.5428626E-008  0.2981017E+04  0.7818608E-02  0.8249172E-01
         -4   -1    0    0    0  501 -0.00000000000E+00  0.00000000000E+00  0.72774088820E+03  0.72774088820E+03  0.00000000000E+00 0.  1.
          1   -1    0    0  501    0  0.00000000000E+00 -0.00000000000E+00 -0.30527566342E+04  0.30527566342E+04  0.00000000000E+00 0. -1.
        -24    2    1    2    0    0 -0.12934898274E+04 -0.23972689662E+03 -0.66457939967E+03  0.14761677942E+04  0.82587285114E+02 0.  0.
        254    2    1    2    0    0  0.12934898274E+04  0.23972689662E+03 -0.16604363463E+04  0.23043297282E+04  0.90680853403E+03 0.  0.
         23    2    4    4    0    0  0.38967355746E+03  0.39547519871E+03 -0.24054093248E+03  0.61153876197E+03  0.88733325292E+02 0.  0.
         23    2    4    4    0    0  0.90381626996E+03 -0.15574830208E+03 -0.14198954139E+04  0.16927909662E+04  0.91087241585E+02 0.  0.
          1    1    3    3  502    0 -0.26247342413E+02 -0.17392785383E+02 -0.14607369857E+02  0.34710333062E+02  0.00000000000E+00 0. -1.
         -2    1    3    3    0  502 -0.12672424850E+04 -0.22233411124E+03 -0.64997202982E+03  0.14414574612E+04  0.00000000000E+00 0.  1.
         13    1    5    5    0    0  0.31987934955E+03  0.27121029618E+03 -0.17015278751E+03  0.45258125693E+03  0.00000000000E+00 0.  1.
        -13    1    5    5    0    0  0.69794207907E+02  0.12426490252E+03 -0.70388144966E+02  0.15895750504E+03  0.00000000000E+00 0. -1.
          4    1    6    6  503    0  0.20321322137E+03 -0.70799176371E+02 -0.30401954257E+03  0.37247284328E+03  0.00000000000E+00 0. -1.
         -4    1    6    6    0  503  0.70060304859E+03 -0.84949125713E+02 -0.11158758713E+04  0.13203181229E+04  0.00000000000E+00 0.  1.
<mgrwt>
<rscale>  0 0.29810172E+04</rscale>
<asrwt>0</asrwt>
<pdfrwt beam="1">  1        1 0.46965487E+00 0.29810172E+04</pdfrwt>
<pdfrwt beam="2">  1       -4 0.11196014E+00 0.29810172E+04</pdfrwt>
<totfact> 0.14469797E-01</totfact>
</mgrwt>
</event>
<event>
12    5  0.5428626E-008  0.1071878E+04  0.7818608E-02  0.9233043E-01
          1   -1    0    0  501    0  0.00000000000E+00  0.00000000000E+00  0.35396454382E+03  0.35396454382E+03  0.00000000000E+00 0. -1.
         -2   -1    0    0    0  501 -0.00000000000E+00 -0.00000000000E+00 -0.81146702787E+03  0.81146702787E+03  0.00000000000E+00 0.  1.
        -24    2    1    2    0    0 -0.13164835889E+03  0.32391812371E+02 -0.10085002652E+02  0.15764210260E+03  0.79804795133E+02 0.  0.
        254    2    1    2    0    0  0.13164835889E+03 -0.32391812371E+02 -0.44741748140E+03  0.10077894691E+04  0.89279151623E+03 0.  0.
         23    2    4    4    0    0  0.39112829677E+03 -0.31106334887E+03 -0.30180505718E+03  0.59082752936E+03  0.90824695822E+02 0.  0.
         23    2    4    4    0    0 -0.25947993788E+03  0.27867153650E+03 -0.14561242423E+03  0.41696193974E+03  0.87559223865E+02 0.  0.
          3    1    3    3  502    0 -0.44618427840E+02  0.34971509950E+02  0.27258645393E+02  0.62903452685E+02  0.00000000000E+00 0. -1.
         -4    1    3    3    0  502 -0.87029931048E+02 -0.25796975787E+01 -0.37343648045E+02  0.94738649912E+02  0.00000000000E+00 0.  1.
         13    1    5    5    0    0  0.19280464494E+03 -0.14879107981E+03 -0.19983224760E+03  0.31503228997E+03  0.00000000000E+00 0.  1.
        -13    1    5    5    0    0  0.19832365182E+03 -0.16227226906E+03 -0.10197280958E+03  0.27579523939E+03  0.00000000000E+00 0. -1.
          2    1    6    6  503    0 -0.10336063970E+03  0.71650545973E+02 -0.81497090464E+02  0.14986326545E+03  0.00000000000E+00 0. -1.
         -2    1    6    6    0  503 -0.15611929818E+03  0.20702099052E+03 -0.64115333761E+02  0.26709867429E+03  0.00000000000E+00 0.  1.
<mgrwt>
<rscale>  0 0.10718779E+04</rscale>
<asrwt>0</asrwt>
<pdfrwt beam="1">  1        1 0.54456084E-01 0.10718779E+04</pdfrwt>
<pdfrwt beam="2">  1       -2 0.12484108E+00 0.10718779E+04</pdfrwt>
<totfact> 0.29570251E+01</totfact>
</mgrwt>
</event>
<event>
12    5  0.6040449E-008  0.1582178E+04  0.7818608E-02  0.8831572E-01
         -4   -1    0    0    0  501 -0.00000000000E+00  0.00000000000E+00  0.37109307680E+03  0.37109307680E+03  0.00000000000E+00 0.  1.
          1   -1    0    0  501    0  0.00000000000E+00 -0.00000000000E+00 -0.16864290641E+04  0.16864290641E+04  0.00000000000E+00 0. -1.
        -24    2    1    2    0    0  0.46674942730E+03 -0.65908048961E+02 -0.73307173927E+03  0.87435241931E+03  0.69993424156E+02 0.  0.
        254    2    1    2    0    0 -0.46674942730E+03  0.65908048961E+02 -0.58226424807E+03  0.11831697216E+04  0.91578383738E+03 0.  0.
         23    2    4    4    0    0 -0.40395452155E+03  0.35179961455E+03 -0.67198985446E+03  0.86413679442E+03  0.90663171604E+02 0.  0.
         23    2    4    4    0    0 -0.62794905754E+02 -0.28589156559E+03  0.89725606391E+02  0.31903292722E+03  0.89744842427E+02 0.  0.
          1    1    3    3  502    0  0.37226959248E+03 -0.45360676608E+02 -0.52801396373E+03  0.64764263785E+03  0.00000000000E+00 0. -1.
         -2    1    3    3    0  502  0.94479834827E+02 -0.20547372353E+02 -0.20505777554E+03  0.22670978146E+03  0.00000000000E+00 0.  1.
         13    1    5    5    0    0 -0.28115138673E+03  0.27936324683E+03 -0.54002105758E+03  0.66986018584E+03  0.00000000000E+00 0. -1.
        -13    1    5    5    0    0 -0.12280313482E+03  0.72436367727E+02 -0.13196879688E+03  0.19427660858E+03  0.00000000000E+00 0.  1.
          1    1    6    6  503    0 -0.49222227080E+02 -0.28777396426E+03  0.89370719396E+02  0.30532574020E+03  0.00000000000E+00 0. -1.
         -1    1    6    6    0  503 -0.13572678674E+02  0.18823986678E+01  0.35488699474E+00  0.13707187017E+02  0.00000000000E+00 0.  1.
<mgrwt>
<rscale>  0 0.15821784E+04</rscale>
<asrwt>0</asrwt>
<pdfrwt beam="1">  1        1 0.25945062E+00 0.15821784E+04</pdfrwt>
<pdfrwt beam="2">  1       -4 0.57091243E-01 0.15821784E+04</pdfrwt>
<totfact> 0.67168100E+00</totfact>
</mgrwt>
</event>
<event>
12    5  0.5428626E-008  0.2494921E+04  0.7818608E-02  0.8404797E-01
          1   -1    0    0  501    0  0.00000000000E+00  0.00000000000E+00  0.35942764059E+04  0.35942764059E+04  0.00000000000E+00 0. -1.
         -2   -1    0    0    0  501 -0.00000000000E+00 -0.00000000000E+00 -0.43295427688E+03  0.43295427688E+03  0.00000000000E+00 0.  1.
        -24    2    1    2    0    0  0.27674468099E+03  0.49571763156E+01 -0.31442719706E+03  0.42592324452E+03  0.77032174586E+02 0.  0.
        254    2    1    2    0    0 -0.27674468099E+03 -0.49571763156E+01  0.34757493260E+04  0.36013074382E+04  0.90109361064E+03 0.  0.
         23    2    4    4    0    0  0.21423627995E+03  0.23905501520E+03  0.77450920335E+03  0.84347944278E+03  0.92458533264E+02 0.  0.
         23    2    4    4    0    0 -0.49098096094E+03 -0.24401219151E+03  0.27012401227E+04  0.27578279954E+04  0.91174549444E+02 0.  0.
          3    1    3    3  502    0  0.29485268612E+02  0.18163210030E+02 -0.69449496594E+02  0.77604869956E+02  0.00000000000E+00 0. -1.
         -4    1    3    3    0  502  0.24725941238E+03 -0.13206033715E+02 -0.24497770046E+03  0.34831837456E+03  0.00000000000E+00 0.  1.
         13    1    5    5    0    0  0.19935873281E+03  0.22056693691E+03  0.62515524087E+03  0.69225194343E+03  0.00000000000E+00 0.  1.
        -13    1    5    5    0    0  0.14877547140E+02  0.18488078290E+02  0.14935396248E+03  0.15122749934E+03  0.00000000000E+00 0. -1.
          3    1    6    6  503    0 -0.11032622319E+03 -0.73709641278E+02  0.49214996010E+03  0.50972205168E+03  0.00000000000E+00 0. -1.
         -3    1    6    6    0  503 -0.38065473776E+03 -0.17030255023E+03  0.22090901626E+04  0.22481059438E+04  0.00000000000E+00 0.  1.
<mgrwt>
<rscale>  0 0.24949207E+04</rscale>
<asrwt>0</asrwt>
<pdfrwt beam="1">  1        1 0.55296558E+00 0.24949207E+04</pdfrwt>
<pdfrwt beam="2">  1       -2 0.66608353E-01 0.24949207E+04</pdfrwt>
<totfact> 0.34068463E-01</totfact>
</mgrwt>
</event>
<event>
12    5  0.5428626E-008  0.1739307E+04  0.7818608E-02  0.8739258E-01
         -2   -1    0    0    0  501 -0.00000000000E+00  0.00000000000E+00  0.19204061303E+04  0.19204061303E+04  0.00000000000E+00 0.  1.
          1   -1    0    0  501    0  0.00000000000E+00 -0.00000000000E+00 -0.39382149084E+03  0.39382149084E+03  0.00000000000E+00 0. -1.
        -24    2    1    2    0    0 -0.33342602167E+03  0.27597691317E+03  0.11994980995E+04  0.12777700194E+04  0.81020758771E+02 0.  0.
        254    2    1    2    0    0  0.33342602167E+03 -0.27597691317E+03  0.32708653993E+03  0.10364576017E+04  0.88313225902E+03 0.  0.
         23    2    4    4    0    0  0.58765455447E+03 -0.34548442063E+03  0.32232613031E+03  0.75923475498E+03  0.88577190092E+02 0.  0.
         23    2    4    4    0    0 -0.25422853280E+03  0.69507507460E+02  0.47604096209E+01  0.27722284669E+03  0.85827762081E+02 0.  0.
          3    1    3    3  502    0 -0.57752163068E+02  0.43516674738E+02  0.12539357348E+03  0.14474999685E+03  0.00000000000E+00 0. -1.
         -4    1    3    3    0  502 -0.27567385861E+03  0.23246023843E+03  0.10741045260E+04  0.11330200226E+04  0.00000000000E+00 0.  1.
         13    1    5    5    0    0  0.16477000391E+03 -0.14233185677E+03  0.11619555942E+03  0.24679732509E+03  0.00000000000E+00 0.  1.
        -13    1    5    5    0    0  0.42288455056E+03 -0.20315256386E+03  0.20613057089E+03  0.51243742990E+03  0.00000000000E+00 0. -1.
          4    1    6    6  503    0 -0.15669662717E+03  0.77473606067E+02 -0.20926751199E+02  0.17605090605E+03  0.00000000000E+00 0. -1.
         -4    1    6    6    0  503 -0.97531905628E+02 -0.79660986072E+01  0.25687160820E+02  0.10117194064E+03  0.00000000000E+00 0.  1.
<mgrwt>
<rscale>  0 0.17393070E+04</rscale>
<asrwt>0</asrwt>
<pdfrwt beam="1">  1        1 0.60587923E-01 0.17393070E+04</pdfrwt>
<pdfrwt beam="2">  1       -2 0.29544709E+00 0.17393070E+04</pdfrwt>
<totfact> 0.17248737E+00</totfact>
</mgrwt>
</event>
<event>
12    5  0.5428626E-008  0.1494957E+04  0.7818608E-02  0.8887813E-01
         -2   -1    0    0    0  501 -0.00000000000E+00  0.00000000000E+00  0.70701383053E+03  0.70701383053E+03  0.00000000000E+00 0.  1.
          1   -1    0    0  501    0  0.00000000000E+00 -0.00000000000E+00 -0.79025904614E+03  0.79025904614E+03  0.00000000000E+00 0. -1.
        -24    2    1    2    0    0 -0.10482845578E+02 -0.22581468122E+03 -0.44510829804E+03  0.50529062108E+03  0.78070829767E+02 0.  0.
        254    2    1    2    0    0  0.10482845578E+02  0.22581468122E+03  0.36186308242E+03  0.99198225559E+03  0.89553433473E+03 0.  0.
         23    2    4    4    0    0  0.27940930282E+03  0.33160382500E+03 -0.86026408838E+02  0.45144219436E+03  0.91481454828E+02 0.  0.
         23    2    4    4    0    0 -0.26892645724E+03 -0.10578914378E+03  0.44788949126E+03  0.54054006123E+03  0.89809682457E+02 0.  0.
          1    1    3    3  502    0 -0.22741291710E+02 -0.12317220984E+03 -0.16817722129E+03  0.20969534422E+03  0.00000000000E+00 0. -1.
         -4    1    3    3    0  502  0.12258446132E+02 -0.10264247138E+03 -0.27693107675E+03  0.29559527686E+03  0.00000000000E+00 0.  1.
         13    1    5    5    0    0  0.10049210171E+03  0.57929490767E+02 -0.28611258154E+02  0.11947004854E+03  0.00000000000E+00 0. -1.
        -13    1    5    5    0    0  0.17891720111E+03  0.27367433424E+03 -0.57415150684E+02  0.33197214582E+03  0.00000000000E+00 0.  1.
          3    1    6    6  503    0 -0.12603351414E+03 -0.37313328928E+01  0.16648783652E+03  0.20884580255E+03  0.00000000000E+00 0. -1.
         -3    1    6    6    0  503 -0.14289294310E+03 -0.10205781089E+03  0.28140165474E+03  0.33169425868E+03  0.00000000000E+00 0.  1.
<mgrwt>
<rscale>  0 0.14949570E+04</rscale>
<asrwt>0</asrwt>
<pdfrwt beam="1">  1        1 0.12157831E+00 0.14949570E+04</pdfrwt>
<pdfrwt beam="2">  1       -2 0.10877136E+00 0.14949570E+04</pdfrwt>
<totfact> 0.12904601E+01</totfact>
</mgrwt>
</event>
<event>
12    5  0.5428626E-008  0.1531059E+04  0.7818608E-02  0.8864058E-01
          3   -1    0    0  501    0  0.00000000000E+00  0.00000000000E+00  0.73222465606E+03  0.73222465606E+03  0.00000000000E+00 0. -1.
         -4   -1    0    0    0  501 -0.00000000000E+00 -0.00000000000E+00 -0.80034867557E+03  0.80034867557E+03  0.00000000000E+00 0.  1.
        -24    2    1    2    0    0 -0.20776601045E+03 -0.44381621868E+03  0.39334757627E+02  0.49804912933E+03  0.79788226025E+02 0.  0.
        254    2    1    2    0    0  0.20776601045E+03  0.44381621868E+03 -0.10745877713E+03  0.10345242023E+04  0.90473940187E+03 0.  0.
         23    2    4    4    0    0  0.15360789457E+03  0.63263377752E+03 -0.31846192614E+03  0.73056569389E+03  0.92126830769E+02 0.  0.
         23    2    4    4    0    0  0.54158115886E+02 -0.18881755885E+03  0.21100314901E+03  0.30395850840E+03  0.96349747756E+02 0.  0.
          1    1    3    3  502    0 -0.18264547670E+03 -0.43071262877E+03  0.32892843216E+02  0.46899325995E+03  0.00000000000E+00 0. -1.
         -2    1    3    3    0  502 -0.25120533749E+02 -0.13103589901E+02  0.64419144106E+01  0.29055869380E+02  0.00000000000E+00 0.  1.
         13    1    5    5    0    0  0.20667188381E+02  0.10748356738E+03 -0.93666672517E+02  0.14406004121E+03  0.00000000000E+00 0.  1.
        -13    1    5    5    0    0  0.13294070618E+03  0.52515021014E+03 -0.22479525363E+03  0.58650565268E+03  0.00000000000E+00 0. -1.
          1    1    6    6  503    0  0.11574682341E+02 -0.17296085485E+03  0.16681068543E+03  0.24057272363E+03  0.00000000000E+00 0. -1.
         -1    1    6    6    0  503  0.42583433545E+02 -0.15856704004E+02  0.44192463579E+02  0.63385784775E+02  0.00000000000E+00 0.  1.
<mgrwt>
<rscale>  0 0.15310585E+04</rscale>
<asrwt>0</asrwt>
<pdfrwt beam="1">  1        3 0.11264995E+00 0.15310585E+04</pdfrwt>
<pdfrwt beam="2">  1       -4 0.12313057E+00 0.15310585E+04</pdfrwt>
<totfact> 0.72260512E-01</totfact>
</mgrwt>
</event>
<event>
12    5  0.5428626E-008  0.2547622E+04  0.7818608E-02  0.8386214E-01
          1   -1    0    0  501    0  0.00000000000E+00  0.00000000000E+00  0.38414145087E+04  0.38414145087E+04  0.00000000000E+00 0. -1.
         -4   -1    0    0    0  501 -0.00000000000E+00 -0.00000000000E+00 -0.42239500297E+03  0.42239500297E+03  0.00000000000E+00 0.  1.
        -24    2    1    2    0    0 -0.10128261605E+04  0.15956293579E+03  0.22293402559E+04  0.24551179930E+04  0.79807399774E+02 0.  0.
        254    2    1    2    0    0  0.10128261605E+04 -0.15956293579E+03  0.11896792498E+04  0.18086915187E+04  0.89707922197E+03 0.  0.
         23    2    4    4    0    0  0.75037752199E+03  0.11894366001E+03  0.11905573836E+04  0.14152486994E+04  0.91038332360E+02 0.  0.
         23    2    4    4    0    0  0.26244863846E+03 -0.27850659580E+03 -0.87813374878E+00  0.39344281923E+03  0.91385278612E+02 0.  0.
          3    1    3    3  502    0 -0.53158287831E+03  0.76273512495E+02  0.12607326777E+04  0.13703448069E+04  0.00000000000E+00 0. -1.
         -4    1    3    3    0  502 -0.48124328214E+03  0.83289423299E+02  0.96860757823E+03  0.10847731861E+04  0.00000000000E+00 0.  1.
         13    1    5    5    0    0  0.56525676858E+03  0.67545739143E+02  0.82612181064E+03  0.10032720904E+04  0.00000000000E+00 0. -1.
        -13    1    5    5    0    0  0.18512075340E+03  0.51397920866E+02  0.36443557291E+03  0.41197660906E+03  0.00000000000E+00 0.  1.
          1    1    6    6  503    0  0.23528066860E+03 -0.24261732727E+03 -0.30841929761E+02  0.33936909868E+03  0.00000000000E+00 0. -1.
         -1    1    6    6    0  503  0.27167969860E+02 -0.35889268537E+02  0.29963796013E+02  0.54073720549E+02  0.00000000000E+00 0.  1.
<mgrwt>
<rscale>  0 0.25476219E+04</rscale>
<asrwt>0</asrwt>
<pdfrwt beam="1">  1        1 0.59098683E+00 0.25476219E+04</pdfrwt>
<pdfrwt beam="2">  1       -4 0.64983849E-01 0.25476219E+04</pdfrwt>
<totfact> 0.12814808E-01</totfact>
</mgrwt>
</event>
<event>
12    5  0.5428626E-008  0.1796935E+04  0.7818608E-02  0.8707931E-01
          1   -1    0    0  501    0  0.00000000000E+00  0.00000000000E+00  0.11453550040E+04  0.11453550040E+04  0.00000000000E+00 0. -1.
         -2   -1    0    0    0  501 -0.00000000000E+00 -0.00000000000E+00 -0.70479792495E+03  0.70479792495E+03  0.00000000000E+00 0.  1.
        -24    2    1    2    0    0  0.34491520438E+03  0.20993442565E+03  0.74238648086E+03  0.84876005340E+03  0.78847828125E+02 0.  0.
        254    2    1    2    0    0 -0.34491520438E+03 -0.20993442565E+03 -0.30182940177E+03  0.10013928756E+04  0.86524432516E+03 0.  0.
         23    2    4    4    0    0  0.91570538804E+02 -0.28388525854E+03 -0.43012803711E+03  0.53132615414E+03  0.91221434833E+02 0.  0.
         23    2    4    4    0    0 -0.43648574319E+03  0.73950832886E+02  0.12829863535E+03  0.47006672145E+03  0.92269459155E+02 0.  0.
          1    1    3    3  502    0  0.21305163367E+03  0.13664240548E+03  0.53959039031E+03  0.59600330108E+03  0.00000000000E+00 0. -1.
         -2    1    3    3    0  502  0.13186357071E+03  0.73292020166E+02  0.20279609055E+03  0.25275675232E+03  0.00000000000E+00 0.  1.
         13    1    5    5    0    0  0.12500040938E+02 -0.18046819742E+03 -0.26919876939E+03  0.32433470173E+03  0.00000000000E+00 0.  1.
        -13    1    5    5    0    0  0.79070497866E+02 -0.10341706112E+03 -0.16092926772E+03  0.20699145242E+03  0.00000000000E+00 0. -1.
          2    1    6    6  503    0 -0.31529500821E+03  0.37433272742E+02  0.50512599373E+02  0.32150227808E+03  0.00000000000E+00 0. -1.
         -2    1    6    6    0  503 -0.12119073497E+03  0.36517560145E+02  0.77786035975E+02  0.14856444337E+03  0.00000000000E+00 0.  1.
<mgrwt>
<rscale>  0 0.17969350E+04</rscale>
<asrwt>0</asrwt>
<pdfrwt beam="1">  1        1 0.17620846E+00 0.17969350E+04</pdfrwt>
<pdfrwt beam="2">  1       -2 0.10843045E+00 0.17969350E+04</pdfrwt>
<totfact> 0.66027352E+00</totfact>
</mgrwt>
</event>
<event>
12    5  0.5428626E-008  0.1845291E+04  0.7818608E-02  0.8682578E-01
         -2   -1    0    0    0  501 -0.00000000000E+00  0.00000000000E+00  0.10943641090E+04  0.10943641090E+04  0.00000000000E+00 0.  1.
          1   -1    0    0  501    0  0.00000000000E+00 -0.00000000000E+00 -0.77787114074E+03  0.77787114074E+03  0.00000000000E+00 0. -1.
        -24    2    1    2    0    0 -0.38253130701E+03 -0.13191300988E+03 -0.45691426632E+03  0.61553042521E+03  0.79848698036E+02 0.  0.
        254    2    1    2    0    0  0.38253130701E+03  0.13191300988E+03  0.77340723458E+03  0.12567048245E+04  0.90411117816E+03 0.  0.
         23    2    4    4    0    0  0.12267743943E+03 -0.33507336595E+03  0.81505013118E+02  0.37779312911E+03  0.93598432290E+02 0.  0.
         23    2    4    4    0    0  0.25985386758E+03  0.46698637583E+03  0.69190222146E+03  0.87891169541E+03  0.90314874518E+02 0.  0.
          1    1    3    3  502    0 -0.37759389432E+03 -0.13661701824E+03 -0.43243847890E+03  0.59012235742E+03  0.00000000000E+00 0. -1.
         -2    1    3    3    0  502 -0.49374126904E+01  0.47040083636E+01 -0.24475787427E+02  0.25408067792E+02  0.00000000000E+00 0.  1.
         13    1    5    5    0    0  0.64602347939E+02 -0.76501010321E+02  0.46765771720E+02  0.11051201448E+03  0.00000000000E+00 0. -1.
        -13    1    5    5    0    0  0.58075091487E+02 -0.25857235563E+03  0.34739241398E+02  0.26728111464E+03  0.00000000000E+00 0.  1.
          3    1    6    6  503    0  0.89533154006E+01  0.41364032491E+02  0.95401560900E+02  0.10436763321E+03  0.00000000000E+00 0. -1.
         -3    1    6    6    0  503  0.25090055218E+03  0.42562234334E+03  0.59650066056E+03  0.77454406220E+03  0.00000000000E+00 0.  1.
<mgrwt>
<rscale>  0 0.18452905E+04</rscale>
<asrwt>0</asrwt>
<pdfrwt beam="1">  1        1 0.11967248E+00 0.18452905E+04</pdfrwt>
<pdfrwt beam="2">  1       -2 0.16836371E+00 0.18452905E+04</pdfrwt>
<totfact> 0.41667776E+00</totfact>
</mgrwt>
</event>
<event>
12    5  0.5428626E-008  0.3583144E+04  0.7818608E-02  0.8094364E-01
         -2   -1    0    0    0  501 -0.00000000000E+00  0.00000000000E+00  0.24206961981E+04  0.24206961981E+04  0.00000000000E+00 0.  1.
          1   -1    0    0  501    0  0.00000000000E+00 -0.00000000000E+00 -0.13259536254E+04  0.13259536254E+04  0.00000000000E+00 0. -1.
        -24    2    1    2    0    0  0.12901057128E+04 -0.15913408257E+03 -0.59775697921E+03  0.14329415623E+04  0.79446261346E+02 0.  0.
        254    2    1    2    0    0 -0.12901057128E+04  0.15913408257E+03  0.16924995519E+04  0.23137082611E+04  0.89386507814E+03 0.  0.
         23    2    4    4    0    0 -0.54295760567E+03  0.28223994678E+03  0.22346586857E+03  0.65825496892E+03  0.94341192376E+02 0.  0.
         23    2    4    4    0    0 -0.74714810710E+03 -0.12310586421E+03  0.14690336834E+04  0.16554532922E+04  0.95290566323E+02 0.  0.
          1    1    3    3  502    0  0.87682960445E+03 -0.74634514897E+02 -0.42224136866E+03  0.97605749803E+03  0.00000000000E+00 0. -1.
         -2    1    3    3    0  502  0.41327610832E+03 -0.84499567672E+02 -0.17551561055E+03  0.45688406427E+03  0.00000000000E+00 0.  1.
         13    1    5    5    0    0 -0.36621884701E+03  0.17890564339E+03  0.10180698827E+03  0.42010491071E+03  0.00000000000E+00 0. -1.
        -13    1    5    5    0    0 -0.17673875866E+03  0.10333430339E+03  0.12165888030E+03  0.23815005822E+03  0.00000000000E+00 0.  1.
          4    1    6    6  503    0 -0.36565220719E+03 -0.12006120255E+02  0.70559464693E+03  0.79480154084E+03  0.00000000000E+00 0. -1.
         -4    1    6    6    0  503 -0.38149589991E+03 -0.11109974396E+03  0.76343903645E+03  0.86065175136E+03  0.00000000000E+00 0.  1.
<mgrwt>
<rscale>  0 0.35831444E+04</rscale>
<asrwt>0</asrwt>
<pdfrwt beam="1">  1        1 0.20399287E+00 0.35831444E+04</pdfrwt>
<pdfrwt beam="2">  1       -2 0.37241480E+00 0.35831444E+04</pdfrwt>
<totfact> 0.69034464E-02</totfact>
</mgrwt>
</event>
<event>
12    5  0.5428626E-008  0.1761405E+04  0.7818608E-02  0.8727098E-01
          1   -1    0    0  501    0  0.00000000000E+00  0.00000000000E+00  0.59504661107E+03  0.59504661107E+03  0.00000000000E+00 0. -1.
         -2   -1    0    0    0  501 -0.00000000000E+00 -0.00000000000E+00 -0.13034886310E+04  0.13034886310E+04  0.00000000000E+00 0.  1.
        -24    2    1    2    0    0  0.41603134750E+03  0.17035791281E+03 -0.75720846431E+03  0.88393575334E+03  0.76641092534E+02 0.  0.
        254    2    1    2    0    0 -0.41603134750E+03 -0.17035791281E+03  0.48766444414E+02  0.10145994887E+04  0.90825660240E+03 0.  0.
         23    2    4    4    0    0 -0.42429583180E+03  0.26148220806E+03 -0.15519944751E+03  0.52844083737E+03  0.82237169720E+02 0.  0.
         23    2    4    4    0    0  0.82644843001E+01 -0.43184012087E+03  0.20396589192E+03  0.48615865132E+03  0.90520481091E+02 0.  0.
          1    1    3    3  502    0  0.16377930454E+03  0.10554156528E+03 -0.29899987809E+03  0.35688038569E+03  0.00000000000E+00 0. -1.
         -2    1    3    3    0  502  0.25225204295E+03  0.64816347530E+02 -0.45820858622E+03  0.52705536765E+03  0.00000000000E+00 0.  1.
         13    1    5    5    0    0 -0.14954167331E+03  0.53394127577E+02 -0.69212110992E+02  0.17321651545E+03  0.00000000000E+00 0.  1.
        -13    1    5    5    0    0 -0.27475415849E+03  0.20808808049E+03 -0.85987336515E+02  0.35522432192E+03  0.00000000000E+00 0. -1.
          3    1    6    6  503    0 -0.37724777597E+02 -0.15703356623E+03  0.57909550414E+02  0.17156985690E+03  0.00000000000E+00 0. -1.
         -3    1    6    6    0  503  0.45989261897E+02 -0.27480655464E+03  0.14605634151E+03  0.31458879443E+03  0.00000000000E+00 0.  1.
<mgrwt>
<rscale>  0 0.17614045E+04</rscale>
<asrwt>0</asrwt>
<pdfrwt beam="1">  1        1 0.91545634E-01 0.17614045E+04</pdfrwt>
<pdfrwt beam="2">  1       -2 0.20053671E+00 0.17614045E+04</pdfrwt>
<totfact> 0.37863297E+00</totfact>
</mgrwt>
</event>
<event>
12    5  0.5428626E-008  0.1172905E+04  0.7818608E-02  0.9136909E-01
         -2   -1    0    0    0  501 -0.00000000000E+00  0.00000000000E+00  0.40211964036E+03  0.40211964036E+03  0.00000000000E+00 0.  1.
          1   -1    0    0  501    0  0.00000000000E+00 -0.00000000000E+00 -0.85528469422E+03  0.85528469422E+03  0.00000000000E+00 0. -1.
        -24    2    1    2    0    0  0.21982648595E+03  0.68495500792E+02 -0.94036967524E+02  0.26166954160E+03  0.81318387753E+02 0.  0.
        254    2    1    2    0    0 -0.21982648595E+03 -0.68495500792E+02 -0.35912808633E+03  0.99573479299E+03  0.89972188926E+03 0.  0.
         23    2    4    4    0    0 -0.10346335252E+02  0.38093817762E+03 -0.28720236368E+03  0.48595972310E+03  0.91927759386E+02 0.  0.
         23    2    4    4    0    0 -0.20948015069E+03 -0.44943367842E+03 -0.71925722652E+02  0.50977506989E+03  0.93940127052E+02 0.  0.
          3    1    3    3  502    0  0.45294290440E+02  0.21493181190E+02 -0.59227420826E+02  0.77597789671E+02  0.00000000000E+00 0. -1.
         -4    1    3    3    0  502  0.17453219551E+03  0.47002319602E+02 -0.34809546699E+02  0.18407175193E+03  0.00000000000E+00 0.  1.
         13    1    5    5    0    0 -0.63244051263E+01 -0.36601719900E+01 -0.67712123540E+01  0.99621421362E+01  0.00000000000E+00 0.  1.
        -13    1    5    5    0    0 -0.40219301254E+01  0.38459834961E+03 -0.28043115133E+03  0.47599758096E+03  0.00000000000E+00 0. -1.
          3    1    6    6  503    0 -0.19637760908E+03 -0.35993706498E+03 -0.33142309559E+02  0.41136026640E+03  0.00000000000E+00 0. -1.
         -3    1    6    6    0  503 -0.13102541614E+02 -0.89496613440E+02 -0.38783413093E+02  0.98414803486E+02  0.00000000000E+00 0.  1.
<mgrwt>
<rscale>  0 0.11729054E+04</rscale>
<asrwt>0</asrwt>
<pdfrwt beam="1">  1        1 0.13158226E+00 0.11729054E+04</pdfrwt>
<pdfrwt beam="2">  1       -2 0.61864561E-01 0.11729054E+04</pdfrwt>
<totfact> 0.41812083E+01</totfact>
</mgrwt>
</event>
<event>
12    5  0.5428626E-008  0.1342384E+04  0.7818608E-02  0.8996614E-01
          3   -1    0    0  501    0  0.00000000000E+00  0.00000000000E+00  0.85424347993E+03  0.85424347993E+03  0.00000000000E+00 0. -1.
         -2   -1    0    0    0  501 -0.00000000000E+00 -0.00000000000E+00 -0.52736552744E+03  0.52736552744E+03  0.00000000000E+00 0.  1.
        -24    2    1    2    0    0 -0.30055774080E+03  0.13829911577E+03  0.23357679018E+03  0.41905647397E+03  0.10765040867E+03 0.  0.
        254    2    1    2    0    0  0.30055774080E+03 -0.13829911577E+03  0.93301162307E+02  0.96255253340E+03  0.89907767834E+03 0.  0.
         23    2    4    4    0    0 -0.91614347629E+02 -0.23004505027E+03  0.37787155071E+03  0.46091716642E+03  0.91344466829E+02 0.  0.
         23    2    4    4    0    0  0.39217208843E+03  0.91745934494E+02 -0.28457038840E+03  0.50163536699E+03  0.91877483735E+02 0.  0.
          1    1    3    3  502    0 -0.27108066743E+03  0.88531452835E+02  0.16546751145E+03  0.32969992984E+03  0.00000000000E+00 0. -1.
         -2    1    3    3    0  502 -0.29477073372E+02  0.49767662936E+02  0.68109278731E+02  0.89356544125E+02  0.00000000000E+00 0.  1.
         13    1    5    5    0    0 -0.10371557788E+03 -0.22615499991E+03  0.37029870530E+03  0.44612121248E+03  0.00000000000E+00 0.  1.
        -13    1    5    5    0    0  0.12101230248E+02 -0.38900503537E+01  0.75728454079E+01  0.14795953935E+02  0.00000000000E+00 0. -1.
          4    1    6    6  503    0  0.76389150442E+02  0.54651161897E+02 -0.49120447454E+02  0.10599467043E+03  0.00000000000E+00 0. -1.
         -4    1    6    6    0  503  0.31578293799E+03  0.37094772597E+02 -0.23544994095E+03  0.39564069655E+03  0.00000000000E+00 0.  1.
<mgrwt>
<rscale>  0 0.13423838E+04</rscale>
<asrwt>0</asrwt>
<pdfrwt beam="1">  1        3 0.13142207E+00 0.13423838E+04</pdfrwt>
<pdfrwt beam="2">  1       -2 0.81133158E-01 0.13423838E+04</pdfrwt>
<totfact> 0.24496992E+00</totfact>
</mgrwt>
</event>
<event>
12    5  0.5428626E-008  0.1169159E+04  0.7818608E-02  0.9140289E-01
          1   -1    0    0  501    0  0.00000000000E+00  0.00000000000E+00  0.54446106029E+03  0.54446106029E+03  0.00000000000E+00 0. -1.
         -2   -1    0    0    0  501 -0.00000000000E+00 -0.00000000000E+00 -0.62765363911E+03  0.62765363911E+03  0.00000000000E+00 0.  1.
        -24    2    1    2    0    0 -0.14021246139E+03  0.73574352630E+02  0.15080288896E+03  0.23503275988E+03  0.86175212234E+02 0.  0.
        254    2    1    2    0    0  0.14021246139E+03 -0.73574352630E+02 -0.23399546777E+03  0.93708193952E+03  0.89347409741E+03 0.  0.
         23    2    4    4    0    0 -0.30772715481E+03 -0.19076569561E+03 -0.27444732599E+03  0.46314484722E+03  0.89968118418E+02 0.  0.
         23    2    4    4    0    0  0.44793961620E+03  0.11719134298E+03  0.40451858222E+02  0.47393709230E+03  0.92716255299E+02 0.  0.
          3    1    3    3  502    0 -0.22964750557E+02  0.29270306417E+02  0.86499902543E+02  0.94161370773E+02  0.00000000000E+00 0. -1.
         -4    1    3    3    0  502 -0.11724771083E+03  0.44304046212E+02  0.64302986413E+02  0.14087138910E+03  0.00000000000E+00 0.  1.
         13    1    5    5    0    0 -0.15822820039E+03 -0.13872740705E+03 -0.12129373321E+03  0.24288603620E+03  0.00000000000E+00 0. -1.
        -13    1    5    5    0    0 -0.14949895442E+03 -0.52038288562E+02 -0.15315359278E+03  0.22025881102E+03  0.00000000000E+00 0.  1.
          3    1    6    6  503    0  0.19480204646E+03  0.98876437534E+01 -0.57670590387E+01  0.19513805824E+03  0.00000000000E+00 0.  1.
         -3    1    6    6    0  503  0.25313756974E+03  0.10730369923E+03  0.46218917261E+02  0.27879903406E+03  0.00000000000E+00 0. -1.
<mgrwt>
<rscale>  0 0.11691586E+04</rscale>
<asrwt>0</asrwt>
<pdfrwt beam="1">  1        1 0.83763240E-01 0.11691586E+04</pdfrwt>
<pdfrwt beam="2">  1       -2 0.96562098E-01 0.11691586E+04</pdfrwt>
<totfact> 0.30634469E+01</totfact>
</mgrwt>
</event>
<event>
12    5  0.5428626E-008  0.1081585E+04  0.7818608E-02  0.9223329E-01
         -4   -1    0    0    0  501 -0.00000000000E+00  0.00000000000E+00  0.23324645443E+03  0.23324645443E+03  0.00000000000E+00 0.  1.
          3   -1    0    0  501    0  0.00000000000E+00 -0.00000000000E+00 -0.12538519210E+04  0.12538519210E+04  0.00000000000E+00 0. -1.
        -24    2    1    2    0    0  0.95702871763E+02  0.47994145250E+02 -0.34349777955E+03  0.36350266049E+03  0.51778199928E+02 0.  0.
        254    2    1    2    0    0 -0.95702871763E+02 -0.47994145250E+02 -0.67710768700E+03  0.11235957149E+04  0.89024155888E+03 0.  0.
         23    2    4    4    0    0  0.23083039604E+03  0.20765626291E+03 -0.61371194218E+03  0.69408555369E+03  0.93319947533E+02 0.  0.
         23    2    4    4    0    0 -0.32653326781E+03 -0.25565040816E+03 -0.63395744824E+02  0.42951016124E+03  0.92080681846E+02 0.  0.
          3    1    3    3  502    0  0.39237934195E+02  0.22599523850E+02 -0.22804312125E+03  0.23249520233E+03  0.00000000000E+00 0. -1.
         -4    1    3    3    0  502  0.56464937569E+02  0.25394621400E+02 -0.11545465830E+03  0.13100745816E+03  0.00000000000E+00 0.  1.
         13    1    5    5    0    0  0.13965732005E+02 -0.19574296804E+01 -0.78355918837E+02  0.79614842952E+02  0.00000000000E+00 0.  1.
        -13    1    5    5    0    0  0.21686466404E+03  0.20961369259E+03 -0.53535602334E+03  0.61447071074E+03  0.00000000000E+00 0. -1.
          4    1    6    6  503    0 -0.32764725670E+03 -0.25014801973E+03 -0.72758236942E+02  0.41859349928E+03  0.00000000000E+00 0. -1.
         -4    1    6    6    0  503  0.11139888900E+01 -0.55023884289E+01  0.93624921188E+01  0.10916661960E+02  0.00000000000E+00 0.  1.
<mgrwt>
<rscale>  0 0.10815850E+04</rscale>
<asrwt>0</asrwt>
<pdfrwt beam="1">  1        3 0.19290030E+00 0.10815850E+04</pdfrwt>
<pdfrwt beam="2">  1       -4 0.35884069E-01 0.10815850E+04</pdfrwt>
<totfact> 0.28222703E+00</totfact>
</mgrwt>
</event>
<event>
12    5  0.5428626E-008  0.1733556E+04  0.7818608E-02  0.8742454E-01
         -4   -1    0    0    0  501 -0.00000000000E+00  0.00000000000E+00  0.47692420435E+03  0.47692420435E+03  0.00000000000E+00 0.  1.
          1   -1    0    0  501    0  0.00000000000E+00 -0.00000000000E+00 -0.15753120870E+04  0.15753120870E+04  0.00000000000E+00 0. -1.
        -24    2    1    2    0    0  0.22393343340E+03 -0.34343064639E+03  0.16583523880E+03  0.44943991683E+03  0.80025751719E+02 0.  0.
        254    2    1    2    0    0 -0.22393343340E+03  0.34343064639E+03 -0.12642231214E+04  0.16027963745E+04  0.89588242860E+03 0.  0.
         23    2    4    4    0    0 -0.25580252233E+03  0.35092782288E+03 -0.13810017307E+04  0.14509787071E+04  0.97919154324E+02 0.  0.
         23    2    4    4    0    0  0.31869088931E+02 -0.74971764869E+01  0.11677860931E+03  0.15181766742E+03  0.91320939892E+02 0.  0.
          1    1    3    3  502    0  0.59514239646E+02 -0.42943456456E+02  0.45692314724E+02  0.86451563305E+02  0.00000000000E+00 0. -1.
         -2    1    3    3    0  502  0.16441919375E+03 -0.30048718994E+03  0.12014292408E+03  0.36298835353E+03  0.00000000000E+00 0.  1.
         13    1    5    5    0    0  0.51399466485E+01  0.23443782880E+02 -0.11660323490E+03  0.11904765599E+03  0.00000000000E+00 0.  1.
        -13    1    5    5    0    0 -0.26094246898E+03  0.32748404000E+03 -0.12643984958E+04  0.13319310511E+04  0.00000000000E+00 0. -1.
          1    1    6    6  503    0  0.60370402287E+02 -0.10934718596E+02  0.10320116296E+03  0.12006095776E+03  0.00000000000E+00 0. -1.
         -1    1    6    6    0  503 -0.28501313355E+02  0.34375421090E+01  0.13577446357E+02  0.31756709658E+02  0.00000000000E+00 0.  1.
<mgrwt>
<rscale>  0 0.17335564E+04</rscale>
<asrwt>0</asrwt>
<pdfrwt beam="1">  1        1 0.24235571E+00 0.17335564E+04</pdfrwt>
<pdfrwt beam="2">  1       -4 0.73372952E-01 0.17335564E+04</pdfrwt>
<totfact> 0.45571342E+00</totfact>
</mgrwt>
</event>
<event>
12    5  0.5428626E-008  0.1849425E+04  0.7818608E-02  0.8680449E-01
         -2   -1    0    0    0  501 -0.00000000000E+00  0.00000000000E+00  0.70688561553E+03  0.70688561553E+03  0.00000000000E+00 0.  1.
          1   -1    0    0  501    0  0.00000000000E+00 -0.00000000000E+00 -0.12096622192E+04  0.12096622192E+04  0.00000000000E+00 0. -1.
        -24    2    1    2    0    0  0.39764678720E+03  0.56711921384E+02 -0.89253832719E+03  0.98214344842E+03  0.81497720101E+02 0.  0.
        254    2    1    2    0    0 -0.39764678720E+03 -0.56711921384E+02  0.38976172354E+03  0.93440438628E+03  0.74823669154E+03 0.  0.
         23    2    4    4    0    0 -0.22340240908E+03  0.19238120876E+03 -0.12322563610E+03  0.33110152897E+03  0.86743871443E+02 0.  0.
         23    2    4    4    0    0 -0.17424437812E+03 -0.24909313014E+03  0.51298735963E+03  0.60330285731E+03  0.91705047304E+02 0.  0.
          1    1    3    3  502    0  0.39436624571E+03  0.44289060409E+02 -0.86902770585E+03  0.95535093561E+03  0.00000000000E+00 0. -1.
         -2    1    3    3    0  502  0.32805414868E+01  0.12422860975E+02 -0.23510621333E+02  0.26792512811E+02  0.00000000000E+00 0.  1.
         13    1    5    5    0    0 -0.16573320762E+03  0.17877593709E+03 -0.12012292411E+03  0.27176800527E+03  0.00000000000E+00 0.  1.
        -13    1    5    5    0    0 -0.57669201453E+02  0.13605271665E+02 -0.31027119887E+01  0.59333523703E+02  0.00000000000E+00 0. -1.
          4    1    6    6  503    0 -0.13949956528E+02  0.88006775940E+00  0.49188433012E+01  0.14817922453E+02  0.00000000000E+00 0. -1.
         -4    1    6    6    0  503 -0.16029442159E+03 -0.24997319790E+03  0.50806851633E+03  0.58848493486E+03  0.00000000000E+00 0.  1.
<mgrwt>
<rscale>  0 0.18494246E+04</rscale>
<asrwt>0</asrwt>
<pdfrwt beam="1">  1        1 0.18610188E+00 0.18494246E+04</pdfrwt>
<pdfrwt beam="2">  1       -2 0.10875163E+00 0.18494246E+04</pdfrwt>
<totfact> 0.58528746E+00</totfact>
</mgrwt>
</event>
<event>
12    5  0.5428626E-008  0.1115452E+04  0.7818608E-02  0.9190260E-01
          1   -1    0    0  501    0  0.00000000000E+00  0.00000000000E+00  0.85203091040E+03  0.85203091040E+03  0.00000000000E+00 0. -1.
         -2   -1    0    0    0  501 -0.00000000000E+00 -0.00000000000E+00 -0.36507892813E+03  0.36507892813E+03  0.00000000000E+00 0.  1.
        -24    2    1    2    0    0 -0.34388611084E+02  0.54965786167E+02  0.27174978843E+03  0.29078345401E+03  0.80642764033E+02 0.  0.
        254    2    1    2    0    0  0.34388611084E+02 -0.54965786167E+02  0.21520219384E+03  0.92632638452E+03  0.89864607727E+03 0.  0.
         23    2    4    4    0    0  0.90555873002E+02 -0.12410439175E+03  0.54440738521E+03  0.57298889056E+03  0.91294038408E+02 0.  0.
         23    2    4    4    0    0 -0.56167261918E+02  0.69138605583E+02 -0.32920519137E+03  0.35333749396E+03  0.92392740644E+02 0.  0.
          1    1    3    3  502    0 -0.55548759761E+01 -0.35118758926E+01  0.16877607613E+03  0.16890397803E+03  0.00000000000E+00 0. -1.
         -2    1    3    3    0  502 -0.28833735108E+02  0.58477662059E+02  0.10297371230E+03  0.12187947598E+03  0.00000000000E+00 0.  1.
         13    1    5    5    0    0  0.25629630640E+02 -0.87147021282E+02  0.40243982094E+03  0.41256428683E+03  0.00000000000E+00 0. -1.
        -13    1    5    5    0    0  0.64926242362E+02 -0.36957370467E+02  0.14196756427E+03  0.16042460373E+03  0.00000000000E+00 0.  1.
          1    1    6    6  503    0 -0.59697466515E+01  0.37670480113E+02 -0.25756322224E+03  0.26037188097E+03  0.00000000000E+00 0. -1.
         -1    1    6    6    0  503 -0.50197515266E+02  0.31468125470E+02 -0.71641969126E+02  0.92965612996E+02  0.00000000000E+00 0.  1.
<mgrwt>
<rscale>  0 0.11154524E+04</rscale>
<asrwt>0</asrwt>
<pdfrwt beam="1">  1        1 0.13108168E+00 0.11154524E+04</pdfrwt>
<pdfrwt beam="2">  1       -2 0.56165989E-01 0.11154524E+04</pdfrwt>
<totfact> 0.51791805E+01</totfact>
</mgrwt>
</event>
<event>
12    5  0.5428626E-008  0.2986534E+04  0.7818608E-02  0.8247587E-01
         -2   -1    0    0    0  501 -0.00000000000E+00  0.00000000000E+00  0.11630890071E+04  0.11630890071E+04  0.00000000000E+00 0.  1.
          1   -1    0    0  501    0  0.00000000000E+00 -0.00000000000E+00 -0.19171761351E+04  0.19171761351E+04  0.00000000000E+00 0. -1.
        -24    2    1    2    0    0 -0.21589035703E+03 -0.87402643928E+02 -0.17205405146E+04  0.17378534250E+04  0.75013305434E+02 0.  0.
        254    2    1    2    0    0  0.21589035703E+03  0.87402643928E+02  0.96645338659E+03  0.13424117172E+04  0.90210265573E+03 0.  0.
         23    2    4    4    0    0  0.35298478022E+03 -0.20481540194E+02  0.96796676719E+01  0.36576189858E+03  0.93114563501E+02 0.  0.
         23    2    4    4    0    0 -0.13709442319E+03  0.10788418412E+03  0.95677371892E+03  0.97664981857E+03  0.89414992296E+02 0.  0.
          3    1    3    3  502    0 -0.19907717372E+03 -0.91740450794E+02 -0.14206964793E+04  0.14375070496E+04  0.00000000000E+00 0. -1.
         -4    1    3    3    0  502 -0.16813183310E+02  0.43378068658E+01 -0.29984403536E+03  0.30034637545E+03  0.00000000000E+00 0.  1.
         13    1    5    5    0    0  0.11697195859E+03 -0.37859937669E+02 -0.28091518089E+02  0.12611481819E+03  0.00000000000E+00 0.  1.
        -13    1    5    5    0    0  0.23601282162E+03  0.17378397475E+02  0.37771185761E+02  0.23964708040E+03  0.00000000000E+00 0. -1.
          1    1    6    6  503    0 -0.11966282278E+03  0.10242483213E+03  0.63092363296E+03  0.65028814230E+03  0.00000000000E+00 0. -1.
         -1    1    6    6    0  503 -0.17431600408E+02  0.54593519950E+01  0.32585008596E+03  0.32636167627E+03  0.00000000000E+00 0.  1.
<mgrwt>
<rscale>  0 0.29865341E+04</rscale>
<asrwt>0</asrwt>
<pdfrwt beam="1">  1        1 0.29495017E+00 0.29865341E+04</pdfrwt>
<pdfrwt beam="2">  1       -2 0.17893677E+00 0.29865341E+04</pdfrwt>
<totfact> 0.46851936E-01</totfact>
</mgrwt>
</event>
<event>
12    5  0.5428626E-008  0.1466869E+04  0.7818608E-02  0.8906789E-01
         -2   -1    0    0    0  501 -0.00000000000E+00  0.00000000000E+00  0.74450472509E+03  0.74450472509E+03  0.00000000000E+00 0.  1.
          1   -1    0    0  501    0  0.00000000000E+00 -0.00000000000E+00 -0.72252862325E+03  0.72252862325E+03  0.00000000000E+00 0. -1.
        -24    2    1    2    0    0  0.23730593061E+03  0.25068913360E+03  0.29824915903E+03  0.46299724004E+03  0.79086895369E+02 0.  0.
        254    2    1    2    0    0 -0.23730593061E+03 -0.25068913360E+03 -0.27627305719E+03  0.10040361083E+04  0.90144470615E+03 0.  0.
         23    2    4    4    0    0 -0.37606453111E+03 -0.36223874839E+03  0.13464093308E+03  0.54686828257E+03  0.91078511356E+02 0.  0.
         23    2    4    4    0    0  0.13875860049E+03  0.11154961479E+03 -0.41091399026E+03  0.45716782573E+03  0.91950245891E+02 0.  0.
          1    1    3    3  502    0  0.54179965763E+02  0.17368750044E+02  0.38135564473E+02  0.68494258488E+02  0.00000000000E+00 0. -1.
         -2    1    3    3    0  502  0.18312596485E+03  0.23332038355E+03  0.26011359455E+03  0.39450298155E+03  0.00000000000E+00 0.  1.
         13    1    5    5    0    0 -0.12527371674E+03 -0.70102191815E+02  0.54797893833E+02  0.15365751063E+03  0.00000000000E+00 0.  1.
        -13    1    5    5    0    0 -0.25079081437E+03 -0.29213655658E+03  0.79843039245E+02  0.39321077195E+03  0.00000000000E+00 0. -1.
          3    1    6    6  503    0  0.13457484257E+03  0.12415863737E+03 -0.35199605817E+03  0.39677069001E+03  0.00000000000E+00 0. -1.
         -3    1    6    6    0  503  0.41837579241E+01 -0.12609022580E+02 -0.58917932097E+02  0.60397135721E+02  0.00000000000E+00 0.  1.
<mgrwt>
<rscale>  0 0.14668687E+04</rscale>
<asrwt>0</asrwt>
<pdfrwt beam="1">  1        1 0.11115825E+00 0.14668687E+04</pdfrwt>
<pdfrwt beam="2">  1       -2 0.11453919E+00 0.14668687E+04</pdfrwt>
<totfact> 0.13124668E+01</totfact>
</mgrwt>
</event>
<event>
12    5  0.5428626E-008  0.2476557E+04  0.7818608E-02  0.8411385E-01
          1   -1    0    0  501    0  0.00000000000E+00  0.00000000000E+00  0.66527663792E+03  0.66527663792E+03  0.00000000000E+00 0. -1.
         -2   -1    0    0    0  501 -0.00000000000E+00 -0.00000000000E+00 -0.23048060583E+04  0.23048060583E+04  0.00000000000E+00 0.  1.
        -24    2    1    2    0    0 -0.97719035879E+03  0.10992269522E+03 -0.12828848485E+04  0.16184469208E+04  0.81196704228E+02 0.  0.
        254    2    1    2    0    0  0.97719035879E+03 -0.10992269522E+03 -0.35664457181E+03  0.13516357753E+04  0.85600229108E+03 0.  0.
         23    2    4    4    0    0  0.69744484968E+02 -0.16434764849E+03 -0.38842559615E+03  0.43733588743E+03  0.92270211560E+02 0.  0.
         23    2    4    4    0    0  0.90744587382E+03  0.54424953274E+02  0.31781024334E+02  0.91429988791E+03  0.92272217195E+02 0.  0.
          3    1    3    3  502    0 -0.28853191873E+03  0.30973042852E+02 -0.31962029327E+03  0.43170259367E+03  0.00000000000E+00 0. -1.
         -4    1    3    3    0  502 -0.68865844006E+03  0.78949652368E+02 -0.96326455525E+03  0.11867443272E+04  0.00000000000E+00 0.  1.
         13    1    5    5    0    0 -0.11510959908E+02 -0.55893645966E+02 -0.17910894924E+03  0.18798036481E+03  0.00000000000E+00 0. -1.
        -13    1    5    5    0    0  0.81255444876E+02 -0.10845400253E+03 -0.20931664691E+03  0.24935552262E+03  0.00000000000E+00 0.  1.
          1    1    6    6  503    0  0.31163189151E+03  0.27762609162E+02 -0.31954748492E+02  0.31449372685E+03  0.00000000000E+00 0. -1.
         -1    1    6    6    0  503  0.59581398231E+03  0.26662344112E+02  0.63735772826E+02  0.59980616106E+03  0.00000000000E+00 0.  1.
<mgrwt>
<rscale>  0 0.24765570E+04</rscale>
<asrwt>0</asrwt>
<pdfrwt beam="1">  1        1 0.10235025E+00 0.24765570E+04</pdfrwt>
<pdfrwt beam="2">  1       -2 0.35458555E+00 0.24765570E+04</pdfrwt>
<totfact> 0.33428240E-01</totfact>
</mgrwt>
</event>
<event>
12    5  0.5428626E-008  0.1714828E+04  0.7818608E-02  0.8752953E-01
          1   -1    0    0  501    0  0.00000000000E+00  0.00000000000E+00  0.13467514794E+04  0.13467514794E+04  0.00000000000E+00 0. -1.
         -2   -1    0    0    0  501 -0.00000000000E+00 -0.00000000000E+00 -0.54587528511E+03  0.54587528511E+03  0.00000000000E+00 0.  1.
        -24    2    1    2    0    0 -0.12120848790E+03  0.11190880803E+03 -0.35435652160E+03  0.39896111548E+03  0.79914632059E+02 0.  0.
        254    2    1    2    0    0  0.12120848790E+03 -0.11190880803E+03  0.11552327159E+04  0.14936656490E+04  0.93234079840E+03 0.  0.
         23    2    4    4    0    0  0.74062870492E+02 -0.51234076231E+03  0.55181077314E+03  0.76231411628E+03  0.93001704362E+02 0.  0.
         23    2    4    4    0    0  0.47145617410E+02  0.40043195429E+03  0.60342194276E+03  0.73135153275E+03  0.90490685700E+02 0.  0.
          1    1    3    3  502    0  0.11504469193E+02  0.87250012680E+01 -0.39173402944E+02  0.41749658163E+02  0.00000000000E+00 0. -1.
         -2    1    3    3    0  502 -0.13271295709E+03  0.10318380676E+03 -0.31518311865E+03  0.35721145732E+03  0.00000000000E+00 0.  1.
         13    1    5    5    0    0  0.43667432374E+02 -0.89781902742E+02  0.77788378786E+02  0.12656487105E+03  0.00000000000E+00 0.  1.
        -13    1    5    5    0    0  0.30395438118E+02 -0.42255885957E+03  0.47402239435E+03  0.63574924523E+03  0.00000000000E+00 0. -1.
          2    1    6    6  503    0  0.53421954303E+02  0.36622348973E+03  0.49885280428E+03  0.62115027970E+03  0.00000000000E+00 0. -1.
         -2    1    6    6    0  503 -0.62763368934E+01  0.34208464557E+02  0.10456913847E+03  0.11020125305E+03  0.00000000000E+00 0.  1.
<mgrwt>
<rscale>  0 0.17148275E+04</rscale>
<asrwt>0</asrwt>
<pdfrwt beam="1">  1        1 0.20719253E+00 0.17148275E+04</pdfrwt>
<pdfrwt beam="2">  1       -2 0.83980813E-01 0.17148275E+04</pdfrwt>
<totfact> 0.86515905E+00</totfact>
</mgrwt>
</event>
<event>
12    5  0.5428626E-008  0.3293505E+04  0.7818608E-02  0.8164550E-01
         -2   -1    0    0    0  501 -0.00000000000E+00  0.00000000000E+00  0.24316865303E+04  0.24316865303E+04  0.00000000000E+00 0.  1.
          1   -1    0    0  501    0  0.00000000000E+00 -0.00000000000E+00 -0.11151905119E+04  0.11151905119E+04  0.00000000000E+00 0. -1.
        -24    2    1    2    0    0 -0.86057476874E+03  0.12076072265E+03  0.19477006313E+04  0.21342756218E+04  0.80141098615E+02 0.  0.
        254    2    1    2    0    0  0.86057476874E+03 -0.12076072265E+03 -0.63120461296E+03  0.14126014204E+04  0.91752461803E+03 0.  0.
         23    2    4    4    0    0  0.35225616916E+02  0.60459441022E+02 -0.54749915598E+03  0.55946416639E+03  0.91370890217E+02 0.  0.
         23    2    4    4    0    0  0.82534915182E+03 -0.18122016367E+03 -0.83705456978E+02  0.85313725398E+03  0.82429366568E+02 0.  0.
          3    1    3    3  502    0 -0.27568325835E+03  0.58107739068E+02  0.55412770004E+03  0.62163918492E+03  0.00000000000E+00 0. -1.
         -4    1    3    3    0  502 -0.58489151038E+03  0.62652983581E+02  0.13935729313E+04  0.15126364369E+04  0.00000000000E+00 0.  1.
         13    1    5    5    0    0  0.38340340230E+02 -0.12000064598E+02 -0.14401748120E+03  0.14951594607E+03  0.00000000000E+00 0.  1.
        -13    1    5    5    0    0 -0.31147233143E+01  0.72459505619E+02 -0.40348167478E+03  0.40994822032E+03  0.00000000000E+00 0. -1.
          1    1    6    6  503    0  0.25646046332E+03 -0.92558774288E+02 -0.42058189751E+02  0.27587676102E+03  0.00000000000E+00 0. -1.
         -1    1    6    6    0  503  0.56888868850E+03 -0.88661389383E+02 -0.41647267227E+02  0.57726049297E+03  0.00000000000E+00 0.  1.
<mgrwt>
<rscale>  0 0.32935050E+04</rscale>
<asrwt>0</asrwt>
<pdfrwt beam="1">  1        1 0.17156777E+00 0.32935050E+04</pdfrwt>
<pdfrwt beam="2">  1       -2 0.37410562E+00 0.32935050E+04</pdfrwt>
<totfact> 0.98249918E-02</totfact>
</mgrwt>
</event>
<event>
12    5  0.5428626E-008  0.1358480E+04  0.7818608E-02  0.8984433E-01
          1   -1    0    0  501    0  0.00000000000E+00  0.00000000000E+00  0.22063650816E+04  0.22063650816E+04  0.00000000000E+00 0. -1.
         -2   -1    0    0    0  501 -0.00000000000E+00 -0.00000000000E+00 -0.20910738541E+03  0.20910738541E+03  0.00000000000E+00 0.  1.
        -24    2    1    2    0    0 -0.20391088073E+03 -0.18492737043E+03  0.11509108350E+03  0.30907827450E+03  0.80657564110E+02 0.  0.
        254    2    1    2    0    0  0.20391088073E+03  0.18492737043E+03  0.18821666127E+04  0.21063941926E+04  0.90474723361E+03 0.  0.
         23    2    4    4    0    0  0.16350787106E+03 -0.28492101974E+03  0.30818108248E+03  0.46071742115E+03  0.96799541147E+02 0.  0.
         23    2    4    4    0    0  0.40403009671E+02  0.46984839018E+03  0.15739855302E+04  0.16456767714E+04  0.91824144686E+02 0.  0.
          1    1    3    3  502    0 -0.77114038315E+02 -0.44048130798E+02  0.29618564925E+01  0.88857106221E+02  0.00000000000E+00 0. -1.
         -2    1    3    3    0  502 -0.12679684242E+03 -0.14087923963E+03  0.11212922701E+03  0.22022116828E+03  0.00000000000E+00 0.  1.
         13    1    5    5    0    0  0.10921672689E+03 -0.17995882069E+03  0.13165053821E+03  0.24828478566E+03  0.00000000000E+00 0. -1.
        -13    1    5    5    0    0  0.54291144167E+02 -0.10496219905E+03  0.17653054427E+03  0.21243263550E+03  0.00000000000E+00 0.  1.
          2    1    6    6  503    0  0.16069631958E+02  0.42717746324E+03  0.14657872657E+04  0.15268500668E+04  0.00000000000E+00 0. -1.
         -2    1    6    6    0  503  0.24333377714E+02  0.42670926941E+02  0.10819826455E+03  0.11882670461E+03  0.00000000000E+00 0.  1.
<mgrwt>
<rscale>  0 0.13584804E+04</rscale>
<asrwt>0</asrwt>
<pdfrwt beam="1">  1        1 0.33944077E+00 0.13584804E+04</pdfrwt>
<pdfrwt beam="2">  1       -2 0.32170368E-01 0.13584804E+04</pdfrwt>
<totfact> 0.16692536E+01</totfact>
</mgrwt>
</event>
<event>
12    5  0.5428626E-008  0.2308906E+04  0.7818608E-02  0.8474418E-01
         -2   -1    0    0    0  501 -0.00000000000E+00  0.00000000000E+00  0.47148584130E+03  0.47148584130E+03  0.00000000000E+00 0.  1.
          1   -1    0    0  501    0  0.00000000000E+00 -0.00000000000E+00 -0.28267267710E+04  0.28267267710E+04  0.00000000000E+00 0. -1.
        -24    2    1    2    0    0  0.10010197519E+02 -0.87719852137E+03 -0.16201834331E+04  0.18441608082E+04  0.79732550677E+02 0.  0.
        254    2    1    2    0    0 -0.10010197519E+02  0.87719852137E+03 -0.73505749661E+03  0.14540518041E+04  0.89687216246E+03 0.  0.
         23    2    4    4    0    0 -0.24088584815E+03  0.94800133165E+03 -0.66592726584E+03  0.11869234246E+04  0.92712328081E+02 0.  0.
         23    2    4    4    0    0  0.23087565063E+03 -0.70802810280E+02 -0.69130230769E+02  0.26712837954E+03  0.90895425377E+02 0.  0.
          1    1    3    3  502    0  0.28118684898E+01 -0.26568631146E+01 -0.21935776423E+02  0.22274285921E+02  0.00000000000E+00 0. -1.
         -2    1    3    3    0  502  0.71983290291E+01 -0.87454165825E+03 -0.15982476567E+04  0.18218865223E+04  0.00000000000E+00 0.  1.
         13    1    5    5    0    0  0.23986653937E+01  0.76728905021E+02 -0.37327020201E+02  0.85360323913E+02  0.00000000000E+00 0. -1.
        -13    1    5    5    0    0 -0.24328451354E+03  0.87127242663E+03 -0.62860024564E+03  0.11015631007E+04  0.00000000000E+00 0.  1.
          2    1    6    6  503    0  0.83428272507E+02 -0.37995811592E+02  0.17013160771E+02  0.93238436234E+02  0.00000000000E+00 0. -1.
         -2    1    6    6    0  503  0.14744737812E+03 -0.32806998688E+02 -0.86143391540E+02  0.17388994331E+03  0.00000000000E+00 0.  1.
<mgrwt>
<rscale>  0 0.23089059E+04</rscale>
<asrwt>0</asrwt>
<pdfrwt beam="1">  1        1 0.43488105E+00 0.23089059E+04</pdfrwt>
<pdfrwt beam="2">  1       -2 0.72536282E-01 0.23089059E+04</pdfrwt>
<totfact> 0.10887863E+00</totfact>
</mgrwt>
</event>
<event>
12    5  0.5428626E-008  0.1151015E+04  0.7818608E-02  0.9156848E-01
         -2   -1    0    0    0  501 -0.00000000000E+00  0.00000000000E+00  0.25168506647E+03  0.25168506647E+03  0.00000000000E+00 0.  1.
          1   -1    0    0  501    0  0.00000000000E+00 -0.00000000000E+00 -0.13159649263E+04  0.13159649263E+04  0.00000000000E+00 0. -1.
        -24    2    1    2    0    0 -0.14623844696E+03  0.10717288095E+03 -0.60329738392E+02  0.20660683637E+03  0.78581153712E+02 0.  0.
        254    2    1    2    0    0  0.14623844696E+03 -0.10717288095E+03 -0.10039501214E+04  0.13610431564E+04  0.90091670952E+03 0.  0.
         23    2    4    4    0    0 -0.10606133016E+03 -0.42059369111E+03 -0.27092181681E+03  0.51977526164E+03  0.92841978800E+02 0.  0.
         23    2    4    4    0    0  0.25229977712E+03  0.31342081016E+03 -0.73302830462E+03  0.84126789477E+03  0.92268053053E+02 0.  0.
          3    1    3    3  502    0 -0.11636749837E+03  0.64661687807E+02 -0.74763104055E+02  0.15268284211E+03  0.00000000000E+00 0. -1.
         -4    1    3    3    0  502 -0.29870948584E+02  0.42511193143E+02  0.14433365663E+02  0.53923994252E+02  0.00000000000E+00 0.  1.
         13    1    5    5    0    0 -0.43374378027E+01  0.45839054588E+01 -0.26189188770E+01  0.68325904335E+01  0.00000000000E+00 0.  1.
        -13    1    5    5    0    0 -0.10172389236E+03 -0.42517759657E+03 -0.26830289793E+03  0.51294267120E+03  0.00000000000E+00 0. -1.
          4    1    6    6  503    0  0.65580116490E+02  0.36724137206E+02 -0.18355552934E+03  0.19834829539E+03  0.00000000000E+00 0.  1.
         -4    1    6    6    0  503  0.18671966063E+03  0.27669667296E+03 -0.54947277528E+03  0.64291959938E+03  0.00000000000E+00 0. -1.
<mgrwt>
<rscale>  0 0.11510147E+04</rscale>
<asrwt>0</asrwt>
<pdfrwt beam="1">  1        1 0.20245614E+00 0.11510147E+04</pdfrwt>
<pdfrwt beam="2">  1       -2 0.38720780E-01 0.11510147E+04</pdfrwt>
<totfact> 0.48360176E+01</totfact>
</mgrwt>
</event>
<event>
12    5  0.5428626E-008  0.1834327E+04  0.7818608E-02  0.8688255E-01
         -2   -1    0    0    0  501 -0.00000000000E+00  0.00000000000E+00  0.76163960014E+03  0.76163960014E+03  0.00000000000E+00 0.  1.
          1   -1    0    0  501    0  0.00000000000E+00 -0.00000000000E+00 -0.11044450537E+04  0.11044450537E+04  0.00000000000E+00 0. -1.
        -24    2    1    2    0    0 -0.56494831366E+03 -0.38095636870E+03 -0.29802036877E+03  0.74783318769E+03  0.78383572533E+02 0.  0.
        254    2    1    2    0    0  0.56494831366E+03  0.38095636870E+03 -0.44785084834E+02  0.11182514662E+04  0.88554293280E+03 0.  0.
         23    2    4    4    0    0 -0.18872735582E+02 -0.17161557257E+03  0.19278407111E+03  0.27479292793E+03  0.92397891057E+02 0.  0.
         23    2    4    4    0    0  0.58382104925E+03  0.55257194126E+03 -0.23756915594E+03  0.84345853825E+03  0.93810628839E+02 0.  0.
          1    1    3    3  502    0 -0.88910287525E+02 -0.28099404495E+02 -0.44610842952E+02  0.10336703086E+03  0.00000000000E+00 0. -1.
         -2    1    3    3    0  502 -0.47603802614E+03 -0.35285696420E+03 -0.25340952582E+03  0.64446615683E+03  0.00000000000E+00 0.  1.
         13    1    5    5    0    0  0.27797545605E+01  0.19161049970E+01 -0.79080776845E+01  0.85986153793E+01  0.00000000000E+00 0. -1.
        -13    1    5    5    0    0 -0.21652490142E+02 -0.17353167756E+03  0.20069214879E+03  0.26619431255E+03  0.00000000000E+00 0.  1.
          1    1    6    6  503    0  0.63425422564E+01  0.23785280300E+02  0.18007684824E+01  0.24682183217E+02  0.00000000000E+00 0. -1.
         -1    1    6    6    0  503  0.57747850699E+03  0.52878666096E+03 -0.23936992443E+03  0.81877635504E+03  0.00000000000E+00 0.  1.
<mgrwt>
<rscale>  0 0.18343272E+04</rscale>
<asrwt>0</asrwt>
<pdfrwt beam="1">  1        1 0.16991462E+00 0.18343272E+04</pdfrwt>
<pdfrwt beam="2">  1       -2 0.11717532E+00 0.18343272E+04</pdfrwt>
<totfact> 0.58462362E+00</totfact>
</mgrwt>
</event>
<event>
12    5  0.5428626E-008  0.1814557E+04  0.7818608E-02  0.8698597E-01
         -2   -1    0    0    0  501 -0.00000000000E+00  0.00000000000E+00  0.42433335449E+03  0.42433335449E+03  0.00000000000E+00 0.  1.
          1   -1    0    0  501    0  0.00000000000E+00 -0.00000000000E+00 -0.19398755310E+04  0.19398755310E+04  0.00000000000E+00 0. -1.
        -24    2    1    2    0    0  0.97400607066E+01 -0.51418972359E+03 -0.11488504627E+04  0.12614255451E+04  0.82771249139E+02 0.  0.
        254    2    1    2    0    0 -0.97400607066E+01  0.51418972359E+03 -0.36669171383E+03  0.11027833404E+04  0.90398138373E+03 0.  0.
         23    2    4    4    0    0 -0.11570499027E+02 -0.24745565591E+03 -0.16242454523E+03  0.30923957056E+03  0.88764863649E+02 0.  0.
         23    2    4    4    0    0  0.18304383200E+01  0.76164537950E+03 -0.20426716860E+03  0.79354376979E+03  0.88767132303E+02 0.  0.
          1    1    3    3  502    0 -0.28119080700E+02 -0.23634872150E+03 -0.58911890205E+03  0.63538372785E+03  0.00000000000E+00 0. -1.
         -2    1    3    3    0  502  0.37859141407E+02 -0.27784100209E+03 -0.55973156061E+03  0.62604181727E+03  0.00000000000E+00 0.  1.
         13    1    5    5    0    0 -0.10986951866E+02 -0.23519083515E+02 -0.55107379248E+02  0.60915381049E+02  0.00000000000E+00 0. -1.
        -13    1    5    5    0    0 -0.58354716109E+00 -0.22393657240E+03 -0.10731716598E+03  0.24832418952E+03  0.00000000000E+00 0.  1.
          1    1    6    6  503    0 -0.14565243548E+02  0.67792329284E+02 -0.40993426638E+02  0.80550650257E+02  0.00000000000E+00 0. -1.
         -1    1    6    6    0  503  0.16395681868E+02  0.69385305022E+03 -0.16327374196E+03  0.71299311953E+03  0.00000000000E+00 0.  1.
<mgrwt>
<rscale>  0 0.18145566E+04</rscale>
<asrwt>0</asrwt>
<pdfrwt beam="1">  1        1 0.29844239E+00 0.18145566E+04</pdfrwt>
<pdfrwt beam="2">  1       -2 0.65282054E-01 0.18145566E+04</pdfrwt>
<totfact> 0.58593146E+00</totfact>
</mgrwt>
</event>
<event>
12    5  0.5428626E-008  0.1234393E+04  0.7818608E-02  0.9083274E-01
         -2   -1    0    0    0  501 -0.00000000000E+00  0.00000000000E+00  0.77333466899E+03  0.77333466899E+03  0.00000000000E+00 0.  1.
          1   -1    0    0  501    0  0.00000000000E+00 -0.00000000000E+00 -0.49258297911E+03  0.49258297911E+03  0.00000000000E+00 0. -1.
        -24    2    1    2    0    0  0.24970948034E+03  0.32704364554E+02 -0.53973579510E+02  0.27018160457E+03  0.81612205765E+02 0.  0.
        254    2    1    2    0    0 -0.24970948034E+03 -0.32704364554E+02  0.33472526940E+03  0.99573604353E+03  0.90334094470E+03 0.  0.
         23    2    4    4    0    0  0.16185017249E+03  0.29918008960E+03  0.29148900001E+03  0.45740927766E+03  0.92483543495E+02 0.  0.
         23    2    4    4    0    0 -0.41155965283E+03 -0.33188445415E+03  0.43236269384E+02  0.53832676587E+03  0.91638927942E+02 0.  0.
          1    1    3    3  502    0  0.68844256762E+02  0.53342070064E+01 -0.53344509567E+02  0.87256072307E+02  0.00000000000E+00 0. -1.
         -4    1    3    3    0  502  0.18086522358E+03  0.27370157547E+02 -0.62906994220E+00  0.18292553226E+03  0.00000000000E+00 0.  1.
         13    1    5    5    0    0  0.14505692641E+03  0.22372652248E+03  0.17985694659E+03  0.32162647590E+03  0.00000000000E+00 0. -1.
        -13    1    5    5    0    0  0.16793246076E+02  0.75453567122E+02  0.11163205342E+03  0.13578280177E+03  0.00000000000E+00 0.  1.
          1    1    6    6  503    0 -0.34368477393E+03 -0.31411793910E+03  0.47578128312E+02  0.46803096243E+03  0.00000000000E+00 0. -1.
         -1    1    6    6    0  503 -0.67874878896E+02 -0.17766515052E+02 -0.43418589279E+01  0.70295803439E+02  0.00000000000E+00 0.  1.
<mgrwt>
<rscale>  0 0.12343930E+04</rscale>
<asrwt>0</asrwt>
<pdfrwt beam="1">  1        1 0.75781996E-01 0.12343930E+04</pdfrwt>
<pdfrwt beam="2">  1       -2 0.11897457E+00 0.12343930E+04</pdfrwt>
<totfact> 0.21182462E+01</totfact>
</mgrwt>
</event>
<event>
12    5  0.5428626E-008  0.1666703E+04  0.7818608E-02  0.8780586E-01
         -2   -1    0    0    0  501 -0.00000000000E+00  0.00000000000E+00  0.62488359790E+03  0.62488359790E+03  0.00000000000E+00 0.  1.
          1   -1    0    0  501    0  0.00000000000E+00 -0.00000000000E+00 -0.11113666490E+04  0.11113666490E+04  0.00000000000E+00 0. -1.
        -24    2    1    2    0    0 -0.18588766487E+03 -0.32044141903E+03 -0.65150737816E+03  0.75388834068E+03  0.81540415898E+02 0.  0.
        254    2    1    2    0    0  0.18588766487E+03  0.32044141903E+03  0.16502432709E+03  0.98236190619E+03  0.89474295707E+03 0.  0.
         23    2    4    4    0    0  0.30942743480E+03  0.56395446409E+03 -0.14530752060E+01  0.64979573569E+03  0.91882597482E+02 0.  0.
         23    2    4    4    0    0 -0.12353976992E+03 -0.24351304506E+03  0.16647740229E+03  0.33256617050E+03  0.91240640171E+02 0.  0.
          3    1    3    3  502    0 -0.97066633065E+02 -0.24215914691E+03 -0.45314049396E+03  0.52287598047E+03  0.00000000000E+00 0. -1.
         -4    1    3    3    0  502 -0.88821031808E+02 -0.78282272127E+02 -0.19836688420E+03  0.23101236021E+03  0.00000000000E+00 0.  1.
         13    1    5    5    0    0  0.20780336372E+03  0.45812813165E+03 -0.32638503502E+01  0.50306488220E+03  0.00000000000E+00 0.  1.
        -13    1    5    5    0    0  0.10162407107E+03  0.10582633244E+03  0.18107751443E+01  0.14673085349E+03  0.00000000000E+00 0. -1.
          1    1    6    6  503    0 -0.59737979556E+02 -0.56006144765E+02  0.15073364281E+02  0.83261760512E+02  0.00000000000E+00 0. -1.
         -1    1    6    6    0  503 -0.63801790367E+02 -0.18750690030E+03  0.15140403801E+03  0.24930440999E+03  0.00000000000E+00 0.  1.
<mgrwt>
<rscale>  0 0.16667031E+04</rscale>
<asrwt>0</asrwt>
<pdfrwt beam="1">  1        1 0.17097948E+00 0.16667031E+04</pdfrwt>
<pdfrwt beam="2">  1       -2 0.96135940E-01 0.16667031E+04</pdfrwt>
<totfact> 0.94293251E+00</totfact>
</mgrwt>
</event>
<event>
12    5  0.5428626E-008  0.2036727E+04  0.7818608E-02  0.8589639E-01
         -4   -1    0    0    0  501 -0.00000000000E+00  0.00000000000E+00  0.81032368976E+03  0.81032368976E+03  0.00000000000E+00 0.  1.
          1   -1    0    0  501    0  0.00000000000E+00 -0.00000000000E+00 -0.12798153110E+04  0.12798153110E+04  0.00000000000E+00 0. -1.
        -24    2    1    2    0    0  0.81560430997E+03 -0.58643372737E+02 -0.17852342658E+03  0.84156899923E+03  0.87854032451E+02 0.  0.
        254    2    1    2    0    0 -0.81560430997E+03  0.58643372737E+02 -0.29096819471E+03  0.12485700016E+04  0.89756065137E+03 0.  0.
         23    2    4    4    0    0 -0.77142403230E+03 -0.13598065564E+03  0.10633652601E+03  0.79455801269E+03  0.80182307625E+02 0.  0.
         23    2    4    4    0    0 -0.44180277673E+02  0.19462402838E+03 -0.39730472072E+03  0.45401198888E+03  0.91899051026E+02 0.  0.
          3    1    3    3  502    0  0.66851599991E+03 -0.13855862867E+02 -0.14487319124E+03  0.68417385847E+03  0.00000000000E+00 0. -1.
         -4    1    3    3    0  502  0.14708831006E+03 -0.44787509870E+02 -0.33650235340E+02  0.15739514076E+03  0.00000000000E+00 0.  1.
         13    1    5    5    0    0 -0.33881303261E+03 -0.23547622768E+02  0.63634042486E+02  0.34554023350E+03  0.00000000000E+00 0. -1.
        -13    1    5    5    0    0 -0.43261099968E+03 -0.11243303288E+03  0.42702483527E+02  0.44901777919E+03  0.00000000000E+00 0.  1.
          4    1    6    6  503    0 -0.67225557413E+02  0.94706415020E+02 -0.23287166775E+03  0.26022642882E+03  0.00000000000E+00 0. -1.
         -4    1    6    6    0  503  0.23045279740E+02  0.99917613361E+02 -0.16443305297E+03  0.19378556006E+03  0.00000000000E+00 0.  1.
<mgrwt>
<rscale>  0 0.20367274E+04</rscale>
<asrwt>0</asrwt>
<pdfrwt beam="1">  1        1 0.19689466E+00 0.20367274E+04</pdfrwt>
<pdfrwt beam="2">  1       -4 0.12466518E+00 0.20367274E+04</pdfrwt>
<totfact> 0.20274511E+00</totfact>
</mgrwt>
</event>
<event>
12    5  0.5428626E-008  0.1904770E+04  0.7818608E-02  0.8652486E-01
          1   -1    0    0  501    0  0.00000000000E+00  0.00000000000E+00  0.29252055978E+04  0.29252055978E+04  0.00000000000E+00 0. -1.
         -2   -1    0    0    0  501 -0.00000000000E+00 -0.00000000000E+00 -0.31007642086E+03  0.31007642086E+03  0.00000000000E+00 0.  1.
        -24    2    1    2    0    0  0.41766792713E+02  0.27264283279E+03  0.21796311051E+04  0.21984512821E+04  0.79483998870E+02 0.  0.
        254    2    1    2    0    0 -0.41766792713E+02 -0.27264283279E+03  0.43549807190E+03  0.10368307367E+04  0.89960037050E+03 0.  0.
         23    2    4    4    0    0  0.41211643336E+03 -0.50361987429E+02  0.15960742224E+03  0.45417539430E+03  0.91784939575E+02 0.  0.
         23    2    4    4    0    0 -0.45388322607E+03 -0.22228084537E+03  0.27589064966E+03  0.58265534236E+03  0.89178698598E+02 0.  0.
          3    1    3    3  502    0  0.24987956026E+01  0.21847920986E+03  0.17620912374E+04  0.17755858014E+04  0.00000000000E+00 0. -1.
         -2    1    3    3    0  502  0.39267997111E+02  0.54163622936E+02  0.41753986767E+03  0.42286548067E+03  0.00000000000E+00 0.  1.
         13    1    5    5    0    0  0.41198440960E+03 -0.55591064346E+02  0.14771187065E+03  0.44118059445E+03  0.00000000000E+00 0.  1.
        -13    1    5    5    0    0  0.13202376059E+00  0.52290769172E+01  0.11895551584E+02  0.12994799851E+02  0.00000000000E+00 0. -1.
          4    1    6    6  503    0 -0.36304380879E+03 -0.17751131931E+03  0.25897934791E+03  0.47998060193E+03  0.00000000000E+00 0.  1.
         -4    1    6    6    0  503 -0.90839417281E+02 -0.44769526060E+02  0.16911301748E+02  0.10267474043E+03  0.00000000000E+00 0. -1.
<mgrwt>
<rscale>  0 0.19047701E+04</rscale>
<asrwt>0</asrwt>
<pdfrwt beam="1">  1        1 0.45003161E+00 0.19047701E+04</pdfrwt>
<pdfrwt beam="2">  1       -2 0.47704067E-01 0.19047701E+04</pdfrwt>
<totfact> 0.23224730E+00</totfact>
</mgrwt>
</event>
<event>
12    5  0.5428626E-008  0.1087787E+04  0.7818608E-02  0.9217178E-01
         -2   -1    0    0    0  501 -0.00000000000E+00  0.00000000000E+00  0.33677499861E+03  0.33677499861E+03  0.00000000000E+00 0.  1.
          1   -1    0    0  501    0  0.00000000000E+00 -0.00000000000E+00 -0.87839079838E+03  0.87839079838E+03  0.00000000000E+00 0. -1.
        -24    2    1    2    0    0  0.33158130887E+02  0.12653058152E+03 -0.71298225900E+01  0.15381177309E+03  0.80608792731E+02 0.  0.
        254    2    1    2    0    0 -0.33158130887E+02 -0.12653058152E+03 -0.53448597717E+03  0.10613540239E+04  0.90757239631E+03 0.  0.
         23    2    4    4    0    0  0.68293372910E+02  0.37301997079E+03 -0.29435178241E+03  0.48866737647E+03  0.91350695804E+02 0.  0.
         23    2    4    4    0    0 -0.10145150380E+03 -0.49955055231E+03 -0.24013419476E+03  0.57268664743E+03  0.10228588720E+03 0.  0.
          1    1    3    3  502    0  0.17404083598E+02  0.80043835563E+02 -0.43475402908E+02  0.92736338053E+02  0.00000000000E+00 0. -1.
         -2    1    3    3    0  502  0.15754047290E+02  0.46486745960E+02  0.36345580318E+02  0.61075435034E+02  0.00000000000E+00 0.  1.
         13    1    5    5    0    0  0.25749311761E+02  0.84744779140E+02 -0.25444035003E+02  0.92152610190E+02  0.00000000000E+00 0. -1.
        -13    1    5    5    0    0  0.42544061149E+02  0.28827519165E+03 -0.26890774741E+03  0.39651476628E+03  0.00000000000E+00 0.  1.
          3    1    6    6  503    0 -0.43015006161E+02 -0.50965815401E+02 -0.20216003802E+02  0.69688534955E+02  0.00000000000E+00 0. -1.
         -3    1    6    6    0  503 -0.58436497637E+02 -0.44858473691E+03 -0.21991819096E+03  0.50299811248E+03  0.00000000000E+00 0.  1.
<mgrwt>
<rscale>  0 0.10877869E+04</rscale>
<asrwt>0</asrwt>
<pdfrwt beam="1">  1        1 0.13513705E+00 0.10877869E+04</pdfrwt>
<pdfrwt beam="2">  1       -2 0.51811538E-01 0.10877869E+04</pdfrwt>
<totfact> 0.58296060E+01</totfact>
</mgrwt>
</event>
<event>
12    5  0.5428626E-008  0.1071643E+04  0.7818608E-02  0.9233279E-01
          1   -1    0    0  501    0  0.00000000000E+00  0.00000000000E+00  0.56244073916E+03  0.56244073916E+03  0.00000000000E+00 0. -1.
         -2   -1    0    0    0  501 -0.00000000000E+00 -0.00000000000E+00 -0.51046256464E+03  0.51046256464E+03  0.00000000000E+00 0.  1.
        -24    2    1    2    0    0  0.72342375912E+02  0.55185881147E+02  0.77127821553E+02  0.14364507380E+03  0.80039399914E+02 0.  0.
        254    2    1    2    0    0 -0.72342375912E+02 -0.55185881147E+02 -0.25149647034E+02  0.92925823001E+03  0.92445089240E+03 0.  0.
         23    2    4    4    0    0  0.24440261975E+03 -0.29343389538E+03 -0.24870488190E+03  0.46510268128E+03  0.92899377564E+02 0.  0.
         23    2    4    4    0    0 -0.31674499567E+03  0.23824801423E+03  0.22355523487E+03  0.46415554873E+03  0.91509135148E+02 0.  0.
          1    1    3    3  502    0 -0.99222805594E+00 -0.72023702293E+01  0.39673956853E+02  0.40334619197E+02  0.00000000000E+00 0. -1.
         -2    1    3    3    0  502  0.73334603968E+02  0.62388251376E+02  0.37453864700E+02  0.10331045460E+03  0.00000000000E+00 0.  1.
         13    1    5    5    0    0  0.68048807089E+02 -0.86826168365E+02 -0.12471925501E+03  0.16650620478E+03  0.00000000000E+00 0.  1.
        -13    1    5    5    0    0  0.17635381266E+03 -0.20660772701E+03 -0.12398562689E+03  0.29859647650E+03  0.00000000000E+00 0. -1.
          1    1    6    6  503    0 -0.30958708138E+03  0.24093517754E+03  0.22947975242E+03  0.45448308825E+03  0.00000000000E+00 0. -1.
         -1    1    6    6    0  503 -0.71579142815E+01 -0.26871633077E+01 -0.59245175513E+01  0.96724604791E+01  0.00000000000E+00 0.  1.
<mgrwt>
<rscale>  0 0.10716435E+04</rscale>
<asrwt>0</asrwt>
<pdfrwt beam="1">  1        1 0.86529345E-01 0.10716435E+04</pdfrwt>
<pdfrwt beam="2">  1       -2 0.78532702E-01 0.10716435E+04</pdfrwt>
<totfact> 0.47324531E+01</totfact>
</mgrwt>
</event>
<event>
12    5  0.5428626E-008  0.1728803E+04  0.7818608E-02  0.8745106E-01
         -2   -1    0    0    0  501 -0.00000000000E+00  0.00000000000E+00  0.67125158770E+03  0.67125158770E+03  0.00000000000E+00 0.  1.
          1   -1    0    0  501    0  0.00000000000E+00 -0.00000000000E+00 -0.11131291475E+04  0.11131291475E+04  0.00000000000E+00 0. -1.
        -24    2    1    2    0    0 -0.14418783979E+03 -0.55218026399E+03  0.11636140535E+03  0.58784577738E+03  0.79558181513E+02 0.  0.
        254    2    1    2    0    0  0.14418783979E+03  0.55218026399E+03 -0.55823896520E+03  0.11965349579E+04  0.89127548269E+03 0.  0.
         23    2    4    4    0    0 -0.22343007814E+03  0.34442615149E+03  0.77671517769E+02  0.42791006940E+03  0.92324369330E+02 0.  0.
         23    2    4    4    0    0  0.36761791794E+03  0.20775411250E+03 -0.63591048297E+03  0.76862488847E+03  0.89985398687E+02 0.  0.
          3    1    3    3  502    0 -0.54819862843E+02 -0.26086191467E+03  0.16054475131E+02  0.26704288430E+03  0.00000000000E+00 0. -1.
         -4    1    3    3    0  502 -0.89367976949E+02 -0.29131834932E+03  0.10030693022E+03  0.32080289308E+03  0.00000000000E+00 0.  1.
         13    1    5    5    0    0 -0.10543300124E+03  0.24196814999E+03  0.59698597757E+02  0.27060788224E+03  0.00000000000E+00 0. -1.
        -13    1    5    5    0    0 -0.11799707691E+03  0.10245800150E+03  0.17972920012E+02  0.15730218716E+03  0.00000000000E+00 0.  1.
          4    1    6    6  503    0  0.62981669513E+02  0.16867904410E+02 -0.15533016417E+03  0.16845971862E+03  0.00000000000E+00 0. -1.
         -4    1    6    6    0  503  0.30463624842E+03  0.19088620809E+03 -0.48058031879E+03  0.60016516985E+03  0.00000000000E+00 0.  1.
<mgrwt>
<rscale>  0 0.17288027E+04</rscale>
<asrwt>0</asrwt>
<pdfrwt beam="1">  1        1 0.17125064E+00 0.17288027E+04</pdfrwt>
<pdfrwt beam="2">  1       -2 0.10326948E+00 0.17288027E+04</pdfrwt>
<totfact> 0.78927047E+00</totfact>
</mgrwt>
</event>
<event>
12    5  0.5428626E-008  0.2251196E+04  0.7818608E-02  0.8497416E-01
         -2   -1    0    0    0  501 -0.00000000000E+00  0.00000000000E+00  0.57194938237E+03  0.57194938237E+03  0.00000000000E+00 0.  1.
          1   -1    0    0  501    0  0.00000000000E+00 -0.00000000000E+00 -0.22151809241E+04  0.22151809241E+04  0.00000000000E+00 0. -1.
        -24    2    1    2    0    0 -0.75807558753E+03  0.17748763603E+03 -0.49980322268E+02  0.78427299527E+03  0.80035249454E+02 0.  0.
        254    2    1    2    0    0  0.75807558753E+03 -0.17748763603E+03 -0.15932512195E+04  0.20028573112E+04  0.93102497463E+03 0.  0.
         23    2    4    4    0    0  0.87547425194E+03 -0.27765007600E+03 -0.90784219941E+03  0.12944626102E+04  0.88945261691E+02 0.  0.
         23    2    4    4    0    0 -0.11739866442E+03  0.10016243997E+03 -0.68540902007E+03  0.70839470105E+03  0.90678370605E+02 0.  0.
          1    1    3    3  502    0 -0.25552575839E+03  0.73576494559E+02  0.18467334777E+02  0.26654822492E+03  0.00000000000E+00 0. -1.
         -2    1    3    3    0  502 -0.50254982914E+03  0.10391114147E+03 -0.68447657045E+02  0.51772477036E+03  0.00000000000E+00 0.  1.
         13    1    5    5    0    0  0.28242466992E+03 -0.10783615423E+03 -0.35308569263E+03  0.46482452245E+03  0.00000000000E+00 0.  1.
        -13    1    5    5    0    0  0.59304958203E+03 -0.16981392177E+03 -0.55475650678E+03  0.82963808771E+03  0.00000000000E+00 0. -1.
          4    1    6    6  503    0 -0.38059467441E+02  0.20714470557E+02 -0.38945281165E+03  0.39185597463E+03  0.00000000000E+00 0. -1.
         -4    1    6    6    0  503 -0.79339196976E+02  0.79447969413E+02 -0.29595620842E+03  0.31653872642E+03  0.00000000000E+00 0.  1.
<mgrwt>
<rscale>  0 0.22511964E+04</rscale>
<asrwt>0</asrwt>
<pdfrwt beam="1">  1        1 0.34079706E+00 0.22511964E+04</pdfrwt>
<pdfrwt beam="2">  1       -2 0.87992213E-01 0.22511964E+04</pdfrwt>
<totfact> 0.18883640E+00</totfact>
</mgrwt>
</event>
<event>
12    5  0.5428626E-008  0.2003537E+04  0.7818608E-02  0.8604969E-01
          1   -1    0    0  501    0  0.00000000000E+00  0.00000000000E+00  0.34210229767E+04  0.34210229767E+04  0.00000000000E+00 0. -1.
         -2   -1    0    0    0  501 -0.00000000000E+00 -0.00000000000E+00 -0.29334502623E+03  0.29334502623E+03  0.00000000000E+00 0.  1.
        -24    2    1    2    0    0  0.65416204149E+03  0.36731332279E+02  0.41873494453E+03  0.78169243201E+03  0.80168180674E+02 0.  0.
        254    2    1    2    0    0 -0.65416204149E+03 -0.36731332279E+02  0.27089430060E+04  0.29326755709E+04  0.91265361856E+03 0.  0.
         23    2    4    4    0    0 -0.56884126461E+03  0.16147001664E+03  0.26078545103E+04  0.26756547608E+04  0.92575922109E+02 0.  0.
         23    2    4    4    0    0 -0.85320776888E+02 -0.19820134892E+03  0.10108849561E+03  0.25702081011E+03  0.96319277404E+02 0.  0.
          3    1    3    3  502    0  0.22631441991E+02 -0.96272727738E+01  0.29469724427E+02  0.38383996736E+02  0.00000000000E+00 0. -1.
         -4    1    3    3    0  502  0.63153059950E+03  0.46358605052E+02  0.38926522010E+03  0.74330843527E+03  0.00000000000E+00 0.  1.
         13    1    5    5    0    0 -0.50733104736E+03  0.15669959339E+03  0.22005892095E+04  0.22637430118E+04  0.00000000000E+00 0.  1.
        -13    1    5    5    0    0 -0.61510217249E+02  0.47704232546E+01  0.40726530082E+03  0.41191174907E+03  0.00000000000E+00 0. -1.
          1    1    6    6  503    0  0.80890410564E+01 -0.17126171507E+02 -0.13500746516E+02  0.23259589252E+02  0.00000000000E+00 0. -1.
         -1    1    6    6    0  503 -0.93409817944E+02 -0.18107517742E+03  0.11458924212E+03  0.23376122085E+03  0.00000000000E+00 0.  1.
<mgrwt>
<rscale>  0 0.20035369E+04</rscale>
<asrwt>0</asrwt>
<pdfrwt beam="1">  1        1 0.52631120E+00 0.20035369E+04</pdfrwt>
<pdfrwt beam="2">  1       -2 0.45130006E-01 0.20035369E+04</pdfrwt>
<totfact> 0.10974931E+00</totfact>
</mgrwt>
</event>
<event>
12    5  0.5428626E-008  0.1298339E+04  0.7818608E-02  0.9030883E-01
         -2   -1    0    0    0  501 -0.00000000000E+00  0.00000000000E+00  0.14740477162E+03  0.14740477162E+03  0.00000000000E+00 0.  1.
          1   -1    0    0  501    0  0.00000000000E+00 -0.00000000000E+00 -0.28589390133E+04  0.28589390133E+04  0.00000000000E+00 0. -1.
        -24    2    1    2    0    0 -0.39052139952E+02 -0.30993134513E+03 -0.96448111310E+03  0.10167624126E+04  0.77456296200E+02 0.  0.
        254    2    1    2    0    0  0.39052139952E+02  0.30993134513E+03 -0.17470531286E+04  0.19895813723E+04  0.89925352079E+03 0.  0.
         23    2    4    4    0    0  0.29698564554E+03  0.34501523511E+03 -0.39413826122E+03  0.60882106790E+03  0.89900709938E+02 0.  0.
         23    2    4    4    0    0 -0.25793350559E+03 -0.35083889980E+02 -0.13529148674E+04  0.13807603044E+04  0.91431981672E+02 0.  0.
          3    1    3    3  502    0  0.79532681597E+00 -0.23977175417E+03 -0.76051097449E+03  0.79741336141E+03  0.00000000000E+00 0. -1.
         -4    1    3    3    0  502 -0.39847466768E+02 -0.70159590966E+02 -0.20397013862E+03  0.21934905119E+03  0.00000000000E+00 0.  1.
         13    1    5    5    0    0  0.27274841995E+03  0.28448095464E+03 -0.36585124294E+03  0.53774366207E+03  0.00000000000E+00 0.  1.
        -13    1    5    5    0    0  0.24237225592E+02  0.60534280470E+02 -0.28287018283E+02  0.71077405832E+02  0.00000000000E+00 0. -1.
          3    1    6    6  503    0 -0.10564385526E+03  0.19725494793E+02 -0.39939297570E+03  0.41359940563E+03  0.00000000000E+00 0. -1.
         -3    1    6    6    0  503 -0.15228965033E+03 -0.54809384773E+02 -0.95352189169E+03  0.96716089881E+03  0.00000000000E+00 0.  1.
<mgrwt>
<rscale>  0 0.12983393E+04</rscale>
<asrwt>0</asrwt>
<pdfrwt beam="1">  1        1 0.43983674E+00 0.12983393E+04</pdfrwt>
<pdfrwt beam="2">  1       -2 0.22677659E-01 0.12983393E+04</pdfrwt>
<totfact> 0.11253234E+01</totfact>
</mgrwt>
</event>
<event>
12    5  0.5428626E-008  0.2350669E+04  0.7818608E-02  0.8458207E-01
         -2   -1    0    0    0  501 -0.00000000000E+00  0.00000000000E+00  0.13278241996E+04  0.13278241996E+04  0.00000000000E+00 0.  1.
          1   -1    0    0  501    0  0.00000000000E+00 -0.00000000000E+00 -0.10403570593E+04  0.10403570593E+04  0.00000000000E+00 0. -1.
        -24    2    1    2    0    0  0.34758562144E+03  0.41454056579E+03  0.97587044965E+03  0.11187022421E+04  0.80696511603E+02 0.  0.
        254    2    1    2    0    0 -0.34758562144E+03 -0.41454056579E+03 -0.68840330933E+03  0.12494790169E+04  0.89142529264E+03 0.  0.
         23    2    4    4    0    0 -0.54856404130E+03 -0.54244568374E+03 -0.60886853893E+03  0.98627529895E+03  0.82754095957E+02 0.  0.
         23    2    4    4    0    0  0.20097841986E+03  0.12790511795E+03 -0.79534770404E+02  0.26320371791E+03  0.78729746421E+02 0.  0.
          3    1    3    3  502    0  0.16694023977E+03  0.14437160603E+03  0.35788234231E+03  0.42046637822E+03  0.00000000000E+00 0. -1.
         -4    1    3    3    0  502  0.18064538167E+03  0.27016895977E+03  0.61798810735E+03  0.69823586385E+03  0.00000000000E+00 0.  1.
         13    1    5    5    0    0 -0.22575500166E+03 -0.24130278298E+03 -0.31052325262E+03  0.45345015632E+03  0.00000000000E+00 0.  1.
        -13    1    5    5    0    0 -0.32280903964E+03 -0.30114290077E+03 -0.29834528631E+03  0.53282514263E+03  0.00000000000E+00 0. -1.
          4    1    6    6  503    0  0.72712140768E+02  0.75444975166E+02 -0.28450978555E+01  0.10481934113E+03  0.00000000000E+00 0. -1.
         -4    1    6    6    0  503  0.12826627909E+03  0.52460142786E+02 -0.76689672549E+02  0.15838437678E+03  0.00000000000E+00 0.  1.
<mgrwt>
<rscale>  0 0.23506691E+04</rscale>
<asrwt>0</asrwt>
<pdfrwt beam="1">  1        1 0.16005493E+00 0.23506691E+04</pdfrwt>
<pdfrwt beam="2">  1       -2 0.20428064E+00 0.23506691E+04</pdfrwt>
<totfact> 0.13853004E+00</totfact>
</mgrwt>
</event>
<event>
12    5  0.5428626E-008  0.1423104E+04  0.7818608E-02  0.8937262E-01
         -2   -1    0    0    0  501 -0.00000000000E+00  0.00000000000E+00  0.27509877073E+03  0.27509877073E+03  0.00000000000E+00 0.  1.
          1   -1    0    0  501    0  0.00000000000E+00 -0.00000000000E+00 -0.18404526296E+04  0.18404526296E+04  0.00000000000E+00 0. -1.
        -24    2    1    2    0    0  0.27026428081E+03 -0.61083579961E+02 -0.78769533938E+00  0.28996849826E+03  0.85481719064E+02 0.  0.
        254    2    1    2    0    0 -0.27026428081E+03  0.61083579961E+02 -0.15645661635E+04  0.18255829020E+04  0.89895031398E+03 0.  0.
         23    2    4    4    0    0 -0.32121925343E+03  0.22279300735E+03 -0.15791778877E+04  0.16294937764E+04  0.92890438104E+02 0.  0.
         23    2    4    4    0    0  0.50954972612E+02 -0.16170942739E+03  0.14611724146E+02  0.19608912567E+03  0.97422248902E+02 0.  0.
          1    1    3    3  502    0  0.94524819992E+01 -0.15054046750E+02 -0.17045298088E+02  0.24627544059E+02  0.00000000000E+00 0. -1.
         -2    1    3    3    0  502  0.26081179882E+03 -0.46029533211E+02  0.16257602749E+02  0.26534095420E+03  0.00000000000E+00 0.  1.
         13    1    5    5    0    0 -0.30456715354E+03  0.17722533554E+03 -0.13494531099E+04  0.13947019991E+04  0.00000000000E+00 0. -1.
        -13    1    5    5    0    0 -0.16652099887E+02  0.45567671810E+02 -0.22972477780E+03  0.23479177728E+03  0.00000000000E+00 0.  1.
          3    1    6    6  503    0  0.55458856534E+02 -0.46041115410E+02 -0.20829879337E+02  0.75029014051E+02  0.00000000000E+00 0. -1.
         -3    1    6    6    0  503 -0.45038839220E+01 -0.11566831198E+03  0.35441603483E+02  0.12106011161E+03  0.00000000000E+00 0.  1.
<mgrwt>
<rscale>  0 0.14231040E+04</rscale>
<asrwt>0</asrwt>
<pdfrwt beam="1">  1        1 0.28314655E+00 0.14231040E+04</pdfrwt>
<pdfrwt beam="2">  1       -2 0.42322889E-01 0.14231040E+04</pdfrwt>
<totfact> 0.17295262E+01</totfact>
</mgrwt>
</event>
<event>
12    5  0.5428626E-008  0.1701490E+04  0.7818608E-02  0.8760515E-01
         -2   -1    0    0    0  501 -0.00000000000E+00  0.00000000000E+00  0.24840954219E+04  0.24840954219E+04  0.00000000000E+00 0.  1.
          1   -1    0    0  501    0  0.00000000000E+00 -0.00000000000E+00 -0.29136036893E+03  0.29136036893E+03  0.00000000000E+00 0. -1.
        -24    2    1    2    0    0 -0.41805756434E+03 -0.37816808460E+03  0.11703287288E+04  0.13013897097E+04  0.78502328582E+02 0.  0.
        254    2    1    2    0    0  0.41805756434E+03  0.37816808460E+03  0.10224063242E+04  0.14740660812E+04  0.89987382043E+03 0.  0.
         23    2    4    4    0    0  0.31528626264E+03  0.56451821931E+03  0.10552905880E+04  0.12410039210E+04  0.91467259085E+02 0.  0.
         23    2    4    4    0    0  0.10277130170E+03 -0.18635013470E+03 -0.32884263804E+02  0.23306216021E+03  0.89153141034E+02 0.  0.
          1    1    3    3  502    0 -0.97606164775E+02 -0.12634734438E+03  0.28275433074E+03  0.32471622440E+03  0.00000000000E+00 0. -1.
         -2    1    3    3    0  502 -0.32045139957E+03 -0.25182074022E+03  0.88757439808E+03  0.97667348526E+03  0.00000000000E+00 0.  1.
         13    1    5    5    0    0  0.19019974612E+01  0.51348010158E+02  0.94630475484E+02  0.10768083688E+03  0.00000000000E+00 0.  1.
        -13    1    5    5    0    0  0.31338426518E+03  0.51317020915E+03  0.96066011251E+03  0.11333230841E+04  0.00000000000E+00 0. -1.
          2    1    6    6  503    0  0.53676932681E+02 -0.13692243312E+03 -0.59276603708E+02  0.15856443971E+03  0.00000000000E+00 0. -1.
         -2    1    6    6    0  503  0.49094369023E+02 -0.49427701586E+02  0.26392339904E+02  0.74497720498E+02  0.00000000000E+00 0.  1.
<mgrwt>
<rscale>  0 0.17014899E+04</rscale>
<asrwt>0</asrwt>
<pdfrwt beam="1">  1        1 0.44824674E-01 0.17014899E+04</pdfrwt>
<pdfrwt beam="2">  1       -2 0.38216851E+00 0.17014899E+04</pdfrwt>
<totfact> 0.73827895E-01</totfact>
</mgrwt>
</event>
<event>
12    5  0.5428626E-008  0.1672926E+04  0.7818608E-02  0.8776958E-01
         -2   -1    0    0    0  501 -0.00000000000E+00  0.00000000000E+00  0.37007109573E+03  0.37007109573E+03  0.00000000000E+00 0.  1.
          1   -1    0    0  501    0  0.00000000000E+00 -0.00000000000E+00 -0.18906367043E+04  0.18906367043E+04  0.00000000000E+00 0. -1.
        -24    2    1    2    0    0 -0.47136964959E+03 -0.25061193944E+03 -0.88743391330E+03  0.10387375289E+04  0.80255920436E+02 0.  0.
        254    2    1    2    0    0  0.47136964959E+03  0.25061193944E+03 -0.63313169527E+03  0.12219702711E+04  0.89853208579E+03 0.  0.
         23    2    4    4    0    0 -0.11099076866E+03  0.17640143502E+03  0.12487559893E+03  0.25892520207E+03  0.89509374103E+02 0.  0.
         23    2    4    4    0    0  0.58236041825E+03  0.74210504419E+02 -0.75800729421E+03  0.96304506905E+03  0.90718748019E+02 0.  0.
          1    1    3    3  502    0 -0.39650865060E+03 -0.17829242215E+03 -0.68987174783E+03  0.81543260068E+03  0.00000000000E+00 0. -1.
         -2    1    3    3    0  502 -0.74860998987E+02 -0.72319517286E+02 -0.19756216547E+03  0.22330492823E+03  0.00000000000E+00 0.  1.
         13    1    5    5    0    0 -0.17453633762E+02  0.20629171755E+01 -0.92887615489E+01  0.19878783913E+02  0.00000000000E+00 0. -1.
        -13    1    5    5    0    0 -0.93537134901E+02  0.17433851784E+03  0.13416436048E+03  0.23904641815E+03  0.00000000000E+00 0.  1.
          4    1    6    6  503    0  0.87518479313E+02 -0.43967178813E+01 -0.16397402410E+03  0.18592013320E+03  0.00000000000E+00 0. -1.
         -4    1    6    6    0  503  0.49484193894E+03  0.78607222300E+02 -0.59403327011E+03  0.77712493586E+03  0.00000000000E+00 0.  1.
<mgrwt>
<rscale>  0 0.16729256E+04</rscale>
<asrwt>0</asrwt>
<pdfrwt beam="1">  1        1 0.29086719E+00 0.16729256E+04</pdfrwt>
<pdfrwt beam="2">  1       -2 0.56934014E-01 0.16729256E+04</pdfrwt>
<totfact> 0.85638884E+00</totfact>
</mgrwt>
</event>
<event>
12    5  0.5428626E-008  0.1261388E+04  0.7818608E-02  0.9060758E-01
          1   -1    0    0  501    0  0.00000000000E+00  0.00000000000E+00  0.22201912247E+04  0.22201912247E+04  0.00000000000E+00 0. -1.
         -2   -1    0    0    0  501 -0.00000000000E+00 -0.00000000000E+00 -0.17916251735E+03  0.17916251735E+03  0.00000000000E+00 0.  1.
        -24    2    1    2    0    0  0.49676702071E+02 -0.13110059848E+03  0.99935748275E+03  0.10135644535E+04  0.94564165372E+02 0.  0.
        254    2    1    2    0    0 -0.49676702071E+02  0.13110059848E+03  0.10416712246E+04  0.13857892885E+04  0.90314886397E+03 0.  0.
         23    2    4    4    0    0 -0.32421298829E+03 -0.93035515726E+02  0.79603037646E+02  0.35678575364E+03  0.84792460952E+02 0.  0.
         23    2    4    4    0    0  0.27453628622E+03  0.22413611420E+03  0.96206818692E+03  0.10290035349E+04  0.87555173500E+02 0.  0.
          1    1    3    3  502    0  0.51610002133E+02 -0.53869698628E+02  0.26967756487E+03  0.27980622892E+03  0.00000000000E+00 0. -1.
         -2    1    3    3    0  502 -0.19333000624E+01 -0.77230899850E+02  0.72967991788E+03  0.73375822455E+03  0.00000000000E+00 0.  1.
         13    1    5    5    0    0 -0.13183813492E+03 -0.45291749520E-01  0.50332389889E+02  0.14111925929E+03  0.00000000000E+00 0.  1.
        -13    1    5    5    0    0 -0.19237485337E+03 -0.92990223977E+02  0.29270647756E+02  0.21566649435E+03  0.00000000000E+00 0. -1.
          1    1    6    6  503    0  0.22733116764E+03  0.16832034178E+03  0.84398442331E+03  0.89012409473E+03  0.00000000000E+00 0.  1.
         -1    1    6    6    0  503  0.47205118586E+02  0.55815772425E+02  0.11808376361E+03  0.13887944016E+03  0.00000000000E+00 0. -1.
<mgrwt>
<rscale>  0 0.12613882E+04</rscale>
<asrwt>0</asrwt>
<pdfrwt beam="1">  1        1 0.34156786E+00 0.12613882E+04</pdfrwt>
<pdfrwt beam="2">  1       -2 0.27563466E-01 0.12613882E+04</pdfrwt>
<totfact> 0.21970943E+01</totfact>
</mgrwt>
</event>
<event>
12    5  0.5428626E-008  0.2026852E+04  0.7818608E-02  0.8594169E-01
          1   -1    0    0  501    0  0.00000000000E+00  0.00000000000E+00  0.28308066854E+04  0.28308066854E+04  0.00000000000E+00 0. -1.
         -2   -1    0    0    0  501 -0.00000000000E+00 -0.00000000000E+00 -0.36280534566E+03  0.36280534566E+03  0.00000000000E+00 0.  1.
        -24    2    1    2    0    0 -0.90848321935E+02 -0.73295761826E+02  0.22558038242E+04  0.22603895902E+04  0.84169590462E+02 0.  0.
        254    2    1    2    0    0  0.90848321935E+02  0.73295761826E+02  0.21219751564E+03  0.93322244094E+03  0.90124949505E+03 0.  0.
         23    2    4    4    0    0 -0.70515136758E+02 -0.20677562241E+03 -0.26186826519E+03  0.35254392324E+03  0.89351479921E+02 0.  0.
         23    2    4    4    0    0  0.16136345869E+03  0.28007138424E+03  0.47406578083E+03  0.58067851770E+03  0.89280626630E+02 0.  0.
          3    1    3    3  502    0 -0.82632551495E+02 -0.27475629847E+02  0.18253547950E+04  0.18274307583E+04  0.00000000000E+00 0. -1.
         -4    1    3    3    0  502 -0.82157704406E+01 -0.45820131979E+02  0.43044902919E+03  0.43295883189E+03  0.00000000000E+00 0.  1.
         13    1    5    5    0    0  0.92433542675E+01 -0.60115241749E+02 -0.11543367548E+03  0.13047687658E+03  0.00000000000E+00 0.  1.
        -13    1    5    5    0    0 -0.79758491026E+02 -0.14666038066E+03 -0.14643458972E+03  0.22206704666E+03  0.00000000000E+00 0. -1.
          4    1    6    6  503    0  0.13327084529E+03  0.19847368286E+03  0.27925412436E+03  0.36760819763E+03  0.00000000000E+00 0. -1.
         -4    1    6    6    0  503  0.28092613405E+02  0.81597701377E+02  0.19481165646E+03  0.21307032006E+03  0.00000000000E+00 0.  1.
<mgrwt>
<rscale>  0 0.20268515E+04</rscale>
<asrwt>0</asrwt>
<pdfrwt beam="1">  1        1 0.43550871E+00 0.20268515E+04</pdfrwt>
<pdfrwt beam="2">  1       -2 0.55816209E-01 0.20268515E+04</pdfrwt>
<totfact> 0.19444307E+00</totfact>
</mgrwt>
</event>
<event>
12    5  0.5428626E-008  0.2226289E+04  0.7818608E-02  0.8507565E-01
         -2   -1    0    0    0  501 -0.00000000000E+00  0.00000000000E+00  0.14996260876E+04  0.14996260876E+04  0.00000000000E+00 0.  1.
          1   -1    0    0  501    0  0.00000000000E+00 -0.00000000000E+00 -0.82626670094E+03  0.82626670094E+03  0.00000000000E+00 0. -1.
        -24    2    1    2    0    0  0.61771661373E+03 -0.68372637433E+03  0.39664054074E+03  0.10063186585E+04  0.79359650542E+02 0.  0.
        254    2    1    2    0    0 -0.61771661373E+03  0.68372637433E+03  0.27671884592E+03  0.13195741300E+04  0.90313177056E+03 0.  0.
         23    2    4    4    0    0 -0.28246416596E+03  0.81642922301E+03  0.35721937869E+03  0.93916059042E+03  0.89856824211E+02 0.  0.
         23    2    4    4    0    0 -0.33525244778E+03 -0.13270284867E+03 -0.80500532773E+02  0.38041353956E+03  0.90718661358E+02 0.  0.
          1    1    3    3  502    0  0.54474667576E+03 -0.60077478498E+03  0.31983325339E+03  0.87176406956E+03  0.00000000000E+00 0. -1.
         -2    1    3    3    0  502  0.72969937980E+02 -0.82951589357E+02  0.76807287350E+02  0.13455458898E+03  0.00000000000E+00 0.  1.
         13    1    5    5    0    0 -0.17497582955E+03  0.43523783431E+03  0.15207386988E+03  0.49312774739E+03  0.00000000000E+00 0.  1.
        -13    1    5    5    0    0 -0.10748833640E+03  0.38119138870E+03  0.20514550881E+03  0.44603284304E+03  0.00000000000E+00 0. -1.
          4    1    6    6  503    0 -0.26259350389E+03 -0.62929844551E+02 -0.71150692669E+02  0.27924529484E+03  0.00000000000E+00 0. -1.
         -4    1    6    6    0  503 -0.72658943887E+02 -0.69773004122E+02 -0.93498401047E+01  0.10116824473E+03  0.00000000000E+00 0.  1.
<mgrwt>
<rscale>  0 0.22262894E+04</rscale>
<asrwt>0</asrwt>
<pdfrwt beam="1">  1        1 0.12711795E+00 0.22262894E+04</pdfrwt>
<pdfrwt beam="2">  1       -2 0.23071171E+00 0.22262894E+04</pdfrwt>
<totfact> 0.14152865E+00</totfact>
</mgrwt>
</event>
<event>
12    5  0.5428626E-008  0.1267583E+04  0.7818608E-02  0.9055674E-01
          1   -1    0    0  501    0  0.00000000000E+00  0.00000000000E+00  0.10151322896E+04  0.10151322896E+04  0.00000000000E+00 0. -1.
         -2   -1    0    0    0  501 -0.00000000000E+00 -0.00000000000E+00 -0.39570389605E+03  0.39570389605E+03  0.00000000000E+00 0.  1.
        -24    2    1    2    0    0  0.13829808484E+03 -0.19829724148E+03 -0.56214312756E+02  0.26072238329E+03  0.79799473299E+02 0.  0.
        254    2    1    2    0    0 -0.13829808484E+03  0.19829724148E+03  0.67564270631E+03  0.11501138024E+04  0.89878837083E+03 0.  0.
         23    2    4    4    0    0  0.21233847650E+03  0.23031616226E+03  0.71384089983E+03  0.78422459749E+03  0.85476463612E+02 0.  0.
         23    2    4    4    0    0 -0.35063656134E+03 -0.32018920778E+02 -0.38198193525E+02  0.36588920487E+03  0.91894498317E+02 0.  0.
          3    1    3    3  502    0  0.50007594630E+02 -0.33551711349E+02  0.12637265375E+02  0.61531921239E+02  0.00000000000E+00 0. -1.
         -4    1    3    3    0  502  0.88290490210E+02 -0.16474553013E+03 -0.68851578131E+02  0.19919046205E+03  0.00000000000E+00 0.  1.
         13    1    5    5    0    0  0.23061258022E+01  0.41812750424E+02  0.10952807631E+03  0.11726049554E+03  0.00000000000E+00 0.  1.
        -13    1    5    5    0    0  0.21003235070E+03  0.18850341183E+03  0.60431282352E+03  0.66696410194E+03  0.00000000000E+00 0. -1.
          1    1    6    6  503    0 -0.11812067629E+03 -0.52674202518E+02 -0.27426858360E+02  0.13220929747E+03  0.00000000000E+00 0.  1.
         -1    1    6    6    0  503 -0.23251588505E+03  0.20655281740E+02 -0.10771335166E+02  0.23367990741E+03  0.00000000000E+00 0. -1.
<mgrwt>
<rscale>  0 0.12675832E+04</rscale>
<asrwt>0</asrwt>
<pdfrwt beam="1">  1        1 0.15617420E+00 0.12675832E+04</pdfrwt>
<pdfrwt beam="2">  1       -2 0.60877523E-01 0.12675832E+04</pdfrwt>
<totfact> 0.31932664E+01</totfact>
</mgrwt>
</event>
<event>
12    5  0.5428626E-008  0.1988025E+04  0.7818608E-02  0.8612240E-01
         -4   -1    0    0    0  501 -0.00000000000E+00  0.00000000000E+00  0.25573288602E+04  0.25573288602E+04  0.00000000000E+00 0.  1.
          1   -1    0    0  501    0  0.00000000000E+00 -0.00000000000E+00 -0.38636457424E+03  0.38636457424E+03  0.00000000000E+00 0. -1.
        -24    2    1    2    0    0 -0.63249009475E+02  0.16531155186E+03 -0.27449289409E+03  0.33591809804E+03  0.78525621989E+02 0.  0.
        254    2    1    2    0    0  0.63249009475E+02 -0.16531155186E+03  0.24454571800E+04  0.26077753364E+04  0.88820213875E+03 0.  0.
         23    2    4    4    0    0  0.30058429487E+03  0.16633830992E+03  0.47296825701E+03  0.59149824587E+03  0.90287601935E+02 0.  0.
         23    2    4    4    0    0 -0.23733528539E+03 -0.33164986179E+03  0.19724889230E+04  0.20162770905E+04  0.91329544718E+02 0.  0.
          1    1    3    3  502    0 -0.40699626901E+02  0.16059984086E+03 -0.21033019230E+03  0.26774532360E+03  0.00000000000E+00 0. -1.
         -2    1    3    3    0  502 -0.22549382573E+02  0.47117110023E+01 -0.64162701789E+02  0.68172774448E+02  0.00000000000E+00 0.  1.
         13    1    5    5    0    0  0.30278856987E+03  0.15324552274E+03  0.46608874750E+03  0.57654473272E+03  0.00000000000E+00 0.  1.
        -13    1    5    5    0    0 -0.22042749965E+01  0.13092787185E+02  0.68795095073E+01  0.14953513153E+02  0.00000000000E+00 0. -1.
          1    1    6    6  503    0 -0.39533177698E+02 -0.16969295443E+02  0.29374904289E+03  0.29688268614E+03  0.00000000000E+00 0. -1.
         -1    1    6    6    0  503 -0.19780210770E+03 -0.31468056634E+03  0.16787398801E+04  0.17193944044E+04  0.00000000000E+00 0.  1.
<mgrwt>
<rscale>  0 0.19880254E+04</rscale>
<asrwt>0</asrwt>
<pdfrwt beam="1">  1        1 0.59440705E-01 0.19880254E+04</pdfrwt>
<pdfrwt beam="2">  1       -4 0.39343520E+00 0.19880254E+04</pdfrwt>
<totfact> 0.21017529E-01</totfact>
</mgrwt>
</event>
<event>
12    5  0.5428626E-008  0.1607743E+04  0.7818608E-02  0.8815805E-01
         -2   -1    0    0    0  501 -0.00000000000E+00  0.00000000000E+00  0.42352037941E+03  0.42352037941E+03  0.00000000000E+00 0.  1.
          1   -1    0    0  501    0  0.00000000000E+00 -0.00000000000E+00 -0.15258041191E+04  0.15258041191E+04  0.00000000000E+00 0. -1.
        -24    2    1    2    0    0 -0.22647311054E+03  0.49242250113E+03 -0.26845858019E+03  0.61046111056E+03  0.82600053288E+02 0.  0.
        254    2    1    2    0    0  0.22647311054E+03 -0.49242250113E+03 -0.83382515946E+03  0.13388633879E+04  0.89639320920E+03 0.  0.
         23    2    4    4    0    0 -0.24355548812E+03 -0.24914850547E+03 -0.16454995161E+02  0.36087146565E+03  0.92537529042E+02 0.  0.
         23    2    4    4    0    0  0.47002859866E+03 -0.24327399566E+03 -0.81737016429E+03  0.97799192225E+03  0.90912562321E+02 0.  0.
          1    1    3    3  502    0 -0.47190881791E+02  0.11737249001E+03 -0.10266350223E+03  0.16292045736E+03  0.00000000000E+00 0. -1.
         -2    1    3    3    0  502 -0.17928222875E+03  0.37505001112E+03 -0.16579507796E+03  0.44754065320E+03  0.00000000000E+00 0.  1.
         13    1    5    5    0    0 -0.19406678792E+03 -0.20079750064E+03 -0.50467389124E+02  0.28377546018E+03  0.00000000000E+00 0.  1.
        -13    1    5    5    0    0 -0.49488700202E+02 -0.48351004829E+02  0.34012393962E+02  0.77096005465E+02  0.00000000000E+00 0. -1.
          4    1    6    6  503    0  0.37282494991E+02 -0.44945673030E+02 -0.62277883704E+02  0.85373489770E+02  0.00000000000E+00 0. -1.
         -4    1    6    6    0  503  0.43274610367E+03 -0.19832832263E+03 -0.75509228059E+03  0.89261843248E+03  0.00000000000E+00 0.  1.
<mgrwt>
<rscale>  0 0.16077427E+04</rscale>
<asrwt>0</asrwt>
<pdfrwt beam="1">  1        1 0.23473909E+00 0.16077427E+04</pdfrwt>
<pdfrwt beam="2">  1       -2 0.65156984E-01 0.16077427E+04</pdfrwt>
<totfact> 0.11472765E+01</totfact>
</mgrwt>
</event>
<event>
12    5  0.8442068E-008  0.1758642E+04  0.7818608E-02  0.8728608E-01
          1   -1    0    0  501    0  0.00000000000E+00  0.00000000000E+00  0.19714541809E+04  0.19714541809E+04  0.00000000000E+00 0. -1.
         -2   -1    0    0    0  501 -0.00000000000E+00 -0.00000000000E+00 -0.39220068168E+03  0.39220068168E+03  0.00000000000E+00 0.  1.
        -24    2    1    2    0    0 -0.41115463128E+03 -0.37883777746E+03  0.14041479705E+03  0.58229863426E+03  0.82396551943E+02 0.  0.
        254    2    1    2    0    0  0.41115463128E+03  0.37883777746E+03  0.14388387021E+04  0.17813562283E+04  0.88904837259E+03 0.  0.
         23    2    4    4    0    0  0.26988816910E+03 -0.17779335786E+03  0.15122840062E+03  0.36846321883E+03  0.91896749433E+02 0.  0.
         23    2    4    4    0    0  0.14126646218E+03  0.55663113533E+03  0.12876103015E+04  0.14128930094E+04  0.92368465551E+02 0.  0.
          3    1    3    3  502    0 -0.93720057270E+02 -0.90892181661E+02 -0.23276163170E+01  0.13057662739E+03  0.00000000000E+00 0. -1.
         -4    1    3    3    0  502 -0.31743457401E+03 -0.28794559580E+03  0.14274241337E+03  0.45172200688E+03  0.00000000000E+00 0.  1.
         13    1    5    5    0    0  0.31176196844E+02 -0.96718032807E+01  0.49464273257E+02  0.59263929647E+02  0.00000000000E+00 0. -1.
        -13    1    5    5    0    0  0.23871197226E+03 -0.16812155458E+03  0.10176412736E+03  0.30919928918E+03  0.00000000000E+00 0.  1.
          2    1    6    6  503    0 -0.49510578063E+01  0.15611939597E+01  0.33126082529E+01  0.61582199878E+01  0.00000000000E+00 0. -1.
         -2    1    6    6    0  503  0.14621751999E+03  0.55506994137E+03  0.12842976933E+04  0.14067347895E+04  0.00000000000E+00 0.  1.
<mgrwt>
<rscale>  0 0.17586423E+04</rscale>
<asrwt>0</asrwt>
<pdfrwt beam="1">  1        1 0.30330064E+00 0.17586423E+04</pdfrwt>
<pdfrwt beam="2">  1       -2 0.60338567E-01 0.17586423E+04</pdfrwt>
<totfact> 0.66311398E+00</totfact>
</mgrwt>
</event>
<event>
12    5  0.5428626E-008  0.1413281E+04  0.7818608E-02  0.8944261E-01
         -2   -1    0    0    0  501 -0.00000000000E+00  0.00000000000E+00  0.14202588833E+04  0.14202588833E+04  0.00000000000E+00 0.  1.
          1   -1    0    0  501    0  0.00000000000E+00 -0.00000000000E+00 -0.35158447692E+03  0.35158447692E+03  0.00000000000E+00 0. -1.
        -24    2    1    2    0    0  0.40635501608E+02 -0.54217864212E+02 -0.19737473851E+03  0.21831829521E+03  0.64150368907E+02 0.  0.
        254    2    1    2    0    0 -0.40635501608E+02  0.54217864212E+02  0.12660491449E+04  0.15535250650E+04  0.89775768978E+03 0.  0.
         23    2    4    4    0    0  0.12665595596E+03 -0.36733733988E+03  0.36479131165E+03  0.54043954725E+03  0.89575391282E+02 0.  0.
         23    2    4    4    0    0 -0.16729145757E+03  0.42155520409E+03  0.90125783322E+03  0.10130855178E+04  0.91549781332E+02 0.  0.
          1    1    3    3  502    0  0.40594758248E+02 -0.23514877262E+02 -0.17261241076E+03  0.17887405680E+03  0.00000000000E+00 0. -1.
         -4    1    3    3    0  502  0.40743360289E-01 -0.30702986950E+02 -0.24762327748E+02  0.39444238402E+02  0.00000000000E+00 0.  1.
         13    1    5    5    0    0  0.85308295589E+02 -0.20873374957E+03  0.15242277735E+03  0.27217638869E+03  0.00000000000E+00 0. -1.
        -13    1    5    5    0    0  0.41347660376E+02 -0.15860359031E+03  0.21236853431E+03  0.26826315856E+03  0.00000000000E+00 0.  1.
          2    1    6    6  503    0 -0.16375640381E+03  0.35122640824E+03  0.80897876737E+03  0.89700768987E+03  0.00000000000E+00 0. -1.
         -2    1    6    6    0  503 -0.35350537676E+01  0.70328795851E+02  0.92279065849E+02  0.11607782788E+03  0.00000000000E+00 0.  1.
<mgrwt>
<rscale>  0 0.14132813E+04</rscale>
<asrwt>0</asrwt>
<pdfrwt beam="1">  1        1 0.54089921E-01 0.14132813E+04</pdfrwt>
<pdfrwt beam="2">  1       -2 0.21850136E+00 0.14132813E+04</pdfrwt>
<totfact> 0.61171151E+00</totfact>
</mgrwt>
</event>
<event>
12    5  0.5428626E-008  0.1449549E+04  0.7818608E-02  0.8918714E-01
          1   -1    0    0  501    0  0.00000000000E+00  0.00000000000E+00  0.89400848946E+03  0.89400848946E+03  0.00000000000E+00 0. -1.
         -2   -1    0    0    0  501 -0.00000000000E+00 -0.00000000000E+00 -0.58757575616E+03  0.58757575616E+03  0.00000000000E+00 0.  1.
        -24    2    1    2    0    0  0.23946952259E+03  0.34430835880E+03 -0.10211225479E+03  0.43905216217E+03  0.80286925079E+02 0.  0.
        254    2    1    2    0    0 -0.23946952259E+03 -0.34430835880E+03  0.40854498809E+03  0.10425320835E+04  0.86259506117E+03 0.  0.
         23    2    4    4    0    0 -0.45879570440E+03 -0.48928133382E+03  0.32312045043E+03  0.75004410091E+03  0.90937373008E+02 0.  0.
         23    2    4    4    0    0  0.21932618182E+03  0.14497297503E+03  0.85424537659E+02  0.29248798255E+03  0.95554857462E+02 0.  0.
          1    1    3    3  502    0  0.10005854632E+03  0.11772633177E+03 -0.11624859699E+01  0.15450745373E+03  0.00000000000E+00 0. -1.
         -2    1    3    3    0  502  0.13941097627E+03  0.22658202703E+03 -0.10094976882E+03  0.28454470844E+03  0.00000000000E+00 0.  1.
         13    1    5    5    0    0 -0.94100924195E+02 -0.15346433985E+03  0.10522308821E+03  0.20851423413E+03  0.00000000000E+00 0.  1.
        -13    1    5    5    0    0 -0.36469478021E+03 -0.33581699397E+03  0.21789736222E+03  0.54152986678E+03  0.00000000000E+00 0. -1.
          1    1    6    6  503    0  0.19687889882E+03  0.11574056070E+03  0.10431150374E+03  0.25107382979E+03  0.00000000000E+00 0. -1.
         -1    1    6    6    0  503  0.22447282993E+02  0.29232414322E+02 -0.18886966083E+02  0.41414152758E+02  0.00000000000E+00 0.  1.
<mgrwt>
<rscale>  0 0.14495485E+04</rscale>
<asrwt>0</asrwt>
<pdfrwt beam="1">  1        1 0.13753977E+00 0.14495485E+04</pdfrwt>
<pdfrwt beam="2">  1       -2 0.90396270E-01 0.14495485E+04</pdfrwt>
<totfact> 0.16389411E+01</totfact>
</mgrwt>
</event>
<event>
12    5  0.5428626E-008  0.1345746E+04  0.7818608E-02  0.8994055E-01
          1   -1    0    0  501    0  0.00000000000E+00  0.00000000000E+00  0.36211495607E+04  0.36211495607E+04  0.00000000000E+00 0. -1.
         -2   -1    0    0    0  501 -0.00000000000E+00 -0.00000000000E+00 -0.12503156224E+03  0.12503156224E+03  0.00000000000E+00 0.  1.
        -24    2    1    2    0    0  0.19582413975E+03 -0.15904281860E+03  0.24880707884E+03  0.36341105196E+03  0.80752203385E+02 0.  0.
        254    2    1    2    0    0 -0.19582413975E+03  0.15904281860E+03  0.32473109196E+04  0.33827700709E+04  0.91348970032E+03 0.  0.
         23    2    4    4    0    0  0.18172603430E+03 -0.26960638811E+03  0.16410234406E+04  0.16753753970E+04  0.90624678026E+02 0.  0.
         23    2    4    4    0    0 -0.37755017405E+03  0.42864920670E+03  0.16062874790E+04  0.17073946739E+04  0.93556566323E+02 0.  0.
          1    1    3    3  502    0  0.10251801395E+03 -0.83575552565E+02  0.18522297751E+03  0.22760133473E+03  0.00000000000E+00 0. -1.
         -2    1    3    3    0  502  0.93306125794E+02 -0.75467266030E+02  0.63584101324E+02  0.13580971723E+03  0.00000000000E+00 0.  1.
         13    1    5    5    0    0  0.10856007776E+03 -0.87784700037E+02  0.77232044888E+03  0.78483776654E+03  0.00000000000E+00 0.  1.
        -13    1    5    5    0    0  0.73165956542E+02 -0.18182168807E+03  0.86870299176E+03  0.89053763050E+03  0.00000000000E+00 0. -1.
          4    1    6    6  503    0 -0.20135609729E+03  0.17402221753E+03  0.83029299201E+03  0.87190278282E+03  0.00000000000E+00 0.  1.
         -4    1    6    6    0  503 -0.17619407676E+03  0.25462698917E+03  0.77599448695E+03  0.83549189108E+03  0.00000000000E+00 0. -1.
<mgrwt>
<rscale>  0 0.13457459E+04</rscale>
<asrwt>0</asrwt>
<pdfrwt beam="1">  1        1 0.55709985E+00 0.13457459E+04</pdfrwt>
<pdfrwt beam="2">  1       -2 0.19235628E-01 0.13457459E+04</pdfrwt>
<totfact> 0.40087678E+00</totfact>
</mgrwt>
</event>
<event>
12    5  0.5428626E-008  0.1611099E+04  0.7818608E-02  0.8813758E-01
          1   -1    0    0  501    0  0.00000000000E+00  0.00000000000E+00  0.14147193907E+04  0.14147193907E+04  0.00000000000E+00 0. -1.
         -2   -1    0    0    0  501 -0.00000000000E+00 -0.00000000000E+00 -0.45868448494E+03  0.45868448494E+03  0.00000000000E+00 0.  1.
        -24    2    1    2    0    0 -0.40809942132E+03  0.37217506459E+03  0.18030536007E+03  0.58742395677E+03  0.86587907528E+02 0.  0.
        254    2    1    2    0    0  0.40809942132E+03 -0.37217506459E+03  0.77572954572E+03  0.12859799189E+04  0.86425031521E+03 0.  0.
         23    2    4    4    0    0  0.30131995187E+03  0.18576734258E+03  0.56698936882E+03  0.67461493292E+03  0.91242229304E+02 0.  0.
         23    2    4    4    0    0  0.10677946946E+03 -0.55794240717E+03  0.20874017691E+03  0.61136498598E+03  0.86562692978E+02 0.  0.
          1    1    3    3  502    0 -0.19795714378E+03  0.16116221401E+03  0.12615940206E+03  0.28473932768E+03  0.00000000000E+00 0. -1.
         -4    1    3    3    0  502 -0.21014227755E+03  0.21101285058E+03  0.54145958019E+02  0.30268462910E+03  0.00000000000E+00 0.  1.
         13    1    5    5    0    0  0.13622000935E+03  0.33132471512E+02  0.23535460120E+03  0.27394422775E+03  0.00000000000E+00 0.  1.
        -13    1    5    5    0    0  0.16509994252E+03  0.15263487107E+03  0.33163476762E+03  0.40067070517E+03  0.00000000000E+00 0. -1.
          4    1    6    6  503    0  0.12125852631E+03 -0.51039545919E+03  0.19633135812E+03  0.56013673075E+03  0.00000000000E+00 0. -1.
         -4    1    6    6    0  503 -0.14479056854E+02 -0.47546947985E+02  0.12408818788E+02  0.51228255229E+02  0.00000000000E+00 0.  1.
<mgrwt>
<rscale>  0 0.16110988E+04</rscale>
<asrwt>0</asrwt>
<pdfrwt beam="1">  1        1 0.21764913E+00 0.16110988E+04</pdfrwt>
<pdfrwt beam="2">  1       -2 0.70566845E-01 0.16110988E+04</pdfrwt>
<totfact> 0.11524608E+01</totfact>
</mgrwt>
</event>
<event>
12    5  0.5428626E-008  0.1279886E+04  0.7818608E-02  0.9045670E-01
         -2   -1    0    0    0  501 -0.00000000000E+00  0.00000000000E+00  0.28085525947E+03  0.28085525947E+03  0.00000000000E+00 0.  1.
          1   -1    0    0  501    0  0.00000000000E+00 -0.00000000000E+00 -0.14581424665E+04  0.14581424665E+04  0.00000000000E+00 0. -1.
        -24    2    1    2    0    0  0.27707468469E+03  0.17442192820E+03 -0.32878549422E+03  0.47108901834E+03  0.81434464775E+02 0.  0.
        254    2    1    2    0    0 -0.27707468469E+03 -0.17442192820E+03 -0.84850171277E+03  0.12679087076E+04  0.88342738483E+03 0.  0.
         23    2    4    4    0    0  0.26037131026E+03 -0.17929561585E+03 -0.56167338121E+03  0.65211388482E+03  0.99173557670E+02 0.  0.
         23    2    4    4    0    0 -0.53744599495E+03  0.48736876496E+01 -0.28682833156E+03  0.61579482278E+03  0.89782078651E+02 0.  0.
          3    1    3    3  502    0  0.27711926834E+03  0.15443294170E+03 -0.31244021298E+03  0.44526790706E+03  0.00000000000E+00 0. -1.
         -4    1    3    3    0  502 -0.44583645377E-01  0.19988986498E+02 -0.16345281233E+02  0.25821111276E+02  0.00000000000E+00 0.  1.
         13    1    5    5    0    0  0.67667463422E+02 -0.78902297314E+02 -0.11264659799E+03  0.15327659367E+03  0.00000000000E+00 0. -1.
        -13    1    5    5    0    0  0.19270384684E+03 -0.10039331854E+03 -0.44902678322E+03  0.49883729115E+03  0.00000000000E+00 0.  1.
          4    1    6    6  503    0 -0.12573502303E+03 -0.25969607125E+02 -0.99440415315E+02  0.16239492821E+03  0.00000000000E+00 0. -1.
         -4    1    6    6    0  503 -0.41171097193E+03  0.30843294775E+02 -0.18738791625E+03  0.45339989457E+03  0.00000000000E+00 0.  1.
<mgrwt>
<rscale>  0 0.12798859E+04</rscale>
<asrwt>0</asrwt>
<pdfrwt beam="1">  1        1 0.22432962E+00 0.12798859E+04</pdfrwt>
<pdfrwt beam="2">  1       -2 0.43208500E-01 0.12798859E+04</pdfrwt>
<totfact> 0.30669035E+01</totfact>
</mgrwt>
</event>
<event>
12    5  0.5428626E-008  0.1589778E+04  0.7818608E-02  0.8826852E-01
         -2   -1    0    0    0  501 -0.00000000000E+00  0.00000000000E+00  0.77729784812E+03  0.77729784812E+03  0.00000000000E+00 0.  1.
          1   -1    0    0  501    0  0.00000000000E+00 -0.00000000000E+00 -0.81287838764E+03  0.81287838764E+03  0.00000000000E+00 0. -1.
        -24    2    1    2    0    0  0.44917572386E+03  0.25526549595E+03 -0.14538338092E+03  0.54235835386E+03  0.78082982940E+02 0.  0.
        254    2    1    2    0    0 -0.44917572386E+03 -0.25526549595E+03  0.10980284140E+03  0.10478178819E+04  0.90495654334E+03 0.  0.
         23    2    4    4    0    0  0.19104007128E+03 -0.20946593679E+03 -0.16939011445E+03  0.34198930917E+03  0.88833491449E+02 0.  0.
         23    2    4    4    0    0 -0.64021579514E+03 -0.45799559152E+02  0.27919295586E+03  0.70582857273E+03  0.90947256754E+02 0.  0.
          3    1    3    3  502    0  0.41238670410E+03  0.21451822283E+03 -0.11214139637E+03  0.47818046219E+03  0.00000000000E+00 0. -1.
         -4    1    3    3    0  502  0.36789019764E+02  0.40747273116E+02 -0.33241984557E+02  0.64177891667E+02  0.00000000000E+00 0.  1.
         13    1    5    5    0    0  0.14394759330E+03 -0.12757781635E+03 -0.69526359827E+02  0.20452609504E+03  0.00000000000E+00 0. -1.
        -13    1    5    5    0    0  0.47092477982E+02 -0.81888120448E+02 -0.99863754625E+02  0.13746321414E+03  0.00000000000E+00 0.  1.
          4    1    6    6  503    0 -0.43842239732E+03 -0.16103066082E+01  0.22229632509E+03  0.49156123495E+03  0.00000000000E+00 0. -1.
         -4    1    6    6    0  503 -0.20179339782E+03 -0.44189252544E+02  0.56896630768E+02  0.21426733778E+03  0.00000000000E+00 0.  1.
<mgrwt>
<rscale>  0 0.15897781E+04</rscale>
<asrwt>0</asrwt>
<pdfrwt beam="1">  1        1 0.12505821E+00 0.15897781E+04</pdfrwt>
<pdfrwt beam="2">  1       -2 0.11958428E+00 0.15897781E+04</pdfrwt>
<totfact> 0.97076070E+00</totfact>
</mgrwt>
</event>
<event>
12    5  0.5428626E-008  0.1621469E+04  0.7818608E-02  0.8807466E-01
          1   -1    0    0  501    0  0.00000000000E+00  0.00000000000E+00  0.19111003714E+04  0.19111003714E+04  0.00000000000E+00 0. -1.
         -2   -1    0    0    0  501 -0.00000000000E+00 -0.00000000000E+00 -0.34393295156E+03  0.34393295156E+03  0.00000000000E+00 0.  1.
        -24    2    1    2    0    0  0.36451839176E+03 -0.38543166600E+03  0.29963841836E+03  0.61449135795E+03  0.79907572541E+02 0.  0.
        254    2    1    2    0    0 -0.36451839176E+03  0.38543166600E+03  0.12675290015E+04  0.16405419650E+04  0.89627950007E+03 0.  0.
         23    2    4    4    0    0  0.27537775441E+03  0.16748720983E+03  0.26512288020E+03  0.42823644588E+03  0.95976241320E+02 0.  0.
         23    2    4    4    0    0 -0.63989614616E+03  0.21794445617E+03  0.10024061213E+04  0.12123055191E+04  0.88880683270E+02 0.  0.
          3    1    3    3  502    0  0.27709969755E+03 -0.28530882894E+03  0.26229802516E+03  0.47643008328E+03  0.00000000000E+00 0. -1.
         -4    1    3    3    0  502  0.87418694202E+02 -0.10012283707E+03  0.37340393202E+02  0.13806127467E+03  0.00000000000E+00 0.  1.
         13    1    5    5    0    0  0.89213000044E+02  0.92437678583E+02  0.14744932169E+03  0.19556325388E+03  0.00000000000E+00 0.  1.
        -13    1    5    5    0    0  0.18616475436E+03  0.75049531251E+02  0.11767355851E+03  0.23267319201E+03  0.00000000000E+00 0. -1.
          2    1    6    6  503    0 -0.13730448473E+03  0.78716423670E+02  0.27445775804E+03  0.31682149206E+03  0.00000000000E+00 0. -1.
         -2    1    6    6    0  503 -0.50259166143E+03  0.13922803250E+03  0.72794836324E+03  0.89548402706E+03  0.00000000000E+00 0.  1.
<mgrwt>
<rscale>  0 0.16214690E+04</rscale>
<asrwt>0</asrwt>
<pdfrwt beam="1">  1        1 0.29401544E+00 0.16214690E+04</pdfrwt>
<pdfrwt beam="2">  1       -2 0.52912763E-01 0.16214690E+04</pdfrwt>
<totfact> 0.97019065E+00</totfact>
</mgrwt>
</event>
<event>
12    5  0.5428626E-008  0.1886651E+04  0.7818608E-02  0.8661530E-01
          1   -1    0    0  501    0  0.00000000000E+00  0.00000000000E+00  0.73888433064E+03  0.73888433064E+03  0.00000000000E+00 0. -1.
         -2   -1    0    0    0  501 -0.00000000000E+00 -0.00000000000E+00 -0.12043328466E+04  0.12043328466E+04  0.00000000000E+00 0.  1.
        -24    2    1    2    0    0  0.36850800767E+03 -0.33279957871E+03 -0.75093035046E+03  0.90366710652E+03  0.78512017199E+02 0.  0.
        254    2    1    2    0    0 -0.36850800767E+03  0.33279957871E+03  0.28548183450E+03  0.10395500707E+04  0.86753141753E+03 0.  0.
         23    2    4    4    0    0  0.25428846814E+03  0.18320725838E+03 -0.12930231743E+02  0.32650908278E+03  0.90628172762E+02 0.  0.
         23    2    4    4    0    0 -0.62279647581E+03  0.14959232034E+03  0.29841206624E+03  0.71304098794E+03  0.95521602878E+02 0.  0.
          1    1    3    3  502    0  0.10127929040E+03 -0.47697961772E+02 -0.16669546674E+03  0.20079832881E+03  0.00000000000E+00 0. -1.
         -2    1    3    3    0  502  0.26722871727E+03 -0.28510161694E+03 -0.58423488372E+03  0.70286877770E+03  0.00000000000E+00 0.  1.
         13    1    5    5    0    0  0.25186143347E+03  0.18043797975E+03 -0.27912793735E+02  0.31108064912E+03  0.00000000000E+00 0. -1.
        -13    1    5    5    0    0  0.24270346698E+01  0.27692786250E+01  0.14982561992E+02  0.15428433661E+02  0.00000000000E+00 0.  1.
          1    1    6    6  503    0 -0.41839508880E+03  0.12488267439E+03  0.16035453902E+03  0.46514912757E+03  0.00000000000E+00 0. -1.
         -1    1    6    6    0  503 -0.20440138701E+03  0.24709645950E+02  0.13805752722E+03  0.24789186037E+03  0.00000000000E+00 0.  1.
<mgrwt>
<rscale>  0 0.18866507E+04</rscale>
<asrwt>0</asrwt>
<pdfrwt beam="1">  1        1 0.11367451E+00 0.18866507E+04</pdfrwt>
<pdfrwt beam="2">  1       -2 0.18528197E+00 0.18866507E+04</pdfrwt>
<totfact> 0.34290434E+00</totfact>
</mgrwt>
</event>
<event>
12    5  0.5428626E-008  0.1264124E+04  0.7818608E-02  0.9058509E-01
          3   -1    0    0  501    0  0.00000000000E+00  0.00000000000E+00  0.35238579181E+03  0.35238579181E+03  0.00000000000E+00 0. -1.
         -4   -1    0    0    0  501 -0.00000000000E+00 -0.00000000000E+00 -0.11337077210E+04  0.11337077210E+04  0.00000000000E+00 0.  1.
        -24    2    1    2    0    0 -0.12546462088E+03 -0.12872837934E+03  0.83254527201E+02  0.21534567370E+03  0.84439778195E+02 0.  0.
        254    2    1    2    0    0  0.12546462088E+03  0.12872837934E+03 -0.86457645640E+03  0.12707478391E+04  0.91378074774E+03 0.  0.
         23    2    4    4    0    0  0.18534684856E+02  0.39153354209E+03 -0.88473855212E+03  0.97207007223E+03  0.92281474809E+02 0.  0.
         23    2    4    4    0    0  0.10692993602E+03 -0.26280516275E+03  0.20162095716E+02  0.29867776690E+03  0.91111654309E+02 0.  0.
          1    1    3    3  502    0 -0.26201209124E+01 -0.51195402741E+02  0.35798143997E+02  0.62524726381E+02  0.00000000000E+00 0. -1.
         -2    1    3    3    0  502 -0.12284449997E+03 -0.77532976600E+02  0.47456383204E+02  0.15282094732E+03  0.00000000000E+00 0.  1.
         13    1    5    5    0    0 -0.33468876965E+02  0.24239854060E+03 -0.54501596772E+03  0.59742750462E+03  0.00000000000E+00 0. -1.
        -13    1    5    5    0    0  0.52003561821E+02  0.14913500149E+03 -0.33972258440E+03  0.37464256761E+03  0.00000000000E+00 0.  1.
          4    1    6    6  503    0  0.10409916076E+03 -0.17548068071E+03  0.42683565386E+02  0.20845141239E+03  0.00000000000E+00 0. -1.
         -4    1    6    6    0  503  0.28307752645E+01 -0.87324482042E+02 -0.22521469670E+02  0.90226354512E+02  0.00000000000E+00 0.  1.
<mgrwt>
<rscale>  0 0.12641242E+04</rscale>
<asrwt>0</asrwt>
<pdfrwt beam="1">  1        3 0.54213199E-01 0.12641242E+04</pdfrwt>
<pdfrwt beam="2">  1       -4 0.17441657E+00 0.12641242E+04</pdfrwt>
<totfact> 0.14843778E+00</totfact>
</mgrwt>
</event>
<event>
12    5  0.5428626E-008  0.1602296E+04  0.7818608E-02  0.8819139E-01
         -2   -1    0    0    0  501 -0.00000000000E+00  0.00000000000E+00  0.92086777983E+03  0.92086777983E+03  0.00000000000E+00 0.  1.
          1   -1    0    0  501    0  0.00000000000E+00 -0.00000000000E+00 -0.69699285928E+03  0.69699285928E+03  0.00000000000E+00 0. -1.
        -24    2    1    2    0    0  0.34464831978E+02 -0.19905867107E+02  0.62681380603E+03  0.63299748398E+03  0.78779433301E+02 0.  0.
        254    2    1    2    0    0 -0.34464831978E+02  0.19905867107E+02 -0.40293888549E+03  0.98486315513E+03  0.89778149942E+03 0.  0.
         23    2    4    4    0    0  0.38747490907E+03 -0.16000726177E+03 -0.22167308592E+03  0.48322803815E+03  0.92904525480E+02 0.  0.
         23    2    4    4    0    0 -0.42193974105E+03  0.17991312888E+03 -0.18126579956E+03  0.50163511697E+03  0.91534810146E+02 0.  0.
          3    1    3    3  502    0  0.10723713452E+02  0.14776453627E+02  0.33129660943E+02  0.37827450961E+02  0.00000000000E+00 0. -1.
         -4    1    3    3    0  502  0.23741118525E+02 -0.34682320734E+02  0.59368414509E+03  0.59517003302E+03  0.00000000000E+00 0.  1.
         13    1    5    5    0    0  0.18348058873E+03 -0.12342929427E+03 -0.97918588663E+02  0.24184285627E+03  0.00000000000E+00 0.  1.
        -13    1    5    5    0    0  0.20399432035E+03 -0.36577967497E+02 -0.12375449726E+03  0.24138518188E+03  0.00000000000E+00 0. -1.
          3    1    6    6  503    0 -0.24421833556E+03  0.14587057403E+03 -0.86251605470E+02  0.29725436791E+03  0.00000000000E+00 0.  1.
         -3    1    6    6    0  503 -0.17772140549E+03  0.34042554841E+02 -0.95014194094E+02  0.20438074907E+03  0.00000000000E+00 0. -1.
<mgrwt>
<rscale>  0 0.16022962E+04</rscale>
<asrwt>0</asrwt>
<pdfrwt beam="1">  1        1 0.10722967E+00 0.16022962E+04</pdfrwt>
<pdfrwt beam="2">  1       -2 0.14167197E+00 0.16022962E+04</pdfrwt>
<totfact> 0.80176939E+00</totfact>
</mgrwt>
</event>
<event>
12    5  0.5428626E-008  0.1672171E+04  0.7818608E-02  0.8777397E-01
         -2   -1    0    0    0  501 -0.00000000000E+00  0.00000000000E+00  0.25042978149E+03  0.25042978149E+03  0.00000000000E+00 0.  1.
          1   -1    0    0  501    0  0.00000000000E+00 -0.00000000000E+00 -0.27913571796E+04  0.27913571796E+04  0.00000000000E+00 0. -1.
        -24    2    1    2    0    0  0.50109882098E+03  0.21491235569E+03 -0.13221442715E+04  0.14323011924E+04  0.78319104199E+02 0.  0.
        254    2    1    2    0    0 -0.50109882098E+03 -0.21491235569E+03 -0.12187831266E+04  0.16094857687E+04  0.89873510051E+03 0.  0.
         23    2    4    4    0    0  0.22784172450E+03 -0.12310997159E+02 -0.52254008504E+03  0.57757915248E+03  0.92120165114E+02 0.  0.
         23    2    4    4    0    0 -0.72894054548E+03 -0.20260135853E+03 -0.69624304158E+03  0.10319066162E+04  0.87608574540E+02 0.  0.
          1    1    3    3  502    0  0.49805067652E+03  0.22012856675E+03 -0.13117042334E+04  0.14202390849E+04  0.00000000000E+00 0. -1.
         -2    1    3    3    0  502  0.30481444596E+01 -0.52162110597E+01 -0.10440038054E+02  0.12062107488E+02  0.00000000000E+00 0.  1.
         13    1    5    5    0    0  0.13151109279E+01 -0.81862328793E+01 -0.79862597997E+02  0.80291833236E+02  0.00000000000E+00 0. -1.
        -13    1    5    5    0    0  0.22652661358E+03 -0.41247642800E+01 -0.44267748705E+03  0.49728731924E+03  0.00000000000E+00 0.  1.
          1    1    6    6  503    0 -0.84566411084E+02 -0.30460867129E+02 -0.12363373424E+03  0.15285497229E+03  0.00000000000E+00 0. -1.
         -1    1    6    6    0  503 -0.64437413440E+03 -0.17214049140E+03 -0.57260930734E+03  0.87905164394E+03  0.00000000000E+00 0.  1.
<mgrwt>
<rscale>  0 0.16721710E+04</rscale>
<asrwt>0</asrwt>
<pdfrwt beam="1">  1        1 0.42943959E+00 0.16721710E+04</pdfrwt>
<pdfrwt beam="2">  1       -2 0.38527656E-01 0.16721710E+04</pdfrwt>
<totfact> 0.45198495E+00</totfact>
</mgrwt>
</event>
<event>
12    5  0.5428626E-008  0.1942490E+04  0.7818608E-02  0.8633991E-01
          1   -1    0    0  501    0  0.00000000000E+00  0.00000000000E+00  0.10152595531E+04  0.10152595531E+04  0.00000000000E+00 0. -1.
         -2   -1    0    0    0  501 -0.00000000000E+00 -0.00000000000E+00 -0.92913854705E+03  0.92913854705E+03  0.00000000000E+00 0.  1.
        -24    2    1    2    0    0 -0.24256071646E+02  0.37809038071E+03  0.69214433909E+03  0.79304979352E+03  0.79520411684E+02 0.  0.
        254    2    1    2    0    0  0.24256071646E+02 -0.37809038071E+03 -0.60602333305E+03  0.11513483066E+04  0.90266159214E+03 0.  0.
         23    2    4    4    0    0  0.81908771999E+02 -0.48904938740E+03  0.21463083497E+02  0.50473696508E+03  0.91762681472E+02 0.  0.
         23    2    4    4    0    0 -0.57652700353E+02  0.11095900669E+03 -0.62748641655E+03  0.64661134153E+03  0.93441366726E+02 0.  0.
          1    1    3    3  502    0 -0.31250104564E+01  0.35715911896E+03  0.64554619308E+03  0.73776845239E+03  0.00000000000E+00 0. -1.
         -2    1    3    3    0  502 -0.21131061190E+02  0.20931261748E+02  0.46598146010E+02  0.55281341128E+02  0.00000000000E+00 0.  1.
         13    1    5    5    0    0  0.73996732154E+02 -0.33235005859E+03 -0.24146777654E+02  0.34134314800E+03  0.00000000000E+00 0. -1.
        -13    1    5    5    0    0  0.79120398454E+01 -0.15669932881E+03  0.45609861150E+02  0.16339381707E+03  0.00000000000E+00 0.  1.
          1    1    6    6  503    0 -0.53086828833E+02  0.85024286214E+02 -0.26750628443E+03  0.28566930681E+03  0.00000000000E+00 0. -1.
         -1    1    6    6    0  503 -0.45658715199E+01  0.25934720481E+02 -0.35998013212E+03  0.36094203472E+03  0.00000000000E+00 0.  1.
<mgrwt>
<rscale>  0 0.19424899E+04</rscale>
<asrwt>0</asrwt>
<pdfrwt beam="1">  1        1 0.15619378E+00 0.19424899E+04</pdfrwt>
<pdfrwt beam="2">  1       -2 0.14294439E+00 0.19424899E+04</pdfrwt>
<totfact> 0.40926099E+00</totfact>
</mgrwt>
</event>
<event>
12    5  0.5428626E-008  0.3040181E+04  0.7818608E-02  0.8232349E-01
          1   -1    0    0  501    0  0.00000000000E+00  0.00000000000E+00  0.13798840591E+04  0.13798840591E+04  0.00000000000E+00 0. -1.
         -2   -1    0    0    0  501 -0.00000000000E+00 -0.00000000000E+00 -0.16745425873E+04  0.16745425873E+04  0.00000000000E+00 0.  1.
        -24    2    1    2    0    0  0.10950639095E+04  0.88280582174E+03 -0.60904077644E+01  0.14091088239E+04  0.83901727424E+02 0.  0.
        254    2    1    2    0    0 -0.10950639095E+04 -0.88280582174E+03 -0.28856812038E+03  0.16453178225E+04  0.80329825844E+03 0.  0.
         23    2    4    4    0    0 -0.10505895313E+03 -0.52078590673E+03  0.31035083733E+02  0.53985524377E+03  0.90692687239E+02 0.  0.
         23    2    4    4    0    0 -0.99000495636E+03 -0.36201991501E+03 -0.31960320412E+03  0.11054625787E+04  0.93450908589E+02 0.  0.
          1    1    3    3  502    0  0.10048390981E+04  0.83647464162E+03 -0.12282531628E+02  0.13074946653E+04  0.00000000000E+00 0. -1.
         -2    1    3    3    0  502  0.90224811422E+02  0.46331180124E+02  0.61921238635E+01  0.10161415869E+03  0.00000000000E+00 0.  1.
         13    1    5    5    0    0 -0.34808895420E+02 -0.11825687261E+03 -0.29574540837E+02  0.12677145020E+03  0.00000000000E+00 0. -1.
        -13    1    5    5    0    0 -0.70250057713E+02 -0.40252903412E+03  0.60609624570E+02  0.41308379357E+03  0.00000000000E+00 0.  1.
          3    1    6    6  503    0 -0.79918521272E+03 -0.25480875906E+03 -0.26787732274E+03  0.88055821384E+03  0.00000000000E+00 0.  1.
         -3    1    6    6    0  503 -0.19081974364E+03 -0.10721115595E+03 -0.51725881376E+02  0.22490436485E+03  0.00000000000E+00 0. -1.
<mgrwt>
<rscale>  0 0.30401807E+04</rscale>
<asrwt>0</asrwt>
<pdfrwt beam="1">  1        1 0.21228986E+00 0.30401807E+04</pdfrwt>
<pdfrwt beam="2">  1       -2 0.25762194E+00 0.30401807E+04</pdfrwt>
<totfact> 0.34105919E-01</totfact>
</mgrwt>
</event>
<event>
12    5  0.5428626E-008  0.2092961E+04  0.7818608E-02  0.8564350E-01
         -2   -1    0    0    0  501 -0.00000000000E+00  0.00000000000E+00  0.16668097174E+04  0.16668097174E+04  0.00000000000E+00 0.  1.
          1   -1    0    0  501    0  0.00000000000E+00 -0.00000000000E+00 -0.65701672917E+03  0.65701672917E+03  0.00000000000E+00 0. -1.
        -24    2    1    2    0    0  0.13909781700E+03  0.18759412079E+03 -0.49463227930E+03  0.55264783647E+03  0.78859258003E+02 0.  0.
        254    2    1    2    0    0 -0.13909781700E+03 -0.18759412079E+03  0.15044252676E+04  0.17711786101E+04  0.90511796271E+03 0.  0.
         23    2    4    4    0    0 -0.36600816740E+03  0.14957888344E+03  0.32299936599E+03  0.51854449159E+03  0.90686153059E+02 0.  0.
         23    2    4    4    0    0  0.22691035040E+03 -0.33717300423E+03  0.11814259016E+04  0.12526341185E+04  0.90283620362E+02 0.  0.
          1    1    3    3  502    0  0.56992580001E+02  0.12454713117E+03 -0.21999429668E+03  0.25914789721E+03  0.00000000000E+00 0. -1.
         -2    1    3    3    0  502  0.82105236998E+02  0.63046989623E+02 -0.27463798263E+03  0.29349993926E+03  0.00000000000E+00 0.  1.
         13    1    5    5    0    0 -0.73396970020E+02  0.12441303573E+02  0.10508618181E+03  0.12878278941E+03  0.00000000000E+00 0. -1.
        -13    1    5    5    0    0 -0.29261119738E+03  0.13713757987E+03  0.21791318418E+03  0.38976170218E+03  0.00000000000E+00 0.  1.
          4    1    6    6  503    0  0.77819662744E+02 -0.56360513493E+02  0.22202547419E+03  0.24192502677E+03  0.00000000000E+00 0. -1.
         -4    1    6    6    0  503  0.14909068765E+03 -0.28081249074E+03  0.95940042738E+03  0.10107090918E+04  0.00000000000E+00 0.  1.
<mgrwt>
<rscale>  0 0.20929614E+04</rscale>
<asrwt>0</asrwt>
<pdfrwt beam="1">  1        1 0.10107950E+00 0.20929614E+04</pdfrwt>
<pdfrwt beam="2">  1       -2 0.25643226E+00 0.20929614E+04</pdfrwt>
<totfact> 0.14175068E+00</totfact>
</mgrwt>
</event>
<event>
12    5  0.5428626E-008  0.1125656E+04  0.7818608E-02  0.9180541E-01
         -2   -1    0    0    0  501 -0.00000000000E+00  0.00000000000E+00  0.10992378846E+04  0.10992378846E+04  0.00000000000E+00 0.  1.
          1   -1    0    0  501    0  0.00000000000E+00 -0.00000000000E+00 -0.28817710326E+03  0.28817710326E+03  0.00000000000E+00 0. -1.
        -24    2    1    2    0    0  0.26541275317E+02 -0.12588983123E+03 -0.41960521852E+02  0.15715884197E+03  0.79909494522E+02 0.  0.
        254    2    1    2    0    0 -0.26541275317E+02  0.12588983123E+03  0.85302130321E+03  0.12302561459E+04  0.87711581443E+03 0.  0.
         23    2    4    4    0    0 -0.14695922929E+03  0.46216238347E+03  0.34761421123E+03  0.60460826280E+03  0.97593175094E+02 0.  0.
         23    2    4    4    0    0  0.12041795397E+03 -0.33627255225E+03  0.50540709199E+03  0.62564788312E+03  0.91756373005E+02 0.  0.
          1    1    3    3  502    0 -0.17256461402E+02 -0.45225556706E+02 -0.43904108831E+02  0.65350648135E+02  0.00000000000E+00 0. -1.
         -2    1    3    3    0  502  0.43797736718E+02 -0.80664274520E+02  0.19435869789E+01  0.91808193838E+02  0.00000000000E+00 0.  1.
         13    1    5    5    0    0 -0.97011840655E+02  0.32263599828E+03  0.18408240816E+03  0.38391615960E+03  0.00000000000E+00 0. -1.
        -13    1    5    5    0    0 -0.49947388636E+02  0.13952638520E+03  0.16353180307E+03  0.22069210320E+03  0.00000000000E+00 0.  1.
          4    1    6    6  503    0  0.10909989329E+03 -0.27480667322E+03  0.46560178629E+03  0.55154919795E+03  0.00000000000E+00 0. -1.
         -4    1    6    6    0  503  0.11318060688E+02 -0.61465879027E+02  0.39805305694E+02  0.74098685168E+02  0.00000000000E+00 0.  1.
<mgrwt>
<rscale>  0 0.11256557E+04</rscale>
<asrwt>0</asrwt>
<pdfrwt beam="1">  1        1 0.44334939E-01 0.11256557E+04</pdfrwt>
<pdfrwt beam="2">  1       -2 0.16911352E+00 0.11256557E+04</pdfrwt>
<totfact> 0.17325165E+01</totfact>
</mgrwt>
</event>
<event>
12    5  0.5428626E-008  0.1445310E+04  0.7818608E-02  0.8921658E-01
         -2   -1    0    0    0  501 -0.00000000000E+00  0.00000000000E+00  0.61181134852E+03  0.61181134852E+03  0.00000000000E+00 0.  1.
          1   -1    0    0  501    0  0.00000000000E+00 -0.00000000000E+00 -0.85358107015E+03  0.85358107015E+03  0.00000000000E+00 0. -1.
        -24    2    1    2    0    0 -0.16493724170E+03 -0.10887012791E+02  0.30899693043E+03  0.35923064255E+03  0.79023609025E+02 0.  0.
        254    2    1    2    0    0  0.16493724170E+03  0.10887012791E+02 -0.55076665206E+03  0.11061617761E+04  0.94494822566E+03 0.  0.
         23    2    4    4    0    0  0.54309862085E+03 -0.41180147670E+02 -0.41428659919E+03  0.69039217894E+03  0.91411475980E+02 0.  0.
         23    2    4    4    0    0 -0.37816137915E+03  0.52067160461E+02 -0.13648005287E+03  0.41576959718E+03  0.92306745318E+02 0.  0.
          3    1    3    3  502    0 -0.61819948520E+02  0.53586028200E+01  0.49018714006E+02  0.79077525139E+02  0.00000000000E+00 0. -1.
         -4    1    3    3    0  502 -0.10311729318E+03 -0.16245615611E+02  0.25997821643E+03  0.28015311741E+03  0.00000000000E+00 0.  1.
         13    1    5    5    0    0  0.28924477774E+03  0.21284668037E+02 -0.23665935138E+03  0.37433037165E+03  0.00000000000E+00 0.  1.
        -13    1    5    5    0    0  0.25385384311E+03 -0.62464815707E+02 -0.17762724781E+03  0.31606180729E+03  0.00000000000E+00 0. -1.
          2    1    6    6  503    0 -0.22813689600E+03 -0.14008598767E+02 -0.86532120440E+02  0.24439822426E+03  0.00000000000E+00 0.  1.
         -2    1    6    6    0  503 -0.15002448315E+03  0.66075759227E+02 -0.49947932433E+02  0.17137137292E+03  0.00000000000E+00 0. -1.
<mgrwt>
<rscale>  0 0.14453105E+04</rscale>
<asrwt>0</asrwt>
<pdfrwt beam="1">  1        1 0.13132016E+00 0.14453105E+04</pdfrwt>
<pdfrwt beam="2">  1       -2 0.94124823E-01 0.14453105E+04</pdfrwt>
<totfact> 0.16127018E+01</totfact>
</mgrwt>
</event>
<event>
12    5  0.5428626E-008  0.2004217E+04  0.7818608E-02  0.8604652E-01
          1   -1    0    0  501    0  0.00000000000E+00  0.00000000000E+00  0.13237814130E+04  0.13237814130E+04  0.00000000000E+00 0. -1.
         -2   -1    0    0    0  501 -0.00000000000E+00 -0.00000000000E+00 -0.75860073507E+03  0.75860073507E+03  0.00000000000E+00 0.  1.
        -24    2    1    2    0    0 -0.69029207997E+03  0.43677097670E+02 -0.18322564315E+03  0.72008243814E+03  0.80846996680E+02 0.  0.
        254    2    1    2    0    0  0.69029207997E+03 -0.43677097670E+02  0.74840632106E+03  0.13622997099E+04  0.90406727277E+03 0.  0.
         23    2    4    4    0    0  0.30844730223E+03 -0.46252047745E+03  0.35476092855E+03  0.66605191866E+03  0.93300115768E+02 0.  0.
         23    2    4    4    0    0  0.38184477774E+03  0.41884337978E+03  0.39364539251E+03  0.69624779126E+03  0.92569329237E+02 0.  0.
          3    1    3    3  502    0 -0.28465961447E+03  0.12872844457E+02 -0.11650061022E+03  0.30784606285E+03  0.00000000000E+00 0. -1.
         -4    1    3    3    0  502 -0.40563246551E+03  0.30804253213E+02 -0.66725032937E+02  0.41223637529E+03  0.00000000000E+00 0.  1.
         13    1    5    5    0    0  0.53292353383E+02 -0.13565806986E+03  0.61634402827E+02  0.15824660015E+03  0.00000000000E+00 0.  1.
        -13    1    5    5    0    0  0.25515494885E+03 -0.32686240759E+03  0.29312652572E+03  0.50780531850E+03  0.00000000000E+00 0. -1.
          2    1    6    6  503    0  0.60166380589E+02  0.11913272483E+03  0.73389424516E+02  0.15231088966E+03  0.00000000000E+00 0. -1.
         -2    1    6    6    0  503  0.32167839715E+03  0.29971065495E+03  0.32025596799E+03  0.54393690160E+03  0.00000000000E+00 0.  1.
<mgrwt>
<rscale>  0 0.20042171E+04</rscale>
<asrwt>0</asrwt>
<pdfrwt beam="1">  1        1 0.20365868E+00 0.20042171E+04</pdfrwt>
<pdfrwt beam="2">  1       -2 0.11670781E+00 0.20042171E+04</pdfrwt>
<totfact> 0.40257215E+00</totfact>
</mgrwt>
</event>
<event>
12    5  0.5428626E-008  0.1174235E+04  0.7818608E-02  0.9135712E-01
         -2   -1    0    0    0  501 -0.00000000000E+00  0.00000000000E+00  0.13145449928E+04  0.13145449928E+04  0.00000000000E+00 0.  1.
          1   -1    0    0  501    0  0.00000000000E+00 -0.00000000000E+00 -0.26222526933E+03  0.26222526933E+03  0.00000000000E+00 0. -1.
        -24    2    1    2    0    0 -0.19812736817E+03  0.82892991313E+02  0.83725558838E+02  0.24665351264E+03  0.87762657597E+02 0.  0.
        254    2    1    2    0    0  0.19812736817E+03 -0.82892991313E+02  0.96859416459E+03  0.13301167494E+04  0.88595158415E+03 0.  0.
         23    2    4    4    0    0 -0.66496449693E+00 -0.30262537122E+03  0.96992679625E+03  0.10199973128E+04  0.89743916161E+02 0.  0.
         23    2    4    4    0    0  0.19879233266E+03  0.21973237991E+03 -0.13326316608E+01  0.31011943668E+03  0.91496332131E+02 0.  0.
          1    1    3    3  502    0 -0.45762056100E+02 -0.54136583280E+01 -0.10008942962E+02  0.47155619116E+02  0.00000000000E+00 0. -1.
         -2    1    3    3    0  502 -0.15236531207E+03  0.88306649641E+02  0.93734501801E+02  0.19949789352E+03  0.00000000000E+00 0.  1.
         13    1    5    5    0    0 -0.33848258686E+02 -0.52483353885E+02  0.16385065804E+03  0.17534892413E+03  0.00000000000E+00 0. -1.
        -13    1    5    5    0    0  0.33183294189E+02 -0.25014201733E+03  0.80607613821E+03  0.84464838864E+03  0.00000000000E+00 0.  1.
          2    1    6    6  503    0  0.11174345571E+03  0.88279539579E+02  0.38467215358E+02  0.14751136790E+03  0.00000000000E+00 0. -1.
         -2    1    6    6    0  503  0.87048876953E+02  0.13145284033E+03 -0.39799847019E+02  0.16260806878E+03  0.00000000000E+00 0.  1.
<mgrwt>
<rscale>  0 0.11742349E+04</rscale>
<asrwt>0</asrwt>
<pdfrwt beam="1">  1        1 0.40342350E-01 0.11742349E+04</pdfrwt>
<pdfrwt beam="2">  1       -2 0.20223769E+00 0.11742349E+04</pdfrwt>
<totfact> 0.11617234E+01</totfact>
</mgrwt>
</event>
<event>
12    5  0.5428626E-008  0.3019835E+04  0.7818608E-02  0.8238090E-01
         -2   -1    0    0    0  501 -0.00000000000E+00  0.00000000000E+00  0.21844431633E+04  0.21844431633E+04  0.00000000000E+00 0.  1.
          1   -1    0    0  501    0  0.00000000000E+00 -0.00000000000E+00 -0.10436757489E+04  0.10436757489E+04  0.00000000000E+00 0. -1.
        -24    2    1    2    0    0 -0.12178534052E+03 -0.98694917639E+03 -0.49682075534E+03  0.11144714717E+04  0.79469819893E+02 0.  0.
        254    2    1    2    0    0  0.12178534052E+03  0.98694917639E+03  0.16375881698E+04  0.21136474405E+04  0.89269823736E+03 0.  0.
         23    2    4    4    0    0  0.34390458370E+03  0.10324882048E+04  0.13430681373E+04  0.17316216042E+04  0.10187788107E+03 0.  0.
         23    2    4    4    0    0 -0.22211924318E+03 -0.45539028426E+02  0.29452003249E+03  0.38202583638E+03  0.88266238332E+02 0.  0.
          3    1    3    3  502    0 -0.12433356156E+03 -0.96337375113E+03 -0.47139484955E+03  0.10797040905E+04  0.00000000000E+00 0. -1.
         -4    1    3    3    0  502  0.25482210454E+01 -0.23575425264E+02 -0.25425905786E+02  0.34767381148E+02  0.00000000000E+00 0.  1.
         13    1    5    5    0    0  0.25137470647E+03  0.69383849624E+03  0.83933423499E+03  0.11176238455E+04  0.00000000000E+00 0. -1.
        -13    1    5    5    0    0  0.92529877226E+02  0.33864970858E+03  0.50373390236E+03  0.61399775869E+03  0.00000000000E+00 0.  1.
          1    1    6    6  503    0 -0.20668269707E+03 -0.66444404947E+02  0.25771832368E+03  0.33697378322E+03  0.00000000000E+00 0. -1.
         -1    1    6    6    0  503 -0.15436546106E+02  0.20905376521E+02  0.36801708803E+02  0.45052053161E+02  0.00000000000E+00 0.  1.
<mgrwt>
<rscale>  0 0.30198347E+04</rscale>
<asrwt>0</asrwt>
<pdfrwt beam="1">  1        1 0.16056550E+00 0.30198347E+04</pdfrwt>
<pdfrwt beam="2">  1       -2 0.33606818E+00 0.30198347E+04</pdfrwt>
<totfact> 0.19850105E-01</totfact>
</mgrwt>
</event>
<event>
12    5  0.5428626E-008  0.1417384E+04  0.7818608E-02  0.8941331E-01
         -2   -1    0    0    0  501 -0.00000000000E+00  0.00000000000E+00  0.11170350461E+04  0.11170350461E+04  0.00000000000E+00 0.  1.
          1   -1    0    0  501    0  0.00000000000E+00 -0.00000000000E+00 -0.44962260946E+03  0.44962260946E+03  0.00000000000E+00 0. -1.
        -24    2    1    2    0    0  0.81318764641E+02 -0.36586911916E+03  0.15416560658E+01  0.38345429574E+03  0.81005347852E+02 0.  0.
        254    2    1    2    0    0 -0.81318764641E+02  0.36586911916E+03  0.66587078053E+03  0.11832033598E+04  0.90338991603E+03 0.  0.
         23    2    4    4    0    0 -0.42604422273E+03  0.25382107586E+03  0.63138334780E+03  0.80789443450E+03  0.90053690392E+02 0.  0.
         23    2    4    4    0    0  0.34472545809E+03  0.11204804330E+03  0.34487432734E+02  0.37530892527E+03  0.90978024326E+02 0.  0.
          3    1    3    3  502    0  0.93662886857E+02 -0.27617897525E+03  0.14534476310E+02  0.29199111929E+03  0.00000000000E+00 0. -1.
         -4    1    3    3    0  502 -0.12344122216E+02 -0.89690143909E+02 -0.12992820244E+02  0.91463176446E+02  0.00000000000E+00 0.  1.
         13    1    5    5    0    0 -0.41362604903E+03  0.22149282122E+03  0.59358818211E+03  0.75663234681E+03  0.00000000000E+00 0. -1.
        -13    1    5    5    0    0 -0.12418173699E+02  0.32328254637E+02  0.37795165685E+02  0.51262087697E+02  0.00000000000E+00 0.  1.
          3    1    6    6  503    0  0.25842353994E+03  0.85599290503E+02 -0.14483792153E+02  0.27261647926E+03  0.00000000000E+00 0. -1.
         -3    1    6    6    0  503  0.86301918149E+02  0.26448752794E+02  0.48971224887E+02  0.10269244601E+03  0.00000000000E+00 0.  1.
<mgrwt>
<rscale>  0 0.14173838E+04</rscale>
<asrwt>0</asrwt>
<pdfrwt beam="1">  1        1 0.69172709E-01 0.14173838E+04</pdfrwt>
<pdfrwt beam="2">  1       -2 0.17185155E+00 0.14173838E+04</pdfrwt>
<totfact> 0.90137041E+00</totfact>
</mgrwt>
</event>
<event>
12    5  0.5428626E-008  0.1305948E+04  0.7818608E-02  0.9024862E-01
         -2   -1    0    0    0  501 -0.00000000000E+00  0.00000000000E+00  0.27387303737E+03  0.27387303737E+03  0.00000000000E+00 0.  1.
          1   -1    0    0  501    0  0.00000000000E+00 -0.00000000000E+00 -0.15568349108E+04  0.15568349108E+04  0.00000000000E+00 0. -1.
        -24    2    1    2    0    0 -0.27711291405E+02 -0.20633182406E+03 -0.68800138464E+03  0.72324596407E+03  0.79988011541E+02 0.  0.
        254    2    1    2    0    0  0.27711291405E+02  0.20633182406E+03 -0.59496048876E+03  0.11074619841E+04  0.91057856646E+03 0.  0.
         23    2    4    4    0    0 -0.40640224445E+03  0.31569136917E+02 -0.12025671862E+03  0.43465003502E+03  0.91102029966E+02 0.  0.
         23    2    4    4    0    0  0.43411353586E+03  0.17476268715E+03 -0.47470377013E+03  0.67281194905E+03  0.91300003151E+02 0.  0.
          1    1    3    3  502    0 -0.53294485691E+02 -0.15559367613E+03 -0.46936538998E+03  0.49734652262E+03  0.00000000000E+00 0. -1.
         -2    1    3    3    0  502  0.25583194286E+02 -0.50738147930E+02 -0.21863599466E+03  0.22589944145E+03  0.00000000000E+00 0.  1.
         13    1    5    5    0    0 -0.25624154166E+03  0.45593569772E+02 -0.11277921881E+03  0.28365058342E+03  0.00000000000E+00 0. -1.
        -13    1    5    5    0    0 -0.15016070279E+03 -0.14024432855E+02 -0.74774998123E+01  0.15099945160E+03  0.00000000000E+00 0.  1.
          3    1    6    6  503    0  0.40100236990E+03  0.17298149734E+03 -0.40493894213E+03  0.59556783488E+03  0.00000000000E+00 0. -1.
         -3    1    6    6    0  503  0.33111165958E+02  0.17811898046E+01 -0.69764828004E+02  0.77244114175E+02  0.00000000000E+00 0.  1.
<mgrwt>
<rscale>  0 0.13059481E+04</rscale>
<asrwt>0</asrwt>
<pdfrwt beam="1">  1        1 0.23951306E+00 0.13059481E+04</pdfrwt>
<pdfrwt beam="2">  1       -2 0.42134313E-01 0.13059481E+04</pdfrwt>
<totfact> 0.27491876E+01</totfact>
</mgrwt>
</event>
<event>
12    5  0.5428626E-008  0.2292513E+04  0.7818608E-02  0.8480879E-01
         -2   -1    0    0    0  501 -0.00000000000E+00  0.00000000000E+00  0.50763728725E+03  0.50763728725E+03  0.00000000000E+00 0.  1.
          1   -1    0    0  501    0  0.00000000000E+00 -0.00000000000E+00 -0.25882722265E+04  0.25882722265E+04  0.00000000000E+00 0. -1.
        -24    2    1    2    0    0 -0.77702552820E+03  0.30996071377E+03 -0.23886367701E+03  0.87372985380E+03  0.80645431780E+02 0.  0.
        254    2    1    2    0    0  0.77702552820E+03 -0.30996071377E+03 -0.18417712622E+04  0.22221796599E+04  0.91984604314E+03 0.  0.
         23    2    4    4    0    0  0.80229596701E+03 -0.10650344168E+03 -0.74888435651E+03  0.11063895043E+04  0.90819347997E+02 0.  0.
         23    2    4    4    0    0 -0.25270438810E+02 -0.20345727209E+03 -0.10928869057E+04  0.11157901556E+04  0.92479328141E+02 0.  0.
          3    1    3    3  502    0 -0.33893906198E+02  0.27527847972E+02 -0.12651568749E+00  0.43664577148E+02  0.00000000000E+00 0. -1.
         -4    1    3    3    0  502 -0.74313162201E+03  0.28243286580E+03 -0.23873716133E+03  0.83006527665E+03  0.00000000000E+00 0.  1.
         13    1    5    5    0    0  0.71547161703E+03 -0.75628982677E+02 -0.63260582870E+03  0.95802375351E+03  0.00000000000E+00 0. -1.
        -13    1    5    5    0    0  0.86824349983E+02 -0.30874459004E+02 -0.11627852781E+03  0.14836575076E+03  0.00000000000E+00 0.  1.
          2    1    6    6  503    0 -0.58337401680E+02 -0.10751879428E+03 -0.65197447107E+03  0.66335077786E+03  0.00000000000E+00 0. -1.
         -2    1    6    6    0  503  0.33066962870E+02 -0.95938477812E+02 -0.44091243462E+03  0.45243937777E+03  0.00000000000E+00 0.  1.
<mgrwt>
<rscale>  0 0.22925126E+04</rscale>
<asrwt>0</asrwt>
<pdfrwt beam="1">  1        1 0.39819572E+00 0.22925126E+04</pdfrwt>
<pdfrwt beam="2">  1       -2 0.78098045E-01 0.22925126E+04</pdfrwt>
<totfact> 0.13637832E+00</totfact>
</mgrwt>
</event>
<event>
12    5  0.5428626E-008  0.1141149E+04  0.7818608E-02  0.9165988E-01
          1   -1    0    0  501    0  0.00000000000E+00  0.00000000000E+00  0.10939993838E+04  0.10939993838E+04  0.00000000000E+00 0. -1.
         -2   -1    0    0    0  501 -0.00000000000E+00 -0.00000000000E+00 -0.29758274717E+03  0.29758274717E+03  0.00000000000E+00 0.  1.
        -24    2    1    2    0    0 -0.96575967096E+02  0.16361402933E+03  0.22742756783E+03  0.30699945223E+03  0.80180403155E+02 0.  0.
        254    2    1    2    0    0  0.96575967096E+02 -0.16361402933E+03  0.56898906882E+03  0.10845826788E+04  0.90358981767E+03 0.  0.
         23    2    4    4    0    0 -0.35931123146E+03 -0.25082750928E+03  0.31805346215E+03  0.54894683757E+03  0.90363849113E+02 0.  0.
         23    2    4    4    0    0  0.45588719855E+03  0.87213479947E+02  0.25093560667E+03  0.53563584119E+03  0.92183223977E+02 0.  0.
          3    1    3    3  502    0 -0.69444407235E+01 -0.86536816533E+01  0.19907640991E+02  0.22790911192E+02  0.00000000000E+00 0. -1.
         -4    1    3    3    0  502 -0.89631526373E+02  0.17226771098E+03  0.20751992683E+03  0.28420854104E+03  0.00000000000E+00 0.  1.
         13    1    5    5    0    0 -0.15599468975E+03 -0.56104978018E+02  0.12406306648E+03  0.20705978908E+03  0.00000000000E+00 0.  1.
        -13    1    5    5    0    0 -0.20331654171E+03 -0.19472253126E+03  0.19399039568E+03  0.34188704849E+03  0.00000000000E+00 0. -1.
          1    1    6    6  503    0  0.17680129200E+03  0.73802779724E+02  0.76802615232E+02  0.20640782169E+03  0.00000000000E+00 0. -1.
         -1    1    6    6    0  503  0.27908590655E+03  0.13410700222E+02  0.17413299144E+03  0.32922801950E+03  0.00000000000E+00 0.  1.
<mgrwt>
<rscale>  0 0.11411491E+04</rscale>
<asrwt>0</asrwt>
<pdfrwt beam="1">  1        1 0.16830759E+00 0.11411491E+04</pdfrwt>
<pdfrwt beam="2">  1       -2 0.45781962E-01 0.11411491E+04</pdfrwt>
<totfact> 0.50494861E+01</totfact>
</mgrwt>
</event>
<event>
12    5  0.5458956E-008  0.1467437E+04  0.7818608E-02  0.8906400E-01
          1   -1    0    0  501    0  0.00000000000E+00  0.00000000000E+00  0.11887730464E+04  0.11887730464E+04  0.00000000000E+00 0. -1.
         -2   -1    0    0    0  501 -0.00000000000E+00 -0.00000000000E+00 -0.45285600486E+03  0.45285600486E+03  0.00000000000E+00 0.  1.
        -24    2    1    2    0    0 -0.13010753882E+03  0.56056206354E+02  0.71055294046E+03  0.72852482860E+03  0.76109623383E+02 0.  0.
        254    2    1    2    0    0  0.13010753882E+03 -0.56056206354E+02  0.25364101055E+02  0.91310422263E+03  0.90169047562E+03 0.  0.
         23    2    4    4    0    0 -0.35867597818E+03 -0.13699603186E+03  0.91929120254E+02  0.40532767917E+03  0.91777961843E+02 0.  0.
         23    2    4    4    0    0  0.48878351700E+03  0.80939825506E+02 -0.66565019199E+02  0.50777654346E+03  0.89137727496E+02 0.  0.
          3    1    3    3  502    0 -0.13851066936E+03  0.59207556339E+02  0.64475322564E+03  0.66211589789E+03  0.00000000000E+00 0. -1.
         -4    1    3    3    0  502  0.84031305420E+01 -0.31513499844E+01  0.65799714814E+02  0.66408930719E+02  0.00000000000E+00 0.  1.
         13    1    5    5    0    0 -0.11558673742E+03  0.20122176009E+00  0.24143160615E+02  0.11808144037E+03  0.00000000000E+00 0.  1.
        -13    1    5    5    0    0 -0.24308924076E+03 -0.13719725362E+03  0.67785959639E+02  0.28724623879E+03  0.00000000000E+00 0. -1.
          1    1    6    6  503    0  0.42649561875E+03  0.93333262776E+02 -0.77264215199E+02  0.44337272097E+03  0.00000000000E+00 0. -1.
         -1    1    6    6    0  503  0.62287898252E+02 -0.12393437270E+02  0.10699196000E+02  0.64403822488E+02  0.00000000000E+00 0.  1.
<mgrwt>
<rscale>  0 0.14674372E+04</rscale>
<asrwt>0</asrwt>
<pdfrwt beam="1">  1        1 0.18288816E+00 0.14674372E+04</pdfrwt>
<pdfrwt beam="2">  1       -2 0.69670155E-01 0.14674372E+04</pdfrwt>
<totfact> 0.17398837E+01</totfact>
</mgrwt>
</event>
<event>
12    5  0.5428626E-008  0.1062137E+04  0.7818608E-02  0.9242902E-01
         -2   -1    0    0    0  501 -0.00000000000E+00  0.00000000000E+00  0.19640525717E+04  0.19640525717E+04  0.00000000000E+00 0.  1.
          1   -1    0    0  501    0  0.00000000000E+00 -0.00000000000E+00 -0.14359792730E+03  0.14359792730E+03  0.00000000000E+00 0. -1.
        -24    2    1    2    0    0  0.44057271938E+02  0.56837136465E+02  0.49178541165E+03  0.50336064100E+03  0.79671453477E+02 0.  0.
        254    2    1    2    0    0 -0.44057271938E+02 -0.56837136465E+02  0.13286692328E+04  0.16042898580E+04  0.89622124231E+03 0.  0.
         23    2    4    4    0    0  0.38793363649E+02 -0.46220432552E+03  0.73518275463E+03  0.87420312753E+03  0.92734361984E+02 0.  0.
         23    2    4    4    0    0 -0.82850635587E+02  0.40536718905E+03  0.59348647817E+03  0.73008673052E+03  0.98049214848E+02 0.  0.
          1    1    3    3  502    0 -0.20321304262E+02  0.11589351794E+02  0.58795719040E+02  0.63278788384E+02  0.00000000000E+00 0. -1.
         -2    1    3    3    0  502  0.64378576200E+02  0.45247784671E+02  0.43298969261E+03  0.44008185261E+03  0.00000000000E+00 0.  1.
         13    1    5    5    0    0  0.19617951423E+02 -0.18079609066E+02  0.61901042015E+02  0.67405306056E+02  0.00000000000E+00 0. -1.
        -13    1    5    5    0    0  0.19175412226E+02 -0.44412471645E+03  0.67328171262E+03  0.80679782148E+03  0.00000000000E+00 0.  1.
          2    1    6    6  503    0  0.17746409067E+02  0.97233613088E+02  0.17198293762E+03  0.19836189498E+03  0.00000000000E+00 0. -1.
         -2    1    6    6    0  503 -0.10059704465E+03  0.30813357596E+03  0.42150354055E+03  0.53172483554E+03  0.00000000000E+00 0.  1.
<mgrwt>
<rscale>  0 0.10621372E+04</rscale>
<asrwt>0</asrwt>
<pdfrwt beam="1">  1        1 0.22091990E-01 0.10621372E+04</pdfrwt>
<pdfrwt beam="2">  1       -2 0.30216191E+00 0.10621372E+04</pdfrwt>
<totfact> 0.62423877E+00</totfact>
</mgrwt>
</event>
<event>
12    5  0.5428626E-008  0.1585875E+04  0.7818608E-02  0.8829273E-01
         -2   -1    0    0    0  501 -0.00000000000E+00  0.00000000000E+00  0.19359686737E+03  0.19359686737E+03  0.00000000000E+00 0.  1.
          1   -1    0    0  501    0  0.00000000000E+00 -0.00000000000E+00 -0.32477257960E+04  0.32477257960E+04  0.00000000000E+00 0. -1.
        -24    2    1    2    0    0  0.13479861761E+03 -0.19782764047E+03 -0.65232598436E+01  0.25241230301E+03  0.79768259021E+02 0.  0.
        254    2    1    2    0    0 -0.13479861761E+03  0.19782764047E+03 -0.30476056688E+04  0.31889103603E+04  0.90771280221E+03 0.  0.
         23    2    4    4    0    0 -0.22668740738E+03  0.40758479585E+03 -0.82145116112E+03  0.94914860906E+03  0.92674297955E+02 0.  0.
         23    2    4    4    0    0  0.91888789762E+02 -0.20975715538E+03 -0.22261545077E+04  0.22397617513E+04  0.91253474639E+02 0.  0.
          1    1    3    3  502    0  0.18511217508E+02 -0.78236082909E+02 -0.25941529548E+02  0.84477883484E+02  0.00000000000E+00 0. -1.
         -2    1    3    3    0  502  0.11628740011E+03 -0.11959155756E+03  0.19418269704E+02  0.16793441952E+03  0.00000000000E+00 0.  1.
         13    1    5    5    0    0 -0.19467841031E+03  0.38564544628E+03 -0.78441810126E+03  0.89550759420E+03  0.00000000000E+00 0. -1.
        -13    1    5    5    0    0 -0.32008997069E+02  0.21939349567E+02 -0.37033059856E+02  0.53641014859E+02  0.00000000000E+00 0.  1.
          2    1    6    6  503    0  0.17980248572E+02 -0.29078875019E+02 -0.12605569693E+03  0.13060975859E+03  0.00000000000E+00 0.  1.
         -2    1    6    6    0  503  0.73908541190E+02 -0.18067828036E+03 -0.21000988107E+04  0.21091519927E+04  0.00000000000E+00 0. -1.
<mgrwt>
<rscale>  0 0.15858746E+04</rscale>
<asrwt>0</asrwt>
<pdfrwt beam="1">  1        1 0.49965008E+00 0.15858746E+04</pdfrwt>
<pdfrwt beam="2">  1       -2 0.29784136E-01 0.15858746E+04</pdfrwt>
<totfact> 0.34562800E+00</totfact>
</mgrwt>
</event>
<event>
12    5  0.5428626E-008  0.3220451E+04  0.7818608E-02  0.8183437E-01
          1   -1    0    0  501    0  0.00000000000E+00  0.00000000000E+00  0.21194278876E+04  0.21194278876E+04  0.00000000000E+00 0. -1.
         -2   -1    0    0    0  501 -0.00000000000E+00 -0.00000000000E+00 -0.12233614906E+04  0.12233614906E+04  0.00000000000E+00 0.  1.
        -24    2    1    2    0    0  0.60965195345E+03 -0.13517835729E+04  0.37649317010E+03  0.15320389840E+04  0.80012554514E+02 0.  0.
        254    2    1    2    0    0 -0.60965195345E+03  0.13517835729E+04  0.51957322690E+03  0.18107503942E+04  0.89992573011E+03 0.  0.
         23    2    4    4    0    0 -0.59025131824E+03  0.11440236954E+04  0.53032982212E+02  0.12916600190E+04  0.91576596901E+02 0.  0.
         23    2    4    4    0    0 -0.19400635212E+02  0.20775987749E+03  0.46654024469E+03  0.51909037523E+03  0.90854093984E+02 0.  0.
          3    1    3    3  502    0  0.58153635277E+03 -0.12488622767E+04  0.33673187380E+03  0.14181783635E+04  0.00000000000E+00 0. -1.
         -4    1    3    3    0  502  0.28115600687E+02 -0.10292129620E+03  0.39761296303E+02  0.11386062048E+03  0.00000000000E+00 0.  1.
         13    1    5    5    0    0 -0.53571618660E+03  0.98807640711E+03  0.26043032219E+02  0.11242620061E+04  0.00000000000E+00 0. -1.
        -13    1    5    5    0    0 -0.54535131640E+02  0.15594728832E+03  0.26989949993E+02  0.16739801289E+03  0.00000000000E+00 0.  1.
          3    1    6    6  503    0 -0.20525712377E+02  0.21562537014E+03  0.42739912875E+03  0.47915093695E+03  0.00000000000E+00 0. -1.
         -3    1    6    6    0  503  0.11250771653E+01 -0.78654926496E+01  0.39141115937E+02  0.39939438279E+02  0.00000000000E+00 0.  1.
<mgrwt>
<rscale>  0 0.32204512E+04</rscale>
<asrwt>0</asrwt>
<pdfrwt beam="1">  1        1 0.32606583E+00 0.32204512E+04</pdfrwt>
<pdfrwt beam="2">  1       -2 0.18820946E+00 0.32204512E+04</pdfrwt>
<totfact> 0.28934859E-01</totfact>
</mgrwt>
</event>
<event>
12    5  0.5428626E-008  0.1783815E+04  0.7818608E-02  0.8714954E-01
         -2   -1    0    0    0  501 -0.00000000000E+00  0.00000000000E+00  0.10719417652E+04  0.10719417652E+04  0.00000000000E+00 0.  1.
          1   -1    0    0  501    0  0.00000000000E+00 -0.00000000000E+00 -0.74211059351E+03  0.74211059351E+03  0.00000000000E+00 0. -1.
        -24    2    1    2    0    0 -0.47998111951E+03  0.15361274106E+03  0.56088568380E+03  0.75822971670E+03  0.79629163587E+02 0.  0.
        254    2    1    2    0    0  0.47998111951E+03 -0.15361274106E+03 -0.23105451207E+03  0.10558226421E+04  0.89855245514E+03 0.  0.
         23    2    4    4    0    0  0.54218392627E+03 -0.44476653565E+03 -0.85760856545E+02  0.71231308525E+03  0.90853320018E+02 0.  0.
         23    2    4    4    0    0 -0.62202806762E+02  0.29115379459E+03 -0.14529365553E+03  0.34350955681E+03  0.90823168915E+02 0.  0.
          1    1    3    3  502    0 -0.10835773272E+03  0.19179624345E+02  0.81414039038E+02  0.13688499546E+03  0.00000000000E+00 0. -1.
         -4    1    3    3    0  502 -0.37162338679E+03  0.13443311671E+03  0.47947164477E+03  0.62134472124E+03  0.00000000000E+00 0.  1.
         13    1    5    5    0    0  0.10866238979E+02 -0.93156719340E+01 -0.16540036766E+02  0.21873036126E+02  0.00000000000E+00 0.  1.
        -13    1    5    5    0    0  0.53131768729E+03 -0.43545086372E+03 -0.69220819779E+02  0.69044004912E+03  0.00000000000E+00 0. -1.
          2    1    6    6  503    0 -0.41065606905E+01  0.19762020072E+03 -0.68208889441E+02  0.20910059821E+03  0.00000000000E+00 0. -1.
         -2    1    6    6    0  503 -0.58096246071E+02  0.93533593871E+02 -0.77084766086E+02  0.13440895860E+03  0.00000000000E+00 0.  1.
<mgrwt>
<rscale>  0 0.17838154E+04</rscale>
<asrwt>0</asrwt>
<pdfrwt beam="1">  1        1 0.11417086E+00 0.17838154E+04</pdfrwt>
<pdfrwt beam="2">  1       -2 0.16491412E+00 0.17838154E+04</pdfrwt>
<totfact> 0.47751588E+00</totfact>
</mgrwt>
</event>
<event>
12    5  0.5428626E-008  0.1871253E+04  0.7818608E-02  0.8669299E-01
          1   -1    0    0  501    0  0.00000000000E+00  0.00000000000E+00  0.16131793984E+04  0.16131793984E+04  0.00000000000E+00 0. -1.
         -2   -1    0    0    0  501 -0.00000000000E+00 -0.00000000000E+00 -0.54265316274E+03  0.54265316274E+03  0.00000000000E+00 0.  1.
        -24    2    1    2    0    0 -0.16940904042E+03 -0.38360196761E+03  0.10780168523E+04  0.11597315286E+04  0.83707778072E+02 0.  0.
        254    2    1    2    0    0  0.16940904042E+03  0.38360196761E+03 -0.74906166331E+01  0.99610103251E+03  0.90349945496E+03 0.  0.
         23    2    4    4    0    0 -0.12916482138E+03  0.15066852919E+02 -0.36292612096E+03  0.39630217270E+03  0.91812208755E+02 0.  0.
         23    2    4    4    0    0  0.29857386180E+03  0.36853511469E+03  0.35543550432E+03  0.59979885981E+03  0.91977131862E+02 0.  0.
          1    1    3    3  502    0 -0.15958820454E+03 -0.37282967289E+03  0.97942353997E+03  0.10600664275E+04  0.00000000000E+00 0. -1.
         -2    1    3    3    0  502 -0.98208358805E+01 -0.10772294727E+02  0.98593312312E+02  0.99665101133E+02  0.00000000000E+00 0.  1.
         13    1    5    5    0    0 -0.33146734177E+02 -0.15998467387E+02 -0.27281465329E+02  0.45814138602E+02  0.00000000000E+00 0. -1.
        -13    1    5    5    0    0 -0.96018087205E+02  0.31065320306E+02 -0.33564465563E+03  0.35048803410E+03  0.00000000000E+00 0.  1.
          1    1    6    6  503    0  0.29719907880E+03  0.35208255319E+03  0.32079673625E+03  0.56142672068E+03  0.00000000000E+00 0. -1.
         -1    1    6    6    0  503  0.13747830026E+01  0.16452561499E+02  0.34638768070E+02  0.38372139132E+02  0.00000000000E+00 0.  1.
<mgrwt>
<rscale>  0 0.18712530E+04</rscale>
<asrwt>0</asrwt>
<pdfrwt beam="1">  1        1 0.24818144E+00 0.18712530E+04</pdfrwt>
<pdfrwt beam="2">  1       -2 0.83485103E-01 0.18712530E+04</pdfrwt>
<totfact> 0.56472308E+00</totfact>
</mgrwt>
</event>
<event>
12    5  0.5428626E-008  0.1560180E+04  0.7818608E-02  0.8845391E-01
         -4   -1    0    0    0  501 -0.00000000000E+00  0.00000000000E+00  0.12907688981E+04  0.12907688981E+04  0.00000000000E+00 0.  1.
          1   -1    0    0  501    0  0.00000000000E+00 -0.00000000000E+00 -0.47145570737E+03  0.47145570737E+03  0.00000000000E+00 0. -1.
        -24    2    1    2    0    0  0.79030858092E+01  0.42631785025E+03  0.13603372532E+03  0.45454748557E+03  0.79365445913E+02 0.  0.
        254    2    1    2    0    0 -0.79030858092E+01 -0.42631785025E+03  0.68327946544E+03  0.13076771199E+04  0.10302132080E+04 0.  0.
         23    2    4    4    0    0 -0.49470419033E+03 -0.12514043787E+03  0.43670461314E+03  0.67789753031E+03  0.91879145307E+02 0.  0.
         23    2    4    4    0    0  0.48680110452E+03 -0.30117741238E+03  0.24657485230E+03  0.62977958961E+03  0.90222085003E+02 0.  0.
          1    1    3    3  502    0  0.40882536466E+02  0.30385588114E+03  0.88554113737E+02  0.31912632194E+03  0.00000000000E+00 0. -1.
         -2    1    3    3    0  502 -0.32979450657E+02  0.12246196911E+03  0.47479611586E+02  0.13542116363E+03  0.00000000000E+00 0.  1.
         13    1    5    5    0    0 -0.28060699399E+03 -0.11567382180E+03  0.27286367027E+03  0.40813637510E+03  0.00000000000E+00 0. -1.
        -13    1    5    5    0    0 -0.21409719634E+03 -0.94666160708E+01  0.16384094288E+03  0.26976115521E+03  0.00000000000E+00 0.  1.
          2    1    6    6  503    0  0.65075822777E+02 -0.76980461608E+02  0.28632055050E+02  0.10478859077E+03  0.00000000000E+00 0. -1.
         -2    1    6    6    0  503  0.42172528174E+03 -0.22419695078E+03  0.21794279725E+03  0.52499099884E+03  0.00000000000E+00 0.  1.
<mgrwt>
<rscale>  0 0.15601799E+04</rscale>
<asrwt>0</asrwt>
<pdfrwt beam="1">  1        1 0.72531648E-01 0.15601799E+04</pdfrwt>
<pdfrwt beam="2">  1       -4 0.19857983E+00 0.15601799E+04</pdfrwt>
<totfact> 0.29720121E+00</totfact>
</mgrwt>
</event>
<event>
12    5  0.5428626E-008  0.2569145E+04  0.7818608E-02  0.8378758E-01
          1   -1    0    0  501    0  0.00000000000E+00  0.00000000000E+00  0.16567109441E+04  0.16567109441E+04  0.00000000000E+00 0. -1.
         -2   -1    0    0    0  501 -0.00000000000E+00 -0.00000000000E+00 -0.99602528622E+03  0.99602528622E+03  0.00000000000E+00 0.  1.
        -24    2    1    2    0    0 -0.95095727079E+03 -0.59922299240E+03  0.18071919029E+03  0.11412219370E+04  0.79625110598E+02 0.  0.
        254    2    1    2    0    0  0.95095727079E+03  0.59922299240E+03  0.47996646759E+03  0.15115142933E+04  0.88933667609E+03 0.  0.
         23    2    4    4    0    0  0.39887560115E+02  0.95815456025E+02 -0.21598628543E+03  0.25616060320E+03  0.90534855572E+02 0.  0.
         23    2    4    4    0    0  0.91106971067E+03  0.50340753638E+03  0.69595275302E+03  0.12553536901E+04  0.89974927062E+02 0.  0.
          3    1    3    3  502    0 -0.89062309493E+03 -0.55064589694E+03  0.18636776041E+03  0.10635569299E+04  0.00000000000E+00 0. -1.
         -4    1    3    3    0  502 -0.60334175852E+02 -0.48577095467E+02 -0.56485701204E+01  0.77665007076E+02  0.00000000000E+00 0.  1.
         13    1    5    5    0    0  0.64023266479E+02  0.63690083427E+02 -0.10707305059E+03  0.14007156578E+03  0.00000000000E+00 0. -1.
        -13    1    5    5    0    0 -0.24135706363E+02  0.32125372599E+02 -0.10891323483E+03  0.11608903742E+03  0.00000000000E+00 0.  1.
          1    1    6    6  503    0  0.14865191113E+03  0.11094787938E+03  0.15264771657E+03  0.24022520266E+03  0.00000000000E+00 0. -1.
         -1    1    6    6    0  503  0.76241779954E+03  0.39245965700E+03  0.54330503646E+03  0.10151284875E+04  0.00000000000E+00 0.  1.
<mgrwt>
<rscale>  0 0.25691446E+04</rscale>
<asrwt>0</asrwt>
<pdfrwt beam="1">  1        1 0.25487861E+00 0.25691446E+04</pdfrwt>
<pdfrwt beam="2">  1       -2 0.15323466E+00 0.25691446E+04</pdfrwt>
<totfact> 0.11203605E+00</totfact>
</mgrwt>
</event>
<event>
12    5  0.5428626E-008  0.1221087E+04  0.7818608E-02  0.9094597E-01
         -2   -1    0    0    0  501 -0.00000000000E+00  0.00000000000E+00  0.30476491263E+03  0.30476491263E+03  0.00000000000E+00 0.  1.
          1   -1    0    0  501    0  0.00000000000E+00 -0.00000000000E+00 -0.12231177437E+04  0.12231177437E+04  0.00000000000E+00 0. -1.
        -24    2    1    2    0    0 -0.13525413693E+03  0.14881956342E+02 -0.52774027353E+03  0.55074659087E+03  0.79352736988E+02 0.  0.
        254    2    1    2    0    0  0.13525413693E+03 -0.14881956342E+02 -0.39061255754E+03  0.97713606546E+03  0.88526920545E+03 0.  0.
         23    2    4    4    0    0  0.45125679882E+03 -0.56972230679E+02  0.32691119800E+00  0.46390169289E+03  0.91247686265E+02 0.  0.
         23    2    4    4    0    0 -0.31600266189E+03  0.42090274337E+02 -0.39093946874E+03  0.51323437257E+03  0.94586359725E+02 0.  0.
          1    1    3    3  502    0 -0.61083446084E+02 -0.16655533349E+02 -0.34870521504E+03  0.35440643501E+03  0.00000000000E+00 0. -1.
         -2    1    3    3    0  502 -0.74170690842E+02  0.31537489691E+02 -0.17903505849E+03  0.19634015586E+03  0.00000000000E+00 0.  1.
         13    1    5    5    0    0  0.42911904316E+03 -0.31708435172E+02  0.14706508420E+01  0.43029146038E+03  0.00000000000E+00 0.  1.
        -13    1    5    5    0    0  0.22137755658E+02 -0.25263795507E+02 -0.11437396440E+01  0.33610232510E+02  0.00000000000E+00 0. -1.
          1    1    6    6  503    0 -0.79797613870E+02  0.34623147539E+02 -0.16374028080E+03  0.18541116763E+03  0.00000000000E+00 0. -1.
         -1    1    6    6    0  503 -0.23620504802E+03  0.74671267980E+01 -0.22719918794E+03  0.32782320494E+03  0.00000000000E+00 0.  1.
<mgrwt>
<rscale>  0 0.12210870E+04</rscale>
<asrwt>0</asrwt>
<pdfrwt beam="1">  1        1 0.18817196E+00 0.12210870E+04</pdfrwt>
<pdfrwt beam="2">  1       -2 0.46886909E-01 0.12210870E+04</pdfrwt>
<totfact> 0.38407250E+01</totfact>
</mgrwt>
</event>
<event>
12    5  0.5428626E-008  0.1103676E+04  0.7818608E-02  0.9201616E-01
          3   -1    0    0  501    0  0.00000000000E+00  0.00000000000E+00  0.19348214061E+04  0.19348214061E+04  0.00000000000E+00 0. -1.
         -4   -1    0    0    0  501 -0.00000000000E+00 -0.00000000000E+00 -0.15739191915E+03  0.15739191915E+03  0.00000000000E+00 0.  1.
        -24    2    1    2    0    0  0.11095682369E+03 -0.42598765057E+02  0.87301911569E+02  0.16745228980E+03  0.79325746682E+02 0.  0.
        254    2    1    2    0    0 -0.11095682369E+03  0.42598765057E+02  0.16901275754E+04  0.19247610354E+04  0.91326214801E+03 0.  0.
         23    2    4    4    0    0 -0.50296242538E+03  0.27850262018E+02  0.82927249749E+03  0.97449442158E+03  0.90551997066E+02 0.  0.
         23    2    4    4    0    0  0.39200560168E+03  0.14748503039E+02  0.86085507790E+03  0.95026661386E+03  0.89717680485E+02 0.  0.
          1    1    3    3  502    0  0.43348554319E+02 -0.54492536358E+02  0.65050381996E+02  0.95289484615E+02  0.00000000000E+00 0. -1.
         -2    1    3    3    0  502  0.67608269375E+02  0.11893771302E+02  0.22251529573E+02  0.72162805184E+02  0.00000000000E+00 0.  1.
         13    1    5    5    0    0 -0.19377468988E+03  0.47435352483E+02  0.27870322620E+03  0.34274514059E+03  0.00000000000E+00 0.  1.
        -13    1    5    5    0    0 -0.30918773549E+03 -0.19585090465E+02  0.55056927129E+03  0.63174928099E+03  0.00000000000E+00 0. -1.
          4    1    6    6  503    0  0.69456763810E+02  0.69449012393E+01  0.24843324525E+03  0.25805338796E+03  0.00000000000E+00 0.  1.
         -4    1    6    6    0  503  0.32254883787E+03  0.78036017996E+01  0.61242183264E+03  0.69221322590E+03  0.00000000000E+00 0. -1.
<mgrwt>
<rscale>  0 0.11036761E+04</rscale>
<asrwt>0</asrwt>
<pdfrwt beam="1">  1        3 0.29766481E+00 0.11036761E+04</pdfrwt>
<pdfrwt beam="2">  1       -4 0.24214143E-01 0.11036761E+04</pdfrwt>
<totfact> 0.14843417E+00</totfact>
</mgrwt>
</event>
<event>
12    5  0.5428626E-008  0.1578672E+04  0.7818608E-02  0.8833759E-01
          1   -1    0    0  501    0  0.00000000000E+00  0.00000000000E+00  0.17382407657E+04  0.17382407657E+04  0.00000000000E+00 0. -1.
         -2   -1    0    0    0  501 -0.00000000000E+00 -0.00000000000E+00 -0.35843802316E+03  0.35843802316E+03  0.00000000000E+00 0.  1.
        -24    2    1    2    0    0  0.20100323096E+03 -0.35929109020E+00  0.11310339202E+04  0.11514692736E+04  0.79002097855E+02 0.  0.
        254    2    1    2    0    0 -0.20100323096E+03  0.35929109020E+00  0.24876882233E+03  0.94520951526E+03  0.88945639175E+03 0.  0.
         23    2    4    4    0    0 -0.62868885292E+02 -0.29218363905E+01 -0.32554606685E+03  0.34733256676E+03  0.10343421303E+03 0.  0.
         23    2    4    4    0    0 -0.13813434567E+03  0.32811274807E+01  0.57431488918E+03  0.59787694849E+03  0.92343870173E+02 0.  0.
          1    1    3    3  502    0  0.20626704747E+03 -0.23642370035E-01  0.11234683391E+04  0.11422465603E+04  0.00000000000E+00 0. -1.
         -2    1    3    3    0  502 -0.52638165067E+01 -0.33564872017E+00  0.75655810793E+01  0.92227133397E+01  0.00000000000E+00 0.  1.
         13    1    5    5    0    0 -0.72709560612E+01 -0.29083105902E+02 -0.20882569520E+02  0.36534580341E+02  0.00000000000E+00 0.  1.
        -13    1    5    5    0    0 -0.55597929230E+02  0.26161269511E+02 -0.30466349733E+03  0.31079798642E+03  0.00000000000E+00 0. -1.
          1    1    6    6  503    0 -0.11329433434E+02 -0.29194388684E+02  0.67163465159E+02  0.74105326696E+02  0.00000000000E+00 0. -1.
         -1    1    6    6    0  503 -0.12680491223E+03  0.32475516164E+02  0.50715142402E+03  0.52377162180E+03  0.00000000000E+00 0.  1.
<mgrwt>
<rscale>  0 0.15786723E+04</rscale>
<asrwt>0</asrwt>
<pdfrwt beam="1">  1        1 0.26742165E+00 0.15786723E+04</pdfrwt>
<pdfrwt beam="2">  1       -2 0.55144312E-01 0.15786723E+04</pdfrwt>
<totfact> 0.11709274E+01</totfact>
</mgrwt>
</event>
<event>
12    5  0.5428626E-008  0.2017497E+04  0.7818608E-02  0.8598484E-01
         -2   -1    0    0    0  501 -0.00000000000E+00  0.00000000000E+00  0.30543752987E+03  0.30543752987E+03  0.00000000000E+00 0.  1.
          1   -1    0    0  501    0  0.00000000000E+00 -0.00000000000E+00 -0.33315262809E+04  0.33315262809E+04  0.00000000000E+00 0. -1.
        -24    2    1    2    0    0 -0.79588174303E+03 -0.19986116941E+02 -0.12648602249E+04  0.14967324787E+04  0.80681660457E+02 0.  0.
        254    2    1    2    0    0  0.79588174303E+03  0.19986116941E+02 -0.17612285262E+04  0.21402313322E+04  0.91915017274E+03 0.  0.
         23    2    4    4    0    0  0.23838478988E+03  0.27674389424E+03 -0.13509504792E+03  0.39983400282E+03  0.90565262595E+02 0.  0.
         23    2    4    4    0    0  0.55749695314E+03 -0.25675777730E+03 -0.16261334782E+04  0.17403973293E+04  0.89136782284E+02 0.  0.
          1    1    3    3  502    0 -0.75362863656E+03 -0.13041518637E+02 -0.12244992900E+04  0.14378889785E+04  0.00000000000E+00 0. -1.
         -2    1    3    3    0  502 -0.42253106470E+02 -0.69445983040E+01 -0.40360934870E+02  0.58843500198E+02  0.00000000000E+00 0.  1.
         13    1    5    5    0    0  0.30297890540E+02  0.35379701460E+02 -0.53377408318E+02  0.70843723542E+02  0.00000000000E+00 0. -1.
        -13    1    5    5    0    0  0.20808689934E+03  0.24136419278E+03 -0.81717639600E+02  0.32899027928E+03  0.00000000000E+00 0.  1.
          3    1    6    6  503    0  0.10801706879E+03 -0.16574604040E+02 -0.24615507332E+03  0.26932271492E+03  0.00000000000E+00 0. -1.
         -3    1    6    6    0  503  0.44947988435E+03 -0.24018317326E+03 -0.13799784049E+04  0.14710746144E+04  0.00000000000E+00 0.  1.
<mgrwt>
<rscale>  0 0.20174966E+04</rscale>
<asrwt>0</asrwt>
<pdfrwt beam="1">  1        1 0.51254251E+00 0.20174966E+04</pdfrwt>
<pdfrwt beam="2">  1       -2 0.46990389E-01 0.20174966E+04</pdfrwt>
<totfact> 0.11841976E+00</totfact>
</mgrwt>
</event>
<event>
12    5  0.5428626E-008  0.1280694E+04  0.7818608E-02  0.9045016E-01
         -2   -1    0    0    0  501 -0.00000000000E+00  0.00000000000E+00  0.40060032607E+03  0.40060032607E+03  0.00000000000E+00 0.  1.
          1   -1    0    0  501    0  0.00000000000E+00 -0.00000000000E+00 -0.10235747880E+04  0.10235747880E+04  0.00000000000E+00 0. -1.
        -24    2    1    2    0    0  0.22464959219E+03  0.11390734792E+03  0.31420239645E+02  0.26560358397E+03  0.78202999803E+02 0.  0.
        254    2    1    2    0    0 -0.22464959219E+03 -0.11390734792E+03 -0.65439470156E+03  0.11585715301E+04  0.92228696278E+03 0.  0.
         23    2    4    4    0    0  0.33444676940E+03 -0.14966808685E+03 -0.17862761552E+03  0.41781158783E+03  0.91670715691E+02 0.  0.
         23    2    4    4    0    0 -0.55909636159E+03  0.35760738927E+02 -0.47576708604E+03  0.74075994225E+03  0.92213881281E+02 0.  0.
          1    1    3    3  502    0  0.38280445356E+02  0.54115520051E+00 -0.17421735033E+02  0.42061885325E+02  0.00000000000E+00 0. -1.
         -2    1    3    3    0  502  0.18636914683E+03  0.11336619272E+03  0.48841974678E+02  0.22354169865E+03  0.00000000000E+00 0.  1.
         13    1    5    5    0    0  0.27197691506E+03 -0.92717765875E+02 -0.16735781687E+03  0.33253069828E+03  0.00000000000E+00 0. -1.
        -13    1    5    5    0    0  0.62469854341E+02 -0.56950320971E+02 -0.11269798652E+02  0.85280889546E+02  0.00000000000E+00 0.  1.
          4    1    6    6  503    0 -0.38868300669E+03 -0.13684756487E+02 -0.30204524099E+03  0.49243586370E+03  0.00000000000E+00 0. -1.
         -4    1    6    6    0  503 -0.17041335489E+03  0.49445495414E+02 -0.17372184504E+03  0.24832407855E+03  0.00000000000E+00 0.  1.
<mgrwt>
<rscale>  0 0.12806942E+04</rscale>
<asrwt>0</asrwt>
<pdfrwt beam="1">  1        1 0.15747304E+00 0.12806942E+04</pdfrwt>
<pdfrwt beam="2">  1       -2 0.61630821E-01 0.12806942E+04</pdfrwt>
<totfact> 0.30613382E+01</totfact>
</mgrwt>
</event>
<event>
12    5  0.5428626E-008  0.1073351E+04  0.7818608E-02  0.9231562E-01
         -2   -1    0    0    0  501 -0.00000000000E+00  0.00000000000E+00  0.11226086388E+03  0.11226086388E+03  0.00000000000E+00 0.  1.
          1   -1    0    0  501    0  0.00000000000E+00 -0.00000000000E+00 -0.25656386998E+04  0.25656386998E+04  0.00000000000E+00 0. -1.
        -24    2    1    2    0    0 -0.57186544817E+02 -0.68638725099E+02 -0.74422463088E+03  0.75384431519E+03  0.80183382562E+02 0.  0.
        254    2    1    2    0    0  0.57186544817E+02  0.68638725099E+02 -0.17091532050E+04  0.19240552485E+04  0.87909177308E+03 0.  0.
         23    2    4    4    0    0  0.12896799441E+03 -0.36445145086E+03 -0.10874283484E+04  0.11576185912E+04  0.90126501164E+02 0.  0.
         23    2    4    4    0    0 -0.71781449596E+02  0.43309017596E+03 -0.62172485659E+03  0.76643665724E+03  0.90353058806E+02 0.  0.
          3    1    3    3  502    0 -0.45707060727E+02 -0.43311569274E+02 -0.69035747508E+03  0.69322324747E+03  0.00000000000E+00 0. -1.
         -4    1    3    3    0  502 -0.11479484090E+02 -0.25327155826E+02 -0.53867155802E+02  0.60621067719E+02  0.00000000000E+00 0.  1.
         13    1    5    5    0    0  0.65337692833E+02 -0.73004437286E+02 -0.29899596694E+03  0.31463828472E+03  0.00000000000E+00 0. -1.
        -13    1    5    5    0    0  0.63630301580E+02 -0.29144701358E+03 -0.78843238149E+03  0.84298030652E+03  0.00000000000E+00 0.  1.
          3    1    6    6  503    0  0.18602569573E+02  0.54471225530E+02 -0.10173873714E+03  0.11689285966E+03  0.00000000000E+00 0. -1.
         -3    1    6    6    0  503 -0.90384019169E+02  0.37861895043E+03 -0.51998611946E+03  0.64954379758E+03  0.00000000000E+00 0.  1.
<mgrwt>
<rscale>  0 0.10733514E+04</rscale>
<asrwt>0</asrwt>
<pdfrwt beam="1">  1        1 0.39471362E+00 0.10733514E+04</pdfrwt>
<pdfrwt beam="2">  1       -2 0.17270903E-01 0.10733514E+04</pdfrwt>
<totfact> 0.29809141E+01</totfact>
</mgrwt>
</event>
<event>
12    5  0.5428626E-008  0.2079724E+04  0.7818608E-02  0.8570228E-01
         -2   -1    0    0    0  501 -0.00000000000E+00  0.00000000000E+00  0.90422336261E+03  0.90422336261E+03  0.00000000000E+00 0.  1.
          1   -1    0    0  501    0  0.00000000000E+00 -0.00000000000E+00 -0.11958475953E+04  0.11958475953E+04  0.00000000000E+00 0. -1.
        -24    2    1    2    0    0  0.50701616734E+03 -0.71914588994E+03 -0.29986643741E+03  0.93303826494E+03  0.80026986669E+02 0.  0.
        254    2    1    2    0    0 -0.50701616734E+03  0.71914588994E+03  0.82422047516E+01  0.11670326929E+04  0.76659061270E+03 0.  0.
         23    2    4    4    0    0 -0.56499248460E+03  0.31109798935E+03  0.22772914194E+03  0.68998048759E+03  0.90631366168E+02 0.  0.
         23    2    4    4    0    0  0.57976317257E+02  0.40804790059E+03 -0.21948693719E+03  0.47705220534E+03  0.97672659875E+02 0.  0.
          3    1    3    3  502    0  0.38892540699E+03 -0.53709564894E+03 -0.26072535760E+03  0.71253941674E+03  0.00000000000E+00 0. -1.
         -4    1    3    3    0  502  0.11809076035E+03 -0.18205024100E+03 -0.39141079804E+02  0.22049884820E+03  0.00000000000E+00 0.  1.
         13    1    5    5    0    0 -0.80670073405E+02  0.10862836123E+02  0.24797741967E+02  0.85091656221E+02  0.00000000000E+00 0. -1.
        -13    1    5    5    0    0 -0.48432241119E+03  0.30023515323E+03  0.20293139998E+03  0.60488883137E+03  0.00000000000E+00 0.  1.
          4    1    6    6  503    0 -0.24004244322E+02  0.48610034173E+02 -0.19353801556E+02  0.57564822613E+02  0.00000000000E+00 0. -1.
         -4    1    6    6    0  503  0.81980561579E+02  0.35943786642E+03 -0.20013313564E+03  0.41948738273E+03  0.00000000000E+00 0.  1.
<mgrwt>
<rscale>  0 0.20797243E+04</rscale>
<asrwt>0</asrwt>
<pdfrwt beam="1">  1        1 0.18397655E+00 0.20797243E+04</pdfrwt>
<pdfrwt beam="2">  1       -2 0.13911129E+00 0.20797243E+04</pdfrwt>
<totfact> 0.31756015E+00</totfact>
</mgrwt>
</event>
<event>
12    5  0.5428626E-008  0.1730236E+04  0.7818608E-02  0.8744305E-01
          1   -1    0    0  501    0  0.00000000000E+00  0.00000000000E+00  0.24291963102E+04  0.24291963102E+04  0.00000000000E+00 0. -1.
         -2   -1    0    0    0  501 -0.00000000000E+00 -0.00000000000E+00 -0.30809742993E+03  0.30809742993E+03  0.00000000000E+00 0.  1.
        -24    2    1    2    0    0 -0.51972524363E+03 -0.15802456439E+03  0.27886497102E+03  0.61586379635E+03  0.80227500123E+02 0.  0.
        254    2    1    2    0    0  0.51972524363E+03  0.15802456439E+03  0.18422339092E+04  0.21214299438E+04  0.90086244129E+03 0.  0.
         23    2    4    4    0    0  0.14411438279E+03  0.29583337706E+03  0.13787032242E+03  0.36832778161E+03  0.91492002865E+02 0.  0.
         23    2    4    4    0    0  0.37561086084E+03 -0.13780881267E+03  0.17043635868E+04  0.17531021621E+04  0.91854054107E+02 0.  0.
          3    1    3    3  502    0 -0.10768803951E+03 -0.20202283757E+02  0.24043140037E+02  0.11217360966E+03  0.00000000000E+00 0. -1.
         -4    1    3    3    0  502 -0.41203720412E+03 -0.13782228063E+03  0.25482183098E+03  0.50369018668E+03  0.00000000000E+00 0.  1.
         13    1    5    5    0    0  0.92714805729E+02  0.12251741958E+03  0.26258846323E+02  0.15587199977E+03  0.00000000000E+00 0.  1.
        -13    1    5    5    0    0  0.51399577064E+02  0.17331595748E+03  0.11161147609E+03  0.21245578183E+03  0.00000000000E+00 0. -1.
          3    1    6    6  503    0  0.24612240121E+03 -0.10836088911E+03  0.95854132521E+03  0.99554999413E+03  0.00000000000E+00 0. -1.
         -3    1    6    6    0  503  0.12948845963E+03 -0.29447923557E+02  0.74582226159E+03  0.75755216802E+03  0.00000000000E+00 0.  1.
<mgrwt>
<rscale>  0 0.17302360E+04</rscale>
<asrwt>0</asrwt>
<pdfrwt beam="1">  1        1 0.37372250E+00 0.17302360E+04</pdfrwt>
<pdfrwt beam="2">  1       -2 0.47399606E-01 0.17302360E+04</pdfrwt>
<totfact> 0.53391903E+00</totfact>
</mgrwt>
</event>
<event>
12    5  0.5428626E-008  0.1466584E+04  0.7818608E-02  0.8906983E-01
          1   -1    0    0  501    0  0.00000000000E+00  0.00000000000E+00  0.93662736285E+03  0.93662736285E+03  0.00000000000E+00 0. -1.
         -2   -1    0    0    0  501 -0.00000000000E+00 -0.00000000000E+00 -0.57409971891E+03  0.57409971891E+03  0.00000000000E+00 0.  1.
        -24    2    1    2    0    0 -0.19492546893E+03 -0.90994940009E+01  0.52894919974E+03  0.56994848364E+03  0.83518134971E+02 0.  0.
        254    2    1    2    0    0  0.19492546893E+03  0.90994940009E+01 -0.16642155580E+03  0.94077859812E+03  0.90514611926E+03 0.  0.
         23    2    4    4    0    0  0.18714432902E+03  0.18407200207E+03  0.31500395389E+03  0.42021441596E+03  0.91908446747E+02 0.  0.
         23    2    4    4    0    0  0.77811399067E+01 -0.17497250806E+03 -0.48142550969E+03  0.52056418216E+03  0.92415483791E+02 0.  0.
          1    1    3    3  502    0 -0.10884704148E+03 -0.46493702482E+02  0.30104355226E+03  0.32347575360E+03  0.00000000000E+00 0. -1.
         -2    1    3    3    0  502 -0.86078427448E+02  0.37394208482E+02  0.22790564748E+03  0.24647273004E+03  0.00000000000E+00 0.  1.
         13    1    5    5    0    0  0.52869133747E+00 -0.66603474849E+01 -0.84613764638E+00  0.67346634709E+01  0.00000000000E+00 0.  1.
        -13    1    5    5    0    0  0.18661563769E+03  0.19073234955E+03  0.31585009154E+03  0.41347975249E+03  0.00000000000E+00 0. -1.
          1    1    6    6  503    0 -0.35315923004E+02 -0.10769592223E+03 -0.33649777908E+03  0.35507236081E+03  0.00000000000E+00 0. -1.
         -1    1    6    6    0  503  0.43097062911E+02 -0.67276585836E+02 -0.14492773061E+03  0.16549182135E+03  0.00000000000E+00 0.  1.
<mgrwt>
<rscale>  0 0.14665845E+04</rscale>
<asrwt>0</asrwt>
<pdfrwt beam="1">  1        1 0.14409652E+00 0.14665845E+04</pdfrwt>
<pdfrwt beam="2">  1       -2 0.88323034E-01 0.14665845E+04</pdfrwt>
<totfact> 0.15941812E+01</totfact>
</mgrwt>
</event>
<event>
12    5  0.5428626E-008  0.1914044E+04  0.7818608E-02  0.8647897E-01
         -4   -1    0    0    0  501 -0.00000000000E+00  0.00000000000E+00  0.12292239897E+04  0.12292239897E+04  0.00000000000E+00 0.  1.
          3   -1    0    0  501    0  0.00000000000E+00 -0.00000000000E+00 -0.74509716489E+03  0.74509716489E+03  0.00000000000E+00 0. -1.
        -24    2    1    2    0    0 -0.52625574112E+03 -0.30892924103E+03 -0.25539569761E+03  0.66613915234E+03  0.78307259531E+02 0.  0.
        254    2    1    2    0    0  0.52625574112E+03  0.30892924103E+03  0.73952252240E+03  0.13081820022E+04  0.88997989236E+03 0.  0.
         23    2    4    4    0    0 -0.98178364370E+02  0.30928037334E+03  0.55679272096E+03  0.65126650084E+03  0.94003087453E+02 0.  0.
         23    2    4    4    0    0  0.62443410549E+03 -0.35113230370E+00  0.18272980144E+03  0.65691550139E+03  0.90717805519E+02 0.  0.
          3    1    3    3  502    0 -0.27932626731E+03 -0.16970184648E+03 -0.17857380368E+03  0.37243856362E+03  0.00000000000E+00 0. -1.
         -4    1    3    3    0  502 -0.24692947380E+03 -0.13922739456E+03 -0.76821893934E+02  0.29370058872E+03  0.00000000000E+00 0.  1.
         13    1    5    5    0    0 -0.10311046031E+02  0.11619180784E+03  0.27359093770E+03  0.29742033399E+03  0.00000000000E+00 0. -1.
        -13    1    5    5    0    0 -0.87867318339E+02  0.19308856550E+03  0.28320178326E+03  0.35384616685E+03  0.00000000000E+00 0.  1.
          2    1    6    6  503    0  0.46387632928E+03 -0.86433121138E+01  0.94351080184E+02  0.47345335783E+03  0.00000000000E+00 0. -1.
         -2    1    6    6    0  503  0.16055777621E+03  0.82921798101E+01  0.88378721259E+02  0.18346214356E+03  0.00000000000E+00 0.  1.
<mgrwt>
<rscale>  0 0.19140442E+04</rscale>
<asrwt>0</asrwt>
<pdfrwt beam="1">  1        3 0.11463033E+00 0.19140442E+04</pdfrwt>
<pdfrwt beam="2">  1       -4 0.18911138E+00 0.19140442E+04</pdfrwt>
<totfact> 0.21061719E-01</totfact>
</mgrwt>
</event>
<event>
12    5  0.5428626E-008  0.1154118E+04  0.7818608E-02  0.9153993E-01
         -2   -1    0    0    0  501 -0.00000000000E+00  0.00000000000E+00  0.13525659027E+03  0.13525659027E+03  0.00000000000E+00 0.  1.
          1   -1    0    0  501    0  0.00000000000E+00 -0.00000000000E+00 -0.24619645212E+04  0.24619645212E+04  0.00000000000E+00 0. -1.
        -24    2    1    2    0    0  0.68587007146E+02 -0.17889148284E+03 -0.63402347513E+03  0.66970538162E+03  0.99061551441E+02 0.  0.
        254    2    1    2    0    0 -0.68587007146E+02  0.17889148284E+03 -0.16926844558E+04  0.19275157298E+04  0.90190347692E+03 0.  0.
         23    2    4    4    0    0  0.17041189557E+03 -0.17103148797E+03 -0.13520300557E+04  0.13764048971E+04  0.90626624336E+02 0.  0.
         23    2    4    4    0    0 -0.23899890271E+03  0.34992297080E+03 -0.34065440004E+03  0.55111083274E+03  0.90062027004E+02 0.  0.
          1    1    3    3  502    0  0.41673551703E+02 -0.18788519707E+02 -0.22585254291E+03  0.23043234262E+03  0.00000000000E+00 0. -1.
         -2    1    3    3    0  502  0.26913455443E+02 -0.16010296313E+03 -0.40817093222E+03  0.43927303900E+03  0.00000000000E+00 0.  1.
         13    1    5    5    0    0  0.16773792863E+03 -0.17628280280E+03 -0.12085358114E+04  0.12327897009E+04  0.00000000000E+00 0.  1.
        -13    1    5    5    0    0  0.26739669343E+01  0.52513148363E+01 -0.14349424436E+03  0.14361519617E+03  0.00000000000E+00 0. -1.
          2    1    6    6  503    0 -0.12705348989E+03  0.21265271895E+03 -0.14435578993E+03  0.28670954336E+03  0.00000000000E+00 0. -1.
         -2    1    6    6    0  503 -0.11194541282E+03  0.13727025186E+03 -0.19629861010E+03  0.26440128938E+03  0.00000000000E+00 0.  1.
<mgrwt>
<rscale>  0 0.11541177E+04</rscale>
<asrwt>0</asrwt>
<pdfrwt beam="1">  1        1 0.37876379E+00 0.11541177E+04</pdfrwt>
<pdfrwt beam="2">  1       -2 0.20808705E-01 0.11541177E+04</pdfrwt>
<totfact> 0.25184589E+01</totfact>
</mgrwt>
</event>
<event>
12    5  0.5428626E-008  0.1975560E+04  0.7818608E-02  0.8618133E-01
          1   -1    0    0  501    0  0.00000000000E+00  0.00000000000E+00  0.14650621224E+04  0.14650621224E+04  0.00000000000E+00 0. -1.
         -2   -1    0    0    0  501 -0.00000000000E+00 -0.00000000000E+00 -0.66598523236E+03  0.66598523236E+03  0.00000000000E+00 0.  1.
        -24    2    1    2    0    0 -0.36400125730E+03  0.75620411927E+02 -0.42347775240E+03  0.56870247861E+03  0.76640331292E+02 0.  0.
        254    2    1    2    0    0  0.36400125730E+03 -0.75620411927E+02  0.12225546424E+04  0.15623448761E+04  0.89892507821E+03 0.  0.
         23    2    4    4    0    0 -0.21040566730E+03  0.46624109361E+02  0.36468090623E+02  0.23574522325E+03  0.88326305511E+02 0.  0.
         23    2    4    4    0    0  0.57440692460E+03 -0.12224452129E+03  0.11860865518E+04  0.13265996529E+04  0.90433913185E+02 0.  0.
          3    1    3    3  502    0 -0.21578132196E+03  0.82511163032E+02 -0.26663613526E+03  0.35279526578E+03  0.00000000000E+00 0. -1.
         -4    1    3    3    0  502 -0.14821993535E+03 -0.68907511051E+01 -0.15684161715E+03  0.21590721284E+03  0.00000000000E+00 0.  1.
         13    1    5    5    0    0 -0.21460177894E+00  0.17301232057E+02  0.14143604307E+02  0.22347711905E+02  0.00000000000E+00 0.  1.
        -13    1    5    5    0    0 -0.21019106552E+03  0.29322877303E+02  0.22324486316E+02  0.21339751134E+03  0.00000000000E+00 0. -1.
          1    1    6    6  503    0  0.49207901393E+03 -0.13642406236E+03  0.10223418539E+04  0.11427756328E+04  0.00000000000E+00 0. -1.
         -1    1    6    6    0  503  0.82327910668E+02  0.14179541068E+02  0.16374469788E+03  0.18382402004E+03  0.00000000000E+00 0.  1.
<mgrwt>
<rscale>  0 0.19755604E+04</rscale>
<asrwt>0</asrwt>
<pdfrwt beam="1">  1        1 0.22539417E+00 0.19755604E+04</pdfrwt>
<pdfrwt beam="2">  1       -2 0.10245927E+00 0.19755604E+04</pdfrwt>
<totfact> 0.43999073E+00</totfact>
</mgrwt>
</event>
<event>
12    5  0.5428626E-008  0.2820171E+04  0.7818608E-02  0.8297033E-01
         -2   -1    0    0    0  501 -0.00000000000E+00  0.00000000000E+00  0.42775960226E+03  0.42775960226E+03  0.00000000000E+00 0.  1.
          1   -1    0    0  501    0  0.00000000000E+00 -0.00000000000E+00 -0.46482665616E+04  0.46482665616E+04  0.00000000000E+00 0. -1.
        -24    2    1    2    0    0  0.80301341142E+03 -0.80702162577E+03 -0.89609498036E+03  0.14510225826E+04  0.79786452734E+02 0.  0.
        254    2    1    2    0    0 -0.80301341142E+03  0.80702162577E+03 -0.33244119790E+04  0.36250035812E+04  0.89040525304E+03 0.  0.
         23    2    4    4    0    0 -0.60814943371E+02  0.39102331423E+03 -0.20510398443E+04  0.20908331334E+04  0.90670055803E+02 0.  0.
         23    2    4    4    0    0 -0.74219846805E+03  0.41599831154E+03 -0.12733721347E+04  0.15341704479E+04  0.91045091062E+02 0.  0.
          3    1    3    3  502    0  0.10344434316E+03 -0.11275121275E+03 -0.15571928318E+03  0.21831642921E+03  0.00000000000E+00 0. -1.
         -4    1    3    3    0  502  0.69956906826E+03 -0.69427041302E+03 -0.74037569718E+03  0.12327061534E+04  0.00000000000E+00 0.  1.
         13    1    5    5    0    0 -0.46712030378E+02  0.71427461093E+02 -0.48507964919E+03  0.49253036662E+03  0.00000000000E+00 0.  1.
        -13    1    5    5    0    0 -0.14102912993E+02  0.31959585313E+03 -0.15659601951E+04  0.15983027667E+04  0.00000000000E+00 0. -1.
          4    1    6    6  503    0 -0.59439676633E+03  0.36495634834E+03 -0.10772533049E+04  0.12833453685E+04  0.00000000000E+00 0. -1.
         -4    1    6    6    0  503 -0.14780170173E+03  0.51041963205E+02 -0.19611882981E+03  0.25082507938E+03  0.00000000000E+00 0.  1.
<mgrwt>
<rscale>  0 0.28201707E+04</rscale>
<asrwt>0</asrwt>
<pdfrwt beam="1">  1        1 0.71511797E+00 0.28201707E+04</pdfrwt>
<pdfrwt beam="2">  1       -2 0.65809166E-01 0.28201707E+04</pdfrwt>
<totfact> 0.36350381E-02</totfact>
</mgrwt>
</event>
<event>
12    5  0.5428626E-008  0.1473766E+04  0.7818608E-02  0.8902088E-01
         -2   -1    0    0    0  501 -0.00000000000E+00  0.00000000000E+00  0.13462887470E+04  0.13462887470E+04  0.00000000000E+00 0.  1.
          1   -1    0    0  501    0  0.00000000000E+00 -0.00000000000E+00 -0.40332848996E+03  0.40332848996E+03  0.00000000000E+00 0. -1.
        -24    2    1    2    0    0  0.17956180285E+03 -0.37857402337E+03  0.88146242044E+02  0.43546796184E+03  0.79384214978E+02 0.  0.
        254    2    1    2    0    0 -0.17956180285E+03  0.37857402337E+03  0.85481401496E+03  0.13141492751E+04  0.90593630285E+03 0.  0.
         23    2    4    4    0    0 -0.13950372397E+03  0.11064931912E+03 -0.16189016652E+03  0.25790886514E+03  0.92757726772E+02 0.  0.
         23    2    4    4    0    0 -0.40058078879E+02  0.26792470425E+03  0.10167041815E+04  0.10562404099E+04  0.92564108207E+02 0.  0.
          3    1    3    3  502    0  0.17073214171E+03 -0.29365375013E+03  0.84400482832E+02  0.35000775803E+03  0.00000000000E+00 0. -1.
         -2    1    3    3    0  502  0.88296611408E+01 -0.84920273241E+02  0.37457592124E+01  0.85460203810E+02  0.00000000000E+00 0.  1.
         13    1    5    5    0    0 -0.20358107251E+02  0.42661578347E+02 -0.93179927661E+02  0.10448426540E+03  0.00000000000E+00 0. -1.
        -13    1    5    5    0    0 -0.11914561672E+03  0.67987740772E+02 -0.68710238863E+02  0.15342459974E+03  0.00000000000E+00 0.  1.
          2    1    6    6  503    0 -0.35754304224E+02  0.26390655412E+03  0.10159837605E+04  0.10503085457E+04  0.00000000000E+00 0. -1.
         -2    1    6    6    0  503 -0.43037746556E+01  0.40181501239E+01  0.72042095475E+00  0.59318642143E+01  0.00000000000E+00 0.  1.
<mgrwt>
<rscale>  0 0.14737661E+04</rscale>
<asrwt>0</asrwt>
<pdfrwt beam="1">  1        1 0.62050537E-01 0.14737661E+04</pdfrwt>
<pdfrwt beam="2">  1       -2 0.20712134E+00 0.14737661E+04</pdfrwt>
<totfact> 0.60034134E+00</totfact>
</mgrwt>
</event>
<event>
12    5  0.5428626E-008  0.1418165E+04  0.7818608E-02  0.8940774E-01
         -2   -1    0    0    0  501 -0.00000000000E+00  0.00000000000E+00  0.44875556663E+03  0.44875556663E+03  0.00000000000E+00 0.  1.
          1   -1    0    0  501    0  0.00000000000E+00 -0.00000000000E+00 -0.11204268065E+04  0.11204268065E+04  0.00000000000E+00 0. -1.
        -24    2    1    2    0    0  0.19038101598E+03 -0.26709596328E+03 -0.49353720731E+03  0.59732408542E+03  0.75046007109E+02 0.  0.
        254    2    1    2    0    0 -0.19038101598E+03  0.26709596328E+03 -0.17813403252E+03  0.97185828767E+03  0.89732469760E+03 0.  0.
         23    2    4    4    0    0  0.29311465518E+03 -0.11823277063E+03 -0.81289615569E+02  0.33884312644E+03  0.91167283621E+02 0.  0.
         23    2    4    4    0    0 -0.48349567116E+03  0.38532873391E+03 -0.96844416956E+02  0.63301516123E+03  0.95305068339E+02 0.  0.
          3    1    3    3  502    0  0.19701580711E+03 -0.25120024643E+03 -0.46732121901E+03  0.56595575251E+03  0.00000000000E+00 0. -1.
         -4    1    3    3    0  502 -0.66347911317E+01 -0.15895716844E+02 -0.26215988296E+02  0.31368332913E+02  0.00000000000E+00 0.  1.
         13    1    5    5    0    0  0.22368594383E+02 -0.41909750549E+02 -0.82427077284E+01  0.48215385889E+02  0.00000000000E+00 0.  1.
        -13    1    5    5    0    0  0.27074606080E+03 -0.76323020078E+02 -0.73046907840E+02  0.29062774055E+03  0.00000000000E+00 0. -1.
          1    1    6    6  503    0 -0.44122322497E+03  0.31227267624E+03 -0.74128716055E+02  0.54560720773E+03  0.00000000000E+00 0. -1.
         -1    1    6    6    0  503 -0.42272446183E+02  0.73056057663E+02 -0.22715700900E+02  0.87407953499E+02  0.00000000000E+00 0.  1.
<mgrwt>
<rscale>  0 0.14181647E+04</rscale>
<asrwt>0</asrwt>
<pdfrwt beam="1">  1        1 0.17237335E+00 0.14181647E+04</pdfrwt>
<pdfrwt beam="2">  1       -2 0.69039319E-01 0.14181647E+04</pdfrwt>
<totfact> 0.20020242E+01</totfact>
</mgrwt>
</event>
<event>
12    5  0.5428626E-008  0.1293144E+04  0.7818608E-02  0.9035020E-01
          3   -1    0    0  501    0  0.00000000000E+00  0.00000000000E+00  0.13264438077E+04  0.13264438077E+04  0.00000000000E+00 0. -1.
         -4   -1    0    0    0  501 -0.00000000000E+00 -0.00000000000E+00 -0.31516988422E+03  0.31516988422E+03  0.00000000000E+00 0.  1.
        -24    2    1    2    0    0  0.30823713032E+03 -0.12180083544E+03  0.28162833810E+03  0.44259882675E+03  0.82058689959E+02 0.  0.
        254    2    1    2    0    0 -0.30823713032E+03  0.12180083544E+03  0.72964558541E+03  0.11990148652E+04  0.89185671195E+03 0.  0.
         23    2    4    4    0    0  0.21622934439E+03 -0.15796066212E+03  0.45955041457E+03  0.53965051647E+03  0.91265526030E+02 0.  0.
         23    2    4    4    0    0 -0.52446647471E+03  0.27976149757E+03  0.27009517084E+03  0.65936434873E+03  0.92078034570E+02 0.  0.
          1    1    3    3  502    0  0.27254804187E+03 -0.10592928101E+03  0.27783553051E+03  0.40335595906E+03  0.00000000000E+00 0. -1.
         -2    1    3    3    0  502  0.35689088450E+02 -0.15871554435E+02  0.37928075903E+01  0.39242867683E+02  0.00000000000E+00 0.  1.
         13    1    5    5    0    0  0.10983572338E+03 -0.11418183094E+03  0.33208421404E+03  0.36794198166E+03  0.00000000000E+00 0. -1.
        -13    1    5    5    0    0  0.10639362101E+03 -0.43778831181E+02  0.12746620053E+03  0.17170853482E+03  0.00000000000E+00 0.  1.
          4    1    6    6  503    0 -0.16524191178E+03  0.85560283306E+02  0.38900682326E+02  0.19010185316E+03  0.00000000000E+00 0. -1.
         -4    1    6    6    0  503 -0.35922456293E+03  0.19420121426E+03  0.23119448852E+03  0.46926249558E+03  0.00000000000E+00 0.  1.
<mgrwt>
<rscale>  0 0.12931437E+04</rscale>
<asrwt>0</asrwt>
<pdfrwt beam="1">  1        3 0.20406828E+00 0.12931437E+04</pdfrwt>
<pdfrwt beam="2">  1       -4 0.48487675E-01 0.12931437E+04</pdfrwt>
<totfact> 0.12851578E+00</totfact>
</mgrwt>
</event>
<event>
12    5  0.5428626E-008  0.1584365E+04  0.7818608E-02  0.8830211E-01
          1   -1    0    0  501    0  0.00000000000E+00  0.00000000000E+00  0.12227051797E+04  0.12227051797E+04  0.00000000000E+00 0. -1.
         -2   -1    0    0    0  501 -0.00000000000E+00 -0.00000000000E+00 -0.51324990682E+03  0.51324990682E+03  0.00000000000E+00 0.  1.
        -24    2    1    2    0    0 -0.44071092000E+03 -0.32480372092E+03  0.19025205801E+03  0.58504733931E+03  0.79755699010E+02 0.  0.
        254    2    1    2    0    0  0.44071092000E+03  0.32480372092E+03  0.51920321492E+03  0.11509077473E+04  0.86907599909E+03 0.  0.
         23    2    4    4    0    0  0.24842724448E+03  0.57974270767E+03  0.51699234238E+03  0.82005977816E+03  0.86018921083E+02 0.  0.
         23    2    4    4    0    0  0.19228367552E+03 -0.25493898674E+03  0.22108725356E+01  0.33084796910E+03  0.86536650422E+02 0.  0.
          1    1    3    3  502    0 -0.80943859289E+02 -0.10137026538E+03  0.46916993437E+02  0.13794579854E+03  0.00000000000E+00 0. -1.
         -2    1    3    3    0  502 -0.35976706071E+03 -0.22343345554E+03  0.14333506457E+03  0.44710154078E+03  0.00000000000E+00 0.  1.
         13    1    5    5    0    0  0.17269464057E+03  0.48528419710E+03  0.42982580681E+03  0.67087585665E+03  0.00000000000E+00 0.  1.
        -13    1    5    5    0    0  0.75732603914E+02  0.94458510562E+02  0.87166535574E+02  0.14918392151E+03  0.00000000000E+00 0. -1.
          1    1    6    6  503    0  0.14792647316E+03 -0.22868711401E+03  0.26921349314E+02  0.27368740677E+03  0.00000000000E+00 0. -1.
         -1    1    6    6    0  503  0.44357202363E+02 -0.26251872738E+02 -0.24710476779E+02  0.57160562334E+02  0.00000000000E+00 0.  1.
<mgrwt>
<rscale>  0 0.15843653E+04</rscale>
<asrwt>0</asrwt>
<pdfrwt beam="1">  1        1 0.18810849E+00 0.15843653E+04</pdfrwt>
<pdfrwt beam="2">  1       -2 0.78961524E-01 0.15843653E+04</pdfrwt>
<totfact> 0.12338182E+01</totfact>
</mgrwt>
</event>
<event>
12    5  0.5428626E-008  0.1591242E+04  0.7818608E-02  0.8825947E-01
          1   -1    0    0  501    0  0.00000000000E+00  0.00000000000E+00  0.78943036810E+03  0.78943036810E+03  0.00000000000E+00 0. -1.
         -2   -1    0    0    0  501 -0.00000000000E+00 -0.00000000000E+00 -0.80185987822E+03  0.80185987822E+03  0.00000000000E+00 0.  1.
        -24    2    1    2    0    0  0.36856398941E+03 -0.24487912448E+03  0.30224171805E+03  0.54179215190E+03  0.79896682272E+02 0.  0.
        254    2    1    2    0    0 -0.36856398941E+03  0.24487912448E+03 -0.31467122817E+03  0.10494980944E+04  0.89812196748E+03 0.  0.
         23    2    4    4    0    0 -0.39742230253E+03  0.15359697898E+02 -0.56441502839E+03  0.69688788905E+03  0.94382195128E+02 0.  0.
         23    2    4    4    0    0  0.28858313121E+02  0.22951942658E+03  0.24974380023E+03  0.35261020537E+03  0.91923999959E+02 0.  0.
          1    1    3    3  502    0  0.27561057498E+03 -0.20503508007E+03  0.19771092795E+03  0.39634604089E+03  0.00000000000E+00 0. -1.
         -2    1    3    3    0  502  0.92953414431E+02 -0.39844044409E+02  0.10453079010E+03  0.14544611101E+03  0.00000000000E+00 0.  1.
         13    1    5    5    0    0 -0.37709900182E+03  0.31438165009E+02 -0.54886226488E+03  0.66666468424E+03  0.00000000000E+00 0. -1.
        -13    1    5    5    0    0 -0.20323300705E+02 -0.16078467111E+02 -0.15552763510E+02  0.30223204810E+02  0.00000000000E+00 0.  1.
          3    1    6    6  503    0 -0.28680127222E+01  0.53642234703E+02  0.12088475267E+03  0.13228317455E+03  0.00000000000E+00 0. -1.
         -3    1    6    6    0  503  0.31726325843E+02  0.17587719188E+03  0.12885904755E+03  0.22032703082E+03  0.00000000000E+00 0.  1.
<mgrwt>
<rscale>  0 0.15912417E+04</rscale>
<asrwt>0</asrwt>
<pdfrwt beam="1">  1        1 0.12145083E+00 0.15912417E+04</pdfrwt>
<pdfrwt beam="2">  1       -2 0.12336306E+00 0.15912417E+04</pdfrwt>
<totfact> 0.94134218E+00</totfact>
</mgrwt>
</event>
<event>
12    5  0.5428626E-008  0.1760589E+04  0.7818608E-02  0.8727543E-01
          1   -1    0    0  501    0  0.00000000000E+00  0.00000000000E+00  0.18644230519E+04  0.18644230519E+04  0.00000000000E+00 0. -1.
         -2   -1    0    0    0  501 -0.00000000000E+00 -0.00000000000E+00 -0.41563438533E+03  0.41563438533E+03  0.00000000000E+00 0.  1.
        -24    2    1    2    0    0  0.16057779595E+03 -0.54912244300E+02  0.13520401253E+04  0.13648571114E+04  0.77600586927E+02 0.  0.
        254    2    1    2    0    0 -0.16057779595E+03  0.54912244300E+02  0.96748541311E+02  0.91520032584E+03  0.89410892683E+03 0.  0.
         23    2    4    4    0    0 -0.42974985306E+03  0.18748261814E+03 -0.16653352413E+03  0.50558915099E+03  0.89734645666E+02 0.  0.
         23    2    4    4    0    0  0.26917205711E+03 -0.13257037384E+03  0.26328206544E+03  0.40961117484E+03  0.91844260688E+02 0.  0.
          3    1    3    3  502    0  0.12171684804E+03 -0.58644322411E+02  0.12110038886E+04  0.12185173638E+04  0.00000000000E+00 0. -1.
         -4    1    3    3    0  502  0.38860947911E+02  0.37320781104E+01  0.14103623671E+03  0.14633974766E+03  0.00000000000E+00 0.  1.
         13    1    5    5    0    0 -0.23560217955E+02 -0.43781822230E+01  0.54414211532E+01  0.24573591797E+02  0.00000000000E+00 0. -1.
        -13    1    5    5    0    0 -0.40618963510E+03  0.19186080037E+03 -0.17197494528E+03  0.48101555920E+03  0.00000000000E+00 0.  1.
          4    1    6    6  503    0  0.20263921255E+02 -0.42470579141E+02  0.57625134258E+02  0.74397800340E+02  0.00000000000E+00 0. -1.
         -4    1    6    6    0  503  0.24890813586E+03 -0.90099794703E+02  0.20565693119E+03  0.33521337450E+03  0.00000000000E+00 0.  1.
<mgrwt>
<rscale>  0 0.17605889E+04</rscale>
<asrwt>0</asrwt>
<pdfrwt beam="1">  1        1 0.28683431E+00 0.17605889E+04</pdfrwt>
<pdfrwt beam="2">  1       -2 0.63943753E-01 0.17605889E+04</pdfrwt>
<totfact> 0.69238586E+00</totfact>
</mgrwt>
</event>
<event>
12    5  0.5428626E-008  0.2413761E+04  0.7818608E-02  0.8434370E-01
          1   -1    0    0  501    0  0.00000000000E+00  0.00000000000E+00  0.20653455059E+04  0.20653455059E+04  0.00000000000E+00 0. -1.
         -2   -1    0    0    0  501 -0.00000000000E+00 -0.00000000000E+00 -0.70523797735E+03  0.70523797735E+03  0.00000000000E+00 0.  1.
        -24    2    1    2    0    0  0.33904278342E+03 -0.95002593258E+03  0.33187031282E+03  0.10648379889E+04  0.79011116728E+02 0.  0.
        254    2    1    2    0    0 -0.33904278342E+03  0.95002593258E+03  0.10282372158E+04  0.17057454944E+04  0.91367206264E+03 0.  0.
         23    2    4    4    0    0 -0.60998993763E+03  0.83627303790E+03  0.89355608494E+03  0.13704381765E+04  0.90653188988E+02 0.  0.
         23    2    4    4    0    0  0.27094715421E+03  0.11375289468E+03  0.13468113083E+03  0.33530731788E+03  0.89106167020E+02 0.  0.
          1    1    3    3  502    0  0.68491044996E+02 -0.14780813706E+03  0.27705722320E+02  0.16524489606E+03  0.00000000000E+00 0. -1.
         -2    1    3    3    0  502  0.27055173843E+03 -0.80221779553E+03  0.30416459050E+03  0.89959309287E+03  0.00000000000E+00 0.  1.
         13    1    5    5    0    0 -0.39459222919E+03  0.56497527854E+03  0.64690151998E+03  0.94518869505E+03  0.00000000000E+00 0.  1.
        -13    1    5    5    0    0 -0.21539770844E+03  0.27129775936E+03  0.24665456497E+03  0.42524948143E+03  0.00000000000E+00 0. -1.
          3    1    6    6  503    0  0.16959128235E+02  0.13015310124E+02  0.41388426086E+02  0.46583389121E+02  0.00000000000E+00 0. -1.
         -3    1    6    6    0  503  0.25398802597E+03  0.10073758456E+03  0.93292704745E+02  0.28872392876E+03  0.00000000000E+00 0.  1.
<mgrwt>
<rscale>  0 0.24137606E+04</rscale>
<asrwt>0</asrwt>
<pdfrwt beam="1">  1        1 0.31774546E+00 0.24137606E+04</pdfrwt>
<pdfrwt beam="2">  1       -2 0.10849815E+00 0.24137606E+04</pdfrwt>
<totfact> 0.14372578E+00</totfact>
</mgrwt>
</event>
<event>
12    5  0.5428626E-008  0.1634150E+04  0.7818608E-02  0.8799838E-01
         -2   -1    0    0    0  501 -0.00000000000E+00  0.00000000000E+00  0.45201615737E+03  0.45201615737E+03  0.00000000000E+00 0.  1.
          1   -1    0    0  501    0  0.00000000000E+00 -0.00000000000E+00 -0.14769646839E+04  0.14769646839E+04  0.00000000000E+00 0. -1.
        -24    2    1    2    0    0 -0.16360882020E+03  0.23516722810E+03  0.21520768294E+03  0.36762482496E+03  0.82232559923E+02 0.  0.
        254    2    1    2    0    0  0.16360882020E+03 -0.23516722810E+03 -0.12401562095E+04  0.15613560163E+04  0.90430841783E+03 0.  0.
         23    2    4    4    0    0  0.31150018649E+03  0.22779044382E+03 -0.82617893363E+03  0.91661673739E+03  0.93240336754E+02 0.  0.
         23    2    4    4    0    0 -0.14789136630E+03 -0.46295767191E+03 -0.41397727584E+03  0.64473927893E+03  0.90054931391E+02 0.  0.
          1    1    3    3  502    0 -0.10675585220E+02  0.51197913338E+01 -0.64168913239E+01  0.13466880758E+02  0.00000000000E+00 0. -1.
         -2    1    3    3    0  502 -0.15293323498E+03  0.23004743676E+03  0.22162457427E+03  0.35415794420E+03  0.00000000000E+00 0.  1.
         13    1    5    5    0    0  0.92626871561E+02  0.11949793367E+03 -0.27656027246E+03  0.31519054203E+03  0.00000000000E+00 0.  1.
        -13    1    5    5    0    0  0.21887331493E+03  0.10829251015E+03 -0.54961866118E+03  0.60142619535E+03  0.00000000000E+00 0. -1.
          4    1    6    6  503    0 -0.62930809339E+02 -0.22656687144E+03 -0.25789281082E+03  0.34900076772E+03  0.00000000000E+00 0.  1.
         -4    1    6    6    0  503 -0.84960556957E+02 -0.23639080048E+03 -0.15608446502E+03  0.29573851120E+03  0.00000000000E+00 0. -1.
<mgrwt>
<rscale>  0 0.16341504E+04</rscale>
<asrwt>0</asrwt>
<pdfrwt beam="1">  1        1 0.22722534E+00 0.16341504E+04</pdfrwt>
<pdfrwt beam="2">  1       -2 0.69540947E-01 0.16341504E+04</pdfrwt>
<totfact> 0.10746410E+01</totfact>
</mgrwt>
</event>
<event>
12    5  0.5428626E-008  0.2723889E+04  0.7818608E-02  0.8327295E-01
         -2   -1    0    0    0  501 -0.00000000000E+00  0.00000000000E+00  0.13044624040E+04  0.13044624040E+04  0.00000000000E+00 0.  1.
          1   -1    0    0  501    0  0.00000000000E+00 -0.00000000000E+00 -0.14219593351E+04  0.14219593351E+04  0.00000000000E+00 0. -1.
        -24    2    1    2    0    0 -0.66755060298E+03 -0.99016164381E+03  0.11329418722E+03  0.12019748303E+04  0.76576963206E+02 0.  0.
        254    2    1    2    0    0  0.66755060298E+03  0.99016164381E+03 -0.23079111838E+03  0.15244469088E+04  0.91903751235E+03 0.  0.
         23    2    4    4    0    0  0.79445212740E+03  0.10017792199E+04 -0.45995343894E+02  0.12827666945E+04  0.93053924426E+02 0.  0.
         23    2    4    4    0    0 -0.12690152442E+03 -0.11617576052E+02 -0.18479577449E+03  0.24168021430E+03  0.89559381084E+02 0.  0.
          1    1    3    3  502    0 -0.51177607114E+03 -0.75369826740E+03  0.11890839372E+03  0.91875732997E+03  0.00000000000E+00 0. -1.
         -2    1    3    3    0  502 -0.15577453183E+03 -0.23646337641E+03 -0.56142065020E+01  0.28321750028E+03  0.00000000000E+00 0.  1.
         13    1    5    5    0    0  0.95360526309E+02  0.90662399705E+02 -0.26286397449E+02  0.13418001114E+03  0.00000000000E+00 0. -1.
        -13    1    5    5    0    0  0.69909160109E+03  0.91111682016E+03 -0.19708946445E+02  0.11485866834E+04  0.00000000000E+00 0.  1.
          1    1    6    6  503    0 -0.22226104818E+01 -0.19577700269E+02 -0.13719275255E+01  0.19751165290E+02  0.00000000000E+00 0. -1.
         -1    1    6    6    0  503 -0.12467891394E+03  0.79601242165E+01 -0.18342384696E+03  0.22192904901E+03  0.00000000000E+00 0.  1.
<mgrwt>
<rscale>  0 0.27238888E+04</rscale>
<asrwt>0</asrwt>
<pdfrwt beam="1">  1        1 0.21876297E+00 0.27238888E+04</pdfrwt>
<pdfrwt beam="2">  1       -2 0.20068652E+00 0.27238888E+04</pdfrwt>
<totfact> 0.74675188E-01</totfact>
</mgrwt>
</event>
<event>
12    5  0.5428626E-008  0.1444334E+04  0.7818608E-02  0.8922338E-01
          1   -1    0    0  501    0  0.00000000000E+00  0.00000000000E+00  0.14655877144E+04  0.14655877144E+04  0.00000000000E+00 0. -1.
         -2   -1    0    0    0  501 -0.00000000000E+00 -0.00000000000E+00 -0.35584731927E+03  0.35584731927E+03  0.00000000000E+00 0.  1.
        -24    2    1    2    0    0  0.32528423703E+03  0.61457191738E+02  0.69152093785E+03  0.77040589217E+03  0.75744372275E+02 0.  0.
        254    2    1    2    0    0 -0.32528423703E+03 -0.61457191738E+02  0.41821945727E+03  0.10510291415E+04  0.90563122767E+03 0.  0.
         23    2    4    4    0    0 -0.18987133934E+03  0.36448315289E+03 -0.16079733385E+02  0.42141741258E+03  0.91842166570E+02 0.  0.
         23    2    4    4    0    0 -0.13541289769E+03 -0.42594034462E+03  0.43429919065E+03  0.62961172890E+03  0.89628746090E+02 0.  0.
          1    1    3    3  502    0  0.25276436804E+03  0.58537127393E+02  0.46429945632E+03  0.53187442707E+03  0.00000000000E+00 0. -1.
         -2    1    3    3    0  502  0.72519868990E+02  0.29200643448E+01  0.22722148152E+03  0.23853146509E+03  0.00000000000E+00 0.  1.
         13    1    5    5    0    0 -0.15068148692E+03  0.23964663867E+03 -0.47032964269E+02  0.28696257884E+03  0.00000000000E+00 0.  1.
        -13    1    5    5    0    0 -0.39189852418E+02  0.12483651421E+03  0.30953230884E+02  0.13445483374E+03  0.00000000000E+00 0. -1.
          1    1    6    6  503    0 -0.11146438883E+02 -0.14832602412E+02  0.49875884676E+02  0.53215158238E+02  0.00000000000E+00 0. -1.
         -1    1    6    6    0  503 -0.12426645881E+03 -0.41110774221E+03  0.38442330598E+03  0.57639657066E+03  0.00000000000E+00 0.  1.
<mgrwt>
<rscale>  0 0.14443344E+04</rscale>
<asrwt>0</asrwt>
<pdfrwt beam="1">  1        1 0.22547503E+00 0.14443344E+04</pdfrwt>
<pdfrwt beam="2">  1       -2 0.54745742E-01 0.14443344E+04</pdfrwt>
<totfact> 0.18498390E+01</totfact>
</mgrwt>
</event>
<event>
12    5  0.5428626E-008  0.1758350E+04  0.7818608E-02  0.8728767E-01
         -2   -1    0    0    0  501 -0.00000000000E+00  0.00000000000E+00  0.61783675085E+03  0.61783675085E+03  0.00000000000E+00 0.  1.
          1   -1    0    0  501    0  0.00000000000E+00 -0.00000000000E+00 -0.12510571354E+04  0.12510571354E+04  0.00000000000E+00 0. -1.
        -24    2    1    2    0    0  0.25169331141E+02 -0.33663842878E+03  0.35535919985E+03  0.49714293885E+03  0.83138521576E+02 0.  0.
        254    2    1    2    0    0 -0.25169331141E+02  0.33663842878E+03 -0.98857958436E+03  0.13717509474E+04  0.88907375398E+03 0.  0.
         23    2    4    4    0    0  0.67253746490E+02  0.34381511503E+03 -0.11260976406E+04  0.11830229089E+04  0.93356343936E+02 0.  0.
         23    2    4    4    0    0 -0.92423077632E+02 -0.71766862561E+01  0.13751805626E+03  0.18872803849E+03  0.90075116489E+02 0.  0.
          1    1    3    3  502    0 -0.21279299808E+02 -0.26189783145E+02  0.33095488982E+02  0.47265470827E+02  0.00000000000E+00 0. -1.
         -2    1    3    3    0  502  0.46448630949E+02 -0.31044864563E+03  0.32226371086E+03  0.44987746802E+03  0.00000000000E+00 0.  1.
         13    1    5    5    0    0  0.21160380024E+02  0.87093032476E+02 -0.17245472045E+03  0.19435428627E+03  0.00000000000E+00 0. -1.
        -13    1    5    5    0    0  0.46093366467E+02  0.25672208255E+03 -0.95364292017E+03  0.98866862259E+03  0.00000000000E+00 0.  1.
          4    1    6    6  503    0 -0.72575837591E+02  0.32986799662E+02  0.62288068846E+02  0.10116908952E+03  0.00000000000E+00 0.  1.
         -4    1    6    6    0  503 -0.19847240041E+02 -0.40163485918E+02  0.75229987417E+02  0.87558948972E+02  0.00000000000E+00 0. -1.
<mgrwt>
<rscale>  0 0.17583504E+04</rscale>
<asrwt>0</asrwt>
<pdfrwt beam="1">  1        1 0.19247033E+00 0.17583504E+04</pdfrwt>
<pdfrwt beam="2">  1       -2 0.95051808E-01 0.17583504E+04</pdfrwt>
<totfact> 0.75849484E+00</totfact>
</mgrwt>
</event>
<event>
12    5  0.5428626E-008  0.1338168E+04  0.7818608E-02  0.8999834E-01
          1   -1    0    0  501    0  0.00000000000E+00  0.00000000000E+00  0.10401065405E+04  0.10401065405E+04  0.00000000000E+00 0. -1.
         -2   -1    0    0    0  501 -0.00000000000E+00 -0.00000000000E+00 -0.43041079415E+03  0.43041079415E+03  0.00000000000E+00 0.  1.
        -24    2    1    2    0    0  0.27086599457E+03  0.16694445284E+03  0.18721539567E+03  0.37775322149E+03  0.80056571357E+02 0.  0.
        254    2    1    2    0    0 -0.27086599457E+03 -0.16694445284E+03  0.42248035072E+03  0.10927641132E+04  0.95624522117E+03 0.  0.
         23    2    4    4    0    0  0.11684121412E+03 -0.22233762868E+02 -0.25364189215E+03  0.29480597769E+03  0.91815823802E+02 0.  0.
         23    2    4    4    0    0 -0.38770720869E+03 -0.14471068997E+03  0.67612224287E+03  0.79795813551E+03  0.91311747671E+02 0.  0.
          1    1    3    3  502    0  0.56615993302E+02  0.70606075489E+02  0.74385924351E+02  0.11714885546E+03  0.00000000000E+00 0. -1.
         -2    1    3    3    0  502  0.21425000127E+03  0.96338377354E+02  0.11282947132E+03  0.26060436603E+03  0.00000000000E+00 0.  1.
         13    1    5    5    0    0 -0.74438172050E+01 -0.20921614299E+01 -0.79718866288E+02  0.80092978445E+02  0.00000000000E+00 0.  1.
        -13    1    5    5    0    0  0.12428503132E+03 -0.20141601439E+02 -0.17392302586E+03  0.21471299924E+03  0.00000000000E+00 0. -1.
          3    1    6    6  503    0 -0.34624511025E+03 -0.96126167780E+02  0.55854492505E+03  0.66415235436E+03  0.00000000000E+00 0. -1.
         -3    1    6    6    0  503 -0.41462098444E+02 -0.48584522194E+02  0.11757731782E+03  0.13380578115E+03  0.00000000000E+00 0.  1.
<mgrwt>
<rscale>  0 0.13381675E+04</rscale>
<asrwt>0</asrwt>
<pdfrwt beam="1">  1        1 0.16001639E+00 0.13381675E+04</pdfrwt>
<pdfrwt beam="2">  1       -2 0.66217046E-01 0.13381675E+04</pdfrwt>
<totfact> 0.25376268E+01</totfact>
</mgrwt>
</event>
<event>
12    5  0.5428626E-008  0.2141070E+04  0.7818608E-02  0.8543364E-01
          1   -1    0    0  501    0  0.00000000000E+00  0.00000000000E+00  0.17367715139E+04  0.17367715139E+04  0.00000000000E+00 0. -1.
         -2   -1    0    0    0  501 -0.00000000000E+00 -0.00000000000E+00 -0.65987125526E+03  0.65987125526E+03  0.00000000000E+00 0.  1.
        -24    2    1    2    0    0 -0.20060681297E+03 -0.99689635181E+02  0.13932386233E+04  0.14135472866E+04  0.82589061888E+02 0.  0.
        254    2    1    2    0    0  0.20060681297E+03  0.99689635181E+02 -0.31633836468E+03  0.98309548257E+03  0.90345207406E+03 0.  0.
         23    2    4    4    0    0  0.34923144029E+02 -0.36351836874E+03 -0.30181943402E+03  0.48247240009E+03  0.91210831007E+02 0.  0.
         23    2    4    4    0    0  0.16568366894E+03  0.46320800393E+03 -0.14518930654E+02  0.50062308248E+03  0.91651177359E+02 0.  0.
          3    1    3    3  502    0 -0.10322644666E+03 -0.68538497244E+02  0.98214736491E+03  0.98993265998E+03  0.00000000000E+00 0. -1.
         -4    1    3    3    0  502 -0.97380366308E+02 -0.31151137937E+02  0.41109125839E+03  0.42361462659E+03  0.00000000000E+00 0.  1.
         13    1    5    5    0    0  0.25827550315E+02 -0.50241028293E+02 -0.17040221671E+02  0.59005020412E+02  0.00000000000E+00 0. -1.
        -13    1    5    5    0    0  0.90955937143E+01 -0.31327734045E+03 -0.28477921235E+03  0.42346737968E+03  0.00000000000E+00 0.  1.
          3    1    6    6  503    0 -0.87162767800E+01  0.50855396718E+01  0.12856868692E+01  0.10172963451E+02  0.00000000000E+00 0. -1.
         -3    1    6    6    0  503  0.17439994572E+03  0.45812246425E+03 -0.15804617523E+02  0.49045011903E+03  0.00000000000E+00 0.  1.
<mgrwt>
<rscale>  0 0.21410704E+04</rscale>
<asrwt>0</asrwt>
<pdfrwt beam="1">  1        1 0.26719562E+00 0.21410704E+04</pdfrwt>
<pdfrwt beam="2">  1       -2 0.10151866E+00 0.21410704E+04</pdfrwt>
<totfact> 0.28847590E+00</totfact>
</mgrwt>
</event>
<event>
12    5  0.5428626E-008  0.1140640E+04  0.7818608E-02  0.9166462E-01
          1   -1    0    0  501    0  0.00000000000E+00  0.00000000000E+00  0.81312824455E+03  0.81312824455E+03  0.00000000000E+00 0. -1.
         -2   -1    0    0    0  501 -0.00000000000E+00 -0.00000000000E+00 -0.40001651628E+03  0.40001651628E+03  0.00000000000E+00 0.  1.
        -24    2    1    2    0    0 -0.36585697019E+02  0.11172141333E+03  0.23067475072E+03  0.27078143305E+03  0.79319332069E+02 0.  0.
        254    2    1    2    0    0  0.36585697019E+02 -0.11172141333E+03  0.18243697755E+03  0.94236332778E+03  0.91703064471E+03 0.  0.
         23    2    4    4    0    0 -0.13591903216E+03 -0.46170094737E+03  0.22563551526E+03  0.53914843874E+03  0.90154895259E+02 0.  0.
         23    2    4    4    0    0  0.17250472918E+03  0.34997953404E+03 -0.43198537708E+02  0.40321488904E+03  0.92046603677E+02 0.  0.
          1    1    3    3  502    0 -0.31408242460E+02  0.10296219256E+03  0.23593156985E+03  0.25932874202E+03  0.00000000000E+00 0. -1.
         -2    1    3    3    0  502 -0.51774545596E+01  0.87592207788E+01 -0.52568191251E+01  0.11452691024E+02  0.00000000000E+00 0.  1.
         13    1    5    5    0    0 -0.89432754942E+02 -0.15938984713E+03  0.67579391681E+02  0.19485973213E+03  0.00000000000E+00 0.  1.
        -13    1    5    5    0    0 -0.46486277222E+02 -0.30231110025E+03  0.15805612357E+03  0.34428870661E+03  0.00000000000E+00 0. -1.
          3    1    6    6  503    0  0.82934326481E+02  0.24136296249E+03 -0.57791962421E+02  0.26167554928E+03  0.00000000000E+00 0. -1.
         -3    1    6    6    0  503  0.89570402702E+02  0.10861657155E+03  0.14593424713E+02  0.14153933976E+03  0.00000000000E+00 0.  1.
<mgrwt>
<rscale>  0 0.11406397E+04</rscale>
<asrwt>0</asrwt>
<pdfrwt beam="1">  1        1 0.12509665E+00 0.11406397E+04</pdfrwt>
<pdfrwt beam="2">  1       -2 0.61541003E-01 0.11406397E+04</pdfrwt>
<totfact> 0.46031582E+01</totfact>
</mgrwt>
</event>
<event>
12    5  0.5428626E-008  0.3576190E+04  0.7818608E-02  0.8095968E-01
         -2   -1    0    0    0  501 -0.00000000000E+00  0.00000000000E+00  0.25199691486E+04  0.25199691486E+04  0.00000000000E+00 0.  1.
          1   -1    0    0  501    0  0.00000000000E+00 -0.00000000000E+00 -0.12687788359E+04  0.12687788359E+04  0.00000000000E+00 0. -1.
        -24    2    1    2    0    0  0.21650533362E+03  0.12780703977E+04  0.17086840272E+04  0.21463051966E+04  0.81770357853E+02 0.  0.
        254    2    1    2    0    0 -0.21650533362E+03 -0.12780703977E+04 -0.45749371444E+03  0.16424427878E+04  0.89887669425E+03 0.  0.
         23    2    4    4    0    0 -0.26408808533E+03 -0.11948041433E+04 -0.66442798176E+03  0.13954196187E+04  0.91825441181E+02 0.  0.
         23    2    4    4    0    0  0.47582751711E+02 -0.83266254456E+02  0.20693426732E+03  0.24702316914E+03  0.94875010993E+02 0.  0.
          3    1    3    3  502    0  0.16964651027E+02  0.24237628747E+03  0.28569115689E+03  0.37503799972E+03  0.00000000000E+00 0. -1.
         -4    1    3    3    0  502  0.19954068259E+03  0.10356941102E+04  0.14229928703E+04  0.17712671969E+04  0.00000000000E+00 0.  1.
         13    1    5    5    0    0 -0.12651351849E+03 -0.41974388198E+03 -0.20471113676E+03  0.48383597048E+03  0.00000000000E+00 0.  1.
        -13    1    5    5    0    0 -0.13757456684E+03 -0.77506026128E+03 -0.45971684501E+03  0.91158364819E+03  0.00000000000E+00 0. -1.
          2    1    6    6  503    0  0.42149651146E+02 -0.83822204971E+02  0.21652945914E+03  0.23598254557E+03  0.00000000000E+00 0. -1.
         -2    1    6    6    0  503  0.54331005650E+01  0.55595051514E+00 -0.95951918230E+01  0.11040623571E+02  0.00000000000E+00 0.  1.
<mgrwt>
<rscale>  0 0.35761899E+04</rscale>
<asrwt>0</asrwt>
<pdfrwt beam="1">  1        1 0.19519674E+00 0.35761899E+04</pdfrwt>
<pdfrwt beam="2">  1       -2 0.38768756E+00 0.35761899E+04</pdfrwt>
<totfact> 0.60477187E-02</totfact>
</mgrwt>
</event>
<event>
12    5  0.5428626E-008  0.2759414E+04  0.7818608E-02  0.8315981E-01
         -2   -1    0    0    0  501 -0.00000000000E+00  0.00000000000E+00  0.23171150031E+04  0.23171150031E+04  0.00000000000E+00 0.  1.
          1   -1    0    0  501    0  0.00000000000E+00 -0.00000000000E+00 -0.82153493309E+03  0.82153493309E+03  0.00000000000E+00 0. -1.
        -24    2    1    2    0    0 -0.57781283648E+03 -0.10694707220E+04  0.90004359702E+03  0.15142775960E+04  0.72957946176E+02 0.  0.
        254    2    1    2    0    0  0.57781283648E+03  0.10694707220E+04  0.59553647301E+03  0.16243723402E+04  0.89793457994E+03 0.  0.
         23    2    4    4    0    0  0.74423178852E+03  0.89590069680E+03  0.68266991887E+03  0.13530629987E+04  0.90676605485E+02 0.  0.
         23    2    4    4    0    0 -0.16641895204E+03  0.17357002518E+03 -0.87133445866E+02  0.27130934152E+03  0.90524583224E+02 0.  0.
          3    1    3    3  502    0 -0.41790045395E+02 -0.51126729436E+02  0.35991454557E+02  0.75204621919E+02  0.00000000000E+00 0. -1.
         -4    1    3    3    0  502 -0.53602279108E+03 -0.10183439926E+04  0.86405214246E+03  0.14390729740E+04  0.00000000000E+00 0.  1.
         13    1    5    5    0    0  0.61477046076E+02  0.47114657334E+02  0.29164816491E+02  0.82763546631E+02  0.00000000000E+00 0.  1.
        -13    1    5    5    0    0  0.68275474244E+03  0.84878603947E+03  0.65350510238E+03  0.12702994521E+04  0.00000000000E+00 0. -1.
          2    1    6    6  503    0 -0.62009580667E+02  0.58159593798E+02  0.13351228959E+02  0.86058013921E+02  0.00000000000E+00 0.  1.
         -2    1    6    6    0  503 -0.10440937137E+03  0.11541043139E+03 -0.10048467482E+03  0.18525132760E+03  0.00000000000E+00 0. -1.
<mgrwt>
<rscale>  0 0.27594136E+04</rscale>
<asrwt>0</asrwt>
<pdfrwt beam="1">  1        1 0.12638999E+00 0.27594136E+04</pdfrwt>
<pdfrwt beam="2">  1       -2 0.35647923E+00 0.27594136E+04</pdfrwt>
<totfact> 0.22845713E-01</totfact>
</mgrwt>
</event>
<event>
12    5  0.5428626E-008  0.1909033E+04  0.7818608E-02  0.8650373E-01
          1   -1    0    0  501    0  0.00000000000E+00  0.00000000000E+00  0.19375702498E+04  0.19375702498E+04  0.00000000000E+00 0. -1.
         -2   -1    0    0    0  501 -0.00000000000E+00 -0.00000000000E+00 -0.47022897650E+03  0.47022897650E+03  0.00000000000E+00 0.  1.
        -24    2    1    2    0    0 -0.14948507336E+03 -0.72559957301E+03  0.69752608181E+03  0.10207245176E+04  0.80593911512E+02 0.  0.
        254    2    1    2    0    0  0.14948507336E+03  0.72559957301E+03  0.76981519150E+03  0.13870747087E+04  0.88460176966E+03 0.  0.
         23    2    4    4    0    0  0.11457255424E+03  0.55522356401E+03  0.95822377735E+03  0.11172494814E+04  0.93024297346E+02 0.  0.
         23    2    4    4    0    0  0.34912519118E+02  0.17037600899E+03 -0.18840858584E+03  0.26982522733E+03  0.84029695050E+02 0.  0.
          1    1    3    3  502    0 -0.14939351813E+03 -0.68909581359E+03  0.63803021524E+03  0.95092271985E+03  0.00000000000E+00 0. -1.
         -2    1    3    3    0  502 -0.91555231667E-01 -0.36503759415E+02  0.59495866571E+02  0.69801797777E+02  0.00000000000E+00 0.  1.
         13    1    5    5    0    0  0.51840287963E+02  0.18012425160E+03  0.40063054962E+03  0.44230871432E+03  0.00000000000E+00 0.  1.
        -13    1    5    5    0    0  0.62732266276E+02  0.37509931242E+03  0.55759322772E+03  0.67494076704E+03  0.00000000000E+00 0. -1.
          3    1    6    6  503    0  0.20811894667E+02  0.42400378486E+02 -0.10839241479E+03  0.11823638458E+03  0.00000000000E+00 0. -1.
         -3    1    6    6    0  503  0.14100624451E+02  0.12797563051E+03 -0.80016171052E+02  0.15158884274E+03  0.00000000000E+00 0.  1.
<mgrwt>
<rscale>  0 0.19090329E+04</rscale>
<asrwt>0</asrwt>
<pdfrwt beam="1">  1        1 0.29808773E+00 0.19090329E+04</pdfrwt>
<pdfrwt beam="2">  1       -2 0.72342920E-01 0.19090329E+04</pdfrwt>
<totfact> 0.46642595E+00</totfact>
</mgrwt>
</event>
<event>
12    5  0.5428626E-008  0.1608915E+04  0.7818608E-02  0.8815090E-01
          1   -1    0    0  501    0  0.00000000000E+00  0.00000000000E+00  0.98229568303E+03  0.98229568303E+03  0.00000000000E+00 0. -1.
         -2   -1    0    0    0  501 -0.00000000000E+00 -0.00000000000E+00 -0.65881588608E+03  0.65881588608E+03  0.00000000000E+00 0.  1.
        -24    2    1    2    0    0  0.23026739233E+03 -0.49619061381E+03  0.12377510992E+03  0.56629889513E+03  0.78396196276E+02 0.  0.
        254    2    1    2    0    0 -0.23026739233E+03  0.49619061381E+03  0.19970468703E+03  0.10748126740E+04  0.90338924331E+03 0.  0.
         23    2    4    4    0    0 -0.88905676201E+02 -0.20385113296E+03 -0.14134849470E+03  0.27792747865E+03  0.88344681590E+02 0.  0.
         23    2    4    4    0    0 -0.14136171613E+03  0.70004174677E+03  0.34105318173E+03  0.79688519534E+03  0.93097581993E+02 0.  0.
          1    1    3    3  502    0  0.46560520558E+02 -0.16857708366E+03  0.16445760181E+02  0.17566040600E+03  0.00000000000E+00 0. -1.
         -4    1    3    3    0  502  0.18370687178E+03 -0.32761353015E+03  0.10732934974E+03  0.39063848913E+03  0.00000000000E+00 0.  1.
         13    1    5    5    0    0 -0.27087193336E+02 -0.60344416354E+02  0.15785070660E+01  0.66163859565E+02  0.00000000000E+00 0. -1.
        -13    1    5    5    0    0 -0.61818482864E+02 -0.14350671661E+03 -0.14292700176E+03  0.21176361908E+03  0.00000000000E+00 0.  1.
          1    1    6    6  503    0 -0.29967878429E+01  0.23047426011E+03  0.10063117472E+03  0.25150347639E+03  0.00000000000E+00 0. -1.
         -1    1    6    6    0  503 -0.13836492829E+03  0.46956748666E+03  0.24042200701E+03  0.54538171895E+03  0.00000000000E+00 0.  1.
<mgrwt>
<rscale>  0 0.16089152E+04</rscale>
<asrwt>0</asrwt>
<pdfrwt beam="1">  1        1 0.15112241E+00 0.16089152E+04</pdfrwt>
<pdfrwt beam="2">  1       -2 0.10135629E+00 0.16089152E+04</pdfrwt>
<totfact> 0.10504737E+01</totfact>
</mgrwt>
</event>
<event>
12    5  0.5428626E-008  0.1767321E+04  0.7818608E-02  0.8723873E-01
          1   -1    0    0  501    0  0.00000000000E+00  0.00000000000E+00  0.15505145944E+04  0.15505145944E+04  0.00000000000E+00 0. -1.
         -2   -1    0    0    0  501 -0.00000000000E+00 -0.00000000000E+00 -0.50361074804E+03  0.50361074804E+03  0.00000000000E+00 0.  1.
        -24    2    1    2    0    0  0.21218164134E+03  0.54162442117E+03  0.72193493240E+03  0.93051578555E+03  0.79319089832E+02 0.  0.
        254    2    1    2    0    0 -0.21218164134E+03 -0.54162442117E+03  0.32496891393E+03  0.11236095569E+04  0.90471850799E+03 0.  0.
         23    2    4    4    0    0  0.16636085101E+03  0.92368848204E+01 -0.19501962356E+03  0.27188199024E+03  0.90143830919E+02 0.  0.
         23    2    4    4    0    0 -0.37854249235E+03 -0.55086130599E+03  0.51998853749E+03  0.85172756661E+03  0.91154657840E+02 0.  0.
          3    1    3    3  502    0  0.16481644108E+03  0.41748342046E+03  0.60640677165E+03  0.75444419165E+03  0.00000000000E+00 0. -1.
         -4    1    3    3    0  502  0.47365200260E+02  0.12414100071E+03  0.11552816074E+03  0.17607159390E+03  0.00000000000E+00 0.  1.
         13    1    5    5    0    0  0.11391844016E+03  0.31371143631E+02 -0.77514122887E+02  0.14131524655E+03  0.00000000000E+00 0. -1.
        -13    1    5    5    0    0  0.52442410855E+02 -0.22134258811E+02 -0.11750550067E+03  0.13056674369E+03  0.00000000000E+00 0.  1.
          1    1    6    6  503    0 -0.36518924729E+03 -0.54939204631E+03  0.51653663587E+03  0.83785732860E+03  0.00000000000E+00 0. -1.
         -1    1    6    6    0  503 -0.13353245063E+02 -0.14692596789E+01  0.34519016190E+01  0.13870238012E+02  0.00000000000E+00 0.  1.
<mgrwt>
<rscale>  0 0.17673209E+04</rscale>
<asrwt>0</asrwt>
<pdfrwt beam="1">  1        1 0.23854070E+00 0.17673209E+04</pdfrwt>
<pdfrwt beam="2">  1       -2 0.77478577E-01 0.17673209E+04</pdfrwt>
<totfact> 0.74443190E+00</totfact>
</mgrwt>
</event>
<event>
12    5  0.5428626E-008  0.1406073E+04  0.7818608E-02  0.8949434E-01
          1   -1    0    0  501    0  0.00000000000E+00  0.00000000000E+00  0.14705373891E+04  0.14705373891E+04  0.00000000000E+00 0. -1.
         -2   -1    0    0    0  501 -0.00000000000E+00 -0.00000000000E+00 -0.33610879027E+03  0.33610879027E+03  0.00000000000E+00 0.  1.
        -24    2    1    2    0    0  0.84968099142E+01 -0.87633252955E+02  0.85081846836E+03  0.85909845564E+03  0.80039412610E+02 0.  0.
        254    2    1    2    0    0 -0.84968099142E+01  0.87633252955E+02  0.28361013044E+03  0.94754772370E+03  0.89981120231E+03 0.  0.
         23    2    4    4    0    0 -0.35750920351E+03 -0.16639990874E+03  0.30463609899E+03  0.50617513456E+03  0.88928925634E+02 0.  0.
         23    2    4    4    0    0  0.34901239359E+03  0.25403316170E+03 -0.21025968547E+02  0.44137258915E+03  0.89583329767E+02 0.  0.
          1    1    3    3  502    0  0.89499859180E+01 -0.68822080533E+02  0.82040133878E+03  0.82333160858E+03  0.00000000000E+00 0. -1.
         -2    1    3    3    0  502 -0.45317600384E+00 -0.18811172421E+02  0.30417129583E+02  0.35766847057E+02  0.00000000000E+00 0.  1.
         13    1    5    5    0    0 -0.35745863414E+03 -0.16910163897E+03  0.28769502261E+03  0.48901990293E+03  0.00000000000E+00 0.  1.
        -13    1    5    5    0    0 -0.50569367630E-01  0.27017302268E+01  0.16941076375E+02  0.17155231628E+02  0.00000000000E+00 0. -1.
          1    1    6    6  503    0  0.31120589221E+03  0.25350347502E+03 -0.82885882407E+01  0.40147455697E+03  0.00000000000E+00 0. -1.
         -1    1    6    6    0  503  0.37806501382E+02  0.52968667317E+00 -0.12737380306E+02  0.39898032179E+02  0.00000000000E+00 0.  1.
<mgrwt>
<rscale>  0 0.14060733E+04</rscale>
<asrwt>0</asrwt>
<pdfrwt beam="1">  1        1 0.22623652E+00 0.14060733E+04</pdfrwt>
<pdfrwt beam="2">  1       -2 0.51709045E-01 0.14060733E+04</pdfrwt>
<totfact> 0.20713205E+01</totfact>
</mgrwt>
</event>
<event>
12    5  0.5428626E-008  0.3210083E+04  0.7818608E-02  0.8186159E-01
         -2   -1    0    0    0  501 -0.00000000000E+00  0.00000000000E+00  0.99020245897E+03  0.99020245897E+03  0.00000000000E+00 0.  1.
          1   -1    0    0  501    0  0.00000000000E+00 -0.00000000000E+00 -0.26016480147E+04  0.26016480147E+04  0.00000000000E+00 0. -1.
        -24    2    1    2    0    0 -0.12533405798E+04 -0.77302275823E+03 -0.65762527312E+03  0.16146944582E+04  0.79626627441E+02 0.  0.
        254    2    1    2    0    0  0.12533405798E+04  0.77302275823E+03 -0.95382028257E+03  0.19771560154E+04  0.91156238638E+03 0.  0.
         23    2    4    4    0    0  0.16446636188E+03 -0.76303368814E+02 -0.46713610383E+03  0.51012807914E+03  0.95619712106E+02 0.  0.
         23    2    4    4    0    0  0.10888742179E+04  0.84932612704E+03 -0.48668417874E+03  0.14670279363E+04  0.91145726986E+02 0.  0.
          3    1    3    3  502    0 -0.88695214912E+02 -0.77531759784E+02 -0.42507508191E+02  0.12523938349E+03  0.00000000000E+00 0. -1.
         -4    1    3    3    0  502 -0.11646453649E+04 -0.69549099845E+03 -0.61511776493E+03  0.14894550747E+04  0.00000000000E+00 0.  1.
         13    1    5    5    0    0  0.75515997195E+02 -0.86593550863E+02 -0.24411079867E+03  0.26979842644E+03  0.00000000000E+00 0.  1.
        -13    1    5    5    0    0  0.88950364683E+02  0.10290182049E+02 -0.22302530516E+03  0.24032965270E+03  0.00000000000E+00 0. -1.
          1    1    6    6  503    0  0.50501567239E+03  0.41974801470E+03 -0.18822533359E+03  0.68312370871E+03  0.00000000000E+00 0. -1.
         -1    1    6    6    0  503  0.58385854551E+03  0.42957811235E+03 -0.29845884514E+03  0.78390422758E+03  0.00000000000E+00 0.  1.
<mgrwt>
<rscale>  0 0.32100830E+04</rscale>
<asrwt>0</asrwt>
<pdfrwt beam="1">  1        1 0.40025354E+00 0.32100830E+04</pdfrwt>
<pdfrwt beam="2">  1       -2 0.15233884E+00 0.32100830E+04</pdfrwt>
<totfact> 0.24332319E-01</totfact>
</mgrwt>
</event>
<event>
12    5  0.5428626E-008  0.1409376E+04  0.7818608E-02  0.8947060E-01
         -2   -1    0    0    0  501 -0.00000000000E+00  0.00000000000E+00  0.23687856744E+03  0.23687856744E+03  0.00000000000E+00 0.  1.
          1   -1    0    0  501    0  0.00000000000E+00 -0.00000000000E+00 -0.20963687989E+04  0.20963687989E+04  0.00000000000E+00 0. -1.
        -24    2    1    2    0    0  0.95961333606E+02 -0.18525167594E+03 -0.11098952390E+04  0.11319394907E+04  0.76764626536E+02 0.  0.
        254    2    1    2    0    0 -0.95961333606E+02  0.18525167594E+03 -0.74959499246E+03  0.12013078757E+04  0.91527110659E+03 0.  0.
         23    2    4    4    0    0  0.77429328395E+01  0.43859271499E+03 -0.57245688953E+02  0.45145126056E+03  0.90042485006E+02 0.  0.
         23    2    4    4    0    0 -0.10370426645E+03 -0.25334103905E+03 -0.69234930351E+03  0.74985661516E+03  0.89449026176E+02 0.  0.
          1    1    3    3  502    0  0.82878056644E+02 -0.15733884029E+03 -0.10458525637E+04  0.10608637368E+04  0.00000000000E+00 0. -1.
         -2    1    3    3    0  502  0.13083276962E+02 -0.27912835643E+02 -0.64042675299E+02  0.71075753877E+02  0.00000000000E+00 0.  1.
         13    1    5    5    0    0  0.32446239188E+02  0.27933004068E+03 -0.69970621017E+02  0.28978253548E+03  0.00000000000E+00 0. -1.
        -13    1    5    5    0    0 -0.24703306348E+02  0.15926267431E+03  0.12724932064E+02  0.16166872508E+03  0.00000000000E+00 0.  1.
          1    1    6    6  503    0 -0.30946387918E+02 -0.10896720866E+02 -0.54449698498E+02  0.63570332053E+02  0.00000000000E+00 0. -1.
         -1    1    6    6    0  503 -0.72757878528E+02 -0.24244431819E+03 -0.63789960501E+03  0.68628628311E+03  0.00000000000E+00 0.  1.
<mgrwt>
<rscale>  0 0.14093755E+04</rscale>
<asrwt>0</asrwt>
<pdfrwt beam="1">  1        1 0.32251829E+00 0.14093755E+04</pdfrwt>
<pdfrwt beam="2">  1       -2 0.36442855E-01 0.14093755E+04</pdfrwt>
<totfact> 0.15559887E+01</totfact>
</mgrwt>
</event>
<event>
12    5  0.5428626E-008  0.1126161E+04  0.7818608E-02  0.9180062E-01
          1   -1    0    0  501    0  0.00000000000E+00  0.00000000000E+00  0.11215136355E+04  0.11215136355E+04  0.00000000000E+00 0. -1.
         -2   -1    0    0    0  501 -0.00000000000E+00 -0.00000000000E+00 -0.28270710092E+03  0.28270710092E+03  0.00000000000E+00 0.  1.
        -24    2    1    2    0    0 -0.14821275681E+03  0.14632090144E+03  0.79925318135E+02  0.23691754867E+03  0.79781206484E+02 0.  0.
        254    2    1    2    0    0  0.14821275681E+03 -0.14632090144E+03  0.75888121648E+03  0.11673031878E+04  0.86215961630E+03 0.  0.
         23    2    4    4    0    0 -0.10599643719E+03 -0.41009937250E+03  0.16550293966E+03  0.46375400125E+03  0.90883500253E+02 0.  0.
         23    2    4    4    0    0  0.25420919400E+03  0.26377847106E+03  0.59337827682E+03  0.70354918653E+03  0.93178765534E+02 0.  0.
          3    1    3    3  502    0 -0.24263841983E+01  0.45973532717E+02  0.15711478573E+02  0.48644666817E+02  0.00000000000E+00 0. -1.
         -4    1    3    3    0  502 -0.14578637262E+03  0.10034736873E+03  0.64213839562E+02  0.18827288186E+03  0.00000000000E+00 0.  1.
         13    1    5    5    0    0 -0.45256972794E+02 -0.47699782154E+02  0.26198936828E+02  0.70780273346E+02  0.00000000000E+00 0.  1.
        -13    1    5    5    0    0 -0.60739464392E+02 -0.36239959035E+03  0.13930400283E+03  0.39297372790E+03  0.00000000000E+00 0. -1.
          2    1    6    6  503    0  0.22782404636E+03  0.24590259088E+03  0.57797443541E+03  0.66815142616E+03  0.00000000000E+00 0. -1.
         -2    1    6    6    0  503  0.26385147640E+02  0.17875880182E+02  0.15403841416E+02  0.35397760362E+02  0.00000000000E+00 0.  1.
<mgrwt>
<rscale>  0 0.11261614E+04</rscale>
<asrwt>0</asrwt>
<pdfrwt beam="1">  1        1 0.17254056E+00 0.11261614E+04</pdfrwt>
<pdfrwt beam="2">  1       -2 0.43493401E-01 0.11261614E+04</pdfrwt>
<totfact> 0.53397407E+01</totfact>
</mgrwt>
</event>
<event>
12    5  0.5428626E-008  0.1698813E+04  0.7818608E-02  0.8762042E-01
         -4   -1    0    0    0  501 -0.00000000000E+00  0.00000000000E+00  0.12698799857E+04  0.12698799857E+04  0.00000000000E+00 0.  1.
          1   -1    0    0  501    0  0.00000000000E+00 -0.00000000000E+00 -0.56815724241E+03  0.56815724241E+03  0.00000000000E+00 0. -1.
        -24    2    1    2    0    0 -0.41519426239E+03  0.28307539352E+03 -0.12439990922E+03  0.52078664055E+03  0.56792901170E+02 0.  0.
        254    2    1    2    0    0  0.41519426239E+03 -0.28307539352E+03  0.82612265256E+03  0.13172505876E+04  0.89451244794E+03 0.  0.
         23    2    4    4    0    0  0.28208379814E+03 -0.60054451017E+03  0.55469017270E+03  0.86957218662E+03  0.90827430767E+02 0.  0.
         23    2    4    4    0    0  0.13311046425E+03  0.31746911665E+03  0.27143247986E+03  0.44767840098E+03  0.90748685165E+02 0.  0.
          1    1    3    3  502    0 -0.41681711927E+03  0.28160993980E+03 -0.12533169802E+03  0.51840978351E+03  0.00000000000E+00 0. -1.
         -2    1    3    3    0  502  0.16228568769E+01  0.14654537165E+01  0.93178879442E+00  0.23768570415E+01  0.00000000000E+00 0.  1.
         13    1    5    5    0    0  0.34066508182E+02 -0.12484003811E+03  0.14644671698E+03  0.19542825540E+03  0.00000000000E+00 0. -1.
        -13    1    5    5    0    0  0.24801728996E+03 -0.47570447206E+03  0.40824345572E+03  0.67414393122E+03  0.00000000000E+00 0.  1.
          3    1    6    6  503    0  0.27371366950E+02  0.47929173917E+02  0.71399697683E+01  0.55654079899E+02  0.00000000000E+00 0. -1.
         -3    1    6    6    0  503  0.10573909730E+03  0.26953994274E+03  0.26429251009E+03  0.39202432108E+03  0.00000000000E+00 0.  1.
<mgrwt>
<rscale>  0 0.16988131E+04</rscale>
<asrwt>0</asrwt>
<pdfrwt beam="1">  1        1 0.87408807E-01 0.16988131E+04</pdfrwt>
<pdfrwt beam="2">  1       -4 0.19536615E+00 0.16988131E+04</pdfrwt>
<totfact> 0.23860914E+00</totfact>
</mgrwt>
</event>
<event>
12    5  0.5428626E-008  0.1172470E+04  0.7818608E-02  0.9137301E-01
         -2   -1    0    0    0  501 -0.00000000000E+00  0.00000000000E+00  0.36965534638E+03  0.36965534638E+03  0.00000000000E+00 0.  1.
          1   -1    0    0  501    0  0.00000000000E+00 -0.00000000000E+00 -0.92970715304E+03  0.92970715304E+03  0.00000000000E+00 0. -1.
        -24    2    1    2    0    0  0.18582394499E+03  0.61532651705E+02  0.18503277428E+02  0.21343964091E+03  0.83050004693E+02 0.  0.
        254    2    1    2    0    0 -0.18582394499E+03 -0.61532651705E+02 -0.57855508409E+03  0.10859228585E+04  0.89787842359E+03 0.  0.
         23    2    4    4    0    0  0.14147004633E+03 -0.33606923949E+02 -0.70304632961E+03  0.72339118915E+03  0.88755121645E+02 0.  0.
         23    2    4    4    0    0 -0.32729399132E+03 -0.27925727757E+02  0.12449124551E+03  0.36253166936E+03  0.89609921648E+02 0.  0.
          3    1    3    3  502    0  0.21717196023E+02 -0.72324270918E+01 -0.21125332966E+02  0.31148423679E+02  0.00000000000E+00 0. -1.
         -4    1    3    3    0  502  0.16410674897E+03  0.68765078797E+02  0.39628610394E+02  0.18229121723E+03  0.00000000000E+00 0.  1.
         13    1    5    5    0    0  0.80219137630E+02 -0.32738774698E+02 -0.21951836237E+03  0.23599840853E+03  0.00000000000E+00 0. -1.
        -13    1    5    5    0    0  0.61250908699E+02 -0.86814925076E+00 -0.48352796723E+03  0.48739278061E+03  0.00000000000E+00 0.  1.
          4    1    6    6  503    0 -0.30534986346E+03 -0.42746652542E+02  0.94414761419E+02  0.32245924176E+03  0.00000000000E+00 0.  1.
         -4    1    6    6    0  503 -0.21944127854E+02  0.14820924785E+02  0.30076484092E+02  0.40072427604E+02  0.00000000000E+00 0. -1.
<mgrwt>
<rscale>  0 0.11724696E+04</rscale>
<asrwt>0</asrwt>
<pdfrwt beam="1">  1        1 0.14303187E+00 0.11724696E+04</pdfrwt>
<pdfrwt beam="2">  1       -2 0.56870053E-01 0.11724696E+04</pdfrwt>
<totfact> 0.43370836E+01</totfact>
</mgrwt>
</event>
<event>
12    5  0.5428626E-008  0.1193110E+04  0.7818608E-02  0.9118909E-01
         -2   -1    0    0    0  501 -0.00000000000E+00  0.00000000000E+00  0.16516103475E+03  0.16516103475E+03  0.00000000000E+00 0.  1.
          1   -1    0    0  501    0  0.00000000000E+00 -0.00000000000E+00 -0.21547319386E+04  0.21547319386E+04  0.00000000000E+00 0. -1.
        -24    2    1    2    0    0  0.93190656046E+02 -0.64484693656E+02 -0.80979070541E+00  0.13394607772E+03  0.71401133635E+02 0.  0.
        254    2    1    2    0    0 -0.93190656046E+02  0.64484693656E+02 -0.19887611131E+04  0.21859468956E+04  0.90019458524E+03 0.  0.
         23    2    4    4    0    0  0.16291153144E+02  0.23909533148E+03 -0.87263016882E+02  0.27116787360E+03  0.92115158090E+02 0.  0.
         23    2    4    4    0    0 -0.10948180919E+03 -0.17461063783E+03 -0.19014980962E+04  0.19147790220E+04  0.90601058308E+02 0.  0.
          3    1    3    3  502    0  0.65930618719E+02 -0.28018778513E+02 -0.32305848394E+02  0.78584771263E+02  0.00000000000E+00 0. -1.
         -4    1    3    3    0  502  0.27260037326E+02 -0.36465915143E+02  0.31496057688E+02  0.55361306453E+02  0.00000000000E+00 0.  1.
         13    1    5    5    0    0  0.13400433250E+02  0.13383580136E+03 -0.96385343855E+02  0.16547425131E+03  0.00000000000E+00 0. -1.
        -13    1    5    5    0    0  0.28907198943E+01  0.10525953012E+03  0.91223269735E+01  0.10569362229E+03  0.00000000000E+00 0.  1.
          1    1    6    6  503    0 -0.85343942844E+02 -0.95405716737E+02 -0.80033523592E+03  0.81050745167E+03  0.00000000000E+00 0. -1.
         -1    1    6    6    0  503 -0.24137866346E+02 -0.79204921089E+02 -0.11011628603E+04  0.11042715703E+04  0.00000000000E+00 0.  1.
<mgrwt>
<rscale>  0 0.11931098E+04</rscale>
<asrwt>0</asrwt>
<pdfrwt beam="1">  1        1 0.33149722E+00 0.11931098E+04</pdfrwt>
<pdfrwt beam="2">  1       -2 0.25409390E-01 0.11931098E+04</pdfrwt>
<totfact> 0.28408787E+01</totfact>
</mgrwt>
</event>
<event>
12    5  0.5428626E-008  0.1826413E+04  0.7818608E-02  0.8692378E-01
          1   -1    0    0  501    0  0.00000000000E+00  0.00000000000E+00  0.19619992795E+04  0.19619992795E+04  0.00000000000E+00 0. -1.
         -2   -1    0    0    0  501 -0.00000000000E+00 -0.00000000000E+00 -0.42504907527E+03  0.42504907527E+03  0.00000000000E+00 0.  1.
        -24    2    1    2    0    0 -0.49780960434E+03 -0.41896796638E+03  0.28701667115E+03  0.71555229433E+03  0.79296641664E+02 0.  0.
        254    2    1    2    0    0  0.49780960434E+03  0.41896796638E+03  0.12499335330E+04  0.16714960604E+04  0.89900872292E+03 0.  0.
         23    2    4    4    0    0  0.24927042014E+03 -0.11578948427E+02 -0.55067941608E+02  0.27175840451E+03  0.92468036773E+02 0.  0.
         23    2    4    4    0    0  0.24853918421E+03  0.43054691480E+03  0.13050014746E+04  0.13997376559E+04  0.95363958412E+02 0.  0.
          3    1    3    3  502    0 -0.96487953614E+02 -0.11972001842E+03  0.50144826131E+02  0.16173222187E+03  0.00000000000E+00 0. -1.
         -4    1    3    3    0  502 -0.40132165073E+03 -0.29924794796E+03  0.23687184502E+03  0.55382007247E+03  0.00000000000E+00 0.  1.
         13    1    5    5    0    0  0.11058781491E+03 -0.10668185566E+02  0.21763324055E+02  0.11321270805E+03  0.00000000000E+00 0.  1.
        -13    1    5    5    0    0  0.13868260523E+03 -0.91076286017E+00 -0.76831265663E+02  0.15854569646E+03  0.00000000000E+00 0. -1.
          3    1    6    6  503    0  0.17038458530E+03  0.20928721285E+03  0.64113349652E+03  0.69561785826E+03  0.00000000000E+00 0. -1.
         -3    1    6    6    0  503  0.78154598912E+02  0.22125970195E+03  0.66386797812E+03  0.70411979763E+03  0.00000000000E+00 0.  1.
<mgrwt>
<rscale>  0 0.18264129E+04</rscale>
<asrwt>0</asrwt>
<pdfrwt beam="1">  1        1 0.30184604E+00 0.18264129E+04</pdfrwt>
<pdfrwt beam="2">  1       -2 0.65392167E-01 0.18264129E+04</pdfrwt>
<totfact> 0.56341505E+00</totfact>
</mgrwt>
</event>
<event>
12    5  0.5428626E-008  0.1619846E+04  0.7818608E-02  0.8808448E-01
         -2   -1    0    0    0  501 -0.00000000000E+00  0.00000000000E+00  0.21866077844E+04  0.21866077844E+04  0.00000000000E+00 0.  1.
          1   -1    0    0  501    0  0.00000000000E+00 -0.00000000000E+00 -0.29999692599E+03  0.29999692599E+03  0.00000000000E+00 0. -1.
        -24    2    1    2    0    0 -0.23114275998E+03 -0.50550278035E+03  0.72259985859E+03  0.91515879597E+03  0.80031429970E+02 0.  0.
        254    2    1    2    0    0  0.23114275998E+03  0.50550278035E+03  0.11640109998E+04  0.15714459144E+04  0.89753028794E+03 0.  0.
         23    2    4    4    0    0  0.27689545406E+03  0.51436715508E+02  0.10543716868E+04  0.10951689092E+04  0.91533915041E+02 0.  0.
         23    2    4    4    0    0 -0.45752694082E+02  0.45406606484E+03  0.10963931301E+03  0.47627700519E+03  0.80930256772E+02 0.  0.
          3    1    3    3  502    0 -0.30491439441E+02 -0.11752823505E+03  0.11823092602E+03  0.16947320078E+03  0.00000000000E+00 0. -1.
         -4    1    3    3    0  502 -0.20065132054E+03 -0.38797454530E+03  0.60436893256E+03  0.74568559519E+03  0.00000000000E+00 0.  1.
         13    1    5    5    0    0  0.24126204675E+03  0.63082138220E+02  0.98755950969E+03  0.10185580575E+04  0.00000000000E+00 0.  1.
        -13    1    5    5    0    0  0.35633407304E+02 -0.11645422713E+02  0.66812177086E+02  0.76610851668E+02  0.00000000000E+00 0. -1.
          3    1    6    6  503    0 -0.55142612901E+02  0.44345007931E+03  0.11448684034E+03  0.46129807848E+03  0.00000000000E+00 0. -1.
         -3    1    6    6    0  503  0.93899188193E+01  0.10615985530E+02 -0.48475273304E+01  0.14978926711E+02  0.00000000000E+00 0.  1.
<mgrwt>
<rscale>  0 0.16198464E+04</rscale>
<asrwt>0</asrwt>
<pdfrwt beam="1">  1        1 0.46153375E-01 0.16198464E+04</pdfrwt>
<pdfrwt beam="2">  1       -2 0.33640119E+00 0.16198464E+04</pdfrwt>
<totfact> 0.13961499E+00</totfact>
</mgrwt>
</event>
<event>
12    5  0.5428626E-008  0.3399652E+04  0.7818608E-02  0.8137992E-01
         -2   -1    0    0    0  501 -0.00000000000E+00  0.00000000000E+00  0.13045692469E+04  0.13045692469E+04  0.00000000000E+00 0.  1.
          1   -1    0    0  501    0  0.00000000000E+00 -0.00000000000E+00 -0.22148375231E+04  0.22148375231E+04  0.00000000000E+00 0. -1.
        -24    2    1    2    0    0  0.15814683439E+04  0.47837628335E+02 -0.45931875746E+03  0.16494263744E+04  0.79391954018E+02 0.  0.
        254    2    1    2    0    0 -0.15814683439E+04 -0.47837628335E+02 -0.45094951881E+03  0.18699803955E+04  0.88889855987E+03 0.  0.
         23    2    4    4    0    0 -0.10985257024E+04  0.33351861220E+03 -0.47910045482E+03  0.12475382876E+04  0.93920976034E+02 0.  0.
         23    2    4    4    0    0 -0.48294264149E+03 -0.38135624054E+03  0.28150936017E+02  0.62244210791E+03  0.89305796745E+02 0.  0.
          3    1    3    3  502    0  0.54315135168E+03  0.40104350241E+02 -0.18871925941E+03  0.57639978193E+03  0.00000000000E+00 0. -1.
         -4    1    3    3    0  502  0.10383169922E+04  0.77332780945E+01 -0.27059949805E+03  0.10730265925E+04  0.00000000000E+00 0.  1.
         13    1    5    5    0    0 -0.50035734191E+03  0.19039452818E+03 -0.25436323320E+03  0.59271257821E+03  0.00000000000E+00 0.  1.
        -13    1    5    5    0    0 -0.59816836049E+03  0.14312408403E+03 -0.22473722163E+03  0.65482570941E+03  0.00000000000E+00 0. -1.
          1    1    6    6  503    0 -0.10614360169E+03 -0.10418316475E+03  0.41758627867E+02  0.15448099883E+03  0.00000000000E+00 0. -1.
         -1    1    6    6    0  503 -0.37679903980E+03 -0.27717307579E+03 -0.13607691850E+02  0.46796110908E+03  0.00000000000E+00 0.  1.
<mgrwt>
<rscale>  0 0.33996523E+04</rscale>
<asrwt>0</asrwt>
<pdfrwt beam="1">  1        1 0.34074423E+00 0.33996523E+04</pdfrwt>
<pdfrwt beam="2">  1       -2 0.20070296E+00 0.33996523E+04</pdfrwt>
<totfact> 0.20266833E-01</totfact>
</mgrwt>
</event>
<event>
12    5  0.5428626E-008  0.2157294E+04  0.7818608E-02  0.8536417E-01
         -2   -1    0    0    0  501 -0.00000000000E+00  0.00000000000E+00  0.98112765091E+03  0.98112765091E+03  0.00000000000E+00 0.  1.
          1   -1    0    0  501    0  0.00000000000E+00 -0.00000000000E+00 -0.11858593295E+04  0.11858593295E+04  0.00000000000E+00 0. -1.
        -24    2    1    2    0    0  0.86484593800E+03  0.19330921842E+03 -0.13764349404E+03  0.89992837644E+03  0.74822462339E+02 0.  0.
        254    2    1    2    0    0 -0.86484593800E+03 -0.19330921842E+03 -0.67088184591E+02  0.12670586040E+04  0.90311113995E+03 0.  0.
         23    2    4    4    0    0 -0.56915822578E+03  0.52170066673E+02 -0.43701552743E+03  0.72581853055E+03  0.95745319655E+02 0.  0.
         23    2    4    4    0    0 -0.29568771221E+03 -0.24547928509E+03  0.36992734284E+03  0.54124007346E+03  0.91669381915E+02 0.  0.
          1    1    3    3  502    0  0.43018442228E+03  0.10491724468E+03 -0.31908526956E+02  0.44394191005E+03  0.00000000000E+00 0. -1.
         -2    1    3    3    0  502  0.43466151571E+03  0.88391973739E+02 -0.10573496709E+03  0.45598646638E+03  0.00000000000E+00 0.  1.
         13    1    5    5    0    0 -0.45916735837E+03  0.70009703823E+02 -0.38285389721E+03  0.60192452037E+03  0.00000000000E+00 0.  1.
        -13    1    5    5    0    0 -0.10999086742E+03 -0.17839637150E+02 -0.54161630227E+02  0.12389401018E+03  0.00000000000E+00 0. -1.
          1    1    6    6  503    0 -0.20587378702E+03 -0.19688808070E+03  0.31711574553E+03  0.42627611775E+03  0.00000000000E+00 0. -1.
         -1    1    6    6    0  503 -0.89813925190E+02 -0.48591204387E+02  0.52811597314E+02  0.11496395571E+03  0.00000000000E+00 0.  1.
<mgrwt>
<rscale>  0 0.21572940E+04</rscale>
<asrwt>0</asrwt>
<pdfrwt beam="1">  1        1 0.18243990E+00 0.21572940E+04</pdfrwt>
<pdfrwt beam="2">  1       -2 0.15094272E+00 0.21572940E+04</pdfrwt>
<totfact> 0.25888314E+00</totfact>
</mgrwt>
</event>
<event>
12    5  0.5428626E-008  0.1692078E+04  0.7818608E-02  0.8765896E-01
          1   -1    0    0  501    0  0.00000000000E+00  0.00000000000E+00  0.18872372550E+04  0.18872372550E+04  0.00000000000E+00 0. -1.
         -2   -1    0    0    0  501 -0.00000000000E+00 -0.00000000000E+00 -0.37927494492E+03  0.37927494492E+03  0.00000000000E+00 0.  1.
        -24    2    1    2    0    0 -0.13738398510E+03  0.20480362632E+03 -0.19475099687E+03  0.32511705270E+03  0.83392220609E+02 0.  0.
        254    2    1    2    0    0  0.13738398510E+03 -0.20480362632E+03  0.17027133069E+04  0.19413951472E+04  0.89942405306E+03 0.  0.
         23    2    4    4    0    0 -0.60631617096E+02 -0.13385511047E+03 -0.44732705336E+02  0.17911822163E+03  0.92135437287E+02 0.  0.
         23    2    4    4    0    0  0.19801560220E+03 -0.70948515849E+02  0.17474460123E+04  0.17622769256E+04  0.88365864117E+02 0.  0.
          3    1    3    3  502    0  0.71510242298E+00  0.11512139940E+02 -0.39932796580E+02  0.41565237641E+02  0.00000000000E+00 0. -1.
         -4    1    3    3    0  502 -0.13809908753E+03  0.19329148638E+03 -0.15481820029E+03  0.28355181506E+03  0.00000000000E+00 0.  1.
         13    1    5    5    0    0  0.43335001608E+01 -0.12190268544E+02 -0.38984620490E+02  0.41075327212E+02  0.00000000000E+00 0. -1.
        -13    1    5    5    0    0 -0.64965117256E+02 -0.12166484193E+03 -0.57480848462E+01  0.13804289442E+03  0.00000000000E+00 0.  1.
          1    1    6    6  503    0  0.92963388106E+01 -0.34048812838E+02  0.22911877786E+03  0.23182139232E+03  0.00000000000E+00 0. -1.
         -1    1    6    6    0  503  0.18871926339E+03 -0.36899703011E+02  0.15183272344E+04  0.15304555332E+04  0.00000000000E+00 0.  1.
<mgrwt>
<rscale>  0 0.16920778E+04</rscale>
<asrwt>0</asrwt>
<pdfrwt beam="1">  1        1 0.29034419E+00 0.16920778E+04</pdfrwt>
<pdfrwt beam="2">  1       -2 0.58349992E-01 0.16920778E+04</pdfrwt>
<totfact> 0.81633848E+00</totfact>
</mgrwt>
</event>
<event>
12    5  0.5428626E-008  0.1323247E+04  0.7818608E-02  0.9011330E-01
          1   -1    0    0  501    0  0.00000000000E+00  0.00000000000E+00  0.24753948382E+03  0.24753948382E+03  0.00000000000E+00 0. -1.
         -2   -1    0    0    0  501 -0.00000000000E+00 -0.00000000000E+00 -0.17683883868E+04  0.17683883868E+04  0.00000000000E+00 0.  1.
        -24    2    1    2    0    0  0.32525715703E+03  0.11156885540E+03 -0.27388714090E+03  0.44683400969E+03  0.80041480263E+02 0.  0.
        254    2    1    2    0    0 -0.32525715703E+03 -0.11156885540E+03 -0.12469617621E+04  0.15690938609E+04  0.88820159911E+03 0.  0.
         23    2    4    4    0    0 -0.21885143890E+03 -0.23284923365E+03 -0.26390928403E+02  0.33458898576E+03  0.95595974639E+02 0.  0.
         23    2    4    4    0    0 -0.10640571813E+03  0.12128037825E+03 -0.12205708337E+04  0.12345048752E+04  0.90432404802E+02 0.  0.
          1    1    3    3  502    0  0.13268107573E+03  0.53981492733E+02 -0.66170520100E+02  0.15778722111E+03  0.00000000000E+00 0. -1.
         -2    1    3    3    0  502  0.19257608130E+03  0.57587362668E+02 -0.20771662080E+03  0.28904678858E+03  0.00000000000E+00 0.  1.
         13    1    5    5    0    0 -0.65836977244E+02 -0.78777231211E+02  0.35775847760E+02  0.10872106977E+03  0.00000000000E+00 0. -1.
        -13    1    5    5    0    0 -0.15301446166E+03 -0.15407200244E+03 -0.62166776162E+02  0.22586791598E+03  0.00000000000E+00 0.  1.
          2    1    6    6  503    0 -0.15776099129E+02  0.58267589550E+02 -0.68634286365E+03  0.68899239747E+03  0.00000000000E+00 0.  1.
         -2    1    6    6    0  503 -0.90629619001E+02  0.63012788698E+02 -0.53422797004E+03  0.54551247772E+03  0.00000000000E+00 0. -1.
<mgrwt>
<rscale>  0 0.13232474E+04</rscale>
<asrwt>0</asrwt>
<pdfrwt beam="1">  1        1 0.38083000E-01 0.13232474E+04</pdfrwt>
<pdfrwt beam="2">  1       -2 0.27205974E+00 0.13232474E+04</pdfrwt>
<totfact> 0.45538837E+00</totfact>
</mgrwt>
</event>
<event>
12    5  0.5428626E-008  0.1164509E+04  0.7818608E-02  0.9144502E-01
          3   -1    0    0  501    0  0.00000000000E+00  0.00000000000E+00  0.49008802553E+03  0.49008802553E+03  0.00000000000E+00 0. -1.
         -2   -1    0    0    0  501 -0.00000000000E+00 -0.00000000000E+00 -0.69175418667E+03  0.69175418667E+03  0.00000000000E+00 0.  1.
        -24    2    1    2    0    0  0.16528592174E+02 -0.21934244942E+03 -0.70062109210E+02  0.24331024483E+03  0.76856174864E+02 0.  0.
        254    2    1    2    0    0 -0.16528592174E+02  0.21934244942E+03 -0.13160405193E+03  0.93853196737E+03  0.90285011093E+03 0.  0.
         23    2    4    4    0    0 -0.26605121405E+03  0.47658937168E+03 -0.13258792306E+03  0.56905625428E+03  0.91240262497E+02 0.  0.
         23    2    4    4    0    0  0.24952262187E+03 -0.25724692226E+03  0.98387112760E+00  0.36947571309E+03  0.89854419595E+02 0.  0.
          1    1    3    3  502    0 -0.55382054665E+01 -0.81860268111E+02  0.10060329843E+02  0.82661874232E+02  0.00000000000E+00 0. -1.
         -2    1    3    3    0  502  0.22066797640E+02 -0.13748218131E+03 -0.80122439052E+02  0.16064837060E+03  0.00000000000E+00 0.  1.
         13    1    5    5    0    0 -0.14467470745E+03  0.28817751629E+03 -0.34116574973E+02  0.32425451818E+03  0.00000000000E+00 0. -1.
        -13    1    5    5    0    0 -0.12137650660E+03  0.18841185539E+03 -0.98471348082E+02  0.24480173610E+03  0.00000000000E+00 0.  1.
          3    1    6    6  503    0  0.28836162274E+02 -0.10890606209E+02 -0.22093103575E+02  0.37924066025E+02  0.00000000000E+00 0. -1.
         -3    1    6    6    0  503  0.22068645960E+03 -0.24635631605E+03  0.23076974703E+02  0.33155164706E+03  0.00000000000E+00 0.  1.
<mgrwt>
<rscale>  0 0.11645092E+04</rscale>
<asrwt>0</asrwt>
<pdfrwt beam="1">  1        3 0.75398158E-01 0.11645092E+04</pdfrwt>
<pdfrwt beam="2">  1       -2 0.10642372E+00 0.11645092E+04</pdfrwt>
<totfact> 0.48653332E+00</totfact>
</mgrwt>
</event>
<event>
12    5  0.5428626E-008  0.2093414E+04  0.7818608E-02  0.8564150E-01
         -2   -1    0    0    0  501 -0.00000000000E+00  0.00000000000E+00  0.32748733398E+03  0.32748733398E+03  0.00000000000E+00 0.  1.
          1   -1    0    0  501    0  0.00000000000E+00 -0.00000000000E+00 -0.33454579806E+04  0.33454579806E+04  0.00000000000E+00 0. -1.
        -24    2    1    2    0    0 -0.72636967885E+01 -0.62001669276E+03 -0.22870172100E+04  0.23709008314E+04  0.79054239976E+02 0.  0.
        254    2    1    2    0    0  0.72636967885E+01  0.62001669276E+03 -0.73095343661E+03  0.13020444832E+04  0.88122270119E+03 0.  0.
         23    2    4    4    0    0  0.37416081267E+03  0.56007559632E+03 -0.35961944614E+03  0.76882731010E+03  0.89934973053E+02 0.  0.
         23    2    4    4    0    0 -0.36689711588E+03  0.59941096437E+02 -0.37133399047E+03  0.53321717308E+03  0.90692847035E+02 0.  0.
          3    1    3    3  502    0 -0.31686358910E+02 -0.43689513494E+03 -0.15124528207E+04  0.15746094497E+04  0.00000000000E+00 0. -1.
         -4    1    3    3    0  502  0.24422662122E+02 -0.18312155782E+03 -0.77456438938E+03  0.79629138175E+03  0.00000000000E+00 0.  1.
         13    1    5    5    0    0  0.13979815174E+03  0.13615590012E+03 -0.10332827503E+03  0.22081368795E+03  0.00000000000E+00 0.  1.
        -13    1    5    5    0    0  0.23436266093E+03  0.42391969620E+03 -0.25629117111E+03  0.54801362215E+03  0.00000000000E+00 0. -1.
          2    1    6    6  503    0 -0.26760851051E+03  0.21168074668E+02 -0.31063093541E+03  0.41055326124E+03  0.00000000000E+00 0. -1.
         -2    1    6    6    0  503 -0.99288605371E+02  0.38773021769E+02 -0.60703055063E+02  0.12266391184E+03  0.00000000000E+00 0.  1.
<mgrwt>
<rscale>  0 0.20934136E+04</rscale>
<asrwt>0</asrwt>
<pdfrwt beam="1">  1        1 0.51468582E+00 0.20934136E+04</pdfrwt>
<pdfrwt beam="2">  1       -2 0.50382669E-01 0.20934136E+04</pdfrwt>
<totfact> 0.99583725E-01</totfact>
</mgrwt>
</event>
<event>
12    5  0.5428626E-008  0.1103316E+04  0.7818608E-02  0.9201966E-01
         -2   -1    0    0    0  501 -0.00000000000E+00  0.00000000000E+00  0.53311360592E+03  0.53311360592E+03  0.00000000000E+00 0.  1.
          1   -1    0    0  501    0  0.00000000000E+00 -0.00000000000E+00 -0.57084777369E+03  0.57084777369E+03  0.00000000000E+00 0. -1.
        -24    2    1    2    0    0 -0.61712897670E+02 -0.50630039444E+02 -0.15033723983E+03  0.18795740931E+03  0.79717121135E+02 0.  0.
        254    2    1    2    0    0  0.61712897670E+02  0.50630039444E+02  0.11260307206E+03  0.91600397030E+03  0.90554510608E+03 0.  0.
         23    2    4    4    0    0  0.23386640887E+03 -0.33573399421E+03  0.21338550001E+03  0.47160390390E+03  0.97293671424E+02 0.  0.
         23    2    4    4    0    0 -0.17215351120E+03  0.38636403365E+03 -0.10078242795E+03  0.44440006640E+03  0.91762319687E+02 0.  0.
          3    1    3    3  502    0 -0.54408100234E+02 -0.46827224723E+02 -0.15993776106E+03  0.17530863572E+03  0.00000000000E+00 0. -1.
         -4    1    3    3    0  502 -0.73047974364E+01 -0.38028147208E+01  0.96005212297E+01  0.12648773588E+02  0.00000000000E+00 0.  1.
         13    1    5    5    0    0  0.19090351556E+03 -0.24698938901E+03  0.11600523367E+03  0.33302421050E+03  0.00000000000E+00 0. -1.
        -13    1    5    5    0    0  0.42962893305E+02 -0.88744605200E+02  0.97380266337E+02  0.13857969341E+03  0.00000000000E+00 0.  1.
          1    1    6    6  503    0  0.11023728243E+02  0.15261156149E+02 -0.67735389110E+01  0.20007656054E+02  0.00000000000E+00 0. -1.
         -1    1    6    6    0  503 -0.18317723944E+03  0.37110287750E+03 -0.94008889036E+02  0.42439241034E+03  0.00000000000E+00 0.  1.
<mgrwt>
<rscale>  0 0.11033163E+04</rscale>
<asrwt>0</asrwt>
<pdfrwt beam="1">  1        1 0.87822734E-01 0.11033163E+04</pdfrwt>
<pdfrwt beam="2">  1       -2 0.82017478E-01 0.11033163E+04</pdfrwt>
<totfact> 0.41929952E+01</totfact>
</mgrwt>
</event>
<event>
12    5  0.5428626E-008  0.1532516E+04  0.7818608E-02  0.8863113E-01
          1   -1    0    0  501    0  0.00000000000E+00  0.00000000000E+00  0.71175289331E+03  0.71175289331E+03  0.00000000000E+00 0. -1.
         -2   -1    0    0    0  501 -0.00000000000E+00 -0.00000000000E+00 -0.82493726842E+03  0.82493726842E+03  0.00000000000E+00 0.  1.
        -24    2    1    2    0    0  0.98480787061E+02  0.28741393068E+03 -0.43232081165E+03  0.53432429933E+03  0.79346957677E+02 0.  0.
        254    2    1    2    0    0 -0.98480787061E+02 -0.28741393068E+03  0.31913643654E+03  0.10023658624E+04  0.90032439931E+03 0.  0.
         23    2    4    4    0    0 -0.13839019945E+03 -0.33863207570E+03  0.59372293667E+03  0.70315634407E+03  0.89991047827E+02 0.  0.
         23    2    4    4    0    0  0.39909412385E+02  0.51218145011E+02 -0.27458650013E+03  0.29920951832E+03  0.99561690554E+02 0.  0.
          1    1    3    3  502    0  0.62215535510E+02  0.90697807165E+02 -0.19564085779E+03  0.22443754213E+03  0.00000000000E+00 0. -1.
         -2    1    3    3    0  502  0.36265251551E+02  0.19671612352E+03 -0.23667995386E+03  0.30988675719E+03  0.00000000000E+00 0.  1.
         13    1    5    5    0    0 -0.69661668152E+02 -0.16302943504E+03  0.37200794255E+03  0.41209374421E+03  0.00000000000E+00 0. -1.
        -13    1    5    5    0    0 -0.68728531293E+02 -0.17560264066E+03  0.22171499412E+03  0.29106259986E+03  0.00000000000E+00 0.  1.
          4    1    6    6  503    0  0.41003866829E+02  0.79571167408E+02 -0.19093658635E+03  0.21087832459E+03  0.00000000000E+00 0.  1.
         -4    1    6    6    0  503 -0.10944544444E+01 -0.28353022398E+02 -0.83649913785E+02  0.88331193731E+02  0.00000000000E+00 0. -1.
<mgrwt>
<rscale>  0 0.15325162E+04</rscale>
<asrwt>0</asrwt>
<pdfrwt beam="1">  1        1 0.10950045E+00 0.15325162E+04</pdfrwt>
<pdfrwt beam="2">  1       -2 0.12691343E+00 0.15325162E+04</pdfrwt>
<totfact> 0.10352396E+01</totfact>
</mgrwt>
</event>
<event>
12    5  0.5428626E-008  0.1390545E+04  0.7818608E-02  0.8960691E-01
         -2   -1    0    0    0  501 -0.00000000000E+00  0.00000000000E+00  0.55639990391E+03  0.55639990391E+03  0.00000000000E+00 0.  1.
          1   -1    0    0  501    0  0.00000000000E+00 -0.00000000000E+00 -0.86880704649E+03  0.86880704649E+03  0.00000000000E+00 0. -1.
        -24    2    1    2    0    0  0.51457230786E+02 -0.40433635770E+01  0.31878457487E+03  0.33278863461E+03  0.80377078557E+02 0.  0.
        254    2    1    2    0    0 -0.51457230786E+02  0.40433635770E+01 -0.63119171746E+03  0.10924183158E+04  0.89011830511E+03 0.  0.
         23    2    4    4    0    0  0.66063489148E+02  0.61909359815E+02  0.20462307553E+03  0.24159248195E+03  0.91099785217E+02 0.  0.
         23    2    4    4    0    0 -0.11752071993E+03 -0.57865996238E+02 -0.83581479299E+03  0.85082583384E+03  0.90325180387E+02 0.  0.
          1    1    3    3  502    0  0.72152163566E+01  0.75172750714E+01 -0.31980445474E+00  0.10424540588E+02  0.00000000000E+00 0. -1.
         -2    1    3    3    0  502  0.44242014430E+02 -0.11560638648E+02  0.31910437933E+03  0.32236409402E+03  0.00000000000E+00 0.  1.
         13    1    5    5    0    0  0.23264395198E+02  0.26546654889E+02  0.17527594080E+03  0.17879488917E+03  0.00000000000E+00 0.  1.
        -13    1    5    5    0    0  0.42799093950E+02  0.35362704926E+02  0.29347134727E+02  0.62797592783E+02  0.00000000000E+00 0. -1.
          2    1    6    6  503    0 -0.38146078993E+02 -0.64316412724E+02 -0.50814003621E+03  0.51361271469E+03  0.00000000000E+00 0. -1.
         -2    1    6    6    0  503 -0.79374640941E+02  0.64504164860E+01 -0.32767475677E+03  0.33721311915E+03  0.00000000000E+00 0.  1.
<mgrwt>
<rscale>  0 0.13905454E+04</rscale>
<asrwt>0</asrwt>
<pdfrwt beam="1">  1        1 0.13366262E+00 0.13905454E+04</pdfrwt>
<pdfrwt beam="2">  1       -2 0.85599986E-01 0.13905454E+04</pdfrwt>
<totfact> 0.19582324E+01</totfact>
</mgrwt>
</event>
<event>
12    5  0.5428626E-008  0.1254967E+04  0.7818608E-02  0.9066060E-01
         -2   -1    0    0    0  501 -0.00000000000E+00  0.00000000000E+00  0.65859750443E+03  0.65859750443E+03  0.00000000000E+00 0.  1.
          1   -1    0    0  501    0  0.00000000000E+00 -0.00000000000E+00 -0.59783899336E+03  0.59783899336E+03  0.00000000000E+00 0. -1.
        -24    2    1    2    0    0 -0.17189762235E+02  0.28253140284E+03 -0.23538918973E+03  0.37673015392E+03  0.79987853564E+02 0.  0.
        254    2    1    2    0    0  0.17189762235E+02 -0.28253140284E+03  0.29614770079E+03  0.87970634387E+03  0.77849875352E+03 0.  0.
         23    2    4    4    0    0  0.15224752955E+03 -0.86566095151E+02 -0.22498890090E+03  0.29979437274E+03  0.92648050801E+02 0.  0.
         23    2    4    4    0    0 -0.13505776732E+03 -0.19596530769E+03  0.52113660169E+03  0.57991197112E+03  0.89841718022E+02 0.  0.
          1    1    3    3  502    0 -0.37770776311E+02  0.24358364977E+03 -0.17641626526E+03  0.30312097359E+03  0.00000000000E+00 0. -1.
         -2    1    3    3    0  502  0.20581014076E+02  0.38947753062E+02 -0.58972924468E+02  0.73609180333E+02  0.00000000000E+00 0.  1.
         13    1    5    5    0    0  0.87304025509E+02 -0.52312725871E+02 -0.19601149513E+03  0.22085995649E+03  0.00000000000E+00 0.  1.
        -13    1    5    5    0    0  0.64943504043E+02 -0.34253369280E+02 -0.28977405772E+02  0.78934416256E+02  0.00000000000E+00 0. -1.
          2    1    6    6  503    0 -0.65004635061E+00 -0.65273526598E+02  0.16505880312E+03  0.17749778681E+03  0.00000000000E+00 0. -1.
         -2    1    6    6    0  503 -0.13440772097E+03 -0.13069178109E+03  0.35607779857E+03  0.40241418431E+03  0.00000000000E+00 0.  1.
<mgrwt>
<rscale>  0 0.12549666E+04</rscale>
<asrwt>0</asrwt>
<pdfrwt beam="1">  1        1 0.91975229E-01 0.12549666E+04</pdfrwt>
<pdfrwt beam="2">  1       -2 0.10132269E+00 0.12549666E+04</pdfrwt>
<totfact> 0.23779603E+01</totfact>
</mgrwt>
</event>
<event>
12    5  0.5428626E-008  0.1140478E+04  0.7818608E-02  0.9166613E-01
          1   -1    0    0  501    0  0.00000000000E+00  0.00000000000E+00  0.85015910813E+03  0.85015910813E+03  0.00000000000E+00 0. -1.
         -2   -1    0    0    0  501 -0.00000000000E+00 -0.00000000000E+00 -0.38248431308E+03  0.38248431308E+03  0.00000000000E+00 0.  1.
        -24    2    1    2    0    0  0.17351067569E+02 -0.19598816089E+03  0.32165662561E+02  0.21564352081E+03  0.82189290449E+02 0.  0.
        254    2    1    2    0    0 -0.17351067569E+02  0.19598816089E+03  0.43550913249E+03  0.10169999004E+04  0.89772388526E+03 0.  0.
         23    2    4    4    0    0  0.90146642062E+02 -0.29612386362E+02  0.65755325879E+03  0.67044769129E+03  0.90113861902E+02 0.  0.
         23    2    4    4    0    0 -0.10749770963E+03  0.22560054725E+03 -0.22204412630E+03  0.34655220911E+03  0.91342624848E+02 0.  0.
          1    1    3    3  502    0  0.10126118834E+02 -0.53594028217E+02  0.47391950773E+02  0.72255485198E+02  0.00000000000E+00 0. -1.
         -2    1    3    3    0  502  0.72249487348E+01 -0.14239413268E+03 -0.15226288212E+02  0.14338803561E+03  0.00000000000E+00 0.  1.
         13    1    5    5    0    0 -0.72624446120E+01  0.19240118393E+02  0.14391041035E+03  0.14537238894E+03  0.00000000000E+00 0. -1.
        -13    1    5    5    0    0  0.97409086674E+02 -0.48852504756E+02  0.51364284844E+03  0.52507530235E+03  0.00000000000E+00 0.  1.
          4    1    6    6  503    0  0.13597125689E+02  0.55828121378E+02 -0.44540300002E+02  0.72701439379E+02  0.00000000000E+00 0. -1.
         -4    1    6    6    0  503 -0.12109483532E+03  0.16977242588E+03 -0.17750382630E+03  0.27385076973E+03  0.00000000000E+00 0.  1.
<mgrwt>
<rscale>  0 0.11404780E+04</rscale>
<asrwt>0</asrwt>
<pdfrwt beam="1">  1        1 0.13079371E+00 0.11404780E+04</pdfrwt>
<pdfrwt beam="2">  1       -2 0.58843741E-01 0.11404780E+04</pdfrwt>
<totfact> 0.47061000E+01</totfact>
</mgrwt>
</event>
<event>
12    5  0.5428626E-008  0.1684821E+04  0.7818608E-02  0.8770069E-01
         -2   -1    0    0    0  501 -0.00000000000E+00  0.00000000000E+00  0.23618925446E+03  0.23618925446E+03  0.00000000000E+00 0.  1.
          1   -1    0    0  501    0  0.00000000000E+00 -0.00000000000E+00 -0.30046054435E+04  0.30046054435E+04  0.00000000000E+00 0. -1.
        -24    2    1    2    0    0 -0.22385160467E+03  0.38966009723E+03 -0.22099071048E+03  0.50703041778E+03  0.79362574005E+02 0.  0.
        254    2    1    2    0    0  0.22385160467E+03 -0.38966009723E+03 -0.25474254785E+04  0.27337642801E+04  0.88439020711E+03 0.  0.
         23    2    4    4    0    0 -0.18697608649E+03 -0.33723462226E+03 -0.47475820493E+03  0.61826487221E+03  0.90381699943E+02 0.  0.
         23    2    4    4    0    0  0.41082769115E+03 -0.52425474969E+02 -0.20726672736E+04  0.21154994079E+04  0.88658308662E+02 0.  0.
          3    1    3    3  502    0 -0.14011207057E+03  0.26198195720E+03 -0.10435578426E+03  0.31489056500E+03  0.00000000000E+00 0. -1.
         -4    1    3    3    0  502 -0.83739534098E+02  0.12767814003E+03 -0.11663492622E+03  0.19213985278E+03  0.00000000000E+00 0.  1.
         13    1    5    5    0    0  0.64255779817E+01 -0.45363769373E+02 -0.59508117638E+02  0.75102434641E+02  0.00000000000E+00 0.  1.
        -13    1    5    5    0    0 -0.19340166447E+03 -0.29187085289E+03 -0.41525008730E+03  0.54316243757E+03  0.00000000000E+00 0. -1.
          4    1    6    6  503    0  0.40819236944E+03 -0.62454949790E+02 -0.20316497156E+04  0.20731913077E+04  0.00000000000E+00 0. -1.
         -4    1    6    6    0  503  0.26353217169E+01  0.10029474820E+02 -0.41017557945E+02  0.42308100235E+02  0.00000000000E+00 0.  1.
<mgrwt>
<rscale>  0 0.16848211E+04</rscale>
<asrwt>0</asrwt>
<pdfrwt beam="1">  1        1 0.46224697E+00 0.16848211E+04</pdfrwt>
<pdfrwt beam="2">  1       -2 0.36336810E-01 0.16848211E+04</pdfrwt>
<totfact> 0.35529850E+00</totfact>
</mgrwt>
</event>
<event>
12    5  0.5428626E-008  0.1194499E+04  0.7818608E-02  0.9117686E-01
          1   -1    0    0  501    0  0.00000000000E+00  0.00000000000E+00  0.35467652003E+03  0.35467652003E+03  0.00000000000E+00 0. -1.
         -2   -1    0    0    0  501 -0.00000000000E+00 -0.00000000000E+00 -0.10057240354E+04  0.10057240354E+04  0.00000000000E+00 0.  1.
        -24    2    1    2    0    0 -0.10095767804E+03  0.69648530967E+02  0.55642862505E+02  0.16663146279E+03  0.98114961255E+02 0.  0.
        254    2    1    2    0    0  0.10095767804E+03 -0.69648530967E+02 -0.70669037783E+03  0.11937690926E+04  0.95426934652E+03 0.  0.
         23    2    4    4    0    0  0.43394628426E+02 -0.27921479763E+03  0.13032936292E+03  0.32426262227E+03  0.91194892260E+02 0.  0.
         23    2    4    4    0    0  0.57563049618E+02  0.20956626666E+03 -0.83701974074E+03  0.86950647032E+03  0.90597630934E+02 0.  0.
          3    1    3    3  502    0 -0.10702807197E+03  0.26976582388E+02  0.23461888512E+02  0.11284150123E+03  0.00000000000E+00 0. -1.
         -4    1    3    3    0  502  0.60703939235E+01  0.42671948579E+02  0.32180973993E+02  0.53789961564E+02  0.00000000000E+00 0.  1.
         13    1    5    5    0    0 -0.22372632988E+02 -0.14255597428E+03  0.76555923552E+02  0.16335100227E+03  0.00000000000E+00 0. -1.
        -13    1    5    5    0    0  0.65767261414E+02 -0.13665882334E+03  0.53773439366E+02  0.16091162001E+03  0.00000000000E+00 0.  1.
          1    1    6    6  503    0  0.42240748732E+02  0.64414525719E+02 -0.43596287802E+03  0.44271564575E+03  0.00000000000E+00 0. -1.
         -1    1    6    6    0  503  0.15322300887E+02  0.14515174094E+03 -0.40105686272E+03  0.42679082457E+03  0.00000000000E+00 0.  1.
<mgrwt>
<rscale>  0 0.11944986E+04</rscale>
<asrwt>0</asrwt>
<pdfrwt beam="1">  1        1 0.54565618E-01 0.11944986E+04</pdfrwt>
<pdfrwt beam="2">  1       -2 0.15472678E+00 0.11944986E+04</pdfrwt>
<totfact> 0.16765215E+01</totfact>
</mgrwt>
</event>
<event>
12    5  0.5428626E-008  0.1937675E+04  0.7818608E-02  0.8636327E-01
          1   -1    0    0  501    0  0.00000000000E+00  0.00000000000E+00  0.82387241190E+03  0.82387241190E+03  0.00000000000E+00 0. -1.
         -2   -1    0    0    0  501 -0.00000000000E+00 -0.00000000000E+00 -0.11393102840E+04  0.11393102840E+04  0.00000000000E+00 0.  1.
        -24    2    1    2    0    0  0.19440759304E+03  0.54254607392E+03  0.37741656298E+03  0.69357794092E+03  0.80352620145E+02 0.  0.
        254    2    1    2    0    0 -0.19440759304E+03 -0.54254607392E+03 -0.69285443513E+03  0.12696047550E+04  0.89425858182E+03 0.  0.
         23    2    4    4    0    0  0.26336679870E+03 -0.49950092498E+03 -0.24542620942E+03  0.62146169869E+03  0.84364530185E+02 0.  0.
         23    2    4    4    0    0 -0.45777439174E+03 -0.43045148936E+02 -0.44742822571E+03  0.64814305634E+03  0.92125597598E+02 0.  0.
          3    1    3    3  502    0  0.19024109829E+03  0.47821619505E+03  0.31260930256E+03  0.60216856506E+03  0.00000000000E+00 0. -1.
         -4    1    3    3    0  502  0.41664947429E+01  0.64329878863E+02  0.64807260416E+02  0.91409375863E+02  0.00000000000E+00 0.  1.
         13    1    5    5    0    0  0.11971555709E+03 -0.14279552466E+03 -0.75779406839E+02  0.20115887992E+03  0.00000000000E+00 0. -1.
        -13    1    5    5    0    0  0.14365124161E+03 -0.35670540032E+03 -0.16964680258E+03  0.42030281877E+03  0.00000000000E+00 0.  1.
          4    1    6    6  503    0 -0.16409927095E+03 -0.58370971025E+02 -0.14965678188E+03  0.22963643733E+03  0.00000000000E+00 0. -1.
         -4    1    6    6    0  503 -0.29367512079E+03  0.15325822089E+02 -0.29777144383E+03  0.41850661901E+03  0.00000000000E+00 0.  1.
<mgrwt>
<rscale>  0 0.19376752E+04</rscale>
<asrwt>0</asrwt>
<pdfrwt beam="1">  1        1 0.12674960E+00 0.19376752E+04</pdfrwt>
<pdfrwt beam="2">  1       -2 0.17527850E+00 0.19376752E+04</pdfrwt>
<totfact> 0.33679911E+00</totfact>
</mgrwt>
</event>
<event>
12    5  0.5428626E-008  0.1431235E+04  0.7818608E-02  0.8931514E-01
          1   -1    0    0  501    0  0.00000000000E+00  0.00000000000E+00  0.76785373551E+03  0.76785373551E+03  0.00000000000E+00 0. -1.
         -2   -1    0    0    0  501 -0.00000000000E+00 -0.00000000000E+00 -0.66693498869E+03  0.66693498869E+03  0.00000000000E+00 0.  1.
        -24    2    1    2    0    0  0.37553764315E+03 -0.19268809091E+03 -0.25645116610E+02  0.43031352522E+03  0.79717226390E+02 0.  0.
        254    2    1    2    0    0 -0.37553764315E+03  0.19268809091E+03  0.12656386343E+03  0.10044751990E+04  0.90265984294E+03 0.  0.
         23    2    4    4    0    0  0.19909298935E+03  0.15662345270E+03  0.29336681907E+03  0.39829737078E+03  0.91693951207E+02 0.  0.
         23    2    4    4    0    0 -0.57463063250E+03  0.36064638203E+02 -0.16680295564E+03  0.60617782821E+03  0.90151602686E+02 0.  0.
          3    1    3    3  502    0  0.29151093359E+03 -0.12989346140E+03  0.10636096070E+02  0.31931812077E+03  0.00000000000E+00 0. -1.
         -4    1    3    3    0  502  0.84026709558E+02 -0.62794629507E+02 -0.36281212680E+02  0.11099540444E+03  0.00000000000E+00 0.  1.
         13    1    5    5    0    0  0.93102052215E+02  0.34788690250E+02  0.65578553262E+02  0.11907473176E+03  0.00000000000E+00 0. -1.
        -13    1    5    5    0    0  0.10599093714E+03  0.12183476245E+03  0.22778826581E+03  0.27922263902E+03  0.00000000000E+00 0.  1.
          4    1    6    6  503    0 -0.31639700838E+03  0.63806082429E+02 -0.10192968381E+03  0.33847886716E+03  0.00000000000E+00 0. -1.
         -4    1    6    6    0  503 -0.25823362411E+03 -0.27741444226E+02 -0.64873271836E+02  0.26769896105E+03  0.00000000000E+00 0.  1.
<mgrwt>
<rscale>  0 0.14312352E+04</rscale>
<asrwt>0</asrwt>
<pdfrwt beam="1">  1        1 0.11813134E+00 0.14312352E+04</pdfrwt>
<pdfrwt beam="2">  1       -2 0.10260538E+00 0.14312352E+04</pdfrwt>
<totfact> 0.15623137E+01</totfact>
</mgrwt>
</event>
<event>
12    5  0.5428626E-008  0.1863096E+04  0.7818608E-02  0.8673447E-01
          1   -1    0    0  501    0  0.00000000000E+00  0.00000000000E+00  0.92009164846E+03  0.92009164846E+03  0.00000000000E+00 0. -1.
         -2   -1    0    0    0  501 -0.00000000000E+00 -0.00000000000E+00 -0.94314702061E+03  0.94314702061E+03  0.00000000000E+00 0.  1.
        -24    2    1    2    0    0  0.47125769925E+03 -0.33610218132E+03 -0.42122039065E+03  0.72020180173E+03  0.78838584076E+02 0.  0.
        254    2    1    2    0    0 -0.47125769925E+03  0.33610218132E+03  0.39816501850E+03  0.11430368673E+04  0.90163706819E+03 0.  0.
         23    2    4    4    0    0 -0.44828806267E+03  0.39859094472E+03 -0.11373863068E+03  0.61694929691E+03  0.88617326160E+02 0.  0.
         23    2    4    4    0    0 -0.22969636573E+02 -0.62488763404E+02  0.51190364918E+03  0.52608757042E+03  0.10144129314E+03 0.  0.
          1    1    3    3  502    0  0.67532132741E+02 -0.85551732709E+02 -0.81528177621E+02  0.13611220250E+03  0.00000000000E+00 0. -1.
         -2    1    3    3    0  502  0.40372556650E+03 -0.25055044861E+03 -0.33969221303E+03  0.58408959924E+03  0.00000000000E+00 0.  1.
         13    1    5    5    0    0 -0.16155068599E+03  0.11799077623E+03 -0.38515843261E+00  0.20005148279E+03  0.00000000000E+00 0. -1.
        -13    1    5    5    0    0 -0.28673737668E+03  0.28060016850E+03 -0.11335347225E+03  0.41689781412E+03  0.00000000000E+00 0.  1.
          4    1    6    6  503    0  0.10264186223E+02 -0.78500576766E+02  0.26932231667E+03  0.28071730323E+03  0.00000000000E+00 0. -1.
         -4    1    6    6    0  503 -0.33233822796E+02  0.16011813362E+02  0.24258133250E+03  0.24537026720E+03  0.00000000000E+00 0.  1.
<mgrwt>
<rscale>  0 0.18630960E+04</rscale>
<asrwt>0</asrwt>
<pdfrwt beam="1">  1        1 0.14155256E+00 0.18630960E+04</pdfrwt>
<pdfrwt beam="2">  1       -2 0.14509954E+00 0.18630960E+04</pdfrwt>
<totfact> 0.47132998E+00</totfact>
</mgrwt>
</event>
<event>
12    5  0.5428626E-008  0.1405705E+04  0.7818608E-02  0.8949699E-01
          1   -1    0    0  501    0  0.00000000000E+00  0.00000000000E+00  0.78970577663E+03  0.78970577663E+03  0.00000000000E+00 0. -1.
         -2   -1    0    0    0  501 -0.00000000000E+00 -0.00000000000E+00 -0.62555155763E+03  0.62555155763E+03  0.00000000000E+00 0.  1.
        -24    2    1    2    0    0  0.17470212638E+03 -0.34352528025E+03 -0.77872749357E+02  0.40160499002E+03  0.81804350657E+02 0.  0.
        254    2    1    2    0    0 -0.17470212638E+03  0.34352528025E+03  0.24202696836E+03  0.10136523442E+04  0.90575028040E+03 0.  0.
         23    2    4    4    0    0  0.20742332872E+03 -0.92763936021E+02 -0.16891515282E+03  0.29726428567E+03  0.90576716425E+02 0.  0.
         23    2    4    4    0    0 -0.38212545510E+03  0.43628921627E+03  0.41094212118E+03  0.71638805857E+03  0.89276423769E+02 0.  0.
          1    1    3    3  502    0  0.62735698481E+01 -0.11865791208E+02  0.13004401341E+02  0.18688743507E+02  0.00000000000E+00 0. -1.
         -2    1    3    3    0  502  0.16842855653E+03 -0.33165948904E+03 -0.90877150698E+02  0.38291624651E+03  0.00000000000E+00 0.  1.
         13    1    5    5    0    0  0.12202167695E+03 -0.24843969389E+02 -0.13345761856E+03  0.18253067800E+03  0.00000000000E+00 0. -1.
        -13    1    5    5    0    0  0.85401651772E+02 -0.67919966632E+02 -0.35457534265E+02  0.11473360767E+03  0.00000000000E+00 0.  1.
          1    1    6    6  503    0 -0.37695381758E+03  0.44020104479E+03  0.40982470774E+03  0.70980802440E+03  0.00000000000E+00 0. -1.
         -1    1    6    6    0  503 -0.51716375126E+01 -0.39118285220E+01  0.11174134402E+01  0.65800341750E+01  0.00000000000E+00 0.  1.
<mgrwt>
<rscale>  0 0.14057051E+04</rscale>
<asrwt>0</asrwt>
<pdfrwt beam="1">  1        1 0.12149320E+00 0.14057051E+04</pdfrwt>
<pdfrwt beam="2">  1       -2 0.96238701E-01 0.14057051E+04</pdfrwt>
<totfact> 0.17426803E+01</totfact>
</mgrwt>
</event>
<event>
12    5  0.5428626E-008  0.2238699E+04  0.7818608E-02  0.8502491E-01
          1   -1    0    0  501    0  0.00000000000E+00  0.00000000000E+00  0.30575583201E+04  0.30575583201E+04  0.00000000000E+00 0. -1.
         -2   -1    0    0    0  501 -0.00000000000E+00 -0.00000000000E+00 -0.40978562213E+03  0.40978562213E+03  0.00000000000E+00 0.  1.
        -24    2    1    2    0    0 -0.89282118579E+03 -0.27693596237E+03  0.12747987212E+04  0.15825328582E+04  0.73995070819E+02 0.  0.
        254    2    1    2    0    0  0.89282118579E+03  0.27693596237E+03  0.13729739767E+04  0.18848110840E+04  0.89086030596E+03 0.  0.
         23    2    4    4    0    0  0.83114435026E+03  0.54620596894E+03  0.10904492582E+04  0.14788530488E+04  0.93727604552E+02 0.  0.
         23    2    4    4    0    0  0.61676835531E+02 -0.26927000658E+03  0.28252471853E+03  0.40595803522E+03  0.93120037034E+02 0.  0.
          1    1    3    3  502    0 -0.18096798017E+03 -0.76065283430E+02  0.22933254920E+03  0.30187539700E+03  0.00000000000E+00 0. -1.
         -2    1    3    3    0  502 -0.71185320561E+03 -0.20087067894E+03  0.10454661720E+04  0.12806574612E+04  0.00000000000E+00 0.  1.
         13    1    5    5    0    0  0.15822934819E+03  0.14999032990E+03  0.24368847916E+03  0.32698272213E+03  0.00000000000E+00 0.  1.
        -13    1    5    5    0    0  0.67291500206E+03  0.39621563904E+03  0.84676077902E+03  0.11518703267E+04  0.00000000000E+00 0. -1.
          1    1    6    6  503    0  0.84132752122E+02 -0.20180957919E+03  0.19305233260E+03  0.29167555495E+03  0.00000000000E+00 0. -1.
         -1    1    6    6    0  503 -0.22455916591E+02 -0.67460427381E+02  0.89472385925E+02  0.11428248026E+03  0.00000000000E+00 0.  1.
<mgrwt>
<rscale>  0 0.22386991E+04</rscale>
<asrwt>0</asrwt>
<pdfrwt beam="1">  1        1 0.47039357E+00 0.22386991E+04</pdfrwt>
<pdfrwt beam="2">  1       -2 0.63043944E-01 0.22386991E+04</pdfrwt>
<totfact> 0.10106791E+00</totfact>
</mgrwt>
</event>
<event>
12    5  0.5428626E-008  0.2145758E+04  0.7818608E-02  0.8541350E-01
          1   -1    0    0  501    0  0.00000000000E+00  0.00000000000E+00  0.23872458998E+04  0.23872458998E+04  0.00000000000E+00 0. -1.
         -2   -1    0    0    0  501 -0.00000000000E+00 -0.00000000000E+00 -0.48217448481E+03  0.48217448481E+03  0.00000000000E+00 0.  1.
        -24    2    1    2    0    0  0.65615563988E+03 -0.23587280750E+03  0.15071311804E+04  0.16625168438E+04  0.79634515236E+02 0.  0.
        254    2    1    2    0    0 -0.65615563988E+03  0.23587280750E+03  0.39794023461E+03  0.12069035408E+04  0.90115676850E+03 0.  0.
         23    2    4    4    0    0 -0.35490130472E+03  0.53974495425E+03  0.40742144649E+03  0.76910712962E+03  0.90851472405E+02 0.  0.
         23    2    4    4    0    0 -0.30125433516E+03 -0.30387214675E+03 -0.94812118826E+01  0.43779641118E+03  0.92105093461E+02 0.  0.
          3    1    3    3  502    0  0.49416462514E+03 -0.20247490064E+03  0.12060478957E+04  0.13189944234E+04  0.00000000000E+00 0. -1.
         -4    1    3    3    0  502  0.16199101474E+03 -0.33397906869E+02  0.30108328465E+03  0.34352242043E+03  0.00000000000E+00 0.  1.
         13    1    5    5    0    0 -0.14511286693E+03  0.20634305669E+03  0.10844628296E+03  0.27458295191E+03  0.00000000000E+00 0. -1.
        -13    1    5    5    0    0 -0.20978843780E+03  0.33340189756E+03  0.29897516354E+03  0.49452417771E+03  0.00000000000E+00 0.  1.
          1    1    6    6  503    0 -0.12664939530E+03 -0.14720142997E+03  0.39460742665E+02  0.19815519304E+03  0.00000000000E+00 0. -1.
         -1    1    6    6    0  503 -0.17460493985E+03 -0.15667071678E+03 -0.48941954548E+02  0.23964121814E+03  0.00000000000E+00 0.  1.
<mgrwt>
<rscale>  0 0.21457577E+04</rscale>
<asrwt>0</asrwt>
<pdfrwt beam="1">  1        1 0.36726859E+00 0.21457577E+04</pdfrwt>
<pdfrwt beam="2">  1       -2 0.74180691E-01 0.21457577E+04</pdfrwt>
<totfact> 0.21349808E+00</totfact>
</mgrwt>
</event>
<event>
12    5  0.5428626E-008  0.2684370E+04  0.7818608E-02  0.8340094E-01
          1   -1    0    0  501    0  0.00000000000E+00  0.00000000000E+00  0.24897896236E+04  0.24897896236E+04  0.00000000000E+00 0. -1.
         -2   -1    0    0    0  501 -0.00000000000E+00 -0.00000000000E+00 -0.72353906547E+03  0.72353906547E+03  0.00000000000E+00 0.  1.
        -24    2    1    2    0    0  0.31597609528E+03 -0.77883048229E+03 -0.22516981318E+03  0.87371614595E+03  0.79124244003E+02 0.  0.
        254    2    1    2    0    0 -0.31597609528E+03  0.77883048229E+03  0.19914203713E+04  0.23396125432E+04  0.89532895845E+03 0.  0.
         23    2    4    4    0    0 -0.21542272924E+03  0.87102495704E+03  0.10512694523E+04  0.13851966275E+04  0.92254037526E+02 0.  0.
         23    2    4    4    0    0 -0.10055336605E+03 -0.92194474747E+02  0.94015091908E+03  0.95441591570E+03  0.91734338738E+02 0.  0.
          1    1    3    3  502    0  0.16414172862E+03 -0.50606988391E+03 -0.14030387945E+03  0.55021306151E+03  0.00000000000E+00 0. -1.
         -2    1    3    3    0  502  0.15183436667E+03 -0.27276059838E+03 -0.84865933730E+02  0.32350308443E+03  0.00000000000E+00 0.  1.
         13    1    5    5    0    0 -0.30551115121E+02  0.30230207820E+03  0.36581020284E+03  0.47553866470E+03  0.00000000000E+00 0. -1.
        -13    1    5    5    0    0 -0.18487161412E+03  0.56872287884E+03  0.68545924943E+03  0.90965796278E+03  0.00000000000E+00 0.  1.
          1    1    6    6  503    0 -0.67552288003E+02 -0.85658434574E+02  0.44701458587E+03  0.46013337089E+03  0.00000000000E+00 0. -1.
         -1    1    6    6    0  503 -0.33001078042E+02 -0.65360401735E+01  0.49313633321E+03  0.49428254481E+03  0.00000000000E+00 0.  1.
<mgrwt>
<rscale>  0 0.26843696E+04</rscale>
<asrwt>0</asrwt>
<pdfrwt beam="1">  1        1 0.38304455E+00 0.26843696E+04</pdfrwt>
<pdfrwt beam="2">  1       -2 0.11131370E+00 0.26843696E+04</pdfrwt>
<totfact> 0.67565151E-01</totfact>
</mgrwt>
</event>
<event>
12    5  0.5428626E-008  0.1836023E+04  0.7818608E-02  0.8687374E-01
         -2   -1    0    0    0  501 -0.00000000000E+00  0.00000000000E+00  0.37351459232E+03  0.37351459232E+03  0.00000000000E+00 0.  1.
          1   -1    0    0  501    0  0.00000000000E+00 -0.00000000000E+00 -0.22562564605E+04  0.22562564605E+04  0.00000000000E+00 0. -1.
        -24    2    1    2    0    0 -0.48644173710E+03  0.40263812918E+03 -0.27180750659E+03  0.69224742965E+03  0.81142815785E+02 0.  0.
        254    2    1    2    0    0  0.48644173710E+03 -0.40263812918E+03 -0.16109343616E+04  0.19375236232E+04  0.87186308924E+03 0.  0.
         23    2    4    4    0    0 -0.19356921944E+03 -0.25065165853E+03 -0.27898979869E+03  0.43170240259E+03  0.90754393763E+02 0.  0.
         23    2    4    4    0    0  0.68001095654E+03 -0.15198647064E+03 -0.13319445629E+04  0.15058212206E+04  0.88918172906E+02 0.  0.
          3    1    3    3  502    0 -0.11680210158E+02  0.38328261281E+01  0.49458981906E+01  0.13250651848E+02  0.00000000000E+00 0. -1.
         -2    1    3    3    0  502 -0.47476152695E+03  0.39880530305E+03 -0.27675340478E+03  0.67899677780E+03  0.00000000000E+00 0.  1.
         13    1    5    5    0    0 -0.18850210334E+03 -0.22451310049E+03 -0.27954203055E+03  0.40507150245E+03  0.00000000000E+00 0. -1.
        -13    1    5    5    0    0 -0.50671160967E+01 -0.26138558042E+02  0.55223185569E+00  0.26630900136E+02  0.00000000000E+00 0.  1.
          3    1    6    6  503    0  0.65860766153E+03 -0.15194147135E+03 -0.12489913290E+04  0.14201512604E+04  0.00000000000E+00 0. -1.
         -3    1    6    6    0  503  0.21403295018E+02 -0.44999292695E-01 -0.82953233917E+02  0.85669960196E+02  0.00000000000E+00 0.  1.
<mgrwt>
<rscale>  0 0.18360226E+04</rscale>
<asrwt>0</asrwt>
<pdfrwt beam="1">  1        1 0.34711638E+00 0.18360226E+04</pdfrwt>
<pdfrwt beam="2">  1       -2 0.57463784E-01 0.18360226E+04</pdfrwt>
<totfact> 0.46752515E+00</totfact>
</mgrwt>
</event>
<event>
12    5  0.5428626E-008  0.2280732E+04  0.7818608E-02  0.8485557E-01
         -2   -1    0    0    0  501 -0.00000000000E+00  0.00000000000E+00  0.11012379070E+04  0.11012379070E+04  0.00000000000E+00 0.  1.
          1   -1    0    0  501    0  0.00000000000E+00 -0.00000000000E+00 -0.11808848524E+04  0.11808848524E+04  0.00000000000E+00 0. -1.
        -24    2    1    2    0    0  0.64729811972E+03 -0.27386980854E+03 -0.68923757320E+03  0.98767023533E+03  0.80277852647E+02 0.  0.
        254    2    1    2    0    0 -0.64729811972E+03  0.27386980854E+03  0.60959062781E+03  0.12944525241E+04  0.90000393099E+03 0.  0.
         23    2    4    4    0    0 -0.28181399461E+03  0.18326248204E+03 -0.19629221675E+03  0.40019270536E+03  0.92840197032E+02 0.  0.
         23    2    4    4    0    0 -0.36548412510E+03  0.90607326506E+02  0.80588284456E+03  0.89425981873E+03  0.92006146091E+02 0.  0.
          3    1    3    3  502    0  0.57062301239E+03 -0.21187024720E+03 -0.59958164836E+03  0.85439907360E+03  0.00000000000E+00 0. -1.
         -4    1    3    3    0  502  0.76675107329E+02 -0.61999561339E+02 -0.89655924837E+02  0.13327116173E+03  0.00000000000E+00 0.  1.
         13    1    5    5    0    0 -0.17975691280E+02  0.31107516250E+02  0.32569447972E+01  0.36075070806E+02  0.00000000000E+00 0. -1.
        -13    1    5    5    0    0 -0.26383830333E+03  0.15215496579E+03 -0.19954916155E+03  0.36411763456E+03  0.00000000000E+00 0.  1.
          3    1    6    6  503    0 -0.26325097784E+02 -0.11372817888E+02  0.10683282872E+03  0.11061466925E+03  0.00000000000E+00 0. -1.
         -3    1    6    6    0  503 -0.33915902732E+03  0.10198014439E+03  0.69905001584E+03  0.78364514948E+03  0.00000000000E+00 0.  1.
<mgrwt>
<rscale>  0 0.22807325E+04</rscale>
<asrwt>0</asrwt>
<pdfrwt beam="1">  1        1 0.18167459E+00 0.22807325E+04</pdfrwt>
<pdfrwt beam="2">  1       -2 0.16942122E+00 0.22807325E+04</pdfrwt>
<totfact> 0.18861506E+00</totfact>
</mgrwt>
</event>
<event>
12    5  0.5428626E-008  0.2682785E+04  0.7818608E-02  0.8340612E-01
          1   -1    0    0  501    0  0.00000000000E+00  0.00000000000E+00  0.19906631257E+04  0.19906631257E+04  0.00000000000E+00 0. -1.
         -2   -1    0    0    0  501 -0.00000000000E+00 -0.00000000000E+00 -0.90388679869E+03  0.90388679869E+03  0.00000000000E+00 0.  1.
        -24    2    1    2    0    0  0.58448240628E+03  0.57812472887E+03 -0.44520605540E+03  0.93831241364E+03  0.79836510705E+02 0.  0.
        254    2    1    2    0    0 -0.58448240628E+03 -0.57812472887E+03  0.15319823825E+04  0.19562375108E+04  0.89668684225E+03 0.  0.
         23    2    4    4    0    0 -0.18225201833E+03  0.20074889470E+03  0.64273612543E+03  0.70424682107E+03  0.96633023089E+02 0.  0.
         23    2    4    4    0    0 -0.40223038795E+03 -0.77887362357E+03  0.88924625703E+03  0.12519906897E+04  0.91040512979E+02 0.  0.
          1    1    3    3  502    0  0.13010233268E+02  0.31663371481E+01 -0.16601808474E+02  0.21328663934E+02  0.00000000000E+00 0. -1.
         -2    1    3    3    0  502  0.57147217302E+03  0.57495839173E+03 -0.42860424693E+03  0.91698374971E+03  0.00000000000E+00 0.  1.
         13    1    5    5    0    0 -0.15196309575E+03  0.20685661350E+03  0.58264804380E+03  0.63667981274E+03  0.00000000000E+00 0.  1.
        -13    1    5    5    0    0 -0.30288922587E+02 -0.61077187959E+01  0.60088081630E+02  0.67567008327E+02  0.00000000000E+00 0. -1.
          4    1    6    6  503    0 -0.22844236382E+03 -0.39072019140E+03  0.51353209288E+03  0.68451690408E+03  0.00000000000E+00 0. -1.
         -4    1    6    6    0  503 -0.17378802413E+03 -0.38815343217E+03  0.37571416415E+03  0.56747378563E+03  0.00000000000E+00 0.  1.
<mgrwt>
<rscale>  0 0.26827852E+04</rscale>
<asrwt>0</asrwt>
<pdfrwt beam="1">  1        1 0.30625586E+00 0.26827852E+04</pdfrwt>
<pdfrwt beam="2">  1       -2 0.13905951E+00 0.26827852E+04</pdfrwt>
<totfact> 0.84941776E-01</totfact>
</mgrwt>
</event>
<event>
12    5  0.5428626E-008  0.4219237E+04  0.7818608E-02  0.7961723E-01
         -2   -1    0    0    0  501 -0.00000000000E+00  0.00000000000E+00  0.17770409417E+04  0.17770409417E+04  0.00000000000E+00 0.  1.
          1   -1    0    0  501    0  0.00000000000E+00 -0.00000000000E+00 -0.25044391602E+04  0.25044391602E+04  0.00000000000E+00 0. -1.
        -24    2    1    2    0    0  0.18307298648E+04 -0.55360013578E+03 -0.98999576566E+03  0.21548099870E+04  0.71200532643E+02 0.  0.
        254    2    1    2    0    0 -0.18307298648E+04  0.55360013578E+03  0.26259754715E+03  0.21266701148E+04  0.89203327153E+03 0.  0.
         23    2    4    4    0    0 -0.16732809111E+04  0.70528438787E+03  0.38358099886E+03  0.18580841953E+04  0.89707406968E+02 0.  0.
         23    2    4    4    0    0 -0.15744895368E+03 -0.15168425209E+03 -0.12098345171E+03  0.26858591957E+03  0.98504392063E+02 0.  0.
          3    1    3    3  502    0  0.17620918256E+04 -0.54370570394E+03 -0.96319818993E+03  0.20804649114E+04  0.00000000000E+00 0. -1.
         -4    1    3    3    0  502  0.68638039146E+02 -0.98944318336E+01 -0.26797575736E+02  0.74345075590E+02  0.00000000000E+00 0.  1.
         13    1    5    5    0    0 -0.13291053357E+04  0.52194778040E+03  0.29050023588E+03  0.14571687843E+04  0.00000000000E+00 0.  1.
        -13    1    5    5    0    0 -0.34417557537E+03  0.18333660747E+03  0.93080762978E+02  0.40091541098E+03  0.00000000000E+00 0. -1.
          2    1    6    6  503    0 -0.53736163491E+02  0.14999401080E+01 -0.38018232805E+02  0.65842320074E+02  0.00000000000E+00 0. -1.
         -2    1    6    6    0  503 -0.10371279019E+03 -0.15318419220E+03 -0.82965218907E+02  0.20274359950E+03  0.00000000000E+00 0.  1.
<mgrwt>
<rscale>  0 0.42192373E+04</rscale>
<asrwt>0</asrwt>
<pdfrwt beam="1">  1        1 0.38529833E+00 0.42192373E+04</pdfrwt>
<pdfrwt beam="2">  1       -2 0.27339092E+00 0.42192373E+04</pdfrwt>
<totfact> 0.42039278E-02</totfact>
</mgrwt>
</event>
<event>
12    5  0.5428626E-008  0.1867095E+04  0.7818608E-02  0.8671411E-01
         -2   -1    0    0    0  501 -0.00000000000E+00  0.00000000000E+00  0.11369534595E+04  0.11369534595E+04  0.00000000000E+00 0.  1.
          1   -1    0    0  501    0  0.00000000000E+00 -0.00000000000E+00 -0.76653176406E+03  0.76653176406E+03  0.00000000000E+00 0. -1.
        -24    2    1    2    0    0  0.32094980661E+03 -0.37306828224E+03 -0.38308708257E+03  0.62886257678E+03  0.80769462451E+02 0.  0.
        254    2    1    2    0    0 -0.32094980661E+03  0.37306828224E+03  0.75350877806E+03  0.12746226468E+04  0.90260660955E+03 0.  0.
         23    2    4    4    0    0 -0.39305648632E+03 -0.71490942988E+02  0.70112714160E+03  0.81212850894E+03  0.91482730520E+02 0.  0.
         23    2    4    4    0    0  0.72106679706E+02  0.44455922523E+03  0.52381636469E+02  0.46249413789E+03  0.91239869256E+02 0.  0.
          1    1    3    3  502    0  0.18163228449E+03 -0.20591346822E+03 -0.26354742168E+03  0.38058886825E+03  0.00000000000E+00 0. -1.
         -2    1    3    3    0  502  0.13931752212E+03 -0.16715481402E+03 -0.11953966089E+03  0.24827370853E+03  0.00000000000E+00 0.  1.
         13    1    5    5    0    0 -0.38625509048E+03 -0.84234947358E+02  0.67359746229E+03  0.78103909152E+03  0.00000000000E+00 0.  1.
        -13    1    5    5    0    0 -0.68013958329E+01  0.12744004370E+02  0.27529679306E+02  0.31089417417E+02  0.00000000000E+00 0. -1.
          2    1    6    6  503    0 -0.30447761998E+01  0.12046683807E+03  0.48169283799E+02  0.12977599793E+03  0.00000000000E+00 0. -1.
         -2    1    6    6    0  503  0.75151455906E+02  0.32409238716E+03  0.42123526696E+01  0.33271813995E+03  0.00000000000E+00 0.  1.
<mgrwt>
<rscale>  0 0.18670950E+04</rscale>
<asrwt>0</asrwt>
<pdfrwt beam="1">  1        1 0.11792796E+00 0.18670950E+04</pdfrwt>
<pdfrwt beam="2">  1       -2 0.17491592E+00 0.18670950E+04</pdfrwt>
<totfact> 0.38251081E+00</totfact>
</mgrwt>
</event>
<event>
12    5  0.5428626E-008  0.2230167E+04  0.7818608E-02  0.8505976E-01
          1   -1    0    0  501    0  0.00000000000E+00  0.00000000000E+00  0.10120151966E+04  0.10120151966E+04  0.00000000000E+00 0. -1.
         -2   -1    0    0    0  501 -0.00000000000E+00 -0.00000000000E+00 -0.12286485599E+04  0.12286485599E+04  0.00000000000E+00 0.  1.
        -24    2    1    2    0    0 -0.71134231384E+03 -0.26530768671E+03 -0.63098414914E+03  0.99020171013E+03  0.77216411415E+02 0.  0.
        254    2    1    2    0    0  0.71134231384E+03  0.26530768671E+03  0.41435078583E+03  0.12504620463E+04  0.90309063745E+03 0.  0.
         23    2    4    4    0    0  0.73671540853E+03  0.43571228343E+03  0.81416206690E+02  0.86442452668E+03  0.89478357839E+02 0.  0.
         23    2    4    4    0    0 -0.25373094695E+02 -0.17040459672E+03  0.33293457914E+03  0.38603751962E+03  0.92184662777E+02 0.  0.
          1    1    3    3  502    0 -0.18144004597E+03 -0.95225043469E+02 -0.19962779945E+03  0.28607613934E+03  0.00000000000E+00 0. -1.
         -2    1    3    3    0  502 -0.52990226787E+03 -0.17008264324E+03 -0.43135634969E+03  0.70412557079E+03  0.00000000000E+00 0.  1.
         13    1    5    5    0    0  0.32904982093E+03  0.14494202465E+03  0.45019615751E+02  0.36236547982E+03  0.00000000000E+00 0.  1.
        -13    1    5    5    0    0  0.40766558761E+03  0.29077025878E+03  0.36396590938E+02  0.50205904687E+03  0.00000000000E+00 0. -1.
          4    1    6    6  503    0  0.27577606319E+02 -0.94734675722E+02  0.13114022657E+03  0.16411258994E+03  0.00000000000E+00 0. -1.
         -4    1    6    6    0  503 -0.52950701014E+02 -0.75669920998E+02  0.20179435257E+03  0.22192492968E+03  0.00000000000E+00 0.  1.
<mgrwt>
<rscale>  0 0.22301668E+04</rscale>
<asrwt>0</asrwt>
<pdfrwt beam="1">  1        1 0.15569465E+00 0.22301668E+04</pdfrwt>
<pdfrwt beam="2">  1       -2 0.18902285E+00 0.22301668E+04</pdfrwt>
<totfact> 0.18576995E+00</totfact>
</mgrwt>
</event>
<event>
12    5  0.5428626E-008  0.1409596E+04  0.7818608E-02  0.8946902E-01
          1   -1    0    0  501    0  0.00000000000E+00  0.00000000000E+00  0.13980603887E+04  0.13980603887E+04  0.00000000000E+00 0. -1.
         -2   -1    0    0    0  501 -0.00000000000E+00 -0.00000000000E+00 -0.35530649468E+03  0.35530649468E+03  0.00000000000E+00 0.  1.
        -24    2    1    2    0    0 -0.24270705977E+03  0.14423932393E+03  0.69130862999E+03  0.75023869542E+03  0.72379408496E+02 0.  0.
        254    2    1    2    0    0  0.24270705977E+03 -0.14423932393E+03  0.35144526404E+03  0.10031281880E+04  0.89612537540E+03 0.  0.
         23    2    4    4    0    0  0.51331703382E+03 -0.28367838380E+03  0.34409577361E+03  0.68535834386E+03  0.85710882829E+02 0.  0.
         23    2    4    4    0    0 -0.27060997405E+03  0.13943905987E+03  0.73494904234E+01  0.31776984410E+03  0.90833085039E+02 0.  0.
          3    1    3    3  502    0 -0.18241360600E+03  0.11517752974E+03  0.43814265726E+03  0.48837442104E+03  0.00000000000E+00 0. -1.
         -4    1    3    3    0  502 -0.60293453763E+02  0.29061794190E+02  0.25316597273E+03  0.26186427438E+03  0.00000000000E+00 0.  1.
         13    1    5    5    0    0  0.10398752155E+03 -0.22532338460E+02  0.75632572008E+02  0.13054270130E+03  0.00000000000E+00 0.  1.
        -13    1    5    5    0    0  0.40932951228E+03 -0.26114604534E+03  0.26846320160E+03  0.55481564256E+03  0.00000000000E+00 0. -1.
          4    1    6    6  503    0 -0.18696442289E+03  0.12523690508E+03 -0.26161450218E+02  0.22654888942E+03  0.00000000000E+00 0. -1.
         -4    1    6    6    0  503 -0.83645551166E+02  0.14202154784E+02  0.33510940642E+02  0.91220954682E+02  0.00000000000E+00 0.  1.
<mgrwt>
<rscale>  0 0.14095956E+04</rscale>
<asrwt>0</asrwt>
<pdfrwt beam="1">  1        1 0.21508621E+00 0.14095956E+04</pdfrwt>
<pdfrwt beam="2">  1       -2 0.54662539E-01 0.14095956E+04</pdfrwt>
<totfact> 0.20745077E+01</totfact>
</mgrwt>
</event>
<event>
12    5  0.5428626E-008  0.1239953E+04  0.7818608E-02  0.9078587E-01
         -2   -1    0    0    0  501 -0.00000000000E+00  0.00000000000E+00  0.93790169607E+03  0.93790169607E+03  0.00000000000E+00 0.  1.
          1   -1    0    0  501    0  0.00000000000E+00 -0.00000000000E+00 -0.40981999896E+03  0.40981999896E+03  0.00000000000E+00 0. -1.
        -24    2    1    2    0    0  0.18876837696E+03 -0.19765008816E+02 -0.11143772323E+03  0.23407974262E+03  0.79691932045E+02 0.  0.
        254    2    1    2    0    0 -0.18876837696E+03  0.19765008816E+02  0.63951942034E+03  0.11136419524E+04  0.89173379069E+03 0.  0.
         23    2    4    4    0    0 -0.38932483011E+03  0.29686576628E+03  0.17407519174E+03  0.52761159232E+03  0.91480672466E+02 0.  0.
         23    2    4    4    0    0  0.20055645315E+03 -0.27710075747E+03  0.46544422860E+03  0.58603036009E+03  0.98921849559E+02 0.  0.
          3    1    3    3  502    0  0.17323126053E+03 -0.35265198044E+02 -0.76070150806E+02  0.19245615517E+03  0.00000000000E+00 0. -1.
         -4    1    3    3    0  502  0.15537116426E+02  0.15500189228E+02 -0.35367572428E+02  0.41623587453E+02  0.00000000000E+00 0.  1.
         13    1    5    5    0    0 -0.11994587402E+03  0.14630251387E+03  0.74787497688E+02  0.20343207237E+03  0.00000000000E+00 0. -1.
        -13    1    5    5    0    0 -0.26937895609E+03  0.15056325242E+03  0.99287694053E+02  0.32417951994E+03  0.00000000000E+00 0.  1.
          3    1    6    6  503    0 -0.97113792619E+01 -0.21890082438E+01  0.14058343946E+02  0.17226133599E+02  0.00000000000E+00 0. -1.
         -3    1    6    6    0  503  0.21026783242E+03 -0.27491174922E+03  0.45138588466E+03  0.56880422649E+03  0.00000000000E+00 0.  1.
<mgrwt>
<rscale>  0 0.12399530E+04</rscale>
<asrwt>0</asrwt>
<pdfrwt beam="1">  1        1 0.63049231E-01 0.12399530E+04</pdfrwt>
<pdfrwt beam="2">  1       -2 0.14429257E+00 0.12399530E+04</pdfrwt>
<totfact> 0.16609156E+01</totfact>
</mgrwt>
</event>
<event>
12    5  0.5428626E-008  0.2081232E+04  0.7818608E-02  0.8569556E-01
         -2   -1    0    0    0  501 -0.00000000000E+00  0.00000000000E+00  0.48528513152E+03  0.48528513152E+03  0.00000000000E+00 0.  1.
          1   -1    0    0  501    0  0.00000000000E+00 -0.00000000000E+00 -0.22314332593E+04  0.22314332593E+04  0.00000000000E+00 0. -1.
        -24    2    1    2    0    0 -0.38977136953E+01  0.25084140195E+03  0.34264614848E+03  0.43354288400E+03  0.87272264183E+02 0.  0.
        254    2    1    2    0    0  0.38977136953E+01 -0.25084140195E+03 -0.20887942762E+04  0.22831755068E+04  0.88706948167E+03 0.  0.
         23    2    4    4    0    0  0.21910772318E+03 -0.43679926793E+03 -0.67569659228E+03  0.83872062186E+03  0.89914414296E+02 0.  0.
         23    2    4    4    0    0 -0.21521000949E+03  0.18595786598E+03 -0.14130976839E+04  0.14444548849E+04  0.93322955942E+02 0.  0.
          1    1    3    3  502    0  0.22343055972E+02  0.12848265966E+02  0.40868218661E+02  0.48316678125E+02  0.00000000000E+00 0. -1.
         -2    1    3    3    0  502 -0.26240769667E+02  0.23799313598E+03  0.30177792982E+03  0.38522620587E+03  0.00000000000E+00 0.  1.
         13    1    5    5    0    0  0.18982670811E+03 -0.28716827646E+03 -0.47830293913E+03  0.58929915976E+03  0.00000000000E+00 0. -1.
        -13    1    5    5    0    0  0.29281015069E+02 -0.14963099147E+03 -0.19739365315E+03  0.24942146210E+03  0.00000000000E+00 0.  1.
          2    1    6    6  503    0 -0.20079291879E+03  0.14623394643E+03 -0.13042109647E+04  0.13276552277E+04  0.00000000000E+00 0. -1.
         -2    1    6    6    0  503 -0.14417090701E+02  0.39723919549E+02 -0.10888671927E+03  0.11679965720E+03  0.00000000000E+00 0.  1.
<mgrwt>
<rscale>  0 0.20812317E+04</rscale>
<asrwt>0</asrwt>
<pdfrwt beam="1">  1        1 0.34329742E+00 0.20812317E+04</pdfrwt>
<pdfrwt beam="2">  1       -2 0.74659252E-01 0.20812317E+04</pdfrwt>
<totfact> 0.27065713E+00</totfact>
</mgrwt>
</event>
<event>
12    5  0.5428626E-008  0.1327242E+04  0.7818608E-02  0.9008237E-01
         -2   -1    0    0    0  501 -0.00000000000E+00  0.00000000000E+00  0.20352008331E+03  0.20352008331E+03  0.00000000000E+00 0.  1.
          1   -1    0    0  501    0  0.00000000000E+00 -0.00000000000E+00 -0.21638794048E+04  0.21638794048E+04  0.00000000000E+00 0. -1.
        -24    2    1    2    0    0  0.22113189245E+03 -0.18482685139E+03 -0.84416705197E+03  0.89553492625E+03  0.79400967555E+02 0.  0.
        254    2    1    2    0    0 -0.22113189245E+03  0.18482685139E+03 -0.11161922695E+04  0.14718645619E+04  0.91511738433E+03 0.  0.
         23    2    4    4    0    0  0.30848627256E+03  0.24718955763E+03 -0.59874267744E+03  0.72321048436E+03  0.90962372075E+02 0.  0.
         23    2    4    4    0    0 -0.52961816501E+03 -0.62362706249E+02 -0.51744959208E+03  0.74865407752E+03  0.91347356780E+02 0.  0.
          3    1    3    3  502    0  0.17344946385E+03 -0.10344210380E+03 -0.51706935926E+03  0.55510873496E+03  0.00000000000E+00 0. -1.
         -4    1    3    3    0  502  0.47682428606E+02 -0.81384747588E+02 -0.32709769271E+03  0.34042619129E+03  0.00000000000E+00 0.  1.
         13    1    5    5    0    0  0.90983194977E+02  0.24466076966E+02 -0.14636005536E+03  0.17406262234E+03  0.00000000000E+00 0. -1.
        -13    1    5    5    0    0  0.21750307758E+03  0.22272348067E+03 -0.45238262208E+03  0.54914786202E+03  0.00000000000E+00 0.  1.
          3    1    6    6  503    0 -0.50828872125E+02 -0.10357032189E+02 -0.94002684986E+02  0.10736548394E+03  0.00000000000E+00 0. -1.
         -3    1    6    6    0  503 -0.47878929289E+03 -0.52005674060E+02 -0.42344690710E+03  0.64128859357E+03  0.00000000000E+00 0.  1.
<mgrwt>
<rscale>  0 0.13272421E+04</rscale>
<asrwt>0</asrwt>
<pdfrwt beam="1">  1        1 0.33290454E+00 0.13272421E+04</pdfrwt>
<pdfrwt beam="2">  1       -2 0.31310781E-01 0.13272421E+04</pdfrwt>
<totfact> 0.18822292E+01</totfact>
</mgrwt>
</event>
<event>
12    5  0.5428626E-008  0.1665369E+04  0.7818608E-02  0.8781366E-01
          1   -1    0    0  501    0  0.00000000000E+00  0.00000000000E+00  0.17267843973E+04  0.17267843973E+04  0.00000000000E+00 0. -1.
         -2   -1    0    0    0  501 -0.00000000000E+00 -0.00000000000E+00 -0.40153424875E+03  0.40153424875E+03  0.00000000000E+00 0.  1.
        -24    2    1    2    0    0 -0.63089581295E+02 -0.54219844859E+03  0.20083358299E+03  0.58715695175E+03  0.80372290098E+02 0.  0.
        254    2    1    2    0    0  0.63089581295E+02  0.54219844859E+03  0.11244165655E+04  0.15411616943E+04  0.90161372114E+03 0.  0.
         23    2    4    4    0    0 -0.19558961526E+03 -0.10348031545E+03  0.29890530738E+02  0.24120990739E+03  0.91243094604E+02 0.  0.
         23    2    4    4    0    0  0.25867919655E+03  0.64567876404E+03  0.10945260348E+04  0.12999517869E+04  0.89841050399E+02 0.  0.
          3    1    3    3  502    0 -0.39380766721E+02 -0.35011169257E+03  0.88074559003E+02  0.36316135533E+03  0.00000000000E+00 0. -1.
         -4    1    3    3    0  502 -0.23708814574E+02 -0.19208675602E+03  0.11275902399E+03  0.22399559643E+03  0.00000000000E+00 0.  1.
         13    1    5    5    0    0 -0.12294634142E+03 -0.99321271865E+02  0.49907369492E+02  0.16574457289E+03  0.00000000000E+00 0.  1.
        -13    1    5    5    0    0 -0.72643273838E+02 -0.41590435886E+01 -0.20016838754E+02  0.75465334500E+02  0.00000000000E+00 0. -1.
          1    1    6    6  503    0  0.22012591279E+03  0.60440829356E+03  0.10282801154E+04  0.12128993357E+04  0.00000000000E+00 0. -1.
         -1    1    6    6    0  503  0.38553283758E+02  0.41270470479E+02  0.66245919377E+02  0.87052451178E+02  0.00000000000E+00 0.  1.
<mgrwt>
<rscale>  0 0.16653685E+04</rscale>
<asrwt>0</asrwt>
<pdfrwt beam="1">  1        1 0.26565913E+00 0.16653685E+04</pdfrwt>
<pdfrwt beam="2">  1       -2 0.61774501E-01 0.16653685E+04</pdfrwt>
<totfact> 0.93194648E+00</totfact>
</mgrwt>
</event>
<event>
12    5  0.5428626E-008  0.1452672E+04  0.7818608E-02  0.8916550E-01
         -2   -1    0    0    0  501 -0.00000000000E+00  0.00000000000E+00  0.40705178435E+03  0.40705178435E+03  0.00000000000E+00 0.  1.
          1   -1    0    0  501    0  0.00000000000E+00 -0.00000000000E+00 -0.12960618262E+04  0.12960618262E+04  0.00000000000E+00 0. -1.
        -24    2    1    2    0    0 -0.35512654768E+03 -0.12583468886E+03 -0.65538303119E+03  0.76018222967E+03  0.80005443255E+02 0.  0.
        254    2    1    2    0    0  0.35512654768E+03  0.12583468886E+03 -0.23362701066E+03  0.94293138087E+03  0.83221918695E+03 0.  0.
         23    2    4    4    0    0  0.41514324044E+03  0.42141923344E+03 -0.14191787571E+03  0.61440809819E+03  0.86130989103E+02 0.  0.
         23    2    4    4    0    0 -0.60016692758E+02 -0.29558454458E+03 -0.91709134953E+02  0.32852328267E+03  0.92437846266E+02 0.  0.
          1    1    3    3  502    0 -0.15127744918E+03 -0.59819712388E+02 -0.36211042958E+03  0.39697257818E+03  0.00000000000E+00 0. -1.
         -4    1    3    3    0  502 -0.20384909850E+03 -0.66014976474E+02 -0.29327260161E+03  0.36320965149E+03  0.00000000000E+00 0.  1.
         13    1    5    5    0    0  0.84121459864E+01  0.16130168048E+02 -0.20715641752E+02  0.27569627029E+02  0.00000000000E+00 0. -1.
        -13    1    5    5    0    0  0.40673109445E+03  0.40528906539E+03 -0.12120223396E+03  0.58683847116E+03  0.00000000000E+00 0.  1.
          2    1    6    6  503    0 -0.30206190760E+02 -0.31901668814E+02  0.87234778715E+01  0.44790953322E+02  0.00000000000E+00 0. -1.
         -2    1    6    6    0  503 -0.29810501997E+02 -0.26368287576E+03 -0.10043261282E+03  0.28373232935E+03  0.00000000000E+00 0.  1.
<mgrwt>
<rscale>  0 0.14526724E+04</rscale>
<asrwt>0</asrwt>
<pdfrwt beam="1">  1        1 0.19939413E+00 0.14526724E+04</pdfrwt>
<pdfrwt beam="2">  1       -2 0.62623351E-01 0.14526724E+04</pdfrwt>
<totfact> 0.18337785E+01</totfact>
</mgrwt>
</event>
<event>
12    5  0.5428626E-008  0.2386405E+04  0.7818608E-02  0.8444611E-01
         -2   -1    0    0    0  501 -0.00000000000E+00  0.00000000000E+00  0.16564489313E+04  0.16564489313E+04  0.00000000000E+00 0.  1.
          1   -1    0    0  501    0  0.00000000000E+00 -0.00000000000E+00 -0.85950847700E+03  0.85950847700E+03  0.00000000000E+00 0. -1.
        -24    2    1    2    0    0  0.63997633580E+02  0.59251632839E+03  0.12079303880E+04  0.13492892662E+04  0.79463231302E+02 0.  0.
        254    2    1    2    0    0 -0.63997633580E+02 -0.59251632839E+03 -0.41098993373E+03  0.11666681421E+04  0.91489372693E+03 0.  0.
         23    2    4    4    0    0 -0.13220809243E+03  0.15048477498E+03  0.11542503383E+03  0.24888413201E+03  0.92172260074E+02 0.  0.
         23    2    4    4    0    0  0.68210458851E+02 -0.74300110338E+03 -0.52641496756E+03  0.91778401006E+03  0.92257599907E+02 0.  0.
          3    1    3    3  502    0 -0.18329884244E+02  0.86776785730E+02  0.18908409671E+03  0.20885160001E+03  0.00000000000E+00 0. -1.
         -4    1    3    3    0  502  0.82327517824E+02  0.50573954266E+03  0.10188462913E+04  0.11404376662E+04  0.00000000000E+00 0.  1.
         13    1    5    5    0    0 -0.42526671585E+02  0.54997151572E+01 -0.21971581252E+00  0.42881382183E+02  0.00000000000E+00 0. -1.
        -13    1    5    5    0    0 -0.89681420846E+02  0.14498505983E+03  0.11564474964E+03  0.20600274983E+03  0.00000000000E+00 0.  1.
          3    1    6    6  503    0 -0.22784709274E+02 -0.12287565724E+03 -0.82838443624E+02  0.14993257772E+03  0.00000000000E+00 0. -1.
         -3    1    6    6    0  503  0.90995168126E+02 -0.62012544613E+03 -0.44357652394E+03  0.76785143234E+03  0.00000000000E+00 0.  1.
<mgrwt>
<rscale>  0 0.23864047E+04</rscale>
<asrwt>0</asrwt>
<pdfrwt beam="1">  1        1 0.13223207E+00 0.23864047E+04</pdfrwt>
<pdfrwt beam="2">  1       -2 0.25483830E+00 0.23864047E+04</pdfrwt>
<totfact> 0.92796930E-01</totfact>
</mgrwt>
</event>
<event>
12    5  0.5428626E-008  0.1246258E+04  0.7818608E-02  0.9073304E-01
          1   -1    0    0  501    0  0.00000000000E+00  0.00000000000E+00  0.27340963661E+04  0.27340963661E+04  0.00000000000E+00 0. -1.
         -2   -1    0    0    0  501 -0.00000000000E+00 -0.00000000000E+00 -0.14201752814E+03  0.14201752814E+03  0.00000000000E+00 0.  1.
        -24    2    1    2    0    0 -0.44317475684E+02  0.12356666015E+03  0.27457557981E+02  0.15624637044E+03  0.80163911048E+02 0.  0.
        254    2    1    2    0    0  0.44317475684E+02 -0.12356666015E+03  0.25646212800E+04  0.27198675238E+04  0.89619433113E+03 0.  0.
         23    2    4    4    0    0  0.25098191016E+02 -0.34125199620E+03  0.24118858174E+04  0.24376666828E+04  0.89122478355E+02 0.  0.
         23    2    4    4    0    0  0.19219284669E+02  0.21768533605E+03  0.15273546259E+03  0.28220084101E+03  0.92481926360E+02 0.  0.
          3    1    3    3  502    0  0.82676432339E+01  0.10229957131E+02  0.28403496813E+02  0.31301191331E+02  0.00000000000E+00 0. -1.
         -4    1    3    3    0  502 -0.52585118918E+02  0.11333670302E+03 -0.94593883170E+00  0.12494517911E+03  0.00000000000E+00 0.  1.
         13    1    5    5    0    0 -0.28672260857E+02 -0.52072797496E+02  0.41209297681E+03  0.41635837486E+03  0.00000000000E+00 0. -1.
        -13    1    5    5    0    0  0.53770451873E+02 -0.28917919870E+03  0.19997928406E+04  0.20213083079E+04  0.00000000000E+00 0.  1.
          3    1    6    6  503    0  0.31689154795E+01  0.30081537719E+01  0.38014487105E+02  0.38264765049E+02  0.00000000000E+00 0. -1.
         -3    1    6    6    0  503  0.16050369189E+02  0.21467718227E+03  0.11472097548E+03  0.24393607596E+03  0.00000000000E+00 0.  1.
<mgrwt>
<rscale>  0 0.12462578E+04</rscale>
<asrwt>0</asrwt>
<pdfrwt beam="1">  1        1 0.42063017E+00 0.12462578E+04</pdfrwt>
<pdfrwt beam="2">  1       -2 0.21848852E-01 0.12462578E+04</pdfrwt>
<totfact> 0.14815310E+01</totfact>
</mgrwt>
</event>
<event>
12    5  0.5428626E-008  0.1329227E+04  0.7818608E-02  0.9006704E-01
          1   -1    0    0  501    0  0.00000000000E+00  0.00000000000E+00  0.31958369783E+04  0.31958369783E+04  0.00000000000E+00 0. -1.
         -2   -1    0    0    0  501 -0.00000000000E+00 -0.00000000000E+00 -0.13821444892E+03  0.13821444892E+03  0.00000000000E+00 0.  1.
        -24    2    1    2    0    0 -0.22991481642E+03 -0.88407495741E+02  0.18959374268E+03  0.32108297105E+03  0.80447367385E+02 0.  0.
        254    2    1    2    0    0  0.22991481642E+03  0.88407495741E+02  0.28680287867E+04  0.30129684561E+04  0.88978260737E+03 0.  0.
         23    2    4    4    0    0 -0.12732460749E+03 -0.21289108894E+03  0.29517090577E+03  0.39638759264E+03  0.91995046445E+02 0.  0.
         23    2    4    4    0    0  0.35723942391E+03  0.30129858468E+03  0.25728578809E+04  0.26165808635E+04  0.92178613159E+02 0.  0.
          1    1    3    3  502    0 -0.10249088702E+03 -0.19932451115E+01  0.53688724792E+02  0.11571877168E+03  0.00000000000E+00 0. -1.
         -2    1    3    3    0  502 -0.12742392940E+03 -0.86414250629E+02  0.13590501789E+03  0.20536419937E+03  0.00000000000E+00 0.  1.
         13    1    5    5    0    0 -0.49380668203E+02 -0.47655486105E+02  0.14301682203E+03  0.15862946489E+03  0.00000000000E+00 0.  1.
        -13    1    5    5    0    0 -0.77943939288E+02 -0.16523560283E+03  0.15215408373E+03  0.23775812775E+03  0.00000000000E+00 0. -1.
          3    1    6    6  503    0  0.36294042933E+03  0.29855972809E+03  0.25339977749E+04  0.25772094190E+04  0.00000000000E+00 0. -1.
         -3    1    6    6    0  503 -0.57010054111E+01  0.27388565879E+01  0.38860106033E+02  0.39371444462E+02  0.00000000000E+00 0.  1.
<mgrwt>
<rscale>  0 0.13292266E+04</rscale>
<asrwt>0</asrwt>
<pdfrwt beam="1">  1        1 0.49166717E+00 0.13292266E+04</pdfrwt>
<pdfrwt beam="2">  1       -2 0.21263764E-01 0.13292266E+04</pdfrwt>
<totfact> 0.71552648E+00</totfact>
</mgrwt>
</event>
<event>
12    5  0.5428626E-008  0.1529437E+04  0.7818608E-02  0.8865110E-01
          1   -1    0    0  501    0  0.00000000000E+00  0.00000000000E+00  0.18846457353E+04  0.18846457353E+04  0.00000000000E+00 0. -1.
         -2   -1    0    0    0  501 -0.00000000000E+00 -0.00000000000E+00 -0.31029422009E+03  0.31029422009E+03  0.00000000000E+00 0.  1.
        -24    2    1    2    0    0 -0.27701821238E+02 -0.42884422227E+03  0.81291372970E+03  0.92298427442E+03  0.79978003361E+02 0.  0.
        254    2    1    2    0    0  0.27701821238E+02  0.42884422227E+03  0.76143778556E+03  0.12719556810E+04  0.92380138304E+03 0.  0.
         23    2    4    4    0    0  0.29076395895E+03  0.48576262735E+03  0.80078333968E+03  0.98506064066E+03  0.92636378970E+02 0.  0.
         23    2    4    4    0    0 -0.26306213772E+03 -0.56918405084E+02 -0.39345554120E+02  0.28689504035E+03  0.91210188094E+02 0.  0.
          1    1    3    3  502    0 -0.16021135421E+02 -0.18682871766E+03  0.27301112693E+03  0.33120495460E+03  0.00000000000E+00 0. -1.
         -2    1    3    3    0  502 -0.11680685818E+02 -0.24201550460E+03  0.53990260277E+03  0.59177931982E+03  0.00000000000E+00 0.  1.
         13    1    5    5    0    0  0.10436522069E+03  0.23946869623E+03  0.42196474091E+03  0.49627774313E+03  0.00000000000E+00 0.  1.
        -13    1    5    5    0    0  0.18639873827E+03  0.24629393113E+03  0.37881859877E+03  0.48878289752E+03  0.00000000000E+00 0. -1.
          1    1    6    6  503    0 -0.10513922284E+03 -0.68932644521E+02 -0.20861013140E+02  0.12744076087E+03  0.00000000000E+00 0.  1.
         -1    1    6    6    0  503 -0.15792291487E+03  0.12014239437E+02 -0.18484540980E+02  0.15945427949E+03  0.00000000000E+00 0. -1.
<mgrwt>
<rscale>  0 0.15294374E+04</rscale>
<asrwt>0</asrwt>
<pdfrwt beam="1">  1        1 0.28994549E+00 0.15294374E+04</pdfrwt>
<pdfrwt beam="2">  1       -2 0.47737574E-01 0.15294374E+04</pdfrwt>
<totfact> 0.12574727E+01</totfact>
</mgrwt>
</event>
<event>
12    5  0.5428626E-008  0.2571460E+04  0.7818608E-02  0.8377961E-01
         -2   -1    0    0    0  501 -0.00000000000E+00  0.00000000000E+00  0.62129982502E+03  0.62129982502E+03  0.00000000000E+00 0.  1.
          1   -1    0    0  501    0  0.00000000000E+00 -0.00000000000E+00 -0.26607153374E+04  0.26607153374E+04  0.00000000000E+00 0. -1.
        -24    2    1    2    0    0  0.12346669307E+03  0.28832937641E+03 -0.22927897770E+04  0.23155465378E+04  0.80578866217E+02 0.  0.
        254    2    1    2    0    0 -0.12346669307E+03 -0.28832937641E+03  0.25337426461E+03  0.96646862462E+03  0.87834231983E+03 0.  0.
         23    2    4    4    0    0 -0.46710577233E+03 -0.92537230522E+02 -0.62640542315E+01  0.48505939923E+03  0.92154440106E+02 0.  0.
         23    2    4    4    0    0  0.34363907926E+03 -0.19579214588E+03  0.25963831884E+03  0.48140922538E+03  0.88996654367E+02 0.  0.
          1    1    3    3  502    0  0.12064251705E+03  0.20886966678E+03 -0.15743847067E+04  0.15927549590E+04  0.00000000000E+00 0. -1.
         -2    1    3    3    0  502  0.28241760217E+01  0.79459709625E+02 -0.71840507026E+03  0.72279157881E+03  0.00000000000E+00 0.  1.
         13    1    5    5    0    0 -0.14159371458E+03  0.14557251358E+02 -0.25001413980E+01  0.14236201840E+03  0.00000000000E+00 0. -1.
        -13    1    5    5    0    0 -0.32551205775E+03 -0.10709448188E+03 -0.37639128335E+01  0.34269738083E+03  0.00000000000E+00 0.  1.
          1    1    6    6  503    0  0.12063225828E+03 -0.11366800484E+03  0.13038639717E+03  0.21088662743E+03  0.00000000000E+00 0. -1.
         -1    1    6    6    0  503  0.22300682099E+03 -0.82124141039E+02  0.12925192167E+03  0.27052259795E+03  0.00000000000E+00 0.  1.
<mgrwt>
<rscale>  0 0.25714603E+04</rscale>
<asrwt>0</asrwt>
<pdfrwt beam="1">  1        1 0.40934083E+00 0.25714603E+04</pdfrwt>
<pdfrwt beam="2">  1       -2 0.95584587E-01 0.25714603E+04</pdfrwt>
<totfact> 0.74587308E-01</totfact>
</mgrwt>
</event>
<event>
12    5  0.5428626E-008  0.1981128E+04  0.7818608E-02  0.8615495E-01
         -4   -1    0    0    0  501 -0.00000000000E+00  0.00000000000E+00  0.59992735305E+03  0.59992735305E+03  0.00000000000E+00 0.  1.
          3   -1    0    0  501    0  0.00000000000E+00 -0.00000000000E+00 -0.16355600215E+04  0.16355600215E+04  0.00000000000E+00 0. -1.
        -24    2    1    2    0    0 -0.38371017463E+03 -0.30868009769E+03  0.28530659182E+03  0.57432153481E+03  0.76996579104E+02 0.  0.
        254    2    1    2    0    0  0.38371017463E+03  0.30868009769E+03 -0.13209392603E+04  0.16611658398E+04  0.87867770938E+03 0.  0.
         23    2    4    4    0    0 -0.18949229088E+02 -0.19756799544E+03 -0.78821973984E+03  0.81797802503E+03  0.91681541562E+02 0.  0.
         23    2    4    4    0    0  0.40265940372E+03  0.50624809313E+03 -0.53271952046E+03  0.84318781472E+03  0.93562151630E+02 0.  0.
          1    1    3    3  502    0 -0.95688908693E+01 -0.49192984535E+01 -0.48357293997E+01  0.11796077677E+02  0.00000000000E+00 0. -1.
         -2    1    3    3    0  502 -0.37414128376E+03 -0.30376079923E+03  0.29014232122E+03  0.56252545714E+03  0.00000000000E+00 0.  1.
         13    1    5    5    0    0  0.16227851690E+01 -0.16826753913E+03 -0.50031235963E+03  0.52785325173E+03  0.00000000000E+00 0. -1.
        -13    1    5    5    0    0 -0.20572014257E+02 -0.29300456313E+02 -0.28790738020E+03  0.29012477331E+03  0.00000000000E+00 0.  1.
          3    1    6    6  503    0  0.28304387679E+03  0.41806966941E+03 -0.40504740701E+03  0.64727079850E+03  0.00000000000E+00 0. -1.
         -3    1    6    6    0  503  0.11961552692E+03  0.88178423720E+02 -0.12767211345E+03  0.19591701622E+03  0.00000000000E+00 0.  1.
<mgrwt>
<rscale>  0 0.19811282E+04</rscale>
<asrwt>0</asrwt>
<pdfrwt beam="1">  1        3 0.25162462E+00 0.19811282E+04</pdfrwt>
<pdfrwt beam="2">  1       -4 0.92296517E-01 0.19811282E+04</pdfrwt>
<totfact> 0.15387425E-01</totfact>
</mgrwt>
</event>
<event>
12    5  0.5428626E-008  0.1953112E+04  0.7818608E-02  0.8628862E-01
          1   -1    0    0  501    0  0.00000000000E+00  0.00000000000E+00  0.45342097057E+03  0.45342097057E+03  0.00000000000E+00 0. -1.
         -2   -1    0    0    0  501 -0.00000000000E+00 -0.00000000000E+00 -0.21032584906E+04  0.21032584906E+04  0.00000000000E+00 0.  1.
        -24    2    1    2    0    0 -0.32053990804E+03  0.39711481413E+03 -0.14054145795E+04  0.14971799091E+04  0.76886484155E+02 0.  0.
        254    2    1    2    0    0  0.32053990804E+03 -0.39711481413E+03 -0.24442294052E+03  0.10594995521E+04  0.89574031890E+03 0.  0.
         23    2    4    4    0    0 -0.69880904556E+02  0.13060042752E+03 -0.34807760931E+03  0.38871547952E+03  0.89453280690E+02 0.  0.
         23    2    4    4    0    0  0.39042081259E+03 -0.52771524166E+03  0.10365466879E+03  0.67078407262E+03  0.91077958564E+02 0.  0.
          1    1    3    3  502    0 -0.11462944779E+02  0.48688554643E+02 -0.12134063093E+03  0.13124604059E+03  0.00000000000E+00 0. -1.
         -2    1    3    3    0  502 -0.30907696326E+03  0.34842625949E+03 -0.12840739486E+04  0.13659338685E+04  0.00000000000E+00 0.  1.
         13    1    5    5    0    0 -0.74663375174E+02  0.12199691767E+03 -0.35051528337E+03  0.37857473686E+03  0.00000000000E+00 0. -1.
        -13    1    5    5    0    0  0.47824706183E+01  0.86035098545E+01  0.24376740544E+01  0.10140742666E+02  0.00000000000E+00 0.  1.
          2    1    6    6  503    0  0.37851707008E+03 -0.52880676042E+03  0.98370840897E+02  0.65771466803E+03  0.00000000000E+00 0. -1.
         -2    1    6    6    0  503  0.11903742516E+02  0.10915187614E+01  0.52838278971E+01  0.13069404590E+02  0.00000000000E+00 0.  1.
<mgrwt>
<rscale>  0 0.19531119E+04</rscale>
<asrwt>0</asrwt>
<pdfrwt beam="1">  1        1 0.69757072E-01 0.19531119E+04</pdfrwt>
<pdfrwt beam="2">  1       -2 0.32357823E+00 0.19531119E+04</pdfrwt>
<totfact> 0.94169748E-01</totfact>
</mgrwt>
</event>
<event>
12    5  0.5428626E-008  0.1124104E+04  0.7818608E-02  0.9182012E-01
          1   -1    0    0  501    0  0.00000000000E+00  0.00000000000E+00  0.54347699260E+03  0.54347699260E+03  0.00000000000E+00 0. -1.
         -2   -1    0    0    0  501 -0.00000000000E+00 -0.00000000000E+00 -0.58126179865E+03  0.58126179865E+03  0.00000000000E+00 0.  1.
        -24    2    1    2    0    0 -0.10800881723E+03 -0.80139764049E+02 -0.30189519687E+03  0.34083827525E+03  0.83317066694E+02 0.  0.
        254    2    1    2    0    0  0.10800881723E+03  0.80139764049E+02  0.26411039082E+03  0.78390051599E+03  0.72571167419E+03 0.  0.
         23    2    4    4    0    0  0.12800548064E+03 -0.23235051264E+03 -0.99212276127E+02  0.29640529144E+03  0.87411997227E+02 0.  0.
         23    2    4    4    0    0 -0.19996663412E+02  0.31249027669E+03  0.36332266695E+03  0.48749522455E+03  0.87167620525E+02 0.  0.
          3    1    3    3  502    0 -0.16991148972E+02 -0.27836617452E+02 -0.16092977631E+02  0.36367022749E+02  0.00000000000E+00 0. -1.
         -4    1    3    3    0  502 -0.91017668257E+02 -0.52303146596E+02 -0.28580221924E+03  0.30447125250E+03  0.00000000000E+00 0.  1.
         13    1    5    5    0    0  0.17369583522E+02 -0.33800501299E+02  0.16409612387E+02  0.41393860637E+02  0.00000000000E+00 0. -1.
        -13    1    5    5    0    0  0.11063589712E+03 -0.19855001135E+03 -0.11562188851E+03  0.25501143080E+03  0.00000000000E+00 0.  1.
          1    1    6    6  503    0 -0.25561703168E+02  0.18023208640E+03  0.14742300873E+03  0.23424463524E+03  0.00000000000E+00 0. -1.
         -1    1    6    6    0  503  0.55650397556E+01  0.13225819029E+03  0.21589965822E+03  0.25325058931E+03  0.00000000000E+00 0.  1.
<mgrwt>
<rscale>  0 0.11241039E+04</rscale>
<asrwt>0</asrwt>
<pdfrwt beam="1">  1        1 0.83611845E-01 0.11241039E+04</pdfrwt>
<pdfrwt beam="2">  1       -2 0.89424892E-01 0.11241039E+04</pdfrwt>
<totfact> 0.36840211E+01</totfact>
</mgrwt>
</event>
<event>
12    5  0.5428626E-008  0.1978659E+04  0.7818608E-02  0.8616664E-01
         -2   -1    0    0    0  501 -0.00000000000E+00  0.00000000000E+00  0.10242874786E+04  0.10242874786E+04  0.00000000000E+00 0.  1.
          1   -1    0    0  501    0  0.00000000000E+00 -0.00000000000E+00 -0.95556502989E+03  0.95556502989E+03  0.00000000000E+00 0. -1.
        -24    2    1    2    0    0  0.32182682868E+03  0.66884835385E+03 -0.18967781702E+03  0.77012416524E+03  0.78631593608E+02 0.  0.
        254    2    1    2    0    0 -0.32182682868E+03 -0.66884835385E+03  0.25840026574E+03  0.12097283433E+04  0.91964196243E+03 0.  0.
         23    2    4    4    0    0 -0.43065259643E+03 -0.66348257256E+03  0.49156565234E+03  0.93578255981E+03  0.91550127140E+02 0.  0.
         23    2    4    4    0    0  0.10882576776E+03 -0.53657812871E+01 -0.23316538659E+03  0.27394578345E+03  0.93852839214E+02 0.  0.
          1    1    3    3  502    0  0.16044702658E+03  0.28098587529E+03 -0.11528309120E+03  0.34349163246E+03  0.00000000000E+00 0. -1.
         -2    1    3    3    0  502  0.16137980209E+03  0.38786247856E+03 -0.74394725825E+02  0.42663253279E+03  0.00000000000E+00 0.  1.
         13    1    5    5    0    0 -0.19843469717E+03 -0.23822568516E+03  0.22185440364E+03  0.38124425572E+03  0.00000000000E+00 0. -1.
        -13    1    5    5    0    0 -0.23221789927E+03 -0.42525688741E+03  0.26971124870E+03  0.55453830409E+03  0.00000000000E+00 0.  1.
          1    1    6    6  503    0  0.30187776709E+02 -0.24834910378E+02 -0.16137317345E+02  0.42290514861E+02  0.00000000000E+00 0. -1.
         -1    1    6    6    0  503  0.78637991050E+02  0.19469129091E+02 -0.21702806925E+03  0.23165526859E+03  0.00000000000E+00 0.  1.
<mgrwt>
<rscale>  0 0.19786594E+04</rscale>
<asrwt>0</asrwt>
<pdfrwt beam="1">  1        1 0.14701000E+00 0.19786594E+04</pdfrwt>
<pdfrwt beam="2">  1       -2 0.15758269E+00 0.19786594E+04</pdfrwt>
<totfact> 0.35079892E+00</totfact>
</mgrwt>
</event>
<event>
12    5  0.5428626E-008  0.1212449E+04  0.7818608E-02  0.9102029E-01
          1   -1    0    0  501    0  0.00000000000E+00  0.00000000000E+00  0.85143726850E+03  0.85143726850E+03  0.00000000000E+00 0. -1.
         -2   -1    0    0    0  501 -0.00000000000E+00 -0.00000000000E+00 -0.43163256700E+03  0.43163256700E+03  0.00000000000E+00 0.  1.
        -24    2    1    2    0    0  0.38107322350E+02  0.54981547781E+02  0.36076799142E+03  0.37553844463E+03  0.80002757119E+02 0.  0.
        254    2    1    2    0    0 -0.38107322350E+02 -0.54981547781E+02  0.59036710075E+02  0.90753139087E+03  0.90313495872E+03 0.  0.
         23    2    4    4    0    0 -0.44823828471E+03 -0.11077662365E+03  0.10242378825E+03  0.48127039807E+03  0.89115337837E+02 0.  0.
         23    2    4    4    0    0  0.41013096236E+03  0.55795075866E+02 -0.43387078172E+02  0.42626099280E+03  0.92171029343E+02 0.  0.
          3    1    3    3  502    0  0.78997179014E+01  0.63150888134E+02  0.30519998446E+03  0.31176508902E+03  0.00000000000E+00 0. -1.
         -4    1    3    3    0  502  0.30207604448E+02 -0.81693403525E+01  0.55568006956E+02  0.63773355607E+02  0.00000000000E+00 0.  1.
         13    1    5    5    0    0 -0.40671604915E+03 -0.79063879031E+02  0.10947706346E+03  0.42854902757E+03  0.00000000000E+00 0. -1.
        -13    1    5    5    0    0 -0.41522235558E+02 -0.31712744617E+02 -0.70532752157E+01  0.52721370507E+02  0.00000000000E+00 0.  1.
          1    1    6    6  503    0  0.35666526379E+03  0.44872859513E+02 -0.68902042866E+02  0.36602073087E+03  0.00000000000E+00 0. -1.
         -1    1    6    6    0  503  0.53465698572E+02  0.10922216353E+02  0.25514964694E+02  0.60240261928E+02  0.00000000000E+00 0.  1.
<mgrwt>
<rscale>  0 0.12124489E+04</rscale>
<asrwt>0</asrwt>
<pdfrwt beam="1">  1        1 0.13099035E+00 0.12124489E+04</pdfrwt>
<pdfrwt beam="2">  1       -2 0.66405010E-01 0.12124489E+04</pdfrwt>
<totfact> 0.36084486E+01</totfact>
</mgrwt>
</event>
<event>
12    5  0.5428626E-008  0.1345305E+04  0.7818608E-02  0.8994390E-01
          1   -1    0    0  501    0  0.00000000000E+00  0.00000000000E+00  0.75361323012E+03  0.75361323012E+03  0.00000000000E+00 0. -1.
         -2   -1    0    0    0  501 -0.00000000000E+00 -0.00000000000E+00 -0.60038929594E+03  0.60038929594E+03  0.00000000000E+00 0.  1.
        -24    2    1    2    0    0  0.29667921659E+03  0.15017125697E+03  0.90159817184E+02  0.35382020100E+03  0.80560399869E+02 0.  0.
        254    2    1    2    0    0 -0.29667921659E+03 -0.15017125697E+03  0.63064116999E+02  0.10001823251E+04  0.94117885469E+03 0.  0.
         23    2    4    4    0    0 -0.16904144422E+02  0.33077911740E+03  0.22865313905E+03  0.41239069631E+03  0.89906917420E+02 0.  0.
         23    2    4    4    0    0 -0.27977507217E+03 -0.48095037438E+03 -0.16558902205E+03  0.58779162874E+03  0.92151619520E+02 0.  0.
          3    1    3    3  502    0  0.33271392163E+02  0.34776057706E+02  0.38518985541E+02  0.61644723806E+02  0.00000000000E+00 0. -1.
         -4    1    3    3    0  502  0.26340782443E+03  0.11539519927E+03  0.51640831642E+02  0.29217547720E+03  0.00000000000E+00 0.  1.
         13    1    5    5    0    0  0.17049407794E+02  0.36979698467E+02  0.58205233731E+02  0.71035411158E+02  0.00000000000E+00 0. -1.
        -13    1    5    5    0    0 -0.33953552217E+02  0.29379941894E+03  0.17044790532E+03  0.34135528515E+03  0.00000000000E+00 0.  1.
          4    1    6    6  503    0 -0.40463989848E+02 -0.62972670519E+02 -0.56947497903E+02  0.94052693870E+02  0.00000000000E+00 0. -1.
         -4    1    6    6    0  503 -0.23931108232E+03 -0.41797770386E+03 -0.10864152415E+03  0.49373893487E+03  0.00000000000E+00 0.  1.
<mgrwt>
<rscale>  0 0.13453049E+04</rscale>
<asrwt>0</asrwt>
<pdfrwt beam="1">  1        1 0.11594050E+00 0.13453049E+04</pdfrwt>
<pdfrwt beam="2">  1       -2 0.92367583E-01 0.13453049E+04</pdfrwt>
<totfact> 0.20749190E+01</totfact>
</mgrwt>
</event>
<event>
12    5  0.5428626E-008  0.2256374E+04  0.7818608E-02  0.8495324E-01
         -2   -1    0    0    0  501 -0.00000000000E+00  0.00000000000E+00  0.12673562057E+04  0.12673562057E+04  0.00000000000E+00 0.  1.
          1   -1    0    0  501    0  0.00000000000E+00 -0.00000000000E+00 -0.10043000357E+04  0.10043000357E+04  0.00000000000E+00 0. -1.
        -24    2    1    2    0    0 -0.24947940930E+03 -0.45705239886E+03  0.92619469488E+03  0.10655116729E+04  0.79634422279E+02 0.  0.
        254    2    1    2    0    0  0.24947940930E+03  0.45705239886E+03 -0.66313852492E+03  0.12061445686E+04  0.86249356291E+03 0.  0.
         23    2    4    4    0    0  0.23908868251E+03  0.58522476219E+02 -0.74428328898E+03  0.78929927076E+03  0.91909989917E+02 0.  0.
         23    2    4    4    0    0  0.10390726793E+02  0.39852992264E+03  0.81144764057E+02  0.41684529780E+03  0.90782504456E+02 0.  0.
          3    1    3    3  502    0 -0.87895372027E+02 -0.93921312133E+02  0.25014623494E+03  0.28128268370E+03  0.00000000000E+00 0. -1.
         -4    1    3    3    0  502 -0.16158403727E+03 -0.36313108673E+03  0.67604845994E+03  0.78422898916E+03  0.00000000000E+00 0.  1.
         13    1    5    5    0    0  0.98924839763E+02  0.54143642609E+02 -0.22880790299E+03  0.25508962038E+03  0.00000000000E+00 0. -1.
        -13    1    5    5    0    0  0.14016384275E+03  0.43788336102E+01 -0.51547538599E+03  0.53420965038E+03  0.00000000000E+00 0.  1.
          1    1    6    6  503    0 -0.10805270706E+02  0.81647981927E+02  0.53156710608E+02  0.98024398547E+02  0.00000000000E+00 0. -1.
         -1    1    6    6    0  503  0.21195997499E+02  0.31688194072E+03  0.27988053449E+02  0.31882089925E+03  0.00000000000E+00 0.  1.
<mgrwt>
<rscale>  0 0.22563740E+04</rscale>
<asrwt>0</asrwt>
<pdfrwt beam="1">  1        1 0.15450770E+00 0.22563740E+04</pdfrwt>
<pdfrwt beam="2">  1       -2 0.19497788E+00 0.22563740E+04</pdfrwt>
<totfact> 0.17145972E+00</totfact>
</mgrwt>
</event>
<event>
12    5  0.5428626E-008  0.1454330E+04  0.7818608E-02  0.8915404E-01
         -2   -1    0    0    0  501 -0.00000000000E+00  0.00000000000E+00  0.58891867441E+03  0.58891867441E+03  0.00000000000E+00 0.  1.
          1   -1    0    0  501    0  0.00000000000E+00 -0.00000000000E+00 -0.89786354333E+03  0.89786354333E+03  0.00000000000E+00 0. -1.
        -24    2    1    2    0    0 -0.11575046601E+03  0.21740048181E+03 -0.47486586490E+03  0.54146791463E+03  0.83837778181E+02 0.  0.
        254    2    1    2    0    0  0.11575046601E+03 -0.21740048181E+03  0.16592099598E+03  0.94531430311E+03  0.89745652534E+03 0.  0.
         23    2    4    4    0    0 -0.28299822513E+03 -0.31238325228E+03 -0.10544868097E+03  0.44391643743E+03  0.90945518668E+02 0.  0.
         23    2    4    4    0    0  0.39874869114E+03  0.94982770474E+02  0.27136967695E+03  0.50139786568E+03  0.98671539820E+02 0.  0.
          3    1    3    3  502    0 -0.34590662415E+02  0.10145714159E+03 -0.28623158333E+03  0.30564453995E+03  0.00000000000E+00 0. -1.
         -4    1    3    3    0  502 -0.81159803592E+02  0.11594334021E+03 -0.18863428157E+03  0.23582337467E+03  0.00000000000E+00 0.  1.
         13    1    5    5    0    0  0.24491241045E+01 -0.28532401227E+02 -0.60297312207E+01  0.29265231713E+02  0.00000000000E+00 0.  1.
        -13    1    5    5    0    0 -0.28544734924E+03 -0.28385085105E+03 -0.99418949749E+02  0.41465120571E+03  0.00000000000E+00 0. -1.
          3    1    6    6  503    0  0.31801270476E+03  0.10363711562E+03  0.18251686123E+03  0.38103167422E+03  0.00000000000E+00 0. -1.
         -3    1    6    6    0  503  0.80735986372E+02 -0.86543451413E+01  0.88852815724E+02  0.12036619146E+03  0.00000000000E+00 0.  1.
<mgrwt>
<rscale>  0 0.14543295E+04</rscale>
<asrwt>0</asrwt>
<pdfrwt beam="1">  1        1 0.13813285E+00 0.14543295E+04</pdfrwt>
<pdfrwt beam="2">  1       -2 0.90602873E-01 0.14543295E+04</pdfrwt>
<totfact> 0.16178423E+01</totfact>
</mgrwt>
</event>
<event>
12    5  0.5428626E-008  0.1766354E+04  0.7818608E-02  0.8724399E-01
         -2   -1    0    0    0  501 -0.00000000000E+00  0.00000000000E+00  0.41362225261E+03  0.41362225261E+03  0.00000000000E+00 0.  1.
          1   -1    0    0  501    0  0.00000000000E+00 -0.00000000000E+00 -0.18857829258E+04  0.18857829258E+04  0.00000000000E+00 0. -1.
        -24    2    1    2    0    0 -0.10785819415E+03  0.62047332656E+03 -0.34689318589E+03  0.72332377577E+03  0.79005462801E+02 0.  0.
        254    2    1    2    0    0  0.10785819415E+03 -0.62047332656E+03 -0.11252674873E+04  0.15760814027E+04  0.90619265655E+03 0.  0.
         23    2    4    4    0    0 -0.38743880850E+03 -0.18965424782E+03 -0.42222146560E+03  0.61020016217E+03  0.89418722048E+02 0.  0.
         23    2    4    4    0    0  0.49529700265E+03 -0.43081907874E+03 -0.70304602170E+03  0.96588124048E+03  0.87912812676E+02 0.  0.
          1    1    3    3  502    0 -0.64932515401E+02  0.31985190587E+03 -0.22335724027E+03  0.39548695304E+03  0.00000000000E+00 0. -1.
         -2    1    3    3    0  502 -0.42925678750E+02  0.30062142069E+03 -0.12353594562E+03  0.32783682273E+03  0.00000000000E+00 0.  1.
         13    1    5    5    0    0 -0.27116326330E+03 -0.14920350290E+03 -0.35102519678E+03  0.46798492434E+03  0.00000000000E+00 0. -1.
        -13    1    5    5    0    0 -0.11627554520E+03 -0.40450744920E+02 -0.71196268827E+02  0.14221523783E+03  0.00000000000E+00 0.  1.
          1    1    6    6  503    0  0.37230512206E+03 -0.29976859555E+03 -0.55943624013E+03  0.73582689647E+03  0.00000000000E+00 0. -1.
         -1    1    6    6    0  503  0.12299188059E+03 -0.13105048319E+03 -0.14360978157E+03  0.23005434400E+03  0.00000000000E+00 0.  1.
<mgrwt>
<rscale>  0 0.17663542E+04</rscale>
<asrwt>0</asrwt>
<pdfrwt beam="1">  1        1 0.29012045E+00 0.17663542E+04</pdfrwt>
<pdfrwt beam="2">  1       -2 0.63634192E-01 0.17663542E+04</pdfrwt>
<totfact> 0.67634225E+00</totfact>
</mgrwt>
</event>
<event>
12    5  0.5428626E-008  0.1707491E+04  0.7818608E-02  0.8757103E-01
          1   -1    0    0  501    0  0.00000000000E+00  0.00000000000E+00  0.62975592062E+03  0.62975592062E+03  0.00000000000E+00 0. -1.
         -2   -1    0    0    0  501 -0.00000000000E+00 -0.00000000000E+00 -0.11574032484E+04  0.11574032484E+04  0.00000000000E+00 0.  1.
        -24    2    1    2    0    0 -0.31712780548E+03  0.35246354845E+03  0.22998525514E+03  0.53302610140E+03  0.80143678435E+02 0.  0.
        254    2    1    2    0    0  0.31712780548E+03 -0.35246354845E+03 -0.75763258288E+03  0.12541330676E+04  0.87979658024E+03 0.  0.
         23    2    4    4    0    0  0.10849686323E+03 -0.45827943084E+03 -0.85845366230E+03  0.98321999435E+03  0.89371477069E+02 0.  0.
         23    2    4    4    0    0  0.20863094225E+03  0.10581588239E+03  0.10082107942E+03  0.27091307325E+03  0.92223273488E+02 0.  0.
          3    1    3    3  502    0 -0.19641670225E+03  0.25417014097E+03  0.18633805828E+03  0.37135408097E+03  0.00000000000E+00 0. -1.
         -4    1    3    3    0  502 -0.12071110323E+03  0.98293407478E+02  0.43647196852E+02  0.16167202043E+03  0.00000000000E+00 0.  1.
         13    1    5    5    0    0  0.66313177462E+02 -0.24433307991E+03 -0.37029598722E+03  0.44857018358E+03  0.00000000000E+00 0.  1.
        -13    1    5    5    0    0  0.42183685773E+02 -0.21394635093E+03 -0.48815767508E+03  0.53464981077E+03  0.00000000000E+00 0. -1.
          2    1    6    6  503    0  0.13090294682E+03  0.19068756997E+02  0.73278271591E+02  0.15122468074E+03  0.00000000000E+00 0. -1.
         -2    1    6    6    0  503  0.77727995430E+02  0.86747125390E+02  0.27542807829E+02  0.11968839250E+03  0.00000000000E+00 0.  1.
<mgrwt>
<rscale>  0 0.17074912E+04</rscale>
<asrwt>0</asrwt>
<pdfrwt beam="1">  1        1 0.96885527E-01 0.17074912E+04</pdfrwt>
<pdfrwt beam="2">  1       -2 0.17806204E+00 0.17074912E+04</pdfrwt>
<totfact> 0.49650920E+00</totfact>
</mgrwt>
</event>
<event>
12    5  0.5428626E-008  0.1131123E+04  0.7818608E-02  0.9175377E-01
         -2   -1    0    0    0  501 -0.00000000000E+00  0.00000000000E+00  0.19118678859E+04  0.19118678859E+04  0.00000000000E+00 0.  1.
          1   -1    0    0  501    0  0.00000000000E+00 -0.00000000000E+00 -0.16730222347E+03  0.16730222347E+03  0.00000000000E+00 0. -1.
        -24    2    1    2    0    0 -0.17006001023E+02 -0.13019260389E+02 -0.34998394741E+02  0.90703926108E+02  0.80892579172E+02 0.  0.
        254    2    1    2    0    0  0.17006001023E+02  0.13019260389E+02  0.17795640571E+04  0.19884661832E+04  0.88695593081E+03 0.  0.
         23    2    4    4    0    0 -0.18650162420E+03 -0.35794497371E+03  0.57338079418E+03  0.70704334053E+03  0.90759518663E+02 0.  0.
         23    2    4    4    0    0  0.20350762523E+03  0.37096423410E+03  0.12061832629E+04  0.12814228427E+04  0.90203223054E+02 0.  0.
          3    1    3    3  502    0  0.29970033621E+02 -0.24700041344E+00  0.12692402436E+01  0.29997914848E+02  0.00000000000E+00 0. -1.
         -4    1    3    3    0  502 -0.46976034644E+02 -0.12772259976E+02 -0.36267634985E+02  0.60706011260E+02  0.00000000000E+00 0.  1.
         13    1    5    5    0    0 -0.18100641683E+03 -0.27130476424E+03  0.43502516256E+03  0.54370625350E+03  0.00000000000E+00 0. -1.
        -13    1    5    5    0    0 -0.54952073727E+01 -0.86640209465E+02  0.13835563162E+03  0.16333708704E+03  0.00000000000E+00 0.  1.
          2    1    6    6  503    0  0.16524528876E+03  0.27631905086E+03  0.10128731430E+04  0.10628124139E+04  0.00000000000E+00 0. -1.
         -2    1    6    6    0  503  0.38262336472E+02  0.94645183241E+02  0.19331011994E+03  0.21861042878E+03  0.00000000000E+00 0.  1.
<mgrwt>
<rscale>  0 0.11311229E+04</rscale>
<asrwt>0</asrwt>
<pdfrwt beam="1">  1        1 0.25738805E-01 0.11311229E+04</pdfrwt>
<pdfrwt beam="2">  1       -2 0.29413351E+00 0.11311229E+04</pdfrwt>
<totfact> 0.56734137E+00</totfact>
</mgrwt>
</event>
<event>
12    5  0.5428626E-008  0.1059560E+04  0.7818608E-02  0.9245529E-01
         -2   -1    0    0    0  501 -0.00000000000E+00  0.00000000000E+00  0.13751023767E+04  0.13751023767E+04  0.00000000000E+00 0.  1.
          1   -1    0    0  501    0  0.00000000000E+00 -0.00000000000E+00 -0.20410618853E+03  0.20410618853E+03  0.00000000000E+00 0. -1.
        -24    2    1    2    0    0 -0.87249861440E+02  0.48319399708E+02  0.64270817758E+02  0.14465935449E+03  0.82754384269E+02 0.  0.
        254    2    1    2    0    0  0.87249861440E+02 -0.48319399708E+02  0.11067253704E+04  0.14345492107E+04  0.90727233499E+03 0.  0.
         23    2    4    4    0    0  0.33679301978E+02 -0.46469698041E+03  0.68143047929E+03  0.83004321992E+03  0.86871571046E+02 0.  0.
         23    2    4    4    0    0  0.53570559462E+02  0.41637758070E+03  0.42529489109E+03  0.60450599080E+03  0.91168272850E+02 0.  0.
          3    1    3    3  502    0 -0.46978949405E+02  0.35296341087E+02 -0.95832020651E+01  0.59537308834E+02  0.00000000000E+00 0. -1.
         -4    1    3    3    0  502 -0.40270912034E+02  0.13023058620E+02  0.73854019824E+02  0.85122045652E+02  0.00000000000E+00 0.  1.
         13    1    5    5    0    0 -0.23023256184E+02 -0.10105209788E+03  0.11791917573E+03  0.15699212979E+03  0.00000000000E+00 0. -1.
        -13    1    5    5    0    0  0.56702558162E+02 -0.36364488252E+03  0.56351130356E+03  0.67305109013E+03  0.00000000000E+00 0.  1.
          1    1    6    6  503    0  0.91710475268E+01  0.17768094193E+03  0.24165792693E+03  0.30008861839E+03  0.00000000000E+00 0. -1.
         -1    1    6    6    0  503  0.44399511935E+02  0.23869663877E+03  0.18363696416E+03  0.30441737241E+03  0.00000000000E+00 0.  1.
<mgrwt>
<rscale>  0 0.10595601E+04</rscale>
<asrwt>0</asrwt>
<pdfrwt beam="1">  1        1 0.31400953E-01 0.10595601E+04</pdfrwt>
<pdfrwt beam="2">  1       -2 0.21155421E+00 0.10595601E+04</pdfrwt>
<totfact> 0.14128294E+01</totfact>
</mgrwt>
</event>
<event>
12    5  0.5428626E-008  0.1930064E+04  0.7818608E-02  0.8640035E-01
         -2   -1    0    0    0  501 -0.00000000000E+00  0.00000000000E+00  0.43891371353E+04  0.43891371353E+04  0.00000000000E+00 0.  1.
          1   -1    0    0  501    0  0.00000000000E+00 -0.00000000000E+00 -0.21217993636E+03  0.21217993636E+03  0.00000000000E+00 0. -1.
        -24    2    1    2    0    0  0.42496391419E+03 -0.56761566578E+03  0.22184872479E+04  0.23304710239E+04  0.81410389594E+02 0.  0.
        254    2    1    2    0    0 -0.42496391419E+03  0.56761566578E+03  0.19584699511E+04  0.22708460478E+04  0.90462995269E+03 0.  0.
         23    2    4    4    0    0 -0.17484543747E+03  0.69581383438E+03  0.81438932191E+03  0.10890820083E+04  0.90232112374E+02 0.  0.
         23    2    4    4    0    0 -0.25011847671E+03 -0.12819816860E+03  0.11440806292E+04  0.11817640395E+04  0.93014709648E+02 0.  0.
          1    1    3    3  502    0  0.17010859744E+02 -0.10863241356E+02  0.34038905936E+02  0.39573052438E+02  0.00000000000E+00 0. -1.
         -2    1    3    3    0  502  0.40795305444E+03 -0.55675242442E+03  0.21844483420E+04  0.22908979714E+04  0.00000000000E+00 0.  1.
         13    1    5    5    0    0 -0.30544633066E+02  0.72455190243E+02  0.54411169583E+02  0.95620628411E+02  0.00000000000E+00 0. -1.
        -13    1    5    5    0    0 -0.14430080441E+03  0.62335864414E+03  0.75997815233E+03  0.99346137992E+03  0.00000000000E+00 0.  1.
          1    1    6    6  503    0 -0.10270105182E+02 -0.16216992149E+02  0.23496185187E+02  0.30340346293E+02  0.00000000000E+00 0. -1.
         -1    1    6    6    0  503 -0.23984837153E+03 -0.11198117645E+03  0.11205844440E+04  0.11514236932E+04  0.00000000000E+00 0.  1.
<mgrwt>
<rscale>  0 0.19300641E+04</rscale>
<asrwt>0</asrwt>
<pdfrwt beam="1">  1        1 0.32643071E-01 0.19300641E+04</pdfrwt>
<pdfrwt beam="2">  1       -2 0.67525180E+00 0.19300641E+04</pdfrwt>
<totfact> 0.30652650E-02</totfact>
</mgrwt>
</event>
<event>
12    5  0.5428626E-008  0.1843335E+04  0.7818608E-02  0.8683588E-01
          1   -1    0    0  501    0  0.00000000000E+00  0.00000000000E+00  0.27560517829E+04  0.27560517829E+04  0.00000000000E+00 0. -1.
         -2   -1    0    0    0  501 -0.00000000000E+00 -0.00000000000E+00 -0.30822019100E+03  0.30822019100E+03  0.00000000000E+00 0.  1.
        -24    2    1    2    0    0  0.61671836777E+03 -0.19287243281E+02  0.38505997631E+03  0.73088360283E+03  0.72153396516E+02 0.  0.
        254    2    1    2    0    0 -0.61671836777E+03  0.19287243281E+02  0.20627716155E+04  0.23333883710E+04  0.89942259770E+03 0.  0.
         23    2    4    4    0    0 -0.26841002340E+03 -0.35891130856E+02  0.53490005810E+02  0.29137312857E+03  0.93300618432E+02 0.  0.
         23    2    4    4    0    0 -0.34830834438E+03  0.55178374138E+02  0.20092816097E+04  0.20420152425E+04  0.90831203150E+02 0.  0.
          1    1    3    3  502    0  0.90040399793E+01  0.49831007799E+01 -0.12537928436E+01  0.10367064475E+02  0.00000000000E+00 0. -1.
         -2    1    3    3    0  502  0.60771432779E+03 -0.24270344061E+02  0.38631376915E+03  0.72051653836E+03  0.00000000000E+00 0.  1.
         13    1    5    5    0    0 -0.13673976244E+03 -0.29621332194E+02  0.73501738353E+02  0.15804332157E+03  0.00000000000E+00 0. -1.
        -13    1    5    5    0    0 -0.13167026095E+03 -0.62697986618E+01 -0.20011732543E+02  0.13332980700E+03  0.00000000000E+00 0.  1.
          3    1    6    6  503    0 -0.18960452126E+03  0.47968131041E+02  0.13362947809E+04  0.13505312131E+04  0.00000000000E+00 0. -1.
         -3    1    6    6    0  503 -0.15870382312E+03  0.72102430971E+01  0.67298682884E+03  0.69148402936E+03  0.00000000000E+00 0.  1.
<mgrwt>
<rscale>  0 0.18433348E+04</rscale>
<asrwt>0</asrwt>
<pdfrwt beam="1">  1        1 0.42400795E+00 0.18433348E+04</pdfrwt>
<pdfrwt beam="2">  1       -2 0.47418493E-01 0.18433348E+04</pdfrwt>
<totfact> 0.31227544E+00</totfact>
</mgrwt>
</event>
<event>
12    5  0.5428626E-008  0.1749625E+04  0.7818608E-02  0.8733557E-01
         -2   -1    0    0    0  501 -0.00000000000E+00  0.00000000000E+00  0.13725756716E+04  0.13725756716E+04  0.00000000000E+00 0.  1.
          1   -1    0    0  501    0  0.00000000000E+00 -0.00000000000E+00 -0.55756259594E+03  0.55756259594E+03  0.00000000000E+00 0. -1.
        -24    2    1    2    0    0  0.43209147986E+02  0.24641304634E+03  0.94575678994E+03  0.98156125812E+03  0.80126012351E+02 0.  0.
        254    2    1    2    0    0 -0.43209147986E+02 -0.24641304634E+03 -0.13074371424E+03  0.94857700947E+03  0.90560366839E+03 0.  0.
         23    2    4    4    0    0  0.36383341880E+02  0.10825080553E+03 -0.43859321796E+03  0.46349505264E+03  0.97065279672E+02 0.  0.
         23    2    4    4    0    0 -0.79592489866E+02 -0.35466385186E+03  0.30784950372E+03  0.48508195683E+03  0.91715732762E+02 0.  0.
          3    1    3    3  502    0  0.11354484683E+02  0.30996437822E+02  0.25931172733E+03  0.26140442883E+03  0.00000000000E+00 0. -1.
         -4    1    3    3    0  502  0.31854663303E+02  0.21541660851E+03  0.68644506261E+03  0.72015682930E+03  0.00000000000E+00 0.  1.
         13    1    5    5    0    0  0.25284391105E+02  0.12622894101E+03 -0.37450360135E+03  0.39601261773E+03  0.00000000000E+00 0. -1.
        -13    1    5    5    0    0  0.11098950775E+02 -0.17978135478E+02 -0.64089616610E+02  0.67482434906E+02  0.00000000000E+00 0.  1.
          4    1    6    6  503    0 -0.10671622451E+02 -0.14850132112E+03  0.17727707773E+03  0.23150310622E+03  0.00000000000E+00 0.  1.
         -4    1    6    6    0  503 -0.68920867415E+02 -0.20616253074E+03  0.13057242600E+03  0.25357885061E+03  0.00000000000E+00 0. -1.
<mgrwt>
<rscale>  0 0.17496249E+04</rscale>
<asrwt>0</asrwt>
<pdfrwt beam="1">  1        1 0.85778862E-01 0.17496249E+04</pdfrwt>
<pdfrwt beam="2">  1       -2 0.21116549E+00 0.17496249E+04</pdfrwt>
<totfact> 0.35487821E+00</totfact>
</mgrwt>
</event>
<event>
12    5  0.5428626E-008  0.1604417E+04  0.7818608E-02  0.8817839E-01
          1   -1    0    0  501    0  0.00000000000E+00  0.00000000000E+00  0.15837052898E+04  0.15837052898E+04  0.00000000000E+00 0. -1.
         -2   -1    0    0    0  501 -0.00000000000E+00 -0.00000000000E+00 -0.40634981569E+03  0.40634981569E+03  0.00000000000E+00 0.  1.
        -24    2    1    2    0    0  0.38856416282E+03  0.87954839764E+02 -0.31723193031E+02  0.40743676896E+03  0.79247695620E+02 0.  0.
        254    2    1    2    0    0 -0.38856416282E+03 -0.87954839764E+02  0.12090786672E+04  0.15826183365E+04  0.94026135373E+03 0.  0.
         23    2    4    4    0    0  0.17732259050E+03 -0.15536903342E+03  0.11068608901E+02  0.25322710964E+03  0.91753023408E+02 0.  0.
         23    2    4    4    0    0 -0.56588675332E+03  0.67414193652E+02  0.11980100583E+04  0.13293912269E+04  0.85325514375E+02 0.  0.
          1    1    3    3  502    0  0.10556508725E+03  0.55289916551E+01  0.21600019064E+02  0.10789401382E+03  0.00000000000E+00 0. -1.
         -2    1    3    3    0  502  0.28299907557E+03  0.82425848109E+02 -0.53323212095E+02  0.29954275514E+03  0.00000000000E+00 0.  1.
         13    1    5    5    0    0  0.13351969155E+03 -0.11684499077E+03  0.48476037682E+02  0.18392984024E+03  0.00000000000E+00 0. -1.
        -13    1    5    5    0    0  0.43802898954E+02 -0.38524042643E+02 -0.37407428780E+02  0.69297269400E+02  0.00000000000E+00 0.  1.
          3    1    6    6  503    0 -0.54046333973E+03  0.47219684741E+02  0.11484220240E+04  0.12701194690E+04  0.00000000000E+00 0. -1.
         -3    1    6    6    0  503 -0.25423413589E+02  0.20194508912E+02  0.49588034248E+02  0.59271757940E+02  0.00000000000E+00 0.  1.
<mgrwt>
<rscale>  0 0.16044168E+04</rscale>
<asrwt>0</asrwt>
<pdfrwt beam="1">  1        1 0.24364696E+00 0.16044168E+04</pdfrwt>
<pdfrwt beam="2">  1       -2 0.62515357E-01 0.16044168E+04</pdfrwt>
<totfact> 0.11439559E+01</totfact>
</mgrwt>
</event>
<event>
12    5  0.5428626E-008  0.3171132E+04  0.7818608E-02  0.8196483E-01
         -4   -1    0    0    0  501 -0.00000000000E+00  0.00000000000E+00  0.25018149207E+04  0.25018149207E+04  0.00000000000E+00 0.  1.
          3   -1    0    0  501    0  0.00000000000E+00 -0.00000000000E+00 -0.10048785601E+04  0.10048785601E+04  0.00000000000E+00 0. -1.
        -24    2    1    2    0    0  0.67463836620E+03  0.60927898659E+03  0.19446750597E+04  0.21481258223E+04  0.79533968367E+02 0.  0.
        254    2    1    2    0    0 -0.67463836620E+03 -0.60927898659E+03 -0.44773869915E+03  0.13585676585E+04  0.90491896399E+03 0.  0.
         23    2    4    4    0    0  0.50497486644E+02 -0.27028911334E+03  0.17604253522E+03  0.33947108657E+03  0.92970121352E+02 0.  0.
         23    2    4    4    0    0 -0.72513585284E+03 -0.33898987325E+03 -0.62378123437E+03  0.10190965719E+04  0.93373740145E+02 0.  0.
          1    1    3    3  502    0  0.23894232016E+03  0.22891038637E+03  0.62243912485E+03  0.70492826692E+03  0.00000000000E+00 0. -1.
         -2    1    3    3    0  502  0.43569604603E+03  0.38036860022E+03  0.13222359349E+04  0.14431975554E+04  0.00000000000E+00 0.  1.
         13    1    5    5    0    0  0.38415091070E+02 -0.28724815464E+02  0.22477518534E+02  0.52972380396E+02  0.00000000000E+00 0. -1.
        -13    1    5    5    0    0  0.12082395575E+02 -0.24156429787E+03  0.15356501669E+03  0.28649870617E+03  0.00000000000E+00 0.  1.
          3    1    6    6  503    0 -0.86652220050E+02 -0.10068204543E+02 -0.78106669089E+02  0.11709238975E+03  0.00000000000E+00 0. -1.
         -3    1    6    6    0  503 -0.63848363279E+03 -0.32892166871E+03 -0.54567456528E+03  0.90200418219E+03  0.00000000000E+00 0.  1.
<mgrwt>
<rscale>  0 0.31711324E+04</rscale>
<asrwt>0</asrwt>
<pdfrwt beam="1">  1        3 0.15459670E+00 0.31711324E+04</pdfrwt>
<pdfrwt beam="2">  1       -4 0.38489460E+00 0.31711324E+04</pdfrwt>
<totfact> 0.49390678E-03</totfact>
</mgrwt>
</event>
<event>
12    5  0.5428626E-008  0.1971067E+04  0.7818608E-02  0.8620269E-01
         -2   -1    0    0    0  501 -0.00000000000E+00  0.00000000000E+00  0.81761048594E+03  0.81761048594E+03  0.00000000000E+00 0.  1.
          3   -1    0    0  501    0  0.00000000000E+00 -0.00000000000E+00 -0.11879445760E+04  0.11879445760E+04  0.00000000000E+00 0. -1.
        -24    2    1    2    0    0 -0.12440154569E+03 -0.59575637916E+02  0.62942434269E+03  0.64919112282E+03  0.79051309771E+02 0.  0.
        254    2    1    2    0    0  0.12440154569E+03  0.59575637916E+02 -0.99975843272E+03  0.13563639391E+04  0.90619049335E+03 0.  0.
         23    2    4    4    0    0  0.73589276628E+02  0.29797375970E+03  0.30716995138E+01  0.32015224337E+03  0.91018022902E+02 0.  0.
         23    2    4    4    0    0  0.50812269060E+02 -0.23839812178E+03 -0.10028301322E+04  0.10362116957E+04  0.93009962163E+02 0.  0.
          3    1    3    3  502    0 -0.65656646993E+01 -0.35615163419E+00  0.19685973091E+03  0.19696951147E+03  0.00000000000E+00 0. -1.
         -4    1    3    3    0  502 -0.11783588099E+03 -0.59219486282E+02  0.43256461178E+03  0.45222161135E+03  0.00000000000E+00 0.  1.
         13    1    5    5    0    0  0.62422817243E+02  0.87035203505E+02 -0.14978800991E+02  0.10814850550E+03  0.00000000000E+00 0.  1.
        -13    1    5    5    0    0  0.11166459385E+02  0.21093855619E+03  0.18050500504E+02  0.21200373787E+03  0.00000000000E+00 0. -1.
          1    1    6    6  503    0  0.61975533298E+02 -0.78131402962E+02 -0.41613431852E+03  0.42791734471E+03  0.00000000000E+00 0. -1.
         -1    1    6    6    0  503 -0.11163264238E+02 -0.16026671882E+03 -0.58669581372E+03  0.60829435101E+03  0.00000000000E+00 0.  1.
<mgrwt>
<rscale>  0 0.19710667E+04</rscale>
<asrwt>0</asrwt>
<pdfrwt beam="1">  1        3 0.18276070E+00 0.19710667E+04</pdfrwt>
<pdfrwt beam="2">  1       -2 0.12578623E+00 0.19710667E+04</pdfrwt>
<totfact> 0.34514275E-01</totfact>
</mgrwt>
</event>
<event>
12    5  0.5428626E-008  0.1919111E+04  0.7818608E-02  0.8645401E-01
          1   -1    0    0  501    0  0.00000000000E+00  0.00000000000E+00  0.21257390793E+04  0.21257390793E+04  0.00000000000E+00 0. -1.
         -2   -1    0    0    0  501 -0.00000000000E+00 -0.00000000000E+00 -0.43314216142E+03  0.43314216142E+03  0.00000000000E+00 0.  1.
        -24    2    1    2    0    0  0.20528949759E+03 -0.69316769995E+03  0.92835188766E+03  0.11792755412E+04  0.78919810908E+02 0.  0.
        254    2    1    2    0    0 -0.20528949759E+03  0.69316769995E+03  0.76424503017E+03  0.13796056995E+04  0.89253357469E+03 0.  0.
         23    2    4    4    0    0 -0.46750881428E+02 -0.11169239161E+03  0.48567705558E+03  0.50843891680E+03  0.89258582424E+02 0.  0.
         23    2    4    4    0    0 -0.15853861616E+03  0.80486009156E+03  0.27856797459E+03  0.87116678273E+03  0.91636166781E+02 0.  0.
          3    1    3    3  502    0  0.18170877404E+03 -0.52166542824E+03  0.74009398338E+03  0.92352152212E+03  0.00000000000E+00 0. -1.
         -4    1    3    3    0  502  0.23580723550E+02 -0.17150227171E+03  0.18825790428E+03  0.25575401903E+03  0.00000000000E+00 0.  1.
         13    1    5    5    0    0 -0.67123957384E+02 -0.57821106083E+02  0.35009680301E+03  0.36113249292E+03  0.00000000000E+00 0. -1.
        -13    1    5    5    0    0  0.20373075956E+02 -0.53871285527E+02  0.13558025257E+03  0.14730642388E+03  0.00000000000E+00 0.  1.
          1    1    6    6  503    0 -0.16704913856E+03  0.78977129295E+03  0.27820474145E+03  0.85383955637E+03  0.00000000000E+00 0. -1.
         -1    1    6    6    0  503  0.85105223956E+01  0.15088798609E+02  0.36323314434E+00  0.17327226357E+02  0.00000000000E+00 0.  1.
<mgrwt>
<rscale>  0 0.19191115E+04</rscale>
<asrwt>0</asrwt>
<pdfrwt beam="1">  1        1 0.32703678E+00 0.19191115E+04</pdfrwt>
<pdfrwt beam="2">  1       -2 0.66637256E-01 0.19191115E+04</pdfrwt>
<totfact> 0.41551368E+00</totfact>
</mgrwt>
</event>
<event>
12    5  0.5428626E-008  0.1839042E+04  0.7818608E-02  0.8685808E-01
         -2   -1    0    0    0  501 -0.00000000000E+00  0.00000000000E+00  0.40031786551E+03  0.40031786551E+03  0.00000000000E+00 0.  1.
          1   -1    0    0  501    0  0.00000000000E+00 -0.00000000000E+00 -0.21121196555E+04  0.21121196555E+04  0.00000000000E+00 0. -1.
        -24    2    1    2    0    0 -0.70100246054E+03 -0.38710807511E+02 -0.64112082212E+03  0.95421422546E+03  0.81153577929E+02 0.  0.
        254    2    1    2    0    0  0.70100246054E+03  0.38710807511E+02 -0.10706809678E+04  0.15582232955E+04  0.88814364125E+03 0.  0.
         23    2    4    4    0    0  0.86182780480E+02  0.22375259391E+03  0.55925728975E+02  0.25848973125E+03  0.78718225792E+02 0.  0.
         23    2    4    4    0    0  0.61481968006E+03 -0.18504178639E+03 -0.11266066968E+04  0.12997335643E+04  0.88436344723E+02 0.  0.
          1    1    3    3  502    0 -0.45213073218E+03 -0.21409777352E+02 -0.46435862975E+03  0.64846704971E+03  0.00000000000E+00 0. -1.
         -2    1    3    3    0  502 -0.24887172836E+03 -0.17301030159E+02 -0.17676219237E+03  0.30574717574E+03  0.00000000000E+00 0.  1.
         13    1    5    5    0    0 -0.13366154178E+02  0.47715106777E+02  0.18056767355E+02  0.52739286491E+02  0.00000000000E+00 0. -1.
        -13    1    5    5    0    0  0.99548934659E+02  0.17603748713E+03  0.37868961620E+02  0.20575044476E+03  0.00000000000E+00 0.  1.
          2    1    6    6  503    0  0.17297012629E+03 -0.26451790535E+02 -0.37055757729E+03  0.40979419212E+03  0.00000000000E+00 0. -1.
         -2    1    6    6    0  503  0.44184955377E+03 -0.15858999586E+03 -0.75604911952E+03  0.88993937213E+03  0.00000000000E+00 0.  1.
<mgrwt>
<rscale>  0 0.18390424E+04</rscale>
<asrwt>0</asrwt>
<pdfrwt beam="1">  1        1 0.32494149E+00 0.18390424E+04</pdfrwt>
<pdfrwt beam="2">  1       -2 0.61587364E-01 0.18390424E+04</pdfrwt>
<totfact> 0.50611646E+00</totfact>
</mgrwt>
</event>
<event>
12    5  0.5428626E-008  0.1948975E+04  0.7818608E-02  0.8630855E-01
          1   -1    0    0  501    0  0.00000000000E+00  0.00000000000E+00  0.17590401444E+04  0.17590401444E+04  0.00000000000E+00 0. -1.
         -2   -1    0    0    0  501 -0.00000000000E+00 -0.00000000000E+00 -0.53985481029E+03  0.53985481029E+03  0.00000000000E+00 0.  1.
        -24    2    1    2    0    0 -0.67876561160E+03  0.34611590026E+03  0.40025286754E+03  0.86422624484E+03  0.78521795625E+02 0.  0.
        254    2    1    2    0    0  0.67876561160E+03 -0.34611590026E+03  0.81893246659E+03  0.14346687099E+04  0.89839019941E+03 0.  0.
         23    2    4    4    0    0  0.61232610650E+03 -0.56221816549E+03  0.35189968820E+03  0.90780156331E+03  0.96113274237E+02 0.  0.
         23    2    4    4    0    0  0.66439505098E+02  0.21610226523E+03  0.46703277839E+03  0.52686714658E+03  0.91405564262E+02 0.  0.
          3    1    3    3  502    0 -0.48078887422E+03  0.26165022796E+03  0.25022200198E+03  0.60185532617E+03  0.00000000000E+00 0. -1.
         -4    1    3    3    0  502 -0.19797673738E+03  0.84465672294E+02  0.15003086556E+03  0.26237091867E+03  0.00000000000E+00 0.  1.
         13    1    5    5    0    0  0.11449093035E+03 -0.97860509843E+02  0.25286897705E+02  0.15272288536E+03  0.00000000000E+00 0. -1.
        -13    1    5    5    0    0  0.49783517615E+03 -0.46435765564E+03  0.32661279050E+03  0.75507867794E+03  0.00000000000E+00 0.  1.
          1    1    6    6  503    0 -0.10062309222E+02 -0.32291803905E+01  0.32025330857E+02  0.33723871210E+02  0.00000000000E+00 0. -1.
         -1    1    6    6    0  503  0.76501814321E+02  0.21933144562E+03  0.43500744753E+03  0.49314327537E+03  0.00000000000E+00 0.  1.
<mgrwt>
<rscale>  0 0.19489754E+04</rscale>
<asrwt>0</asrwt>
<pdfrwt beam="1">  1        1 0.27062156E+00 0.19489754E+04</pdfrwt>
<pdfrwt beam="2">  1       -2 0.83054587E-01 0.19489754E+04</pdfrwt>
<totfact> 0.45129796E+00</totfact>
</mgrwt>
</event>
<event>
12    5  0.5428626E-008  0.1090601E+04  0.7818608E-02  0.9214401E-01
          1   -1    0    0  501    0  0.00000000000E+00  0.00000000000E+00  0.17550644349E+04  0.17550644349E+04  0.00000000000E+00 0. -1.
         -2   -1    0    0    0  501 -0.00000000000E+00 -0.00000000000E+00 -0.16942558010E+03  0.16942558010E+03  0.00000000000E+00 0.  1.
        -24    2    1    2    0    0 -0.84930947756E+02  0.12184928858E+03  0.45155017420E+03  0.48229617345E+03  0.81556876426E+02 0.  0.
        254    2    1    2    0    0  0.84930947756E+02 -0.12184928858E+03  0.11340886806E+04  0.14421938415E+04  0.87846765799E+03 0.  0.
         23    2    4    4    0    0 -0.13242232691E+03 -0.26162514572E+03  0.33890604467E+02  0.30912823465E+03  0.91805788768E+02 0.  0.
         23    2    4    4    0    0  0.21735327467E+03  0.13977585714E+03  0.11001980761E+04  0.11330656069E+04  0.81376449803E+02 0.  0.
          1    1    3    3  502    0 -0.87410597890E+02  0.91350946090E+02  0.41883010195E+03  0.43749772831E+03  0.00000000000E+00 0. -1.
         -2    1    3    3    0  502  0.24796501337E+01  0.30498342489E+02  0.32720072255E+02  0.44798445149E+02  0.00000000000E+00 0.  1.
         13    1    5    5    0    0 -0.22783182059E+01  0.56331090613E+01 -0.67719218169E+01  0.90984381428E+01  0.00000000000E+00 0.  1.
        -13    1    5    5    0    0 -0.13014400871E+03 -0.26725825478E+03  0.40662526284E+02  0.30002979651E+03  0.00000000000E+00 0. -1.
          2    1    6    6  503    0  0.47955559441E+02  0.75957653843E+02  0.37781201917E+03  0.38834420646E+03  0.00000000000E+00 0.  1.
         -2    1    6    6    0  503  0.16939771523E+03  0.63818203293E+02  0.72238605695E+03  0.74472140044E+03  0.00000000000E+00 0. -1.
<mgrwt>
<rscale>  0 0.10906013E+04</rscale>
<asrwt>0</asrwt>
<pdfrwt beam="1">  1        1 0.27000990E+00 0.10906013E+04</pdfrwt>
<pdfrwt beam="2">  1       -2 0.26065475E-01 0.10906013E+04</pdfrwt>
<totfact> 0.50920826E+01</totfact>
</mgrwt>
</event>
<event>
12    5  0.5428626E-008  0.1549177E+04  0.7818608E-02  0.8852393E-01
          1   -1    0    0  501    0  0.00000000000E+00  0.00000000000E+00  0.17099640321E+04  0.17099640321E+04  0.00000000000E+00 0. -1.
         -2   -1    0    0    0  501 -0.00000000000E+00 -0.00000000000E+00 -0.35087727816E+03  0.35087727816E+03  0.00000000000E+00 0.  1.
        -24    2    1    2    0    0  0.68525503310E+02  0.16007835393E+03  0.10783436452E+04  0.10951118131E+04  0.78256259078E+02 0.  0.
        254    2    1    2    0    0 -0.68525503310E+02 -0.16007835393E+03  0.28074310878E+03  0.96572949720E+03  0.90746677329E+03 0.  0.
         23    2    4    4    0    0  0.14860105620E+03  0.19722444740E+03 -0.19431614606E+03  0.32733447041E+03  0.91702422795E+02 0.  0.
         23    2    4    4    0    0 -0.21712655951E+03 -0.35730280133E+03  0.47505925484E+03  0.63839502678E+03  0.84009998989E+02 0.  0.
          3    1    3    3  502    0  0.48538310474E+02  0.39674646908E+02  0.50810559201E+03  0.51195833603E+03  0.00000000000E+00 0. -1.
         -4    1    3    3    0  502  0.19987192836E+02  0.12040370702E+03  0.57023805317E+03  0.58315347708E+03  0.00000000000E+00 0.  1.
         13    1    5    5    0    0  0.99789819319E+02  0.17304906200E+03 -0.18461965397E+03  0.27200809277E+03  0.00000000000E+00 0.  1.
        -13    1    5    5    0    0  0.48811236877E+02  0.24175385402E+02 -0.96964920903E+01  0.55326377648E+02  0.00000000000E+00 0. -1.
          1    1    6    6  503    0 -0.43230545947E+02 -0.14603248895E+03  0.18526404417E+03  0.23982730035E+03  0.00000000000E+00 0.  1.
         -1    1    6    6    0  503 -0.17389601356E+03 -0.21127031238E+03  0.28979521067E+03  0.39856772643E+03  0.00000000000E+00 0. -1.
<mgrwt>
<rscale>  0 0.15491772E+04</rscale>
<asrwt>0</asrwt>
<pdfrwt beam="1">  1        1 0.26307138E+00 0.15491772E+04</pdfrwt>
<pdfrwt beam="2">  1       -2 0.53981121E-01 0.15491772E+04</pdfrwt>
<totfact> 0.12825556E+01</totfact>
</mgrwt>
</event>
<event>
12    5  0.5428626E-008  0.1904742E+04  0.7818608E-02  0.8652500E-01
          1   -1    0    0  501    0  0.00000000000E+00  0.00000000000E+00  0.79790649959E+03  0.79790649959E+03  0.00000000000E+00 0. -1.
         -2   -1    0    0    0  501 -0.00000000000E+00 -0.00000000000E+00 -0.11367378786E+04  0.11367378786E+04  0.00000000000E+00 0.  1.
        -24    2    1    2    0    0 -0.70435766666E+02 -0.52698077304E+02  0.60896797680E+03  0.62038273121E+03  0.79337581458E+02 0.  0.
        254    2    1    2    0    0  0.70435766666E+02  0.52698077304E+02 -0.94779935583E+03  0.13142616470E+04  0.90621287415E+03 0.  0.
         23    2    4    4    0    0 -0.35939780298E+03 -0.15590236129E+03 -0.57160755163E+03  0.69957365838E+03  0.95894647247E+02 0.  0.
         23    2    4    4    0    0  0.42983356965E+03  0.20860043860E+03 -0.37619180421E+03  0.61468798862E+03  0.89721843626E+02 0.  0.
          3    1    3    3  502    0 -0.74209707728E+02 -0.52757076629E+02  0.35835685977E+03  0.36974319304E+03  0.00000000000E+00 0. -1.
         -4    1    3    3    0  502  0.37739410618E+01  0.58999324911E-01  0.25061111704E+03  0.25063953817E+03  0.00000000000E+00 0.  1.
         13    1    5    5    0    0 -0.22920767238E+03 -0.64624719714E+02 -0.40082691220E+03  0.46623462443E+03  0.00000000000E+00 0. -1.
        -13    1    5    5    0    0 -0.13019013060E+03 -0.91277641579E+02 -0.17078063943E+03  0.23333903394E+03  0.00000000000E+00 0.  1.
          4    1    6    6  503    0  0.17197126801E+03  0.58068379859E+02 -0.19020996445E+03  0.26291801828E+03  0.00000000000E+00 0.  1.
         -4    1    6    6    0  503  0.25786230164E+03  0.15053205874E+03 -0.18598183976E+03  0.35176997034E+03  0.00000000000E+00 0. -1.
<mgrwt>
<rscale>  0 0.19047420E+04</rscale>
<asrwt>0</asrwt>
<pdfrwt beam="1">  1        1 0.12275485E+00 0.19047420E+04</pdfrwt>
<pdfrwt beam="2">  1       -2 0.17488275E+00 0.19047420E+04</pdfrwt>
<totfact> 0.35794447E+00</totfact>
</mgrwt>
</event>
<event>
12    5  0.5428626E-008  0.1324318E+04  0.7818608E-02  0.9010500E-01
          1   -1    0    0  501    0  0.00000000000E+00  0.00000000000E+00  0.34229140435E+04  0.34229140435E+04  0.00000000000E+00 0. -1.
         -2   -1    0    0    0  501 -0.00000000000E+00 -0.00000000000E+00 -0.12809396240E+03  0.12809396240E+03  0.00000000000E+00 0.  1.
        -24    2    1    2    0    0 -0.25350176328E+03  0.45325493485E+02  0.24916629510E+03  0.36650960878E+03  0.76992898169E+02 0.  0.
        254    2    1    2    0    0  0.25350176328E+03 -0.45325493485E+02  0.30456537860E+04  0.31844983971E+04  0.89370325764E+03 0.  0.
         23    2    4    4    0    0 -0.28971600965E+03 -0.13696457559E+03  0.73290486368E+03  0.80522113978E+03  0.92395257069E+02 0.  0.
         23    2    4    4    0    0  0.54321777293E+03  0.91639082104E+02  0.23127489223E+04  0.23792772574E+04  0.93109716922E+02 0.  0.
          3    1    3    3  502    0 -0.13856290269E+03  0.65982385755E+01  0.17875023270E+03  0.22626281277E+03  0.00000000000E+00 0. -1.
         -4    1    3    3    0  502 -0.11493886058E+03  0.38727254909E+02  0.70416062406E+02  0.14024679601E+03  0.00000000000E+00 0.  1.
         13    1    5    5    0    0 -0.26675103862E+03 -0.14846773164E+03  0.69838110982E+03  0.76219089374E+03  0.00000000000E+00 0. -1.
        -13    1    5    5    0    0 -0.22964971035E+02  0.11503156056E+02  0.34523753855E+02  0.43030246039E+02  0.00000000000E+00 0.  1.
          3    1    6    6  503    0  0.47844192293E+03  0.48912805358E+02  0.19704582852E+04  0.20283010106E+04  0.00000000000E+00 0. -1.
         -3    1    6    6    0  503  0.64775849999E+02  0.42726276746E+02  0.34229063716E+03  0.35097624671E+03  0.00000000000E+00 0.  1.
<mgrwt>
<rscale>  0 0.13243181E+04</rscale>
<asrwt>0</asrwt>
<pdfrwt beam="1">  1        1 0.52660209E+00 0.13243181E+04</pdfrwt>
<pdfrwt beam="2">  1       -2 0.19706766E-01 0.13243181E+04</pdfrwt>
<totfact> 0.55109471E+00</totfact>
</mgrwt>
</event>
<event>
12    5  0.5428626E-008  0.1662201E+04  0.7818608E-02  0.8783221E-01
          1   -1    0    0  501    0  0.00000000000E+00  0.00000000000E+00  0.18955285293E+04  0.18955285293E+04  0.00000000000E+00 0. -1.
         -2   -1    0    0    0  501 -0.00000000000E+00 -0.00000000000E+00 -0.36439868976E+03  0.36439868976E+03  0.00000000000E+00 0.  1.
        -24    2    1    2    0    0  0.35364338292E+03  0.47432483307E+03  0.52628254603E+03  0.79600349752E+03  0.81243832138E+02 0.  0.
        254    2    1    2    0    0 -0.35364338292E+03 -0.47432483307E+03  0.10048472935E+04  0.14639237215E+04  0.88504626413E+03 0.  0.
         23    2    4    4    0    0  0.16631770599E+03  0.15332256928E+03  0.24485722289E+03  0.34581913072E+03  0.92013162073E+02 0.  0.
         23    2    4    4    0    0 -0.51996108891E+03 -0.62764740235E+03  0.75999007063E+03  0.11181045908E+04  0.90951486513E+02 0.  0.
          3    1    3    3  502    0  0.30969816764E+03  0.39580414409E+03  0.47936483064E+03  0.69452466938E+03  0.00000000000E+00 0. -1.
         -4    1    3    3    0  502  0.43945215278E+02  0.78520688984E+02  0.46917715387E+02  0.10147882814E+03  0.00000000000E+00 0.  1.
         13    1    5    5    0    0  0.24697933981E+02  0.65128985582E+02  0.35692616232E+02  0.78267078388E+02  0.00000000000E+00 0. -1.
        -13    1    5    5    0    0  0.14161977201E+03  0.88193583699E+02  0.20916460666E+03  0.26755205233E+03  0.00000000000E+00 0.  1.
          2    1    6    6  503    0 -0.81282836216E+02 -0.13522089035E+03  0.11150807752E+03  0.19319844720E+03  0.00000000000E+00 0. -1.
         -2    1    6    6    0  503 -0.43867825269E+03 -0.49242651200E+03  0.64848199311E+03  0.92490614362E+03  0.00000000000E+00 0.  1.
<mgrwt>
<rscale>  0 0.16622011E+04</rscale>
<asrwt>0</asrwt>
<pdfrwt beam="1">  1        1 0.29161977E+00 0.16622011E+04</pdfrwt>
<pdfrwt beam="2">  1       -2 0.56061338E-01 0.16622011E+04</pdfrwt>
<totfact> 0.87858465E+00</totfact>
</mgrwt>
</event>
<event>
12    5  0.5428626E-008  0.1654516E+04  0.7818608E-02  0.8787739E-01
          1   -1    0    0  501    0  0.00000000000E+00  0.00000000000E+00  0.10569459502E+04  0.10569459502E+04  0.00000000000E+00 0. -1.
         -2   -1    0    0    0  501 -0.00000000000E+00 -0.00000000000E+00 -0.64748398906E+03  0.64748398906E+03  0.00000000000E+00 0.  1.
        -24    2    1    2    0    0  0.38232373719E+03 -0.16281880599E+03 -0.26390480775E+03  0.50378883186E+03  0.10712626171E+03 0.  0.
        254    2    1    2    0    0 -0.38232373719E+03  0.16281880599E+03  0.67336676887E+03  0.12006411074E+04  0.90301431867E+03 0.  0.
         23    2    4    4    0    0 -0.44311769660E+03 -0.27473263776E+03  0.26561574981E+03  0.59245612629E+03  0.92850523618E+02 0.  0.
         23    2    4    4    0    0  0.60793959408E+02  0.43755144376E+03  0.40775101906E+03  0.60818498110E+03  0.92091836008E+02 0.  0.
          1    1    3    3  502    0  0.57917581274E+01  0.12461827510E+02 -0.10009502621E+02  0.17000933792E+02  0.00000000000E+00 0. -1.
         -2    1    3    3    0  502  0.37653197906E+03 -0.17528063350E+03 -0.25389530513E+03  0.48678789807E+03  0.00000000000E+00 0.  1.
         13    1    5    5    0    0 -0.43488196645E+03 -0.28080351071E+03  0.25289895930E+03  0.57613437667E+03  0.00000000000E+00 0.  1.
        -13    1    5    5    0    0 -0.82357301522E+01  0.60708729496E+01  0.12716790517E+02  0.16321749617E+02  0.00000000000E+00 0. -1.
          1    1    6    6  503    0  0.71305863098E+02  0.19074176539E+03  0.16890023757E+03  0.26456424064E+03  0.00000000000E+00 0.  1.
         -1    1    6    6    0  503 -0.10511903690E+02  0.24680967837E+03  0.23885078149E+03  0.34362074046E+03  0.00000000000E+00 0. -1.
<mgrwt>
<rscale>  0 0.16545157E+04</rscale>
<asrwt>0</asrwt>
<pdfrwt beam="1">  1        1 0.16260707E+00 0.16545157E+04</pdfrwt>
<pdfrwt beam="2">  1       -2 0.99612921E-01 0.16545157E+04</pdfrwt>
<totfact> 0.95449310E+00</totfact>
</mgrwt>
</event>
<event>
12    5  0.5428626E-008  0.1237047E+04  0.7818608E-02  0.9081033E-01
          1   -1    0    0  501    0  0.00000000000E+00  0.00000000000E+00  0.59145618487E+03  0.59145618487E+03  0.00000000000E+00 0. -1.
         -2   -1    0    0    0  501 -0.00000000000E+00 -0.00000000000E+00 -0.64682996752E+03  0.64682996752E+03  0.00000000000E+00 0.  1.
        -24    2    1    2    0    0 -0.18468497585E+03 -0.38220358155E+02 -0.21971894772E+03  0.30007224989E+03  0.78724856853E+02 0.  0.
        254    2    1    2    0    0  0.18468497585E+03  0.38220358155E+02  0.16434516506E+03  0.93821390249E+03  0.90424922310E+03 0.  0.
         23    2    4    4    0    0  0.19752062812E+03  0.38505627918E+03  0.32091357654E+03  0.54622545802E+03  0.89966608892E+02 0.  0.
         23    2    4    4    0    0 -0.12835652272E+02 -0.34683592102E+03 -0.15656841147E+03  0.39198844448E+03  0.93173832438E+02 0.  0.
          1    1    3    3  502    0 -0.40975680504E+02 -0.25672808433E+02 -0.16978666007E+02  0.51248166650E+02  0.00000000000E+00 0. -1.
         -2    1    3    3    0  502 -0.14370929534E+03 -0.12547549722E+02 -0.20274028171E+03  0.24882408324E+03  0.00000000000E+00 0.  1.
         13    1    5    5    0    0  0.19565926801E+03  0.35913657841E+03  0.27301108132E+03  0.49172825995E+03  0.00000000000E+00 0. -1.
        -13    1    5    5    0    0  0.18613601091E+01  0.25919700767E+02  0.47902495216E+02  0.54497198067E+02  0.00000000000E+00 0.  1.
          4    1    6    6  503    0 -0.17165690854E+02 -0.30937467117E+03 -0.10308761878E+03  0.32654923862E+03  0.00000000000E+00 0. -1.
         -4    1    6    6    0  503  0.43300385822E+01 -0.37461249856E+02 -0.53480792698E+02  0.65439205851E+02  0.00000000000E+00 0.  1.
<mgrwt>
<rscale>  0 0.12370474E+04</rscale>
<asrwt>0</asrwt>
<pdfrwt beam="1">  1        1 0.90993259E-01 0.12370474E+04</pdfrwt>
<pdfrwt beam="2">  1       -2 0.99512303E-01 0.12370474E+04</pdfrwt>
<totfact> 0.25241782E+01</totfact>
</mgrwt>
</event>
<event>
12    5  0.5428626E-008  0.1322939E+04  0.7818608E-02  0.9011570E-01
          1   -1    0    0  501    0  0.00000000000E+00  0.00000000000E+00  0.81274028533E+03  0.81274028533E+03  0.00000000000E+00 0. -1.
         -2   -1    0    0    0  501 -0.00000000000E+00 -0.00000000000E+00 -0.53835387308E+03  0.53835387308E+03  0.00000000000E+00 0.  1.
        -24    2    1    2    0    0  0.11064865744E+03 -0.83809122152E+02 -0.25353314899E+03  0.29991937451E+03  0.80034237787E+02 0.  0.
        254    2    1    2    0    0 -0.11064865744E+03  0.83809122152E+02  0.52791956124E+03  0.10511747839E+04  0.89833305005E+03 0.  0.
         23    2    4    4    0    0 -0.19559563006E+03 -0.22725922364E+03 -0.10752720699E+03  0.33132716394E+03  0.91165695805E+02 0.  0.
         23    2    4    4    0    0  0.84946972620E+02  0.31106834580E+03  0.63544676823E+03  0.71984761996E+03  0.10202204073E+03 0.  0.
          1    1    3    3  502    0  0.37002229215E+02  0.12175100923E+02 -0.69736699425E+02  0.79878691126E+02  0.00000000000E+00 0. -1.
         -4    1    3    3    0  502  0.73646428224E+02 -0.95984223074E+02 -0.18379644957E+03  0.22004068338E+03  0.00000000000E+00 0.  1.
         13    1    5    5    0    0 -0.67536737425E+02 -0.65322224684E+02  0.87788268009E+01  0.94367747349E+02  0.00000000000E+00 0. -1.
        -13    1    5    5    0    0 -0.12805889263E+03 -0.16193699896E+03 -0.11630603379E+03  0.23695941659E+03  0.00000000000E+00 0.  1.
          4    1    6    6  503    0  0.56342499962E+02  0.53262847643E+02  0.12103727394E+03  0.14374084292E+03  0.00000000000E+00 0. -1.
         -4    1    6    6    0  503  0.28604472657E+02  0.25780549815E+03  0.51440949429E+03  0.57610677704E+03  0.00000000000E+00 0.  1.
<mgrwt>
<rscale>  0 0.13229390E+04</rscale>
<asrwt>0</asrwt>
<pdfrwt beam="1">  1        1 0.12503697E+00 0.13229390E+04</pdfrwt>
<pdfrwt beam="2">  1       -2 0.82823673E-01 0.13229390E+04</pdfrwt>
<totfact> 0.23675202E+01</totfact>
</mgrwt>
</event>
<event>
12    5  0.5428626E-008  0.3546363E+04  0.7818608E-02  0.8102890E-01
         -2   -1    0    0    0  501 -0.00000000000E+00  0.00000000000E+00  0.22333208920E+04  0.22333208920E+04  0.00000000000E+00 0.  1.
          1   -1    0    0  501    0  0.00000000000E+00 -0.00000000000E+00 -0.14078461307E+04  0.14078461307E+04  0.00000000000E+00 0. -1.
        -24    2    1    2    0    0  0.13658996843E+04 -0.93311716547E+03  0.44918491284E+03  0.17159179447E+04  0.78852490004E+02 0.  0.
        254    2    1    2    0    0 -0.13658996843E+04  0.93311716547E+03  0.37628984844E+03  0.19252490779E+04  0.91027488702E+03 0.  0.
         23    2    4    4    0    0 -0.14256138335E+03  0.57921359677E+03  0.20350897445E+03  0.63689685571E+03  0.91703671882E+02 0.  0.
         23    2    4    4    0    0 -0.12233383009E+04  0.35390356870E+03  0.17278087399E+03  0.12883522222E+04  0.90520072621E+02 0.  0.
          3    1    3    3  502    0  0.10051473239E+04 -0.65644606815E+03  0.29997425009E+03  0.12374276277E+04  0.00000000000E+00 0. -1.
         -4    1    3    3    0  502  0.36075236039E+03 -0.27667109731E+03  0.14921066275E+03  0.47849031703E+03  0.00000000000E+00 0.  1.
         13    1    5    5    0    0 -0.49394777608E+02  0.24598040156E+03  0.13228929237E+03  0.28363120224E+03  0.00000000000E+00 0. -1.
        -13    1    5    5    0    0 -0.93166605738E+02  0.33323319521E+03  0.71219682084E+02  0.35326565348E+03  0.00000000000E+00 0.  1.
          1    1    6    6  503    0 -0.11065912931E+04  0.29495085830E+03  0.14203043192E+03  0.11539986752E+04  0.00000000000E+00 0. -1.
         -1    1    6    6    0  503 -0.11674700782E+03  0.58952710402E+02  0.30750442070E+02  0.13435354698E+03  0.00000000000E+00 0.  1.
<mgrwt>
<rscale>  0 0.35463627E+04</rscale>
<asrwt>0</asrwt>
<pdfrwt beam="1">  1        1 0.21659171E+00 0.35463627E+04</pdfrwt>
<pdfrwt beam="2">  1       -2 0.34358783E+00 0.35463627E+04</pdfrwt>
<totfact> 0.92392404E-02</totfact>
</mgrwt>
</event>
<event>
12    5  0.5428626E-008  0.3223806E+04  0.7818608E-02  0.8182558E-01
          1   -1    0    0  501    0  0.00000000000E+00  0.00000000000E+00  0.38782849466E+04  0.38782849466E+04  0.00000000000E+00 0. -1.
         -2   -1    0    0    0  501 -0.00000000000E+00 -0.00000000000E+00 -0.66994322111E+03  0.66994322111E+03  0.00000000000E+00 0.  1.
        -24    2    1    2    0    0 -0.54867147228E+03  0.36017278808E+03  0.33590953665E+04  0.34235433138E+04  0.79764143664E+02 0.  0.
        254    2    1    2    0    0  0.54867147228E+03 -0.36017278808E+03 -0.15075364097E+03  0.11246848539E+04  0.90079106269E+03 0.  0.
         23    2    4    4    0    0  0.33580906138E+03  0.26832089196E+03 -0.60267365950E+01  0.43966493374E+03  0.92223129649E+02 0.  0.
         23    2    4    4    0    0  0.21286241091E+03 -0.62849368004E+03 -0.14472690437E+03  0.68501992019E+03  0.89396321895E+02 0.  0.
          1    1    3    3  502    0 -0.44120618580E+03  0.32213639360E+03  0.27100035444E+04  0.27645169496E+04  0.00000000000E+00 0. -1.
         -2    1    3    3    0  502 -0.10746528648E+03  0.38036394476E+02  0.64909182214E+03  0.65902636417E+03  0.00000000000E+00 0.  1.
         13    1    5    5    0    0  0.61426645505E+02  0.28809054349E+02 -0.31005198091E+02  0.74595688207E+02  0.00000000000E+00 0. -1.
        -13    1    5    5    0    0  0.27438241587E+03  0.23951183762E+03  0.24978461496E+02  0.36506924554E+03  0.00000000000E+00 0.  1.
          3    1    6    6  503    0  0.21010833828E+02 -0.99994577011E+02  0.77372392739E+01  0.10247065649E+03  0.00000000000E+00 0. -1.
         -3    1    6    6    0  503  0.19185157708E+03 -0.52849910303E+03 -0.15246414365E+03  0.58254926370E+03  0.00000000000E+00 0.  1.
<mgrwt>
<rscale>  0 0.32238056E+04</rscale>
<asrwt>0</asrwt>
<pdfrwt beam="1">  1        1 0.59665921E+00 0.32238056E+04</pdfrwt>
<pdfrwt beam="2">  1       -2 0.10306819E+00 0.32238056E+04</pdfrwt>
<totfact> 0.69033377E-02</totfact>
</mgrwt>
</event>
<event>
12    5  0.5428626E-008  0.1937203E+04  0.7818608E-02  0.8636556E-01
         -2   -1    0    0    0  501 -0.00000000000E+00  0.00000000000E+00  0.50532427318E+03  0.50532427318E+03  0.00000000000E+00 0.  1.
          1   -1    0    0  501    0  0.00000000000E+00 -0.00000000000E+00 -0.18566078622E+04  0.18566078622E+04  0.00000000000E+00 0. -1.
        -24    2    1    2    0    0  0.24445737220E+03  0.47183010067E+03  0.12829320919E+03  0.55239722694E+03  0.79375676914E+02 0.  0.
        254    2    1    2    0    0 -0.24445737220E+03 -0.47183010067E+03 -0.14795767982E+04  0.18095349084E+04  0.89603907968E+03 0.  0.
         23    2    4    4    0    0 -0.16350016277E+03 -0.57469985134E+03 -0.15285392940E+04  0.16436189524E+04  0.89658601486E+02 0.  0.
         23    2    4    4    0    0 -0.80957209428E+02  0.10286975067E+03  0.48962495841E+02  0.16591595605E+03  0.89412097126E+02 0.  0.
          1    1    3    3  502    0  0.33419816366E+02  0.76134216324E+02  0.50396052000E+02  0.97226874260E+02  0.00000000000E+00 0. -1.
         -2    1    3    3    0  502  0.21103755583E+03  0.39569588434E+03  0.77897157193E+02  0.45517035268E+03  0.00000000000E+00 0.  1.
         13    1    5    5    0    0 -0.31149788288E+02 -0.63500557896E+02 -0.11924681987E+03  0.13864499346E+03  0.00000000000E+00 0. -1.
        -13    1    5    5    0    0 -0.13235037448E+03 -0.51119929344E+03 -0.14092924742E+04  0.15049739589E+04  0.00000000000E+00 0.  1.
          1    1    6    6  503    0 -0.54956046305E+02  0.37355048055E+02 -0.17840788570E+02  0.68803055001E+02  0.00000000000E+00 0. -1.
         -1    1    6    6    0  503 -0.26001163123E+02  0.65514702617E+02  0.66803284411E+02  0.97112901052E+02  0.00000000000E+00 0.  1.
<mgrwt>
<rscale>  0 0.19372032E+04</rscale>
<asrwt>0</asrwt>
<pdfrwt beam="1">  1        1 0.28563198E+00 0.19372032E+04</pdfrwt>
<pdfrwt beam="2">  1       -2 0.77742195E-01 0.19372032E+04</pdfrwt>
<totfact> 0.45007462E+00</totfact>
</mgrwt>
</event>
<event>
12    5  0.5428626E-008  0.1419570E+04  0.7818608E-02  0.8939774E-01
         -2   -1    0    0    0  501 -0.00000000000E+00  0.00000000000E+00  0.21812588231E+03  0.21812588231E+03  0.00000000000E+00 0.  1.
          1   -1    0    0  501    0  0.00000000000E+00 -0.00000000000E+00 -0.23096498011E+04  0.23096498011E+04  0.00000000000E+00 0. -1.
        -24    2    1    2    0    0 -0.43067608069E+02  0.34958880189E+03 -0.22376947896E+03  0.42505887130E+03  0.80840058676E+02 0.  0.
        254    2    1    2    0    0  0.43067608069E+02 -0.34958880189E+03 -0.18677544398E+04  0.21027168121E+04  0.89935765696E+03 0.  0.
         23    2    4    4    0    0  0.45013911809E+03 -0.17924618528E+03 -0.11962178217E+04  0.12940004855E+04  0.93518762216E+02 0.  0.
         23    2    4    4    0    0 -0.40707151002E+03 -0.17034261661E+03 -0.67153661809E+03  0.80871632659E+03  0.91306331394E+02 0.  0.
          3    1    3    3  502    0 -0.41750964192E+02  0.16502532506E+03 -0.14791426570E+03  0.22551082218E+03  0.00000000000E+00 0. -1.
         -4    1    3    3    0  502 -0.13166438771E+01  0.18456347683E+03 -0.75855213260E+02  0.19954804912E+03  0.00000000000E+00 0.  1.
         13    1    5    5    0    0  0.68979045846E+02 -0.29072262970E+02 -0.28960399639E+03  0.29912168087E+03  0.00000000000E+00 0. -1.
        -13    1    5    5    0    0  0.38116007225E+03 -0.15017392231E+03 -0.90661382532E+03  0.99487880462E+03  0.00000000000E+00 0.  1.
          1    1    6    6  503    0 -0.10079743591E+03 -0.45070135384E+02 -0.24616173897E+03  0.26979073728E+03  0.00000000000E+00 0. -1.
         -1    1    6    6    0  503 -0.30627407412E+03 -0.12527248123E+03 -0.42537487912E+03  0.53892558931E+03  0.00000000000E+00 0.  1.
<mgrwt>
<rscale>  0 0.14195695E+04</rscale>
<asrwt>0</asrwt>
<pdfrwt beam="1">  1        1 0.35533071E+00 0.14195695E+04</pdfrwt>
<pdfrwt beam="2">  1       -2 0.33557830E-01 0.14195695E+04</pdfrwt>
<totfact> 0.13035816E+01</totfact>
</mgrwt>
</event>
<event>
12    5  0.5428626E-008  0.1957157E+04  0.7818608E-02  0.8626917E-01
         -4   -1    0    0    0  501 -0.00000000000E+00  0.00000000000E+00  0.26644730681E+04  0.26644730681E+04  0.00000000000E+00 0.  1.
          3   -1    0    0  501    0  0.00000000000E+00 -0.00000000000E+00 -0.35940171571E+03  0.35940171571E+03  0.00000000000E+00 0. -1.
        -24    2    1    2    0    0  0.15677532149E+03  0.23682764735E+03  0.20294230295E+04  0.20507715931E+04  0.80252466103E+02 0.  0.
        254    2    1    2    0    0 -0.15677532149E+03 -0.23682764735E+03  0.27564832293E+03  0.97310319077E+03  0.88897805708E+03 0.  0.
         23    2    4    4    0    0 -0.42638189876E+03  0.14242506992E+03  0.15153578377E+03  0.48304505425E+03  0.91011024280E+02 0.  0.
         23    2    4    4    0    0  0.26960657727E+03 -0.37925271727E+03  0.12411253916E+03  0.49005813652E+03  0.90734363503E+02 0.  0.
          1    1    3    3  502    0  0.20491590954E+02  0.24441341067E+02  0.10123676634E+03  0.10614220325E+03  0.00000000000E+00 0. -1.
         -2    1    3    3    0  502  0.13628373054E+03  0.21238630629E+03  0.19281862631E+04  0.19446293898E+04  0.00000000000E+00 0.  1.
         13    1    5    5    0    0 -0.10878939076E+03  0.60412861427E+02  0.78093315888E+02  0.14691293801E+03  0.00000000000E+00 0. -1.
        -13    1    5    5    0    0 -0.31759250801E+03  0.82012208492E+02  0.73442467877E+02  0.33613211625E+03  0.00000000000E+00 0.  1.
          1    1    6    6  503    0  0.34251661353E+02 -0.64748933749E+02  0.54073220544E+02  0.91046767691E+02  0.00000000000E+00 0. -1.
         -1    1    6    6    0  503  0.23535491592E+03 -0.31450378352E+03  0.70039318619E+02  0.39901136882E+03  0.00000000000E+00 0.  1.
<mgrwt>
<rscale>  0 0.19571573E+04</rscale>
<asrwt>0</asrwt>
<pdfrwt beam="1">  1        3 0.55292573E-01 0.19571573E+04</pdfrwt>
<pdfrwt beam="2">  1       -4 0.40991892E+00 0.19571573E+04</pdfrwt>
<totfact> 0.40048022E-02</totfact>
</mgrwt>
</event>
<event>
12    5  0.5428626E-008  0.1703065E+04  0.7818608E-02  0.8759618E-01
          1   -1    0    0  501    0  0.00000000000E+00  0.00000000000E+00  0.23935653381E+04  0.23935653381E+04  0.00000000000E+00 0. -1.
         -2   -1    0    0    0  501 -0.00000000000E+00 -0.00000000000E+00 -0.30294044721E+03  0.30294044721E+03  0.00000000000E+00 0.  1.
        -24    2    1    2    0    0 -0.13829636918E+03  0.52265413646E+03  0.11944603392E+04  0.13155775680E+04  0.10823864081E+03 0.  0.
        254    2    1    2    0    0  0.13829636918E+03 -0.52265413646E+03  0.89616455161E+03  0.13809282173E+04  0.90086547584E+03 0.  0.
         23    2    4    4    0    0  0.17790904651E+03 -0.31229024877E+03  0.10420258159E+04  0.11060656390E+04  0.91578209238E+02 0.  0.
         23    2    4    4    0    0 -0.39612677325E+02 -0.21036388770E+03 -0.14586126432E+03  0.27486257826E+03  0.91933666553E+02 0.  0.
          3    1    3    3  502    0  0.54141711499E+00  0.11657662329E+03  0.18483444777E+03  0.21852728734E+03  0.00000000000E+00 0. -1.
         -4    1    3    3    0  502 -0.13883778630E+03  0.40607751318E+03  0.10096258915E+04  0.10970502807E+04  0.00000000000E+00 0.  1.
         13    1    5    5    0    0 -0.82910794515E+01 -0.39021479168E+02  0.98479010459E+02  0.10625221568E+03  0.00000000000E+00 0. -1.
        -13    1    5    5    0    0  0.18620012596E+03 -0.27326876960E+03  0.94354680547E+03  0.99981342332E+03  0.00000000000E+00 0.  1.
          3    1    6    6  503    0  0.24770986869E+02 -0.10087908146E+03 -0.83982365007E+02  0.13357854805E+03  0.00000000000E+00 0. -1.
         -3    1    6    6    0  503 -0.64383664194E+02 -0.10948480624E+03 -0.61878899309E+02  0.14128403021E+03  0.00000000000E+00 0.  1.
<mgrwt>
<rscale>  0 0.17030652E+04</rscale>
<asrwt>0</asrwt>
<pdfrwt beam="1">  1        1 0.36824081E+00 0.17030652E+04</pdfrwt>
<pdfrwt beam="2">  1       -2 0.46606224E-01 0.17030652E+04</pdfrwt>
<totfact> 0.58591855E+00</totfact>
</mgrwt>
</event>
<event>
12    5  0.5428626E-008  0.1621276E+04  0.7818608E-02  0.8807583E-01
          1   -1    0    0  501    0  0.00000000000E+00  0.00000000000E+00  0.19308872266E+04  0.19308872266E+04  0.00000000000E+00 0. -1.
         -2   -1    0    0    0  501 -0.00000000000E+00 -0.00000000000E+00 -0.34032742982E+03  0.34032742982E+03  0.00000000000E+00 0.  1.
        -24    2    1    2    0    0 -0.41303926717E+03  0.11077044279E+03  0.50940205521E+02  0.43798953861E+03  0.79802281756E+02 0.  0.
        254    2    1    2    0    0  0.41303926717E+03 -0.11077044279E+03  0.15396195912E+04  0.18332251178E+04  0.89856236265E+03 0.  0.
         23    2    4    4    0    0  0.50750294827E+03  0.21838631975E+03  0.12701749254E+04  0.13882927764E+04  0.93598422661E+02 0.  0.
         23    2    4    4    0    0 -0.94463681104E+02 -0.32915676254E+03  0.26944466582E+03  0.44493234138E+03  0.89982215446E+02 0.  0.
          3    1    3    3  502    0 -0.34500860085E+02 -0.11162214736E+02 -0.41568193429E+01  0.36499089461E+02  0.00000000000E+00 0. -1.
         -4    1    3    3    0  502 -0.37853840708E+03  0.12193265752E+03  0.55097024864E+02  0.40149044915E+03  0.00000000000E+00 0.  1.
         13    1    5    5    0    0  0.51112575479E+03  0.21970719271E+03  0.12638848113E+04  0.13809147707E+04  0.00000000000E+00 0. -1.
        -13    1    5    5    0    0 -0.36228065231E+01 -0.13208729594E+01  0.62901141108E+01  0.73780056930E+01  0.00000000000E+00 0.  1.
          1    1    6    6  503    0 -0.56995352102E+02 -0.15981029876E+03  0.78419775042E+02  0.18691565709E+03  0.00000000000E+00 0. -1.
         -1    1    6    6    0  503 -0.37468329002E+02 -0.16934646378E+03  0.19102489078E+03  0.25801668429E+03  0.00000000000E+00 0.  1.
<mgrwt>
<rscale>  0 0.16212759E+04</rscale>
<asrwt>0</asrwt>
<pdfrwt beam="1">  1        1 0.29705957E+00 0.16212759E+04</pdfrwt>
<pdfrwt beam="2">  1       -2 0.52358067E-01 0.16212759E+04</pdfrwt>
<totfact> 0.96138776E+00</totfact>
</mgrwt>
</event>
<event>
12    5  0.5428626E-008  0.2946080E+04  0.7818608E-02  0.8259298E-01
         -2   -1    0    0    0  501 -0.00000000000E+00  0.00000000000E+00  0.93575256872E+03  0.93575256872E+03  0.00000000000E+00 0.  1.
          1   -1    0    0  501    0  0.00000000000E+00 -0.00000000000E+00 -0.23188262019E+04  0.23188262019E+04  0.00000000000E+00 0. -1.
        -24    2    1    2    0    0 -0.99227652552E+03  0.72359133689E+03 -0.12009372456E+04  0.17195492586E+04  0.80014116684E+02 0.  0.
        254    2    1    2    0    0  0.99227652552E+03 -0.72359133689E+03 -0.18213638755E+03  0.15350295120E+04  0.90274293859E+03 0.  0.
         23    2    4    4    0    0  0.43670942966E+03 -0.20453708939E+03 -0.50495276096E+03  0.70426479749E+03  0.91984059960E+02 0.  0.
         23    2    4    4    0    0  0.55556709586E+03 -0.51905424750E+03  0.32281637341E+03  0.83076471453E+03  0.88811542695E+02 0.  0.
          3    1    3    3  502    0 -0.85648312772E+03  0.59411889110E+03 -0.10380388563E+04  0.14710762292E+04  0.00000000000E+00 0. -1.
         -4    1    3    3    0  502 -0.13579339780E+03  0.12947244579E+03 -0.16289838927E+03  0.24847302938E+03  0.00000000000E+00 0.  1.
         13    1    5    5    0    0  0.64042752159E+02 -0.21816927133E+02 -0.12215527001E+03  0.13964011746E+03  0.00000000000E+00 0.  1.
        -13    1    5    5    0    0  0.37266667750E+03 -0.18272016225E+03 -0.38279749095E+03  0.56462468003E+03  0.00000000000E+00 0. -1.
          1    1    6    6  503    0  0.29620174232E+03 -0.25446538917E+03  0.21042089689E+03  0.44358207841E+03  0.00000000000E+00 0. -1.
         -1    1    6    6    0  503  0.25936535353E+03 -0.26458885833E+03  0.11239547651E+03  0.38718263611E+03  0.00000000000E+00 0.  1.
<mgrwt>
<rscale>  0 0.29460805E+04</rscale>
<asrwt>0</asrwt>
<pdfrwt beam="1">  1        1 0.35674249E+00 0.29460805E+04</pdfrwt>
<pdfrwt beam="2">  1       -2 0.14396193E+00 0.29460805E+04</pdfrwt>
<totfact> 0.45355578E-01</totfact>
</mgrwt>
</event>
<event>
12    5  0.5428626E-008  0.1902507E+04  0.7818608E-02  0.8653609E-01
          1   -1    0    0  501    0  0.00000000000E+00  0.00000000000E+00  0.61692612184E+03  0.61692612184E+03  0.00000000000E+00 0. -1.
         -2   -1    0    0    0  501 -0.00000000000E+00 -0.00000000000E+00 -0.14667617558E+04  0.14667617558E+04  0.00000000000E+00 0.  1.
        -24    2    1    2    0    0  0.24914039530E+02 -0.68669625671E+03 -0.61830988919E+03  0.92780873776E+03  0.79683602115E+02 0.  0.
        254    2    1    2    0    0 -0.24914039530E+02  0.68669625671E+03 -0.23152574477E+03  0.11558791399E+04  0.90015551833E+03 0.  0.
         23    2    4    4    0    0 -0.36550640187E+03  0.47635469232E+03  0.11611424269E+03  0.61809194888E+03  0.89701823891E+02 0.  0.
         23    2    4    4    0    0  0.34059236234E+03  0.21034156439E+03 -0.34763998746E+03  0.53778719101E+03  0.90082023382E+02 0.  0.
          3    1    3    3  502    0 -0.17914040246E+02 -0.42341055803E+02 -0.40683074514E+02  0.61390474801E+02  0.00000000000E+00 0. -1.
         -4    1    3    3    0  502  0.42828079776E+02 -0.64435520091E+03 -0.57762681467E+03  0.86641826295E+03  0.00000000000E+00 0.  1.
         13    1    5    5    0    0 -0.21828427498E+03  0.23092997954E+03  0.92330594679E+02  0.33091028825E+03  0.00000000000E+00 0.  1.
        -13    1    5    5    0    0 -0.14722212688E+03  0.24542471279E+03  0.23783648008E+02  0.28718166063E+03  0.00000000000E+00 0. -1.
          1    1    6    6  503    0  0.17530519128E+02 -0.73541112134E+01 -0.28147808923E+02  0.33966177292E+02  0.00000000000E+00 0. -1.
         -1    1    6    6    0  503  0.32306184321E+03  0.21769567560E+03 -0.31949217854E+03  0.50382101371E+03  0.00000000000E+00 0.  1.
<mgrwt>
<rscale>  0 0.19025074E+04</rscale>
<asrwt>0</asrwt>
<pdfrwt beam="1">  1        1 0.94911712E-01 0.19025074E+04</pdfrwt>
<pdfrwt beam="2">  1       -2 0.22565565E+00 0.19025074E+04</pdfrwt>
<totfact> 0.24510934E+00</totfact>
</mgrwt>
</event>
<event>
12    5  0.5428626E-008  0.1454770E+04  0.7818608E-02  0.8915100E-01
         -2   -1    0    0    0  501 -0.00000000000E+00  0.00000000000E+00  0.42856966754E+03  0.42856966754E+03  0.00000000000E+00 0.  1.
          1   -1    0    0  501    0  0.00000000000E+00 -0.00000000000E+00 -0.12345453280E+04  0.12345453280E+04  0.00000000000E+00 0. -1.
        -24    2    1    2    0    0 -0.31641876706E+03 -0.68410149917E+02  0.11297084725E+03  0.35197352028E+03  0.79512023561E+02 0.  0.
        254    2    1    2    0    0  0.31641876706E+03  0.68410149917E+02 -0.91894650775E+03  0.13111414753E+04  0.87739871174E+03 0.  0.
         23    2    4    4    0    0  0.17900856872E+03  0.42107107310E+03 -0.22974768883E+03  0.51984839254E+03  0.90074604782E+02 0.  0.
         23    2    4    4    0    0  0.13741019834E+03 -0.35266092318E+03 -0.68919881892E+03  0.79129308275E+03  0.88873176287E+02 0.  0.
          3    1    3    3  502    0  0.32370992943E+01 -0.69869073846E+01  0.10810563000E+01  0.77758838319E+01  0.00000000000E+00 0. -1.
         -4    1    3    3    0  502 -0.31965586636E+03 -0.61423242532E+02  0.11188979095E+03  0.34419763645E+03  0.00000000000E+00 0.  1.
         13    1    5    5    0    0  0.73804744068E+02  0.99647919737E+02 -0.31956141243E+02  0.12805484418E+03  0.00000000000E+00 0. -1.
        -13    1    5    5    0    0  0.10520382465E+03  0.32142315336E+03 -0.19779154759E+03  0.39179354836E+03  0.00000000000E+00 0.  1.
          3    1    6    6  503    0  0.20006606427E+02 -0.16883470435E+02 -0.18340822329E+02  0.31964067925E+02  0.00000000000E+00 0. -1.
         -3    1    6    6    0  503  0.11740359192E+03 -0.33577745275E+03 -0.67085799659E+03  0.75932901483E+03  0.00000000000E+00 0.  1.
<mgrwt>
<rscale>  0 0.14547696E+04</rscale>
<asrwt>0</asrwt>
<pdfrwt beam="1">  1        1 0.18993005E+00 0.14547696E+04</pdfrwt>
<pdfrwt beam="2">  1       -2 0.65933795E-01 0.14547696E+04</pdfrwt>
<totfact> 0.18178225E+01</totfact>
</mgrwt>
</event>
<event>
12    5  0.5428626E-008  0.2005708E+04  0.7818608E-02  0.8603956E-01
         -2   -1    0    0    0  501 -0.00000000000E+00  0.00000000000E+00  0.52507393723E+03  0.52507393723E+03  0.00000000000E+00 0.  1.
          1   -1    0    0  501    0  0.00000000000E+00 -0.00000000000E+00 -0.19153806565E+04  0.19153806565E+04  0.00000000000E+00 0. -1.
        -24    2    1    2    0    0 -0.14477844057E+03  0.53538439459E+03  0.14295264181E+03  0.57821556357E+03  0.79375898896E+02 0.  0.
        254    2    1    2    0    0  0.14477844057E+03 -0.53538439459E+03 -0.15332593611E+04  0.18622390302E+04  0.89969588768E+03 0.  0.
         23    2    4    4    0    0 -0.75161933559E+00 -0.53000692868E+02 -0.12922945813E+04  0.12966455187E+04  0.91949321587E+02 0.  0.
         23    2    4    4    0    0  0.14553005990E+03 -0.48238370172E+03 -0.24096477978E+03  0.56559351153E+03  0.89213010079E+02 0.  0.
          3    1    3    3  502    0 -0.81536733630E+02  0.37569271887E+03  0.13058712232E+03  0.40601262845E+03  0.00000000000E+00 0. -1.
         -2    1    3    3    0  502 -0.63241706938E+02  0.15969167572E+03  0.12365519484E+02  0.17220293512E+03  0.00000000000E+00 0.  1.
         13    1    5    5    0    0 -0.17628125573E+00  0.21213111847E+02 -0.60182853158E+03  0.60220229874E+03  0.00000000000E+00 0.  1.
        -13    1    5    5    0    0 -0.57533807986E+00 -0.74213804715E+02 -0.69046604976E+03  0.69444321992E+03  0.00000000000E+00 0. -1.
          3    1    6    6  503    0  0.87091748046E+02 -0.19296932124E+03 -0.63155439937E+02  0.22093153037E+03  0.00000000000E+00 0. -1.
         -3    1    6    6    0  503  0.58438311858E+02 -0.28941438048E+03 -0.17780933984E+03  0.34466198116E+03  0.00000000000E+00 0.  1.
<mgrwt>
<rscale>  0 0.20057083E+04</rscale>
<asrwt>0</asrwt>
<pdfrwt beam="1">  1        1 0.29467395E+00 0.20057083E+04</pdfrwt>
<pdfrwt beam="2">  1       -2 0.80780605E-01 0.20057083E+04</pdfrwt>
<totfact> 0.37452482E+00</totfact>
</mgrwt>
</event>
